<event>
 8    1  0.8600524E-011  0.9118800E+02  0.7816164E-02  0.1184000E+00
        -11   -1    0    0    0    0  0.00000000000E+00  0.00000000000E+00  0.45593999997E+02  0.45594000000E+02  0.51100000000E-03 0. -1.
         11   -1    0    0    0    0 -0.00000000000E+00 -0.00000000000E+00 -0.45593999997E+02  0.45594000000E+02  0.51100000000E-03 0.  1.
         23    2    1    2    0    0  0.22204460493E-15  0.00000000000E+00  0.00000000000E+00  0.91188000000E+02  0.91188000000E+02 0.  0.
    9900012    2    3    3    0    0 -0.45162088080E+00  0.20903593888E+02 -0.38032341453E+02  0.47787271950E+02  0.20000004130E+02 0.  0.
         12    1    3    3    0    0  0.45162088080E+00 -0.20903593888E+02  0.38032341453E+02  0.43400728050E+02  0.00000000000E+00 0. -1.
         11    1    4    4    0    0  0.22238006919E+01  0.25157646880E+01  0.13942867363E+01  0.36357113812E+01  0.51100000000E-03 0. -1.
        -11    1    4    4    0    0  0.17213174320E+01  0.65504232747E+01 -0.18612537647E+02  0.19806502385E+02  0.51100000000E-03 0.  1.
         12    1    4    4    0    0 -0.43967390047E+01  0.11837405925E+02 -0.20814090542E+02  0.24345058184E+02  0.00000000000E+00 0. -1.
</event>
<event>
 8    1  0.8600524E-011  0.9118800E+02  0.7816164E-02  0.1184000E+00
        -11   -1    0    0    0    0  0.00000000000E+00  0.00000000000E+00  0.45593999997E+02  0.45594000000E+02  0.51100000000E-03 0.  1.
         11   -1    0    0    0    0 -0.00000000000E+00 -0.00000000000E+00 -0.45593999997E+02  0.45594000000E+02  0.51100000000E-03 0. -1.
         23    2    1    2    0    0  0.71054273576E-14  0.35527136788E-14  0.00000000000E+00  0.91188000000E+02  0.91188000000E+02 0.  0.
    9900012    2    3    3    0    0 -0.21334749191E+02 -0.24591673299E+02  0.28700202264E+02  0.47787268109E+02  0.19999986616E+02 0.  0.
        -12    1    3    3    0    0  0.21334749191E+02  0.24591673299E+02 -0.28700202264E+02  0.43400731891E+02  0.00000000000E+00 0.  1.
         11    1    4    4    0    0 -0.16043925287E+02 -0.11962526233E+02  0.14916033987E+02  0.24959920726E+02  0.51100000000E-03 0. -1.
        -11    1    4    4    0    0  0.23172881380E+01  0.56072145864E+00  0.42172454410E+01  0.48445218793E+01  0.51100000000E-03 0.  1.
        -12    1    4    4    0    0 -0.76081120418E+01 -0.13189868524E+02  0.95669228363E+01  0.17982825503E+02  0.00000000000E+00 0.  1.
</event>
<event>
 8    1  0.8600524E-011  0.9118800E+02  0.7816164E-02  0.1184000E+00
        -11   -1    0    0    0    0  0.00000000000E+00  0.00000000000E+00  0.45593999997E+02  0.45594000000E+02  0.51100000000E-03 0. -1.
         11   -1    0    0    0    0 -0.00000000000E+00 -0.00000000000E+00 -0.45593999997E+02  0.45594000000E+02  0.51100000000E-03 0.  1.
         23    2    1    2    0    0  0.00000000000E+00 -0.88817841970E-15  0.00000000000E+00  0.91188000000E+02  0.91188000000E+02 0.  0.
    9900012    2    3    3    0    0 -0.42365148068E+01 -0.55198171801E+01  0.42839317262E+02  0.47787267945E+02  0.19999985870E+02 0.  0.
        -12    1    3    3    0    0  0.42365148068E+01  0.55198171801E+01 -0.42839317262E+02  0.43400732055E+02  0.00000000000E+00 0.  1.
         11    1    4    4    0    0 -0.25595174131E+01 -0.17736049382E+01 -0.80983448836E+00  0.32175512466E+01  0.51100000000E-03 0. -1.
        -11    1    4    4    0    0  0.13635694279E+01  0.14408261366E+01  0.39745092852E+01  0.44420744996E+01  0.51100000000E-03 0.  1.
         12    1    4    4    0    0 -0.30405668215E+01 -0.51870383785E+01  0.39674642465E+02  0.40127642199E+02  0.00000000000E+00 0. -1.
</event>
<event>
 8    1  0.8600524E-011  0.9118800E+02  0.7816164E-02  0.1184000E+00
        -11   -1    0    0    0    0  0.00000000000E+00  0.00000000000E+00  0.45593999997E+02  0.45594000000E+02  0.51100000000E-03 0. -1.
         11   -1    0    0    0    0 -0.00000000000E+00 -0.00000000000E+00 -0.45593999997E+02  0.45594000000E+02  0.51100000000E-03 0.  1.
         23    2    1    2    0    0  0.00000000000E+00  0.00000000000E+00  0.00000000000E+00  0.91188000000E+02  0.91188000000E+02 0.  0.
    9900012    2    3    3    0    0 -0.57924206548E+01 -0.53063793974E+01 -0.42683875466E+02  0.47787273922E+02  0.20000013119E+02 0.  0.
         12    1    3    3    0    0  0.57924206548E+01  0.53063793974E+01  0.42683875466E+02  0.43400726078E+02  0.00000000000E+00 0. -1.
         11    1    4    4    0    0 -0.70091568794E+01 -0.65054297676E+01 -0.97066198324E+01  0.13625981266E+02  0.51100000000E-03 0. -1.
        -11    1    4    4    0    0 -0.28333725060E+01  0.24721003101E+01 -0.81752899653E+01  0.89985913330E+01  0.51100000000E-03 0.  1.
         12    1    4    4    0    0  0.40501087306E+01 -0.12730499399E+01 -0.24801965668E+02  0.25162701323E+02  0.00000000000E+00 0. -1.
</event>
<event>
 8    1  0.8600524E-011  0.9118800E+02  0.7816164E-02  0.1184000E+00
        -11   -1    0    0    0    0  0.00000000000E+00  0.00000000000E+00  0.45593999997E+02  0.45594000000E+02  0.51100000000E-03 0. -1.
         11   -1    0    0    0    0 -0.00000000000E+00 -0.00000000000E+00 -0.45593999997E+02  0.45594000000E+02  0.51100000000E-03 0.  1.
         23    2    1    2    0    0  0.00000000000E+00  0.00000000000E+00  0.00000000000E+00  0.91188000000E+02  0.91188000000E+02 0.  0.
    9900012    2    3    3    0    0  0.32166337521E+02  0.19591726947E+02 -0.21566509034E+02  0.47787270211E+02  0.19999996201E+02 0.  0.
         12    1    3    3    0    0 -0.32166337521E+02 -0.19591726947E+02  0.21566509034E+02  0.43400729789E+02  0.00000000000E+00 0. -1.
         11    1    4    4    0    0  0.19666791076E+01  0.47378988902E+00  0.26358134662E+01  0.33226219257E+01  0.51100000000E-03 0. -1.
        -11    1    4    4    0    0  0.30960847945E+02  0.18793066358E+02 -0.24324059747E+02  0.43628125464E+02  0.51100000000E-03 0.  1.
        -12    1    4    4    0    0 -0.76118953141E+00  0.32487069953E+00  0.12173724703E+00  0.83652282183E+00  0.00000000000E+00 0.  1.
</event>
<event>
 8    1  0.8600524E-011  0.9118800E+02  0.7816164E-02  0.1184000E+00
        -11   -1    0    0    0    0  0.00000000000E+00  0.00000000000E+00  0.45593999997E+02  0.45594000000E+02  0.51100000000E-03 0. -1.
         11   -1    0    0    0    0 -0.00000000000E+00 -0.00000000000E+00 -0.45593999997E+02  0.45594000000E+02  0.51100000000E-03 0.  1.
         23    2    1    2    0    0  0.22204460493E-15  0.17763568394E-14  0.00000000000E+00  0.91188000000E+02  0.91188000000E+02 0.  0.
    9900012    2    3    3    0    0  0.18700276421E+01 -0.12172388216E+02 -0.41616816092E+02  0.47787269363E+02  0.19999992332E+02 0.  0.
         12    1    3    3    0    0 -0.18700276421E+01  0.12172388216E+02  0.41616816092E+02  0.43400730637E+02  0.00000000000E+00 0. -1.
         11    1    4    4    0    0  0.32333614912E+01 -0.83974752903E+00 -0.19448693297E+01  0.38655296423E+01  0.51100000000E-03 0. -1.
        -11    1    4    4    0    0  0.24467446925E+01  0.29040676784E+01 -0.11759634496E+02  0.12357555276E+02  0.51100000000E-03 0.  1.
        -12    1    4    4    0    0 -0.38100785415E+01 -0.14236708365E+02 -0.27912312266E+02  0.31564184444E+02  0.00000000000E+00 0.  1.
</event>
<event>
 8    1  0.8600524E-011  0.9118800E+02  0.7816164E-02  0.1184000E+00
        -11   -1    0    0    0    0  0.00000000000E+00  0.00000000000E+00  0.45593999997E+02  0.45594000000E+02  0.51100000000E-03 0. -1.
         11   -1    0    0    0    0 -0.00000000000E+00 -0.00000000000E+00 -0.45593999997E+02  0.45594000000E+02  0.51100000000E-03 0.  1.
         23    2    1    2    0    0  0.66613381478E-15  0.00000000000E+00  0.00000000000E+00  0.91188000000E+02  0.91188000000E+02 0.  0.
    9900012    2    3    3    0    0 -0.19225670141E+01 -0.48380634695E+01 -0.43087351547E+02  0.47787274368E+02  0.20000015155E+02 0.  0.
         12    1    3    3    0    0  0.19225670141E+01  0.48380634695E+01  0.43087351547E+02  0.43400725632E+02  0.00000000000E+00 0. -1.
         11    1    4    4    0    0 -0.75957773057E+01 -0.60075433537E+00 -0.17302985608E+02  0.18906349459E+02  0.51100000000E-03 0. -1.
        -11    1    4    4    0    0  0.30271469855E+01 -0.78094911116E+01 -0.14389510124E+02  0.16649617779E+02  0.51100000000E-03 0.  1.
         12    1    4    4    0    0  0.26460633060E+01  0.35721819775E+01 -0.11394855815E+02  0.12231307131E+02  0.00000000000E+00 0. -1.
</event>
<event>
 8    1  0.8600524E-011  0.9118800E+02  0.7816164E-02  0.1184000E+00
        -11   -1    0    0    0    0  0.00000000000E+00  0.00000000000E+00  0.45593999997E+02  0.45594000000E+02  0.51100000000E-03 0. -1.
         11   -1    0    0    0    0 -0.00000000000E+00 -0.00000000000E+00 -0.45593999997E+02  0.45594000000E+02  0.51100000000E-03 0.  1.
         23    2    1    2    0    0  0.00000000000E+00  0.00000000000E+00  0.00000000000E+00  0.91188000000E+02  0.91188000000E+02 0.  0.
    9900012    2    3    3    0    0 -0.26728140803E+02  0.12031723009E+02 -0.32007301867E+02  0.47787271410E+02  0.20000001665E+02 0.  0.
         12    1    3    3    0    0  0.26728140803E+02 -0.12031723009E+02  0.32007301867E+02  0.43400728590E+02  0.00000000000E+00 0. -1.
         11    1    4    4    0    0 -0.83157938098E+00  0.13015829363E+01 -0.55283548101E+00  0.16405089872E+01  0.51100000000E-03 0. -1.
        -11    1    4    4    0    0 -0.92750542800E+01  0.92310563703E+00 -0.23484887892E+02  0.25266949074E+02  0.51100000000E-03 0.  1.
        -12    1    4    4    0    0 -0.16621507142E+02  0.98070344360E+01 -0.79695784933E+01  0.20879813349E+02  0.00000000000E+00 0.  1.
</event>
<event>
 8    1  0.8600524E-011  0.9118800E+02  0.7816164E-02  0.1184000E+00
        -11   -1    0    0    0    0  0.00000000000E+00  0.00000000000E+00  0.45593999997E+02  0.45594000000E+02  0.51100000000E-03 0. -1.
         11   -1    0    0    0    0 -0.00000000000E+00 -0.00000000000E+00 -0.45593999997E+02  0.45594000000E+02  0.51100000000E-03 0.  1.
         23    2    1    2    0    0  0.00000000000E+00  0.00000000000E+00  0.00000000000E+00  0.91188000000E+02  0.91188000000E+02 0.  0.
    9900012    2    3    3    0    0  0.43204706014E+01  0.17550455587E+02 -0.39458027905E+02  0.47787298119E+02  0.20000123445E+02 0.  0.
         12    1    3    3    0    0 -0.43204706014E+01 -0.17550455587E+02  0.39458027905E+02  0.43400701881E+02  0.00000000000E+00 0. -1.
         11    1    4    4    0    0  0.29688488149E+01  0.20340334953E+01 -0.10360338948E+02  0.10967587653E+02  0.51100000000E-03 0. -1.
        -11    1    4    4    0    0  0.42496277303E+01  0.17936237317E+02 -0.26319329307E+02  0.32132149638E+02  0.51100000000E-03 0.  1.
        -12    1    4    4    0    0 -0.28980059438E+01 -0.24198152250E+01 -0.27783596507E+01  0.46875608286E+01  0.00000000000E+00 0.  1.
</event>
<event>
 8    1  0.8600524E-011  0.9118800E+02  0.7816164E-02  0.1184000E+00
        -11   -1    0    0    0    0  0.00000000000E+00  0.00000000000E+00  0.45593999997E+02  0.45594000000E+02  0.51100000000E-03 0.  1.
         11   -1    0    0    0    0 -0.00000000000E+00 -0.00000000000E+00 -0.45593999997E+02  0.45594000000E+02  0.51100000000E-03 0. -1.
         23    2    1    2    0    0  0.00000000000E+00  0.00000000000E+00  0.00000000000E+00  0.91188000000E+02  0.91188000000E+02 0.  0.
    9900012    2    3    3    0    0 -0.37781547351E+02  0.19189299392E+02  0.93780996673E+01  0.47787270919E+02  0.19999999428E+02 0.  0.
         12    1    3    3    0    0  0.37781547351E+02 -0.19189299392E+02 -0.93780996673E+01  0.43400729081E+02  0.00000000000E+00 0. -1.
         11    1    4    4    0    0 -0.24876153351E+02  0.84045652074E+01 -0.66876268020E+00  0.26266080135E+02  0.51100000000E-03 0. -1.
        -11    1    4    4    0    0 -0.29775494144E+00  0.15327034557E+01  0.47663072758E+01  0.50155282071E+01  0.51100000000E-03 0.  1.
         12    1    4    4    0    0 -0.12607639058E+02  0.92520307291E+01  0.52805550717E+01  0.16505662577E+02  0.00000000000E+00 0. -1.
</event>
<event>
 8    1  0.8600524E-011  0.9118800E+02  0.7816164E-02  0.1184000E+00
        -11   -1    0    0    0    0  0.00000000000E+00  0.00000000000E+00  0.45593999997E+02  0.45594000000E+02  0.51100000000E-03 0. -1.
         11   -1    0    0    0    0 -0.00000000000E+00 -0.00000000000E+00 -0.45593999997E+02  0.45594000000E+02  0.51100000000E-03 0.  1.
         23    2    1    2    0    0  0.17763568394E-14  0.00000000000E+00  0.00000000000E+00  0.91188000000E+02  0.91188000000E+02 0.  0.
    9900012    2    3    3    0    0 -0.10672756195E+02 -0.20067048421E+02  0.36973358689E+02  0.47787269478E+02  0.19999992857E+02 0.  0.
        -12    1    3    3    0    0  0.10672756195E+02  0.20067048421E+02 -0.36973358689E+02  0.43400730522E+02  0.00000000000E+00 0.  1.
         11    1    4    4    0    0 -0.31676303157E+01 -0.17518135470E+02  0.31295626001E+02  0.36004654688E+02  0.51100000000E-03 0. -1.
        -11    1    4    4    0    0 -0.68810164423E+01 -0.13167166209E+01  0.69762275248E+01  0.98868539323E+01  0.51100000000E-03 0.  1.
         12    1    4    4    0    0 -0.62410943745E+00 -0.12321963303E+01 -0.12984948371E+01  0.18957608574E+01  0.00000000000E+00 0. -1.
</event>
<event>
 8    1  0.8600524E-011  0.9118800E+02  0.7816164E-02  0.1184000E+00
        -11   -1    0    0    0    0  0.00000000000E+00  0.00000000000E+00  0.45593999997E+02  0.45594000000E+02  0.51100000000E-03 0.  1.
         11   -1    0    0    0    0 -0.00000000000E+00 -0.00000000000E+00 -0.45593999997E+02  0.45594000000E+02  0.51100000000E-03 0. -1.
         23    2    1    2    0    0 -0.35527136788E-14  0.35527136788E-14  0.00000000000E+00  0.91188000000E+02  0.91188000000E+02 0.  0.
    9900012    2    3    3    0    0 -0.26478209058E+02  0.31652443011E+02 -0.13440637017E+02  0.47787269281E+02  0.19999991960E+02 0.  0.
        -12    1    3    3    0    0  0.26478209058E+02 -0.31652443011E+02  0.13440637017E+02  0.43400730719E+02  0.00000000000E+00 0.  1.
         11    1    4    4    0    0 -0.90812848914E+01  0.11104128186E+02 -0.74094913175E+01  0.16145338643E+02  0.51100000000E-03 0. -1.
        -11    1    4    4    0    0 -0.17289455760E+02  0.21641792287E+02 -0.84707704409E+01  0.28966297761E+02  0.51100000000E-03 0.  1.
        -12    1    4    4    0    0 -0.10746840694E+00 -0.10934774611E+01  0.24396247413E+01  0.26756328774E+01  0.00000000000E+00 0.  1.
</event>
<event>
 8    1  0.8600524E-011  0.9118800E+02  0.7816164E-02  0.1184000E+00
        -11   -1    0    0    0    0  0.00000000000E+00  0.00000000000E+00  0.45593999997E+02  0.45594000000E+02  0.51100000000E-03 0.  1.
         11   -1    0    0    0    0 -0.00000000000E+00 -0.00000000000E+00 -0.45593999997E+02  0.45594000000E+02  0.51100000000E-03 0. -1.
         23    2    1    2    0    0 -0.71054273576E-14  0.00000000000E+00  0.88817841970E-15  0.91188000000E+02  0.91188000000E+02 0.  0.
    9900012    2    3    3    0    0 -0.42198712843E+02 -0.66382163910E+01  0.76698248191E+01  0.47787268495E+02  0.19999988376E+02 0.  0.
        -12    1    3    3    0    0  0.42198712843E+02  0.66382163910E+01 -0.76698248191E+01  0.43400731505E+02  0.00000000000E+00 0.  1.
         11    1    4    4    0    0 -0.15227356418E+01 -0.54672938648E+01 -0.12135640419E+01  0.58036853795E+01  0.51100000000E-03 0. -1.
        -11    1    4    4    0    0 -0.14321734205E+01  0.45914223133E+00  0.12840289452E+01  0.19775396047E+01  0.51100000000E-03 0.  1.
         12    1    4    4    0    0 -0.39243803780E+02 -0.16300647575E+01  0.75993599158E+01  0.40006043511E+02  0.00000000000E+00 0. -1.
</event>
<event>
 8    1  0.8600524E-011  0.9118800E+02  0.7816164E-02  0.1184000E+00
        -11   -1    0    0    0    0  0.00000000000E+00  0.00000000000E+00  0.45593999997E+02  0.45594000000E+02  0.51100000000E-03 0. -1.
         11   -1    0    0    0    0 -0.00000000000E+00 -0.00000000000E+00 -0.45593999997E+02  0.45594000000E+02  0.51100000000E-03 0.  1.
         23    2    1    2    0    0  0.00000000000E+00  0.17763568394E-14  0.00000000000E+00  0.91188000000E+02  0.91188000000E+02 0.  0.
    9900012    2    3    3    0    0  0.83420572660E+01  0.15247749757E+02 -0.39768578539E+02  0.47787266930E+02  0.19999981239E+02 0.  0.
         12    1    3    3    0    0 -0.83420572660E+01 -0.15247749757E+02  0.39768578539E+02  0.43400733070E+02  0.00000000000E+00 0. -1.
         11    1    4    4    0    0  0.75529716692E+00 -0.79689314830E+00 -0.13632078062E+02  0.13676222617E+02  0.51100000000E-03 0. -1.
        -11    1    4    4    0    0 -0.12806930318E+01  0.73180356274E+01 -0.33505983489E+01  0.81498668481E+01  0.51100000000E-03 0.  1.
        -12    1    4    4    0    0  0.88674531309E+01  0.87266072775E+01 -0.22785902127E+02  0.25961177465E+02  0.00000000000E+00 0.  1.
</event>
<event>
 8    1  0.8600524E-011  0.9118800E+02  0.7816164E-02  0.1184000E+00
        -11   -1    0    0    0    0  0.00000000000E+00  0.00000000000E+00  0.45593999997E+02  0.45594000000E+02  0.51100000000E-03 0.  1.
         11   -1    0    0    0    0 -0.00000000000E+00 -0.00000000000E+00 -0.45593999997E+02  0.45594000000E+02  0.51100000000E-03 0. -1.
         23    2    1    2    0    0 -0.35527136788E-14  0.00000000000E+00 -0.71054273576E-14  0.91188000000E+02  0.91188000000E+02 0.  0.
    9900012    2    3    3    0    0  0.22835517108E+02  0.15705717087E+02  0.33398993996E+02  0.47787272002E+02  0.20000004366E+02 0.  0.
        -12    1    3    3    0    0 -0.22835517108E+02 -0.15705717087E+02 -0.33398993996E+02  0.43400727998E+02  0.00000000000E+00 0.  1.
         11    1    4    4    0    0  0.73128082392E+01  0.86070989172E+01  0.75575589171E+01  0.13589555297E+02  0.51100000000E-03 0. -1.
        -11    1    4    4    0    0  0.17967529596E+02  0.81596451528E+01  0.22734037780E+02  0.30103959920E+02  0.51100000000E-03 0.  1.
        -12    1    4    4    0    0 -0.24448207273E+01 -0.10610269831E+01  0.31073972992E+01  0.40937567859E+01  0.00000000000E+00 0.  1.
</event>
<event>
 8    1  0.8600524E-011  0.9118800E+02  0.7816164E-02  0.1184000E+00
        -11   -1    0    0    0    0  0.00000000000E+00  0.00000000000E+00  0.45593999997E+02  0.45594000000E+02  0.51100000000E-03 0. -1.
         11   -1    0    0    0    0 -0.00000000000E+00 -0.00000000000E+00 -0.45593999997E+02  0.45594000000E+02  0.51100000000E-03 0.  1.
         23    2    1    2    0    0 -0.17763568394E-14  0.00000000000E+00  0.00000000000E+00  0.91188000000E+02  0.91188000000E+02 0.  0.
    9900012    2    3    3    0    0  0.72184465178E+01  0.13598375969E+02 -0.40578341120E+02  0.47787267666E+02  0.19999984595E+02 0.  0.
         12    1    3    3    0    0 -0.72184465178E+01 -0.13598375969E+02  0.40578341120E+02  0.43400732334E+02  0.00000000000E+00 0. -1.
         11    1    4    4    0    0  0.87313245581E+01  0.87066107905E+01 -0.98479841903E+01  0.15780490894E+02  0.51100000000E-03 0.  1.
        -11    1    4    4    0    0 -0.30657272327E+01  0.60981397634E+00 -0.21366011688E+02  0.21593448365E+02  0.51100000000E-03 0. -1.
        -12    1    4    4    0    0  0.15528491924E+01  0.42819512019E+01 -0.93643452410E+01  0.10413328407E+02  0.00000000000E+00 0.  1.
</event>
<event>
 8    1  0.8600524E-011  0.9118800E+02  0.7816164E-02  0.1184000E+00
        -11   -1    0    0    0    0  0.00000000000E+00  0.00000000000E+00  0.45593999997E+02  0.45594000000E+02  0.51100000000E-03 0. -1.
         11   -1    0    0    0    0 -0.00000000000E+00 -0.00000000000E+00 -0.45593999997E+02  0.45594000000E+02  0.51100000000E-03 0.  1.
         23    2    1    2    0    0  0.00000000000E+00  0.44408920985E-15  0.00000000000E+00  0.91188000000E+02  0.91188000000E+02 0.  0.
    9900012    2    3    3    0    0  0.28839042176E+02 -0.18670162020E+01 -0.32379733691E+02  0.47787271239E+02  0.20000000886E+02 0.  0.
         12    1    3    3    0    0 -0.28839042176E+02  0.18670162020E+01  0.32379733691E+02  0.43400728761E+02  0.00000000000E+00 0. -1.
         11    1    4    4    0    0  0.53732111159E+01  0.74358270383E+01 -0.78616255593E+01  0.12081724965E+02  0.51100000000E-03 0. -1.
        -11    1    4    4    0    0  0.15577716516E+02 -0.44692545364E+01 -0.18837784907E+02  0.24849580045E+02  0.51100000000E-03 0.  1.
         12    1    4    4    0    0  0.78881145444E+01 -0.48335887039E+01 -0.56803232245E+01  0.10855966229E+02  0.00000000000E+00 0. -1.
</event>
<event>
 8    1  0.8600524E-011  0.9118800E+02  0.7816164E-02  0.1184000E+00
        -11   -1    0    0    0    0  0.00000000000E+00  0.00000000000E+00  0.45593999997E+02  0.45594000000E+02  0.51100000000E-03 0. -1.
         11   -1    0    0    0    0 -0.00000000000E+00 -0.00000000000E+00 -0.45593999997E+02  0.45594000000E+02  0.51100000000E-03 0.  1.
         23    2    1    2    0    0  0.00000000000E+00  0.00000000000E+00  0.00000000000E+00  0.91188000000E+02  0.91188000000E+02 0.  0.
    9900012    2    3    3    0    0 -0.21505927470E+02 -0.26232250026E+02  0.27073739108E+02  0.47787271814E+02  0.20000003507E+02 0.  0.
        -12    1    3    3    0    0  0.21505927470E+02  0.26232250026E+02 -0.27073739108E+02  0.43400728186E+02  0.00000000000E+00 0.  1.
         11    1    4    4    0    0 -0.17719105119E+01 -0.12593400092E+02  0.13955652423E+02  0.18881038837E+02  0.51100000000E-03 0. -1.
        -11    1    4    4    0    0 -0.64469768692E+01 -0.11446368694E+00  0.54949606968E+01  0.84717888317E+01  0.51100000000E-03 0.  1.
         12    1    4    4    0    0 -0.13287040089E+02 -0.13524386247E+02  0.76231259891E+01  0.20434444145E+02  0.00000000000E+00 0. -1.
</event>
<event>
 8    1  0.8600524E-011  0.9118800E+02  0.7816164E-02  0.1184000E+00
        -11   -1    0    0    0    0  0.00000000000E+00  0.00000000000E+00  0.45593999997E+02  0.45594000000E+02  0.51100000000E-03 0. -1.
         11   -1    0    0    0    0 -0.00000000000E+00 -0.00000000000E+00 -0.45593999997E+02  0.45594000000E+02  0.51100000000E-03 0.  1.
         23    2    1    2    0    0  0.00000000000E+00 -0.71054273576E-14 -0.35527136788E-14  0.91188000000E+02  0.91188000000E+02 0.  0.
    9900012    2    3    3    0    0  0.57431227356E+01 -0.32681017389E+02 -0.27974845267E+02  0.47787258946E+02  0.19999944838E+02 0.  0.
         12    1    3    3    0    0 -0.57431227356E+01  0.32681017389E+02  0.27974845267E+02  0.43400741054E+02  0.00000000000E+00 0. -1.
         11    1    4    4    0    0 -0.22575400380E+01 -0.97989281383E+01 -0.52759624307E+01  0.11355670809E+02  0.51100000000E-03 0. -1.
        -11    1    4    4    0    0  0.11182739960E+02 -0.20692945480E+02 -0.22521943140E+02  0.32565159123E+02  0.51100000000E-03 0.  1.
        -12    1    4    4    0    0 -0.31820771862E+01 -0.21891437710E+01 -0.17693969672E+00  0.38664290147E+01  0.00000000000E+00 0.  1.
</event>
<event>
 8    1  0.8600524E-011  0.9118800E+02  0.7816164E-02  0.1184000E+00
        -11   -1    0    0    0    0  0.00000000000E+00  0.00000000000E+00  0.45593999997E+02  0.45594000000E+02  0.51100000000E-03 0. -1.
         11   -1    0    0    0    0 -0.00000000000E+00 -0.00000000000E+00 -0.45593999997E+02  0.45594000000E+02  0.51100000000E-03 0.  1.
         23    2    1    2    0    0  0.00000000000E+00 -0.44408920985E-15  0.00000000000E+00  0.91188000000E+02  0.91188000000E+02 0.  0.
    9900012    2    3    3    0    0  0.14470190063E+02  0.34144651167E+01  0.40774717554E+02  0.47787279221E+02  0.20000037280E+02 0.  0.
        -12    1    3    3    0    0 -0.14470190063E+02 -0.34144651167E+01 -0.40774717554E+02  0.43400720779E+02  0.00000000000E+00 0.  1.
         11    1    4    4    0    0 -0.26869504300E+01 -0.47262512386E+00  0.11984334422E+02  0.12290945810E+02  0.51100000000E-03 0. -1.
        -11    1    4    4    0    0  0.67519741890E+01  0.53232095753E+01  0.62527755898E+01  0.10631223752E+02  0.51100000000E-03 0.  1.
        -12    1    4    4    0    0  0.10405166304E+02 -0.14361193348E+01  0.22537607543E+02  0.24865109658E+02  0.00000000000E+00 0.  1.
</event>
<event>
 8    1  0.8600524E-011  0.9118800E+02  0.7816164E-02  0.1184000E+00
        -11   -1    0    0    0    0  0.00000000000E+00  0.00000000000E+00  0.45593999997E+02  0.45594000000E+02  0.51100000000E-03 0. -1.
         11   -1    0    0    0    0 -0.00000000000E+00 -0.00000000000E+00 -0.45593999997E+02  0.45594000000E+02  0.51100000000E-03 0.  1.
         23    2    1    2    0    0  0.35527136788E-14  0.00000000000E+00  0.00000000000E+00  0.91188000000E+02  0.91188000000E+02 0.  0.
    9900012    2    3    3    0    0  0.15291296800E+02 -0.30801937843E+02  0.26477166041E+02  0.47787268966E+02  0.19999990523E+02 0.  0.
        -12    1    3    3    0    0 -0.15291296800E+02  0.30801937843E+02 -0.26477166041E+02  0.43400731034E+02  0.00000000000E+00 0.  1.
         11    1    4    4    0    0  0.50445632004E+01 -0.17657677106E+02  0.21947312061E+02  0.28616877636E+02  0.51100000000E-03 0. -1.
        -11    1    4    4    0    0  0.11137577090E+02 -0.89314085986E+01  0.40373781524E+01  0.14836310377E+02  0.51100000000E-03 0.  1.
         12    1    4    4    0    0 -0.89084349063E+00 -0.42128521383E+01  0.49247582755E+00  0.43340809527E+01  0.00000000000E+00 0. -1.
</event>
<event>
 8    1  0.8600524E-011  0.9118800E+02  0.7816164E-02  0.1184000E+00
        -11   -1    0    0    0    0  0.00000000000E+00  0.00000000000E+00  0.45593999997E+02  0.45594000000E+02  0.51100000000E-03 0. -1.
         11   -1    0    0    0    0 -0.00000000000E+00 -0.00000000000E+00 -0.45593999997E+02  0.45594000000E+02  0.51100000000E-03 0.  1.
         23    2    1    2    0    0  0.00000000000E+00  0.00000000000E+00  0.71054273576E-14  0.91188000000E+02  0.91188000000E+02 0.  0.
    9900012    2    3    3    0    0  0.14299850030E+02  0.90174182573E+01  0.39972788182E+02  0.47787270306E+02  0.19999996634E+02 0.  0.
        -12    1    3    3    0    0 -0.14299850030E+02 -0.90174182573E+01 -0.39972788182E+02  0.43400729694E+02  0.00000000000E+00 0.  1.
         11    1    4    4    0    0  0.29985634438E+01 -0.27465882901E+00 -0.86340581339E+00  0.31324575111E+01  0.51100000000E-03 0. -1.
        -11    1    4    4    0    0  0.25614768846E+01  0.15912181045E+01  0.10414498633E+01  0.31902597018E+01  0.51100000000E-03 0.  1.
         12    1    4    4    0    0  0.87398097011E+01  0.77008589818E+01  0.39794744132E+02  0.41464553093E+02  0.00000000000E+00 0. -1.
</event>
<event>
 8    1  0.8600524E-011  0.9118800E+02  0.7816164E-02  0.1184000E+00
        -11   -1    0    0    0    0  0.00000000000E+00  0.00000000000E+00  0.45593999997E+02  0.45594000000E+02  0.51100000000E-03 0. -1.
         11   -1    0    0    0    0 -0.00000000000E+00 -0.00000000000E+00 -0.45593999997E+02  0.45594000000E+02  0.51100000000E-03 0.  1.
         23    2    1    2    0    0  0.00000000000E+00 -0.17763568394E-14  0.00000000000E+00  0.91188000000E+02  0.91188000000E+02 0.  0.
    9900012    2    3    3    0    0 -0.30194229103E+02 -0.15581448363E+02  0.27002777527E+02  0.47787274218E+02  0.20000014471E+02 0.  0.
        -12    1    3    3    0    0  0.30194229103E+02  0.15581448363E+02 -0.27002777527E+02  0.43400725782E+02  0.00000000000E+00 0.  1.
         11    1    4    4    0    0 -0.27121665646E+02 -0.11006737016E+02  0.15101880323E+02  0.32936299074E+02  0.51100000000E-03 0. -1.
        -11    1    4    4    0    0  0.16463455769E+01 -0.21664565999E+00  0.56463999079E+01  0.58855094326E+01  0.51100000000E-03 0.  1.
        -12    1    4    4    0    0 -0.47189090343E+01 -0.43580656866E+01  0.62544972960E+01  0.89654657117E+01  0.00000000000E+00 0.  1.
</event>
<event>
 8    1  0.8600524E-011  0.9118800E+02  0.7816164E-02  0.1184000E+00
        -11   -1    0    0    0    0  0.00000000000E+00  0.00000000000E+00  0.45593999997E+02  0.45594000000E+02  0.51100000000E-03 0. -1.
         11   -1    0    0    0    0 -0.00000000000E+00 -0.00000000000E+00 -0.45593999997E+02  0.45594000000E+02  0.51100000000E-03 0.  1.
         23    2    1    2    0    0  0.00000000000E+00  0.44408920985E-15  0.00000000000E+00  0.91188000000E+02  0.91188000000E+02 0.  0.
    9900012    2    3    3    0    0  0.34854375704E+02 -0.25090744083E+01 -0.25739070803E+02  0.47787277357E+02  0.20000028784E+02 0.  0.
         12    1    3    3    0    0 -0.34854375704E+02  0.25090744083E+01  0.25739070803E+02  0.43400722643E+02  0.00000000000E+00 0. -1.
         11    1    4    4    0    0  0.24282195883E+02 -0.73888792005E+01 -0.11567888612E+02  0.27893307798E+02  0.51100000000E-03 0. -1.
        -11    1    4    4    0    0  0.99160691018E+01  0.60530106622E+01 -0.94213066099E+01  0.14957552708E+02  0.51100000000E-03 0.  1.
         12    1    4    4    0    0  0.65611071907E+00 -0.11732058700E+01 -0.47498755819E+01  0.49364168515E+01  0.00000000000E+00 0. -1.
</event>
<event>
 8    1  0.8600524E-011  0.9118800E+02  0.7816164E-02  0.1184000E+00
        -11   -1    0    0    0    0  0.00000000000E+00  0.00000000000E+00  0.45593999997E+02  0.45594000000E+02  0.51100000000E-03 0. -1.
         11   -1    0    0    0    0 -0.00000000000E+00 -0.00000000000E+00 -0.45593999997E+02  0.45594000000E+02  0.51100000000E-03 0.  1.
         23    2    1    2    0    0  0.00000000000E+00  0.00000000000E+00  0.00000000000E+00  0.91188000000E+02  0.91188000000E+02 0.  0.
    9900012    2    3    3    0    0  0.16627747055E+02  0.18799958335E+02 -0.35407663306E+02  0.47787273896E+02  0.20000013003E+02 0.  0.
         12    1    3    3    0    0 -0.16627747055E+02 -0.18799958335E+02  0.35407663306E+02  0.43400726104E+02  0.00000000000E+00 0. -1.
         11    1    4    4    0    0  0.66431293830E+01  0.11550441242E+02 -0.23365869511E+02  0.26898098801E+02  0.51100000000E-03 0. -1.
        -11    1    4    4    0    0  0.24332932807E+01 -0.24291358411E+01  0.33793667112E+00  0.34548254050E+01  0.51100000000E-03 0.  1.
        -12    1    4    4    0    0  0.75513243913E+01  0.96786529337E+01 -0.12379730467E+02  0.17434349690E+02  0.00000000000E+00 0.  1.
</event>
<event>
 8    1  0.8600524E-011  0.9118800E+02  0.7816164E-02  0.1184000E+00
        -11   -1    0    0    0    0  0.00000000000E+00  0.00000000000E+00  0.45593999997E+02  0.45594000000E+02  0.51100000000E-03 0. -1.
         11   -1    0    0    0    0 -0.00000000000E+00 -0.00000000000E+00 -0.45593999997E+02  0.45594000000E+02  0.51100000000E-03 0.  1.
         23    2    1    2    0    0  0.00000000000E+00  0.00000000000E+00  0.00000000000E+00  0.91188000000E+02  0.91188000000E+02 0.  0.
    9900012    2    3    3    0    0 -0.31532228886E+02  0.20610780048E+02 -0.21553136282E+02  0.47787269634E+02  0.19999993570E+02 0.  0.
         12    1    3    3    0    0  0.31532228886E+02 -0.20610780048E+02  0.21553136282E+02  0.43400730366E+02  0.00000000000E+00 0. -1.
         11    1    4    4    0    0 -0.36733746994E+01 -0.10545411543E+01 -0.89457413109E+01  0.97278993925E+01  0.51100000000E-03 0. -1.
        -11    1    4    4    0    0 -0.27543024117E+02  0.21013334185E+02 -0.13250000141E+02  0.37090981317E+02  0.51100000000E-03 0.  1.
         12    1    4    4    0    0 -0.31583006967E+00  0.65198701752E+00  0.64260517031E+00  0.96838892437E+00  0.00000000000E+00 0. -1.
</event>
<event>
 8    1  0.8600524E-011  0.9118800E+02  0.7816164E-02  0.1184000E+00
        -11   -1    0    0    0    0  0.00000000000E+00  0.00000000000E+00  0.45593999997E+02  0.45594000000E+02  0.51100000000E-03 0. -1.
         11   -1    0    0    0    0 -0.00000000000E+00 -0.00000000000E+00 -0.45593999997E+02  0.45594000000E+02  0.51100000000E-03 0.  1.
         23    2    1    2    0    0  0.35527136788E-14  0.35527136788E-14 -0.17763568394E-14  0.91188000000E+02  0.91188000000E+02 0.  0.
    9900012    2    3    3    0    0 -0.25637027516E+02 -0.31325634266E+02  0.15654736189E+02  0.47787270661E+02  0.19999998251E+02 0.  0.
        -12    1    3    3    0    0  0.25637027516E+02  0.31325634266E+02 -0.15654736189E+02  0.43400729339E+02  0.00000000000E+00 0.  1.
         11    1    4    4    0    0 -0.83529551003E-01 -0.31401773549E+01  0.70342539576E+01  0.77037925730E+01  0.51100000000E-03 0. -1.
        -11    1    4    4    0    0 -0.90447866729E+01 -0.54908665109E+01 -0.44882263981E+00  0.10590525153E+02  0.51100000000E-03 0.  1.
         12    1    4    4    0    0 -0.16508711292E+02 -0.22694590400E+02  0.90693048713E+01  0.29492952935E+02  0.00000000000E+00 0. -1.
</event>
<event>
 8    1  0.8600524E-011  0.9118800E+02  0.7816164E-02  0.1184000E+00
        -11   -1    0    0    0    0  0.00000000000E+00  0.00000000000E+00  0.45593999997E+02  0.45594000000E+02  0.51100000000E-03 0. -1.
         11   -1    0    0    0    0 -0.00000000000E+00 -0.00000000000E+00 -0.45593999997E+02  0.45594000000E+02  0.51100000000E-03 0.  1.
         23    2    1    2    0    0 -0.71054273576E-14 -0.44408920985E-15  0.35527136788E-14  0.91188000000E+02  0.91188000000E+02 0.  0.
    9900012    2    3    3    0    0  0.34596018559E+02 -0.18338927421E+01 -0.26141459757E+02  0.47787267507E+02  0.19999983869E+02 0.  0.
         12    1    3    3    0    0 -0.34596018559E+02  0.18338927421E+01  0.26141459757E+02  0.43400732493E+02  0.00000000000E+00 0. -1.
         11    1    4    4    0    0  0.18189803324E+01  0.15699582985E+01 -0.24917308626E+00  0.24156874791E+01  0.51100000000E-03 0. -1.
        -11    1    4    4    0    0  0.38170845120E+01 -0.70916739647E+01 -0.51562424413E+01  0.95628871251E+01  0.51100000000E-03 0.  1.
        -12    1    4    4    0    0  0.28959953715E+02  0.36878229241E+01 -0.20736044229E+02  0.35808692902E+02  0.00000000000E+00 0.  1.
</event>
<event>
 8    1  0.8600524E-011  0.9118800E+02  0.7816164E-02  0.1184000E+00
        -11   -1    0    0    0    0  0.00000000000E+00  0.00000000000E+00  0.45593999997E+02  0.45594000000E+02  0.51100000000E-03 0. -1.
         11   -1    0    0    0    0 -0.00000000000E+00 -0.00000000000E+00 -0.45593999997E+02  0.45594000000E+02  0.51100000000E-03 0.  1.
         23    2    1    2    0    0  0.00000000000E+00  0.00000000000E+00  0.71054273576E-14  0.91188000000E+02  0.91188000000E+02 0.  0.
    9900012    2    3    3    0    0  0.90626772696E+01  0.92514153187E+00 -0.42433891735E+02  0.47787272196E+02  0.20000005251E+02 0.  0.
         12    1    3    3    0    0 -0.90626772696E+01 -0.92514153187E+00  0.42433891735E+02  0.43400727804E+02  0.00000000000E+00 0. -1.
         11    1    4    4    0    0  0.81874174694E+00  0.11608148713E+01 -0.94480975013E+01  0.95542857331E+01  0.51100000000E-03 0. -1.
        -11    1    4    4    0    0 -0.15180000329E+01  0.64804834594E+01 -0.69256728938E+01  0.96055158769E+01  0.51100000000E-03 0.  1.
        -12    1    4    4    0    0  0.97619355556E+01 -0.67161567988E+01 -0.26060121340E+02  0.28627470586E+02  0.00000000000E+00 0.  1.
</event>
<event>
 8    1  0.8600524E-011  0.9118800E+02  0.7816164E-02  0.1184000E+00
        -11   -1    0    0    0    0  0.00000000000E+00  0.00000000000E+00  0.45593999997E+02  0.45594000000E+02  0.51100000000E-03 0. -1.
         11   -1    0    0    0    0 -0.00000000000E+00 -0.00000000000E+00 -0.45593999997E+02  0.45594000000E+02  0.51100000000E-03 0.  1.
         23    2    1    2    0    0  0.00000000000E+00  0.00000000000E+00  0.00000000000E+00  0.91188000000E+02  0.91188000000E+02 0.  0.
    9900012    2    3    3    0    0  0.18144845339E+02  0.19402457916E+02 -0.34321020352E+02  0.47787271624E+02  0.20000002641E+02 0.  0.
         12    1    3    3    0    0 -0.18144845339E+02 -0.19402457916E+02  0.34321020352E+02  0.43400728376E+02  0.00000000000E+00 0. -1.
         11    1    4    4    0    0 -0.26067377815E+00 -0.84474671809E+00 -0.30177677789E+01  0.31445938474E+01  0.51100000000E-03 0. -1.
        -11    1    4    4    0    0  0.68860728166E+01  0.44139383902E+01 -0.56629001244E+00  0.81988740439E+01  0.51100000000E-03 0.  1.
        -12    1    4    4    0    0  0.11519446301E+02  0.15833266244E+02 -0.30736962561E+02  0.36443803732E+02  0.00000000000E+00 0.  1.
</event>
<event>
 8    1  0.8600524E-011  0.9118800E+02  0.7816164E-02  0.1184000E+00
        -11   -1    0    0    0    0  0.00000000000E+00  0.00000000000E+00  0.45593999997E+02  0.45594000000E+02  0.51100000000E-03 0. -1.
         11   -1    0    0    0    0 -0.00000000000E+00 -0.00000000000E+00 -0.45593999997E+02  0.45594000000E+02  0.51100000000E-03 0.  1.
         23    2    1    2    0    0 -0.88817841970E-15  0.00000000000E+00  0.00000000000E+00  0.91188000000E+02  0.91188000000E+02 0.  0.
    9900012    2    3    3    0    0  0.33656300183E+01 -0.29009916040E+02  0.32104837149E+02  0.47787271176E+02  0.20000000601E+02 0.  0.
        -12    1    3    3    0    0 -0.33656300183E+01  0.29009916040E+02 -0.32104837149E+02  0.43400728824E+02  0.00000000000E+00 0.  1.
         11    1    4    4    0    0  0.29733265714E+01 -0.95448485051E+01  0.15690628029E+02  0.18604854531E+02  0.51100000000E-03 0. -1.
        -11    1    4    4    0    0  0.71866359893E+00 -0.15942576304E+02  0.42510447976E+01  0.16515253517E+02  0.51100000000E-03 0.  1.
        -12    1    4    4    0    0 -0.32636015203E+00 -0.35224912310E+01  0.12163164322E+02  0.12667163129E+02  0.00000000000E+00 0.  1.
</event>
<event>
 8    1  0.8600524E-011  0.9118800E+02  0.7816164E-02  0.1184000E+00
        -11   -1    0    0    0    0  0.00000000000E+00  0.00000000000E+00  0.45593999997E+02  0.45594000000E+02  0.51100000000E-03 0. -1.
         11   -1    0    0    0    0 -0.00000000000E+00 -0.00000000000E+00 -0.45593999997E+02  0.45594000000E+02  0.51100000000E-03 0.  1.
         23    2    1    2    0    0  0.00000000000E+00  0.17763568394E-14  0.00000000000E+00  0.91188000000E+02  0.91188000000E+02 0.  0.
    9900012    2    3    3    0    0 -0.72847131061E+01  0.15725704808E+02 -0.39790179547E+02  0.47787271606E+02  0.20000002559E+02 0.  0.
         12    1    3    3    0    0  0.72847131061E+01 -0.15725704808E+02  0.39790179547E+02  0.43400728394E+02  0.00000000000E+00 0. -1.
         11    1    4    4    0    0 -0.48081266052E+00  0.34387573220E+01  0.85405177893E+00  0.35757009713E+01  0.51100000000E-03 0. -1.
        -11    1    4    4    0    0  0.16396457162E+01  0.32428735577E+01 -0.18422438881E+02  0.18777404548E+02  0.51100000000E-03 0.  1.
         12    1    4    4    0    0 -0.84435461618E+01  0.90440739282E+01 -0.22221792446E+02  0.25434166086E+02  0.00000000000E+00 0. -1.
</event>
<event>
 8    1  0.8600524E-011  0.9118800E+02  0.7816164E-02  0.1184000E+00
        -11   -1    0    0    0    0  0.00000000000E+00  0.00000000000E+00  0.45593999997E+02  0.45594000000E+02  0.51100000000E-03 0. -1.
         11   -1    0    0    0    0 -0.00000000000E+00 -0.00000000000E+00 -0.45593999997E+02  0.45594000000E+02  0.51100000000E-03 0.  1.
         23    2    1    2    0    0  0.00000000000E+00  0.00000000000E+00  0.00000000000E+00  0.91188000000E+02  0.91188000000E+02 0.  0.
    9900012    2    3    3    0    0 -0.36997586693E+02  0.18335856794E+02  0.13364085697E+02  0.47787264384E+02  0.19999969634E+02 0.  0.
        -12    1    3    3    0    0  0.36997586693E+02 -0.18335856794E+02 -0.13364085697E+02  0.43400735616E+02  0.00000000000E+00 0.  1.
         11    1    4    4    0    0 -0.19519578651E+02  0.21364317146E+01  0.25564914912E+01  0.19801867089E+02  0.51100000000E-03 0. -1.
        -11    1    4    4    0    0 -0.10154892032E+02  0.14955894237E+02  0.56410206209E+01  0.18937310224E+02  0.51100000000E-03 0.  1.
         12    1    4    4    0    0 -0.73231160097E+01  0.12435308427E+01  0.51665735850E+01  0.90480870718E+01  0.00000000000E+00 0. -1.
</event>
<event>
 8    1  0.8600524E-011  0.9118800E+02  0.7816164E-02  0.1184000E+00
        -11   -1    0    0    0    0  0.00000000000E+00  0.00000000000E+00  0.45593999997E+02  0.45594000000E+02  0.51100000000E-03 0. -1.
         11   -1    0    0    0    0 -0.00000000000E+00 -0.00000000000E+00 -0.45593999997E+02  0.45594000000E+02  0.51100000000E-03 0.  1.
         23    2    1    2    0    0  0.00000000000E+00  0.00000000000E+00  0.00000000000E+00  0.91188000000E+02  0.91188000000E+02 0.  0.
    9900012    2    3    3    0    0  0.16200011269E+02  0.16488884867E+02 -0.36732816682E+02  0.47787268316E+02  0.19999987561E+02 0.  0.
         12    1    3    3    0    0 -0.16200011269E+02 -0.16488884867E+02  0.36732816682E+02  0.43400731684E+02  0.00000000000E+00 0. -1.
         11    1    4    4    0    0  0.47303758850E+01 -0.24946605963E+01 -0.39348949121E+01  0.66395169805E+01  0.51100000000E-03 0. -1.
        -11    1    4    4    0    0  0.12979818454E+02  0.19341278503E+02 -0.30907843593E+02  0.38702138662E+02  0.51100000000E-03 0.  1.
        -12    1    4    4    0    0 -0.15101830701E+01 -0.35773303923E+00 -0.18900781775E+01  0.24456126737E+01  0.00000000000E+00 0.  1.
</event>
<event>
 8    1  0.8600524E-011  0.9118800E+02  0.7816164E-02  0.1184000E+00
        -11   -1    0    0    0    0  0.00000000000E+00  0.00000000000E+00  0.45593999997E+02  0.45594000000E+02  0.51100000000E-03 0. -1.
         11   -1    0    0    0    0 -0.00000000000E+00 -0.00000000000E+00 -0.45593999997E+02  0.45594000000E+02  0.51100000000E-03 0.  1.
         23    2    1    2    0    0 -0.11102230246E-15 -0.13322676296E-14  0.00000000000E+00  0.91188000000E+02  0.91188000000E+02 0.  0.
    9900012    2    3    3    0    0  0.30100064622E+00 -0.27884743245E+01 -0.43309979955E+02  0.47787302378E+02  0.20000142860E+02 0.  0.
         12    1    3    3    0    0 -0.30100064622E+00  0.27884743245E+01  0.43309979955E+02  0.43400697622E+02  0.00000000000E+00 0. -1.
         11    1    4    4    0    0 -0.15186187532E+01 -0.52458796697E+01 -0.27245603743E+01  0.61031701533E+01  0.51100000000E-03 0. -1.
        -11    1    4    4    0    0 -0.58357284270E+00  0.20945396998E+01 -0.38255707893E+02  0.38317448251E+02  0.51100000000E-03 0.  1.
        -12    1    4    4    0    0  0.24031922421E+01  0.36286564534E+00 -0.23297116875E+01  0.33666839733E+01  0.00000000000E+00 0.  1.
</event>
<event>
 8    1  0.8600524E-011  0.9118800E+02  0.7816164E-02  0.1184000E+00
        -11   -1    0    0    0    0  0.00000000000E+00  0.00000000000E+00  0.45593999997E+02  0.45594000000E+02  0.51100000000E-03 0. -1.
         11   -1    0    0    0    0 -0.00000000000E+00 -0.00000000000E+00 -0.45593999997E+02  0.45594000000E+02  0.51100000000E-03 0.  1.
         23    2    1    2    0    0  0.00000000000E+00  0.00000000000E+00  0.00000000000E+00  0.91188000000E+02  0.91188000000E+02 0.  0.
    9900012    2    3    3    0    0 -0.24859940979E+02 -0.24934153371E+01  0.35487877070E+02  0.47787271844E+02  0.20000003645E+02 0.  0.
        -12    1    3    3    0    0  0.24859940979E+02  0.24934153371E+01 -0.35487877070E+02  0.43400728156E+02  0.00000000000E+00 0.  1.
         11    1    4    4    0    0 -0.31429330172E+01 -0.34690321422E+00  0.71632900824E-01  0.31628312197E+01  0.51100000000E-03 0. -1.
        -11    1    4    4    0    0 -0.34957473260E+01 -0.73353123505E+01  0.12210107149E+02  0.14666757430E+02  0.51100000000E-03 0.  1.
        -12    1    4    4    0    0 -0.18221260636E+02  0.51888002276E+01  0.23206137020E+02  0.29957683194E+02  0.00000000000E+00 0.  1.
</event>
<event>
 8    1  0.8600524E-011  0.9118800E+02  0.7816164E-02  0.1184000E+00
        -11   -1    0    0    0    0  0.00000000000E+00  0.00000000000E+00  0.45593999997E+02  0.45594000000E+02  0.51100000000E-03 0. -1.
         11   -1    0    0    0    0 -0.00000000000E+00 -0.00000000000E+00 -0.45593999997E+02  0.45594000000E+02  0.51100000000E-03 0.  1.
         23    2    1    2    0    0  0.00000000000E+00  0.17763568394E-14  0.00000000000E+00  0.91188000000E+02  0.91188000000E+02 0.  0.
    9900012    2    3    3    0    0 -0.16324408030E+02 -0.13540094165E+02 -0.37865581722E+02  0.47787277349E+02  0.20000028744E+02 0.  0.
         12    1    3    3    0    0  0.16324408030E+02  0.13540094165E+02  0.37865581722E+02  0.43400722651E+02  0.00000000000E+00 0. -1.
         11    1    4    4    0    0 -0.59903375171E+01  0.30559015725E+01 -0.18127317670E+02  0.19334485361E+02  0.51100000000E-03 0. -1.
        -11    1    4    4    0    0 -0.65330042398E+01 -0.98081975112E+01 -0.15862857554E+02  0.19761354530E+02  0.51100000000E-03 0.  1.
         12    1    4    4    0    0 -0.38010662729E+01 -0.67877982259E+01 -0.38754064975E+01  0.86914374580E+01  0.00000000000E+00 0. -1.
</event>
<event>
 8    1  0.8600524E-011  0.9118800E+02  0.7816164E-02  0.1184000E+00
        -11   -1    0    0    0    0  0.00000000000E+00  0.00000000000E+00  0.45593999997E+02  0.45594000000E+02  0.51100000000E-03 0. -1.
         11   -1    0    0    0    0 -0.00000000000E+00 -0.00000000000E+00 -0.45593999997E+02  0.45594000000E+02  0.51100000000E-03 0.  1.
         23    2    1    2    0    0  0.17763568394E-14 -0.35527136788E-14  0.71054273576E-14  0.91188000000E+02  0.91188000000E+02 0.  0.
    9900012    2    3    3    0    0  0.11900427640E+02  0.26547769413E+02 -0.32205881156E+02  0.47787273971E+02  0.20000013342E+02 0.  0.
         12    1    3    3    0    0 -0.11900427640E+02 -0.26547769413E+02  0.32205881156E+02  0.43400726029E+02  0.00000000000E+00 0. -1.
         11    1    4    4    0    0  0.19530390699E+00 -0.83101774678E+00 -0.87449996958E+00  0.12220820633E+01  0.51100000000E-03 0. -1.
        -11    1    4    4    0    0 -0.40912228654E+01  0.10798154894E+02 -0.10536053537E+02  0.15631592307E+02  0.51100000000E-03 0.  1.
        -12    1    4    4    0    0  0.15796346599E+02  0.16580632266E+02 -0.20795327649E+02  0.30933599600E+02  0.00000000000E+00 0.  1.
</event>
<event>
 8    1  0.8600524E-011  0.9118800E+02  0.7816164E-02  0.1184000E+00
        -11   -1    0    0    0    0  0.00000000000E+00  0.00000000000E+00  0.45593999997E+02  0.45594000000E+02  0.51100000000E-03 0. -1.
         11   -1    0    0    0    0 -0.00000000000E+00 -0.00000000000E+00 -0.45593999997E+02  0.45594000000E+02  0.51100000000E-03 0.  1.
         23    2    1    2    0    0  0.00000000000E+00  0.35527136788E-14  0.00000000000E+00  0.91188000000E+02  0.91188000000E+02 0.  0.
    9900012    2    3    3    0    0 -0.41688444391E+01  0.26939794839E+02  0.33771162378E+02  0.47787271684E+02  0.20000002917E+02 0.  0.
        -12    1    3    3    0    0  0.41688444391E+01 -0.26939794839E+02 -0.33771162378E+02  0.43400728316E+02  0.00000000000E+00 0.  1.
         11    1    4    4    0    0 -0.59180087948E+01  0.27307507948E+01  0.18263284259E+01  0.67687003020E+01  0.51100000000E-03 0. -1.
        -11    1    4    4    0    0  0.73165819532E+00 -0.50955503226E+00  0.19011495886E+01  0.20998428667E+01  0.51100000000E-03 0.  1.
         12    1    4    4    0    0  0.10175061603E+01  0.24718599077E+02  0.30043684364E+02  0.38918728516E+02  0.00000000000E+00 0. -1.
</event>
<event>
 8    1  0.8600524E-011  0.9118800E+02  0.7816164E-02  0.1184000E+00
        -11   -1    0    0    0    0  0.00000000000E+00  0.00000000000E+00  0.45593999997E+02  0.45594000000E+02  0.51100000000E-03 0. -1.
         11   -1    0    0    0    0 -0.00000000000E+00 -0.00000000000E+00 -0.45593999997E+02  0.45594000000E+02  0.51100000000E-03 0.  1.
         23    2    1    2    0    0 -0.55511151231E-16  0.00000000000E+00  0.00000000000E+00  0.91188000000E+02  0.91188000000E+02 0.  0.
    9900012    2    3    3    0    0  0.67767814029E-01 -0.33551519408E+02 -0.27530240716E+02  0.47787271884E+02  0.20000003828E+02 0.  0.
         12    1    3    3    0    0 -0.67767814029E-01  0.33551519408E+02  0.27530240716E+02  0.43400728116E+02  0.00000000000E+00 0. -1.
         11    1    4    4    0    0 -0.68325385717E+00  0.68870931762E-01 -0.78514339127E+00  0.10430864991E+01  0.51100000000E-03 0. -1.
        -11    1    4    4    0    0 -0.23204471931E+01 -0.27602326593E+01  0.22812255544E+01  0.42670071245E+01  0.51100000000E-03 0.  1.
        -12    1    4    4    0    0  0.30714688643E+01 -0.30860157681E+02 -0.29026322879E+02  0.42477178261E+02  0.00000000000E+00 0.  1.
</event>
<event>
 8    1  0.8600524E-011  0.9118800E+02  0.7816164E-02  0.1184000E+00
        -11   -1    0    0    0    0  0.00000000000E+00  0.00000000000E+00  0.45593999997E+02  0.45594000000E+02  0.51100000000E-03 0. -1.
         11   -1    0    0    0    0 -0.00000000000E+00 -0.00000000000E+00 -0.45593999997E+02  0.45594000000E+02  0.51100000000E-03 0.  1.
         23    2    1    2    0    0 -0.35527136788E-14  0.00000000000E+00  0.00000000000E+00  0.91188000000E+02  0.91188000000E+02 0.  0.
    9900012    2    3    3    0    0 -0.31054715672E+02 -0.18641829270E+02 -0.23910457236E+02  0.47787272711E+02  0.20000007597E+02 0.  0.
         12    1    3    3    0    0  0.31054715672E+02  0.18641829270E+02  0.23910457236E+02  0.43400727289E+02  0.00000000000E+00 0. -1.
         11    1    4    4    0    0 -0.18255338209E+02 -0.42909584059E+01 -0.88379471198E+01  0.20731112047E+02  0.51100000000E-03 0. -1.
        -11    1    4    4    0    0 -0.10236858493E+02 -0.13506327427E+02 -0.66386950371E+01  0.18201275352E+02  0.51100000000E-03 0.  1.
         12    1    4    4    0    0 -0.25625189709E+01 -0.84454343678E+00 -0.84338150795E+01  0.88548853120E+01  0.00000000000E+00 0. -1.
</event>
<event>
 8    1  0.8600524E-011  0.9118800E+02  0.7816164E-02  0.1184000E+00
        -11   -1    0    0    0    0  0.00000000000E+00  0.00000000000E+00  0.45593999997E+02  0.45594000000E+02  0.51100000000E-03 0. -1.
         11   -1    0    0    0    0 -0.00000000000E+00 -0.00000000000E+00 -0.45593999997E+02  0.45594000000E+02  0.51100000000E-03 0.  1.
         23    2    1    2    0    0  0.00000000000E+00 -0.71054273576E-14  0.17763568394E-14  0.91188000000E+02  0.91188000000E+02 0.  0.
    9900012    2    3    3    0    0 -0.14181705108E+02 -0.39658543214E+02  0.10473918074E+02  0.47787265335E+02  0.19999973967E+02 0.  0.
        -12    1    3    3    0    0  0.14181705108E+02  0.39658543214E+02 -0.10473918074E+02  0.43400734665E+02  0.00000000000E+00 0.  1.
         11    1    4    4    0    0 -0.76990400048E+01 -0.25552907818E+02  0.52995544133E+01  0.27208667593E+02  0.51100000000E-03 0. -1.
        -11    1    4    4    0    0  0.37775149997E+01 -0.36619980301E+01  0.17324269343E+01  0.55390570036E+01  0.51100000000E-03 0.  1.
         12    1    4    4    0    0 -0.10260180103E+02 -0.10443637366E+02  0.34419367262E+01  0.15039540738E+02  0.00000000000E+00 0. -1.
</event>
<event>
 8    1  0.8600524E-011  0.9118800E+02  0.7816164E-02  0.1184000E+00
        -11   -1    0    0    0    0  0.00000000000E+00  0.00000000000E+00  0.45593999997E+02  0.45594000000E+02  0.51100000000E-03 0. -1.
         11   -1    0    0    0    0 -0.00000000000E+00 -0.00000000000E+00 -0.45593999997E+02  0.45594000000E+02  0.51100000000E-03 0.  1.
         23    2    1    2    0    0  0.00000000000E+00 -0.35527136788E-14 -0.71054273576E-14  0.91188000000E+02  0.91188000000E+02 0.  0.
    9900012    2    3    3    0    0  0.17361169381E+02  0.18507846919E+02  0.35208985717E+02  0.47787271031E+02  0.19999999938E+02 0.  0.
        -12    1    3    3    0    0 -0.17361169381E+02 -0.18507846919E+02 -0.35208985717E+02  0.43400728969E+02  0.00000000000E+00 0.  1.
         11    1    4    4    0    0 -0.25743146000E+00  0.55755335102E+01  0.17358495950E+02  0.18233766117E+02  0.51100000000E-03 0. -1.
        -11    1    4    4    0    0  0.81913466384E+01  0.77602985593E+01  0.38972240956E+01  0.11937702852E+02  0.51100000000E-03 0.  1.
         12    1    4    4    0    0  0.94272542025E+01  0.51720148500E+01  0.13953265671E+02  0.17615802062E+02  0.00000000000E+00 0. -1.
</event>
<event>
 8    1  0.8600524E-011  0.9118800E+02  0.7816164E-02  0.1184000E+00
        -11   -1    0    0    0    0  0.00000000000E+00  0.00000000000E+00  0.45593999997E+02  0.45594000000E+02  0.51100000000E-03 0.  1.
         11   -1    0    0    0    0 -0.00000000000E+00 -0.00000000000E+00 -0.45593999997E+02  0.45594000000E+02  0.51100000000E-03 0. -1.
         23    2    1    2    0    0  0.00000000000E+00  0.00000000000E+00  0.00000000000E+00  0.91188000000E+02  0.91188000000E+02 0.  0.
    9900012    2    3    3    0    0  0.90744063466E+01  0.38438640395E+02 -0.17993034222E+02  0.47787271821E+02  0.20000003542E+02 0.  0.
         12    1    3    3    0    0 -0.90744063466E+01 -0.38438640395E+02  0.17993034222E+02  0.43400728179E+02  0.00000000000E+00 0. -1.
         11    1    4    4    0    0  0.99596125216E+01  0.11852051760E+02 -0.12150229013E+02  0.19679763155E+02  0.51100000000E-03 0. -1.
        -11    1    4    4    0    0  0.24981513508E+01  0.18264866056E+02 -0.29463185893E+01  0.18668874784E+02  0.51100000000E-03 0.  1.
         12    1    4    4    0    0 -0.33833575258E+01  0.83217225789E+01 -0.28964866192E+01  0.94386338823E+01  0.00000000000E+00 0. -1.
</event>
<event>
 8    1  0.8600524E-011  0.9118800E+02  0.7816164E-02  0.1184000E+00
        -11   -1    0    0    0    0  0.00000000000E+00  0.00000000000E+00  0.45593999997E+02  0.45594000000E+02  0.51100000000E-03 0. -1.
         11   -1    0    0    0    0 -0.00000000000E+00 -0.00000000000E+00 -0.45593999997E+02  0.45594000000E+02  0.51100000000E-03 0.  1.
         23    2    1    2    0    0  0.00000000000E+00  0.00000000000E+00  0.88817841970E-15  0.91188000000E+02  0.91188000000E+02 0.  0.
    9900012    2    3    3    0    0 -0.39856823613E+02  0.16683474221E+02  0.40889080194E+01  0.47787264183E+02  0.19999968717E+02 0.  0.
        -12    1    3    3    0    0  0.39856823613E+02 -0.16683474221E+02 -0.40889080194E+01  0.43400735817E+02  0.00000000000E+00 0.  1.
         11    1    4    4    0    0 -0.17911601383E+02  0.10219596095E+01 -0.29469992027E+01  0.18181162507E+02  0.51100000000E-03 0. -1.
        -11    1    4    4    0    0 -0.39111818286E+01  0.84774300189E+01  0.19308015943E+01  0.95337378860E+01  0.51100000000E-03 0.  1.
        -12    1    4    4    0    0 -0.18034040402E+02  0.71840845930E+01  0.51051056277E+01  0.20072363791E+02  0.00000000000E+00 0.  1.
</event>
<event>
 8    1  0.8600524E-011  0.9118800E+02  0.7816164E-02  0.1184000E+00
        -11   -1    0    0    0    0  0.00000000000E+00  0.00000000000E+00  0.45593999997E+02  0.45594000000E+02  0.51100000000E-03 0. -1.
         11   -1    0    0    0    0 -0.00000000000E+00 -0.00000000000E+00 -0.45593999997E+02  0.45594000000E+02  0.51100000000E-03 0.  1.
         23    2    1    2    0    0 -0.17763568394E-14 -0.55511151231E-16  0.00000000000E+00  0.91188000000E+02  0.91188000000E+02 0.  0.
    9900012    2    3    3    0    0 -0.94316648680E+01 -0.24492019659E+00 -0.42362802721E+02  0.47787270254E+02  0.19999996398E+02 0.  0.
         12    1    3    3    0    0  0.94316648680E+01  0.24492019659E+00  0.42362802721E+02  0.43400729746E+02  0.00000000000E+00 0. -1.
         11    1    4    4    0    0 -0.10114672919E+02 -0.39673601448E+01 -0.12216595644E+02  0.16349060039E+02  0.51100000000E-03 0. -1.
        -11    1    4    4    0    0 -0.14142423553E+01  0.13316700282E+01 -0.11280791235E+01  0.22463279532E+01  0.51100000000E-03 0.  1.
         12    1    4    4    0    0  0.20972504063E+01  0.23907699201E+01 -0.29018127953E+02  0.29191882262E+02  0.00000000000E+00 0. -1.
</event>
<event>
 8    1  0.8600524E-011  0.9118800E+02  0.7816164E-02  0.1184000E+00
        -11   -1    0    0    0    0  0.00000000000E+00  0.00000000000E+00  0.45593999997E+02  0.45594000000E+02  0.51100000000E-03 0. -1.
         11   -1    0    0    0    0 -0.00000000000E+00 -0.00000000000E+00 -0.45593999997E+02  0.45594000000E+02  0.51100000000E-03 0.  1.
         23    2    1    2    0    0 -0.71054273576E-14  0.35527136788E-14  0.00000000000E+00  0.91188000000E+02  0.91188000000E+02 0.  0.
    9900012    2    3    3    0    0 -0.36314477845E+02  0.23196619858E+02  0.51767443067E+01  0.47787272406E+02  0.20000006210E+02 0.  0.
        -12    1    3    3    0    0  0.36314477845E+02 -0.23196619858E+02 -0.51767443067E+01  0.43400727594E+02  0.00000000000E+00 0.  1.
         11    1    4    4    0    0 -0.74916280582E+01 -0.30569115340E+01 -0.12436625365E+01  0.81863237082E+01  0.51100000000E-03 0. -1.
        -11    1    4    4    0    0 -0.31850776240E+01  0.19075120207E+01  0.36540905422E+00  0.37305288657E+01  0.51100000000E-03 0.  1.
         12    1    4    4    0    0 -0.25637772163E+02  0.24346019372E+02  0.60549977890E+01  0.35870419832E+02  0.00000000000E+00 0. -1.
</event>
<event>
 8    1  0.8600524E-011  0.9118800E+02  0.7816164E-02  0.1184000E+00
        -11   -1    0    0    0    0  0.00000000000E+00  0.00000000000E+00  0.45593999997E+02  0.45594000000E+02  0.51100000000E-03 0.  1.
         11   -1    0    0    0    0 -0.00000000000E+00 -0.00000000000E+00 -0.45593999997E+02  0.45594000000E+02  0.51100000000E-03 0. -1.
         23    2    1    2    0    0  0.00000000000E+00 -0.35527136788E-14  0.35527136788E-14  0.91188000000E+02  0.91188000000E+02 0.  0.
    9900012    2    3    3    0    0  0.27662439810E+02  0.21320511090E+02  0.25765253028E+02  0.47787273819E+02  0.20000012652E+02 0.  0.
        -12    1    3    3    0    0 -0.27662439810E+02 -0.21320511090E+02 -0.25765253028E+02  0.43400726181E+02  0.00000000000E+00 0.  1.
         11    1    4    4    0    0  0.14120206438E+02  0.16271621455E+02  0.60980149956E+01  0.22390437284E+02  0.51100000000E-03 0. -1.
        -11    1    4    4    0    0  0.28668780896E+01  0.22764797450E+01  0.10283540964E+02  0.10915702681E+02  0.51100000000E-03 0.  1.
        -12    1    4    4    0    0  0.10675355283E+02  0.27724098898E+01  0.93836970688E+01  0.14481133854E+02  0.00000000000E+00 0.  1.
</event>
<event>
 8    1  0.8600524E-011  0.9118800E+02  0.7816164E-02  0.1184000E+00
        -11   -1    0    0    0    0  0.00000000000E+00  0.00000000000E+00  0.45593999997E+02  0.45594000000E+02  0.51100000000E-03 0. -1.
         11   -1    0    0    0    0 -0.00000000000E+00 -0.00000000000E+00 -0.45593999997E+02  0.45594000000E+02  0.51100000000E-03 0.  1.
         23    2    1    2    0    0  0.17763568394E-14 -0.35527136788E-14  0.00000000000E+00  0.91188000000E+02  0.91188000000E+02 0.  0.
    9900012    2    3    3    0    0 -0.83736742933E+01  0.29172045681E+02  0.31024130323E+02  0.47787270367E+02  0.19999996910E+02 0.  0.
        -12    1    3    3    0    0  0.83736742933E+01 -0.29172045681E+02 -0.31024130323E+02  0.43400729633E+02  0.00000000000E+00 0.  1.
         11    1    4    4    0    0 -0.30843372492E+01  0.10175580592E+02  0.93863448872E+01  0.14183054934E+02  0.51100000000E-03 0. -1.
        -11    1    4    4    0    0  0.13809394545E+01  0.16280802628E+02  0.20653871766E+02  0.26335412417E+02  0.51100000000E-03 0.  1.
        -12    1    4    4    0    0 -0.66702764986E+01  0.27156624605E+01  0.98391366977E+00  0.72688030154E+01  0.00000000000E+00 0.  1.
</event>
<event>
 8    1 -0.8349450E-010  0.9118800E+02  0.7816164E-02  0.1184000E+00
        -11   -1    0    0    0    0  0.00000000000E+00  0.00000000000E+00  0.45593999997E+02  0.45594000000E+02  0.51100000000E-03 0. -1.
         11   -1    0    0    0    0 -0.00000000000E+00 -0.00000000000E+00 -0.45593999997E+02  0.45594000000E+02  0.51100000000E-03 0.  1.
         23    2    1    2    0    0  0.35527136788E-14  0.00000000000E+00  0.71054273576E-14  0.91188000000E+02  0.91188000000E+02 0.  0.
    9900012    2    3    3    0    0  0.18800573586E+02 -0.18099581750E+02 -0.34678048950E+02  0.47787268375E+02  0.19999987827E+02 0.  0.
         12    1    3    3    0    0 -0.18800573586E+02  0.18099581750E+02  0.34678048950E+02  0.43400731625E+02  0.00000000000E+00 0. -1.
         11    1    4    4    0    0  0.73317513897E+01 -0.23981068988E+01 -0.83642174283E+00  0.77591943352E+01  0.51100000000E-03 0. -1.
        -11    1    4    4    0    0  0.10187512466E+02 -0.67692442837E+01 -0.17332229603E+02  0.21213539584E+02  0.51100000000E-03 0.  1.
         12    1    4    4    0    0  0.12813097300E+01 -0.89322305670E+01 -0.16509397604E+02  0.18814534455E+02  0.00000000000E+00 0. -1.
</event>
<event>
 8    1  0.8600524E-011  0.9118800E+02  0.7816164E-02  0.1184000E+00
        -11   -1    0    0    0    0  0.00000000000E+00  0.00000000000E+00  0.45593999997E+02  0.45594000000E+02  0.51100000000E-03 0. -1.
         11   -1    0    0    0    0 -0.00000000000E+00 -0.00000000000E+00 -0.45593999997E+02  0.45594000000E+02  0.51100000000E-03 0.  1.
         23    2    1    2    0    0  0.00000000000E+00  0.00000000000E+00  0.00000000000E+00  0.91188000000E+02  0.91188000000E+02 0.  0.
    9900012    2    3    3    0    0  0.16900935173E+02  0.38468674874E+02  0.10869342612E+02  0.47787272298E+02  0.20000005714E+02 0.  0.
        -12    1    3    3    0    0 -0.16900935173E+02 -0.38468674874E+02 -0.10869342612E+02  0.43400727702E+02  0.00000000000E+00 0.  1.
         11    1    4    4    0    0  0.95224500501E+01  0.18259088340E+02  0.11351885031E+02  0.23514605164E+02  0.51100000000E-03 0. -1.
        -11    1    4    4    0    0  0.44991639706E+01  0.52387073029E+01 -0.48212447413E+01  0.84220503297E+01  0.51100000000E-03 0.  1.
         12    1    4    4    0    0  0.28793211528E+01  0.14970879231E+02  0.43387023217E+01  0.15850616804E+02  0.00000000000E+00 0. -1.
</event>
<event>
 8    1  0.8600524E-011  0.9118800E+02  0.7816164E-02  0.1184000E+00
        -11   -1    0    0    0    0  0.00000000000E+00  0.00000000000E+00  0.45593999997E+02  0.45594000000E+02  0.51100000000E-03 0.  1.
         11   -1    0    0    0    0 -0.00000000000E+00 -0.00000000000E+00 -0.45593999997E+02  0.45594000000E+02  0.51100000000E-03 0. -1.
         23    2    1    2    0    0  0.00000000000E+00  0.00000000000E+00 -0.88817841970E-15  0.91188000000E+02  0.91188000000E+02 0.  0.
    9900012    2    3    3    0    0  0.38455084098E+02 -0.18791315252E+02 -0.71914035864E+01  0.47787270658E+02  0.19999998236E+02 0.  0.
        -12    1    3    3    0    0 -0.38455084098E+02  0.18791315252E+02  0.71914035864E+01  0.43400729342E+02  0.00000000000E+00 0.  1.
         11    1    4    4    0    0  0.22898513405E+01  0.92367148480E+00  0.43111576883E+01  0.49681655617E+01  0.51100000000E-03 0. -1.
        -11    1    4    4    0    0  0.20372269439E+01 -0.67802040254E+00 -0.89812211339E+00  0.23273652225E+01  0.51100000000E-03 0.  1.
         12    1    4    4    0    0  0.34128005814E+02 -0.19036966334E+02 -0.10604439161E+02  0.40491739873E+02  0.00000000000E+00 0. -1.
</event>
<event>
 8    1  0.8600524E-011  0.9118800E+02  0.7816164E-02  0.1184000E+00
        -11   -1    0    0    0    0  0.00000000000E+00  0.00000000000E+00  0.45593999997E+02  0.45594000000E+02  0.51100000000E-03 0. -1.
         11   -1    0    0    0    0 -0.00000000000E+00 -0.00000000000E+00 -0.45593999997E+02  0.45594000000E+02  0.51100000000E-03 0.  1.
         23    2    1    2    0    0 -0.88817841970E-15  0.44408920985E-15  0.00000000000E+00  0.91188000000E+02  0.91188000000E+02 0.  0.
    9900012    2    3    3    0    0 -0.59822552019E+01  0.29633660379E+01  0.42884189990E+02  0.47787278039E+02  0.20000031893E+02 0.  0.
        -12    1    3    3    0    0  0.59822552019E+01 -0.29633660379E+01 -0.42884189990E+02  0.43400721961E+02  0.00000000000E+00 0.  1.
         11    1    4    4    0    0  0.56531418240E+01  0.27912383973E+01  0.16519157718E+02  0.17681391242E+02  0.51100000000E-03 0. -1.
        -11    1    4    4    0    0 -0.67038011301E+01  0.14450397170E+01  0.59949172441E+01  0.91086839006E+01  0.51100000000E-03 0.  1.
         12    1    4    4    0    0 -0.49315958959E+01 -0.12729120764E+01  0.20370115028E+02  0.20997202897E+02  0.00000000000E+00 0. -1.
</event>
<event>
 8    1  0.8600524E-011  0.9118800E+02  0.7816164E-02  0.1184000E+00
        -11   -1    0    0    0    0  0.00000000000E+00  0.00000000000E+00  0.45593999997E+02  0.45594000000E+02  0.51100000000E-03 0.  1.
         11   -1    0    0    0    0 -0.00000000000E+00 -0.00000000000E+00 -0.45593999997E+02  0.45594000000E+02  0.51100000000E-03 0. -1.
         23    2    1    2    0    0 -0.17763568394E-14  0.00000000000E+00  0.00000000000E+00  0.91188000000E+02  0.91188000000E+02 0.  0.
    9900012    2    3    3    0    0 -0.14560041401E+02  0.39730884019E+02  0.96480901961E+01  0.47787267345E+02  0.19999983134E+02 0.  0.
        -12    1    3    3    0    0  0.14560041401E+02 -0.39730884019E+02 -0.96480901961E+01  0.43400732655E+02  0.00000000000E+00 0.  1.
         11    1    4    4    0    0  0.97955657432E+00  0.70857705348E+01  0.70283557293E+01  0.10028233128E+02  0.51100000000E-03 0. -1.
        -11    1    4    4    0    0 -0.15836567126E+02  0.32804333270E+02  0.13570879996E+01  0.36452199217E+02  0.51100000000E-03 0.  1.
        -12    1    4    4    0    0  0.29696915074E+00 -0.15921978576E+00  0.12626464672E+01  0.13068350003E+01  0.00000000000E+00 0.  1.
</event>
<event>
 8    1  0.8600524E-011  0.9118800E+02  0.7816164E-02  0.1184000E+00
        -11   -1    0    0    0    0  0.00000000000E+00  0.00000000000E+00  0.45593999997E+02  0.45594000000E+02  0.51100000000E-03 0. -1.
         11   -1    0    0    0    0 -0.00000000000E+00 -0.00000000000E+00 -0.45593999997E+02  0.45594000000E+02  0.51100000000E-03 0.  1.
         23    2    1    2    0    0 -0.71054273576E-14  0.00000000000E+00 -0.88817841970E-15  0.91188000000E+02  0.91188000000E+02 0.  0.
    9900012    2    3    3    0    0  0.37242675025E+02  0.21942296185E+02  0.38913176386E+01  0.47787267773E+02  0.19999985083E+02 0.  0.
        -12    1    3    3    0    0 -0.37242675025E+02 -0.21942296185E+02 -0.38913176386E+01  0.43400732227E+02  0.00000000000E+00 0.  1.
         11    1    4    4    0    0  0.29627857159E+02  0.15201917266E+02  0.80086596664E+01  0.34249771362E+02  0.51100000000E-03 0. -1.
        -11    1    4    4    0    0  0.89924456277E+01  0.65087897390E+01 -0.46594265608E+01  0.12039048067E+02  0.51100000000E-03 0.  1.
         12    1    4    4    0    0 -0.13776277616E+01  0.23158917989E+00  0.54208453300E+00  0.14984483437E+01  0.00000000000E+00 0. -1.
</event>
<event>
 8    1  0.8600524E-011  0.9118800E+02  0.7816164E-02  0.1184000E+00
        -11   -1    0    0    0    0  0.00000000000E+00  0.00000000000E+00  0.45593999997E+02  0.45594000000E+02  0.51100000000E-03 0. -1.
         11   -1    0    0    0    0 -0.00000000000E+00 -0.00000000000E+00 -0.45593999997E+02  0.45594000000E+02  0.51100000000E-03 0.  1.
         23    2    1    2    0    0  0.35527136788E-14  0.00000000000E+00  0.00000000000E+00  0.91188000000E+02  0.91188000000E+02 0.  0.
    9900012    2    3    3    0    0 -0.28005372411E+02  0.32028775108E+02  0.85720217051E+01  0.47787275641E+02  0.20000020956E+02 0.  0.
        -12    1    3    3    0    0  0.28005372411E+02 -0.32028775108E+02 -0.85720217051E+01  0.43400724359E+02  0.00000000000E+00 0.  1.
         11    1    4    4    0    0 -0.16924940969E+02  0.10336805199E+02  0.26579188546E+00  0.19833653575E+02  0.51100000000E-03 0. -1.
        -11    1    4    4    0    0 -0.23019780639E+01  0.14361697360E+02  0.14445397778E+01  0.14616571058E+02  0.51100000000E-03 0.  1.
        -12    1    4    4    0    0 -0.87784533785E+01  0.73302725487E+01  0.68616900418E+01  0.13337051008E+02  0.00000000000E+00 0.  1.
</event>
<event>
 8    1  0.8600524E-011  0.9118800E+02  0.7816164E-02  0.1184000E+00
        -11   -1    0    0    0    0  0.00000000000E+00  0.00000000000E+00  0.45593999997E+02  0.45594000000E+02  0.51100000000E-03 0. -1.
         11   -1    0    0    0    0 -0.00000000000E+00 -0.00000000000E+00 -0.45593999997E+02  0.45594000000E+02  0.51100000000E-03 0.  1.
         23    2    1    2    0    0 -0.35527136788E-14  0.00000000000E+00  0.00000000000E+00  0.91188000000E+02  0.91188000000E+02 0.  0.
    9900012    2    3    3    0    0  0.26899056615E+02  0.13613142128E+02 -0.31220926448E+02  0.47787272660E+02  0.20000007367E+02 0.  0.
         12    1    3    3    0    0 -0.26899056615E+02 -0.13613142128E+02  0.31220926448E+02  0.43400727340E+02  0.00000000000E+00 0. -1.
         11    1    4    4    0    0 -0.22557837428E+01  0.23686767808E+01 -0.61300638893E+01  0.69481561247E+01  0.51100000000E-03 0. -1.
        -11    1    4    4    0    0  0.15694549942E+02  0.71713282207E+01 -0.89742839405E+01  0.19449540324E+02  0.51100000000E-03 0.  1.
        -12    1    4    4    0    0  0.13460290416E+02  0.40731371261E+01 -0.16116578619E+02  0.21389576211E+02  0.00000000000E+00 0.  1.
</event>
<event>
 8    1  0.8600524E-011  0.9118800E+02  0.7816164E-02  0.1184000E+00
        -11   -1    0    0    0    0  0.00000000000E+00  0.00000000000E+00  0.45593999997E+02  0.45594000000E+02  0.51100000000E-03 0. -1.
         11   -1    0    0    0    0 -0.00000000000E+00 -0.00000000000E+00 -0.45593999997E+02  0.45594000000E+02  0.51100000000E-03 0.  1.
         23    2    1    2    0    0  0.00000000000E+00  0.19151347175E-14 -0.71054273576E-14  0.91188000000E+02  0.91188000000E+02 0.  0.
    9900012    2    3    3    0    0 -0.12312080249E+02  0.16187215327E+00 -0.41617426270E+02  0.47787266228E+02  0.19999978038E+02 0.  0.
         12    1    3    3    0    0  0.12312080249E+02 -0.16187215327E+00  0.41617426270E+02  0.43400733772E+02  0.00000000000E+00 0. -1.
         11    1    4    4    0    0 -0.18579327163E+01  0.50773024201E+01 -0.79942873993E+01  0.96508831268E+01  0.51100000000E-03 0. -1.
        -11    1    4    4    0    0 -0.63540611374E+01 -0.96578952011E+01 -0.19235103135E+02  0.22441885516E+02  0.51100000000E-03 0.  1.
        -12    1    4    4    0    0 -0.41000863952E+01  0.47424649343E+01 -0.14388035736E+02  0.15694497585E+02  0.00000000000E+00 0.  1.
</event>
<event>
 8    1  0.8600524E-011  0.9118800E+02  0.7816164E-02  0.1184000E+00
        -11   -1    0    0    0    0  0.00000000000E+00  0.00000000000E+00  0.45593999997E+02  0.45594000000E+02  0.51100000000E-03 0. -1.
         11   -1    0    0    0    0 -0.00000000000E+00 -0.00000000000E+00 -0.45593999997E+02  0.45594000000E+02  0.51100000000E-03 0.  1.
         23    2    1    2    0    0  0.35527136788E-14 -0.88817841970E-15  0.00000000000E+00  0.91188000000E+02  0.91188000000E+02 0.  0.
    9900012    2    3    3    0    0 -0.12834402701E+02  0.60660647496E+01  0.41013461749E+02  0.47787273291E+02  0.20000010244E+02 0.  0.
        -12    1    3    3    0    0  0.12834402701E+02 -0.60660647496E+01 -0.41013461749E+02  0.43400726709E+02  0.00000000000E+00 0.  1.
         11    1    4    4    0    0 -0.10067800615E+02  0.17600219785E+01  0.30327547681E+02  0.32003412868E+02  0.51100000000E-03 0. -1.
        -11    1    4    4    0    0  0.28828640598E+01  0.36145124200E+01  0.12924859055E+01  0.48006380095E+01  0.51100000000E-03 0.  1.
        -12    1    4    4    0    0 -0.56494661451E+01  0.69153035113E+00  0.93934281625E+01  0.10983222414E+02  0.00000000000E+00 0.  1.
</event>
<event>
 8    1  0.8600524E-011  0.9118800E+02  0.7816164E-02  0.1184000E+00
        -11   -1    0    0    0    0  0.00000000000E+00  0.00000000000E+00  0.45593999997E+02  0.45594000000E+02  0.51100000000E-03 0. -1.
         11   -1    0    0    0    0 -0.00000000000E+00 -0.00000000000E+00 -0.45593999997E+02  0.45594000000E+02  0.51100000000E-03 0.  1.
         23    2    1    2    0    0  0.00000000000E+00  0.00000000000E+00  0.00000000000E+00  0.91188000000E+02  0.91188000000E+02 0.  0.
    9900012    2    3    3    0    0  0.28327078795E+02  0.13313653845E+02 -0.30065702763E+02  0.47787271268E+02  0.20000001021E+02 0.  0.
         12    1    3    3    0    0 -0.28327078795E+02 -0.13313653845E+02  0.30065702763E+02  0.43400728732E+02  0.00000000000E+00 0. -1.
         11    1    4    4    0    0  0.57599368555E+01  0.54489901557E+01  0.88669985638E-02  0.79289624278E+01  0.51100000000E-03 0. -1.
        -11    1    4    4    0    0  0.10131610573E+02  0.52320428943E+00 -0.19426944409E+02  0.21916419526E+02  0.51100000000E-03 0.  1.
         12    1    4    4    0    0  0.12435531367E+02  0.73414594003E+01 -0.10647625353E+02  0.17941889314E+02  0.00000000000E+00 0. -1.
</event>
<event>
 8    1  0.8600524E-011  0.9118800E+02  0.7816164E-02  0.1184000E+00
        -11   -1    0    0    0    0  0.00000000000E+00  0.00000000000E+00  0.45593999997E+02  0.45594000000E+02  0.51100000000E-03 0.  1.
         11   -1    0    0    0    0 -0.00000000000E+00 -0.00000000000E+00 -0.45593999997E+02  0.45594000000E+02  0.51100000000E-03 0. -1.
         23    2    1    2    0    0  0.00000000000E+00 -0.44408920985E-15  0.00000000000E+00  0.91188000000E+02  0.91188000000E+02 0.  0.
    9900012    2    3    3    0    0 -0.37456973175E+02 -0.25667787749E+01  0.21771759026E+02  0.47787277843E+02  0.20000030996E+02 0.  0.
        -12    1    3    3    0    0  0.37456973175E+02  0.25667787749E+01 -0.21771759026E+02  0.43400722157E+02  0.00000000000E+00 0.  1.
         11    1    4    4    0    0 -0.18816459481E+02 -0.33819588111E+01  0.59534516146E+01  0.20023495678E+02  0.51100000000E-03 0. -1.
        -11    1    4    4    0    0 -0.22360685361E+01  0.10295232110E+01  0.10091061236E+02  0.10386984050E+02  0.51100000000E-03 0.  1.
        -12    1    4    4    0    0 -0.16404445158E+02 -0.21434317475E+00  0.57272461756E+01  0.17376798114E+02  0.00000000000E+00 0.  1.
</event>
<event>
 8    1  0.8600524E-011  0.9118800E+02  0.7816164E-02  0.1184000E+00
        -11   -1    0    0    0    0  0.00000000000E+00  0.00000000000E+00  0.45593999997E+02  0.45594000000E+02  0.51100000000E-03 0.  1.
         11   -1    0    0    0    0 -0.00000000000E+00 -0.00000000000E+00 -0.45593999997E+02  0.45594000000E+02  0.51100000000E-03 0. -1.
         23    2    1    2    0    0  0.00000000000E+00  0.00000000000E+00 -0.44408920985E-15  0.91188000000E+02  0.91188000000E+02 0.  0.
    9900012    2    3    3    0    0  0.38131927817E+02 -0.20592577721E+02 -0.23505517796E+01  0.47787271090E+02  0.20000000209E+02 0.  0.
        -12    1    3    3    0    0 -0.38131927817E+02  0.20592577721E+02  0.23505517796E+01  0.43400728910E+02  0.00000000000E+00 0.  1.
         11    1    4    4    0    0  0.28255880668E+01 -0.60322515914E+01 -0.54218398966E+01  0.85888506397E+01  0.51100000000E-03 0. -1.
        -11    1    4    4    0    0  0.14291320104E+02 -0.91248434729E+01  0.41798463974E+01  0.17463553902E+02  0.51100000000E-03 0.  1.
         12    1    4    4    0    0  0.21015019646E+02 -0.54354826569E+01 -0.11085582804E+01  0.21734866549E+02  0.00000000000E+00 0. -1.
</event>
<event>
 8    1  0.8600524E-011  0.9118800E+02  0.7816164E-02  0.1184000E+00
        -11   -1    0    0    0    0  0.00000000000E+00  0.00000000000E+00  0.45593999997E+02  0.45594000000E+02  0.51100000000E-03 0. -1.
         11   -1    0    0    0    0 -0.00000000000E+00 -0.00000000000E+00 -0.45593999997E+02  0.45594000000E+02  0.51100000000E-03 0.  1.
         23    2    1    2    0    0  0.44408920985E-15  0.00000000000E+00  0.00000000000E+00  0.91188000000E+02  0.91188000000E+02 0.  0.
    9900012    2    3    3    0    0  0.39781677481E+01 -0.40620796190E+02 -0.14756281903E+02  0.47787276995E+02  0.20000027130E+02 0.  0.
         12    1    3    3    0    0 -0.39781677481E+01  0.40620796190E+02  0.14756281903E+02  0.43400723005E+02  0.00000000000E+00 0. -1.
         11    1    4    4    0    0 -0.38293658883E+01 -0.56699255250E+01 -0.36318142020E+01  0.77461069722E+01  0.51100000000E-03 0. -1.
        -11    1    4    4    0    0  0.29507384314E+01 -0.19926192233E+02  0.94635509033E+00  0.20165703122E+02  0.51100000000E-03 0.  1.
        -12    1    4    4    0    0  0.48567952050E+01 -0.15024678432E+02 -0.12070822791E+02  0.19875466900E+02  0.00000000000E+00 0.  1.
</event>
<event>
 8    1  0.8600524E-011  0.9118800E+02  0.7816164E-02  0.1184000E+00
        -11   -1    0    0    0    0  0.00000000000E+00  0.00000000000E+00  0.45593999997E+02  0.45594000000E+02  0.51100000000E-03 0.  1.
         11   -1    0    0    0    0 -0.00000000000E+00 -0.00000000000E+00 -0.45593999997E+02  0.45594000000E+02  0.51100000000E-03 0. -1.
         23    2    1    2    0    0  0.00000000000E+00  0.00000000000E+00  0.00000000000E+00  0.91188000000E+02  0.91188000000E+02 0.  0.
    9900012    2    3    3    0    0 -0.36363417955E+02  0.14586841527E+02 -0.18669488170E+02  0.47787263835E+02  0.19999967130E+02 0.  0.
         12    1    3    3    0    0  0.36363417955E+02 -0.14586841527E+02  0.18669488170E+02  0.43400736165E+02  0.00000000000E+00 0. -1.
         11    1    4    4    0    0 -0.94874885716E+01  0.96766894600E+01 -0.77061098484E+01  0.15589576247E+02  0.51100000000E-03 0. -1.
        -11    1    4    4    0    0 -0.74766289675E+01 -0.37445113410E+01 -0.62479127899E+01  0.10438283403E+02  0.51100000000E-03 0.  1.
        -12    1    4    4    0    0 -0.19399300416E+02  0.86546634082E+01 -0.47154655321E+01  0.21759404186E+02  0.00000000000E+00 0.  1.
</event>
<event>
 8    1  0.8600524E-011  0.9118800E+02  0.7816164E-02  0.1184000E+00
        -11   -1    0    0    0    0  0.00000000000E+00  0.00000000000E+00  0.45593999997E+02  0.45594000000E+02  0.51100000000E-03 0. -1.
         11   -1    0    0    0    0 -0.00000000000E+00 -0.00000000000E+00 -0.45593999997E+02  0.45594000000E+02  0.51100000000E-03 0.  1.
         23    2    1    2    0    0  0.00000000000E+00  0.00000000000E+00  0.00000000000E+00  0.91188000000E+02  0.91188000000E+02 0.  0.
    9900012    2    3    3    0    0  0.37208848160E+02  0.11761092037E+02  0.18994813063E+02  0.47787255875E+02  0.19999930837E+02 0.  0.
        -12    1    3    3    0    0 -0.37208848160E+02 -0.11761092037E+02 -0.18994813063E+02  0.43400744125E+02  0.00000000000E+00 0.  1.
         11    1    4    4    0    0  0.65797048815E+01  0.18580818911E+01  0.49712657755E+01  0.84533110858E+01  0.51100000000E-03 0. -1.
        -11    1    4    4    0    0  0.23006505508E+02  0.78581231496E+01  0.18233327303E+02  0.30389202357E+02  0.51100000000E-03 0.  1.
        -12    1    4    4    0    0  0.76226377706E+01  0.20448869967E+01 -0.42097800145E+01  0.89447424324E+01  0.00000000000E+00 0.  1.
</event>
<event>
 8    1  0.8600524E-011  0.9118800E+02  0.7816164E-02  0.1184000E+00
        -11   -1    0    0    0    0  0.00000000000E+00  0.00000000000E+00  0.45593999997E+02  0.45594000000E+02  0.51100000000E-03 0. -1.
         11   -1    0    0    0    0 -0.00000000000E+00 -0.00000000000E+00 -0.45593999997E+02  0.45594000000E+02  0.51100000000E-03 0.  1.
         23    2    1    2    0    0  0.00000000000E+00  0.00000000000E+00  0.00000000000E+00  0.91188000000E+02  0.91188000000E+02 0.  0.
    9900012    2    3    3    0    0  0.16894125666E+02 -0.17429466372E+02  0.35978130936E+02  0.47787266300E+02  0.19999978369E+02 0.  0.
        -12    1    3    3    0    0 -0.16894125666E+02  0.17429466372E+02 -0.35978130936E+02  0.43400733700E+02  0.00000000000E+00 0.  1.
         11    1    4    4    0    0  0.10045105761E+02 -0.20158810501E+02  0.30002850871E+02  0.37516034588E+02  0.51100000000E-03 0. -1.
        -11    1    4    4    0    0  0.39413727468E+01  0.13206825083E+01  0.56636262357E+01  0.70253315805E+01  0.51100000000E-03 0.  1.
         12    1    4    4    0    0  0.29076471579E+01  0.14086616207E+01  0.31165382982E+00  0.32459001318E+01  0.00000000000E+00 0. -1.
</event>
<event>
 8    1  0.8600524E-011  0.9118800E+02  0.7816164E-02  0.1184000E+00
        -11   -1    0    0    0    0  0.00000000000E+00  0.00000000000E+00  0.45593999997E+02  0.45594000000E+02  0.51100000000E-03 0. -1.
         11   -1    0    0    0    0 -0.00000000000E+00 -0.00000000000E+00 -0.45593999997E+02  0.45594000000E+02  0.51100000000E-03 0.  1.
         23    2    1    2    0    0 -0.17763568394E-14 -0.88817841970E-15  0.00000000000E+00  0.91188000000E+02  0.91188000000E+02 0.  0.
    9900012    2    3    3    0    0 -0.14354819746E+02  0.73924996720E+01  0.40285399019E+02  0.47787271026E+02  0.19999999917E+02 0.  0.
        -12    1    3    3    0    0  0.14354819746E+02 -0.73924996720E+01 -0.40285399019E+02  0.43400728974E+02  0.00000000000E+00 0.  1.
         11    1    4    4    0    0 -0.95424635657E+00  0.16724377263E+01  0.42999142171E+01  0.47113582535E+01  0.51100000000E-03 0. -1.
        -11    1    4    4    0    0 -0.16371388684E+02  0.94223156325E+01  0.27711734487E+02  0.33537182765E+02  0.51100000000E-03 0.  1.
        -12    1    4    4    0    0  0.29708152944E+01 -0.37022536868E+01  0.82737503153E+01  0.95387300074E+01  0.00000000000E+00 0.  1.
</event>
<event>
 8    1  0.8600524E-011  0.9118800E+02  0.7816164E-02  0.1184000E+00
        -11   -1    0    0    0    0  0.00000000000E+00  0.00000000000E+00  0.45593999997E+02  0.45594000000E+02  0.51100000000E-03 0. -1.
         11   -1    0    0    0    0 -0.00000000000E+00 -0.00000000000E+00 -0.45593999997E+02  0.45594000000E+02  0.51100000000E-03 0.  1.
         23    2    1    2    0    0  0.00000000000E+00  0.00000000000E+00  0.00000000000E+00  0.91188000000E+02  0.91188000000E+02 0.  0.
    9900012    2    3    3    0    0  0.24299425141E+01 -0.22427367156E+02  0.37077376786E+02  0.47787270887E+02  0.19999999283E+02 0.  0.
        -12    1    3    3    0    0 -0.24299425141E+01  0.22427367156E+02 -0.37077376786E+02  0.43400729113E+02  0.00000000000E+00 0.  1.
         11    1    4    4    0    0  0.19907784861E+01 -0.11602531550E+02  0.45808830438E+01  0.12631960539E+02  0.51100000000E-03 0. -1.
        -11    1    4    4    0    0  0.33585455276E+01 -0.97053453851E+01  0.24189264415E+02  0.26279156575E+02  0.51100000000E-03 0.  1.
         12    1    4    4    0    0 -0.29193814996E+01 -0.11194902206E+01  0.83072293274E+01  0.88761537724E+01  0.00000000000E+00 0. -1.
</event>
<event>
 8    1  0.8600524E-011  0.9118800E+02  0.7816164E-02  0.1184000E+00
        -11   -1    0    0    0    0  0.00000000000E+00  0.00000000000E+00  0.45593999997E+02  0.45594000000E+02  0.51100000000E-03 0. -1.
         11   -1    0    0    0    0 -0.00000000000E+00 -0.00000000000E+00 -0.45593999997E+02  0.45594000000E+02  0.51100000000E-03 0.  1.
         23    2    1    2    0    0  0.00000000000E+00  0.00000000000E+00  0.00000000000E+00  0.91188000000E+02  0.91188000000E+02 0.  0.
    9900012    2    3    3    0    0 -0.10639546106E+02  0.27309479255E+02  0.32009618726E+02  0.47787270865E+02  0.19999999181E+02 0.  0.
        -12    1    3    3    0    0  0.10639546106E+02 -0.27309479255E+02 -0.32009618726E+02  0.43400729135E+02  0.00000000000E+00 0.  1.
         11    1    4    4    0    0 -0.69942324709E+01  0.19368326957E+02  0.27005205670E+02  0.33960749558E+02  0.51100000000E-03 0. -1.
        -11    1    4    4    0    0 -0.36948595390E+01  0.98531119443E+01  0.27625947646E+01  0.10879693566E+02  0.51100000000E-03 0.  1.
         12    1    4    4    0    0  0.49545904218E-01 -0.19119596465E+01  0.22418182908E+01  0.29468277410E+01  0.00000000000E+00 0. -1.
</event>
<event>
 8    1  0.8600524E-011  0.9118800E+02  0.7816164E-02  0.1184000E+00
        -11   -1    0    0    0    0  0.00000000000E+00  0.00000000000E+00  0.45593999997E+02  0.45594000000E+02  0.51100000000E-03 0. -1.
         11   -1    0    0    0    0 -0.00000000000E+00 -0.00000000000E+00 -0.45593999997E+02  0.45594000000E+02  0.51100000000E-03 0.  1.
         23    2    1    2    0    0  0.00000000000E+00  0.00000000000E+00  0.00000000000E+00  0.91188000000E+02  0.91188000000E+02 0.  0.
    9900012    2    3    3    0    0  0.73702353936E+01 -0.56123318788E+01 -0.42400526906E+02  0.47787270504E+02  0.19999997534E+02 0.  0.
         12    1    3    3    0    0 -0.73702353936E+01  0.56123318788E+01  0.42400526906E+02  0.43400729496E+02  0.00000000000E+00 0. -1.
         11    1    4    4    0    0 -0.94732985525E+00  0.21625223296E+00 -0.65764568553E+01  0.66478555876E+01  0.51100000000E-03 0. -1.
        -11    1    4    4    0    0  0.91149625213E+00 -0.48630023314E+00  0.19879289957E+01  0.22403515990E+01  0.51100000000E-03 0.  1.
        -12    1    4    4    0    0  0.74060689967E+01 -0.53422838786E+01 -0.37811999047E+02  0.38899063317E+02  0.00000000000E+00 0.  1.
</event>
<event>
 8    1  0.8600524E-011  0.9118800E+02  0.7816164E-02  0.1184000E+00
        -11   -1    0    0    0    0  0.00000000000E+00  0.00000000000E+00  0.45593999997E+02  0.45594000000E+02  0.51100000000E-03 0. -1.
         11   -1    0    0    0    0 -0.00000000000E+00 -0.00000000000E+00 -0.45593999997E+02  0.45594000000E+02  0.51100000000E-03 0.  1.
         23    2    1    2    0    0  0.88817841970E-15 -0.71054273576E-14 -0.35527136788E-14  0.91188000000E+02  0.91188000000E+02 0.  0.
    9900012    2    3    3    0    0  0.50384107598E+01 -0.30656785243E+02 -0.30305098015E+02  0.47787273853E+02  0.20000012805E+02 0.  0.
         12    1    3    3    0    0 -0.50384107598E+01  0.30656785243E+02  0.30305098015E+02  0.43400726147E+02  0.00000000000E+00 0. -1.
         11    1    4    4    0    0  0.42259450054E+01 -0.31104564374E+01  0.85285260527E+00  0.53160989706E+01  0.51100000000E-03 0. -1.
        -11    1    4    4    0    0 -0.16574603194E+01 -0.13228892755E+02 -0.20492710216E+02  0.24447943686E+02  0.51100000000E-03 0.  1.
         12    1    4    4    0    0  0.24699260738E+01 -0.14317436050E+02 -0.10665240404E+02  0.18023231196E+02  0.00000000000E+00 0. -1.
</event>
<event>
 8    1  0.8600524E-011  0.9118800E+02  0.7816164E-02  0.1184000E+00
        -11   -1    0    0    0    0  0.00000000000E+00  0.00000000000E+00  0.45593999997E+02  0.45594000000E+02  0.51100000000E-03 0. -1.
         11   -1    0    0    0    0 -0.00000000000E+00 -0.00000000000E+00 -0.45593999997E+02  0.45594000000E+02  0.51100000000E-03 0.  1.
         23    2    1    2    0    0  0.88817841970E-15 -0.17763568394E-14  0.00000000000E+00  0.91188000000E+02  0.91188000000E+02 0.  0.
    9900012    2    3    3    0    0  0.44783590194E+01  0.14475748939E+02 -0.40669646161E+02  0.47787272752E+02  0.20000007784E+02 0.  0.
         12    1    3    3    0    0 -0.44783590194E+01 -0.14475748939E+02  0.40669646161E+02  0.43400727248E+02  0.00000000000E+00 0. -1.
         11    1    4    4    0    0 -0.12754921228E+01  0.15051224906E+01  0.17598409614E+01  0.26437311394E+01  0.51100000000E-03 0. -1.
        -11    1    4    4    0    0  0.69869854750E+01  0.11548076476E+02 -0.38185809654E+02  0.40501013512E+02  0.51100000000E-03 0.  1.
        -12    1    4    4    0    0 -0.12331343328E+01  0.14225499723E+01 -0.42436774681E+01  0.46425281000E+01  0.00000000000E+00 0.  1.
</event>
<event>
 8    1  0.8600524E-011  0.9118800E+02  0.7816164E-02  0.1184000E+00
        -11   -1    0    0    0    0  0.00000000000E+00  0.00000000000E+00  0.45593999997E+02  0.45594000000E+02  0.51100000000E-03 0. -1.
         11   -1    0    0    0    0 -0.00000000000E+00 -0.00000000000E+00 -0.45593999997E+02  0.45594000000E+02  0.51100000000E-03 0.  1.
         23    2    1    2    0    0  0.00000000000E+00  0.00000000000E+00  0.00000000000E+00  0.91188000000E+02  0.91188000000E+02 0.  0.
    9900012    2    3    3    0    0 -0.28342323990E+02  0.16021587314E+02  0.28699210665E+02  0.47787270951E+02  0.19999999573E+02 0.  0.
        -12    1    3    3    0    0  0.28342323990E+02 -0.16021587314E+02 -0.28699210665E+02  0.43400729049E+02  0.00000000000E+00 0.  1.
         11    1    4    4    0    0 -0.13289997007E+02  0.82487998635E+01  0.18203763291E+02  0.24000910771E+02  0.51100000000E-03 0. -1.
        -11    1    4    4    0    0 -0.21113348267E+01 -0.24111405257E+01 -0.13739582017E+01  0.34869893585E+01  0.51100000000E-03 0.  1.
        -12    1    4    4    0    0 -0.12940992157E+02  0.10183927976E+02  0.11869405576E+02  0.20299370822E+02  0.00000000000E+00 0.  1.
</event>
<event>
 8    1  0.8600524E-011  0.9118800E+02  0.7816164E-02  0.1184000E+00
        -11   -1    0    0    0    0  0.00000000000E+00  0.00000000000E+00  0.45593999997E+02  0.45594000000E+02  0.51100000000E-03 0. -1.
         11   -1    0    0    0    0 -0.00000000000E+00 -0.00000000000E+00 -0.45593999997E+02  0.45594000000E+02  0.51100000000E-03 0.  1.
         23    2    1    2    0    0  0.00000000000E+00  0.00000000000E+00  0.00000000000E+00  0.91188000000E+02  0.91188000000E+02 0.  0.
    9900012    2    3    3    0    0 -0.10953495064E+02  0.39551505056E+02  0.14118168272E+02  0.47787270955E+02  0.19999999591E+02 0.  0.
        -12    1    3    3    0    0  0.10953495064E+02 -0.39551505056E+02 -0.14118168272E+02  0.43400729045E+02  0.00000000000E+00 0.  1.
         11    1    4    4    0    0 -0.21496619547E+01 -0.19807503168E+01  0.14994829775E+01  0.32852500358E+01  0.51100000000E-03 0. -1.
        -11    1    4    4    0    0 -0.38120856462E+01  0.27877479404E+02  0.83314533397E+01  0.29344487896E+02  0.51100000000E-03 0.  1.
        -12    1    4    4    0    0 -0.49917474632E+01  0.13654775969E+02  0.42872319547E+01  0.15157533023E+02  0.00000000000E+00 0.  1.
</event>
<event>
 8    1  0.8600524E-011  0.9118800E+02  0.7816164E-02  0.1184000E+00
        -11   -1    0    0    0    0  0.00000000000E+00  0.00000000000E+00  0.45593999997E+02  0.45594000000E+02  0.51100000000E-03 0. -1.
         11   -1    0    0    0    0 -0.00000000000E+00 -0.00000000000E+00 -0.45593999997E+02  0.45594000000E+02  0.51100000000E-03 0.  1.
         23    2    1    2    0    0  0.00000000000E+00 -0.35527136788E-14  0.00000000000E+00  0.91188000000E+02  0.91188000000E+02 0.  0.
    9900012    2    3    3    0    0  0.30611033658E+02 -0.24421138560E+02 -0.18713521148E+02  0.47787271159E+02  0.20000000522E+02 0.  0.
         12    1    3    3    0    0 -0.30611033658E+02  0.24421138560E+02  0.18713521148E+02  0.43400728841E+02  0.00000000000E+00 0. -1.
         11    1    4    4    0    0  0.15064825984E+02 -0.67960061031E+01 -0.14251257246E+02  0.21822763671E+02  0.51100000000E-03 0. -1.
        -11    1    4    4    0    0  0.83445214373E+01 -0.14649072563E+02 -0.62314761242E+01  0.17973804826E+02  0.51100000000E-03 0.  1.
         12    1    4    4    0    0  0.72016862366E+01 -0.29760598934E+01  0.17692122222E+01  0.79907026616E+01  0.00000000000E+00 0. -1.
</event>
<event>
 8    1  0.8600524E-011  0.9118800E+02  0.7816164E-02  0.1184000E+00
        -11   -1    0    0    0    0  0.00000000000E+00  0.00000000000E+00  0.45593999997E+02  0.45594000000E+02  0.51100000000E-03 0. -1.
         11   -1    0    0    0    0 -0.00000000000E+00 -0.00000000000E+00 -0.45593999997E+02  0.45594000000E+02  0.51100000000E-03 0.  1.
         23    2    1    2    0    0  0.00000000000E+00 -0.71054273576E-14  0.00000000000E+00  0.91188000000E+02  0.91188000000E+02 0.  0.
    9900012    2    3    3    0    0  0.13143339240E+02 -0.39689918528E+02 -0.11644149090E+02  0.47787271813E+02  0.20000003502E+02 0.  0.
         12    1    3    3    0    0 -0.13143339240E+02  0.39689918528E+02  0.11644149090E+02  0.43400728187E+02  0.00000000000E+00 0. -1.
         11    1    4    4    0    0  0.69614411245E+01 -0.82674408371E+01 -0.16282845586E+01  0.10929938307E+02  0.51100000000E-03 0.  1.
        -11    1    4    4    0    0  0.16757380999E+01 -0.16822603416E+02  0.25210756214E+01  0.17092802766E+02  0.51100000000E-03 0. -1.
        -12    1    4    4    0    0  0.45061600152E+01 -0.14599874276E+02 -0.12536940153E+02  0.19764530739E+02  0.00000000000E+00 0.  1.
</event>
<event>
 8    1  0.8600524E-011  0.9118800E+02  0.7816164E-02  0.1184000E+00
        -11   -1    0    0    0    0  0.00000000000E+00  0.00000000000E+00  0.45593999997E+02  0.45594000000E+02  0.51100000000E-03 0. -1.
         11   -1    0    0    0    0 -0.00000000000E+00 -0.00000000000E+00 -0.45593999997E+02  0.45594000000E+02  0.51100000000E-03 0.  1.
         23    2    1    2    0    0  0.00000000000E+00 -0.88817841970E-15  0.00000000000E+00  0.91188000000E+02  0.91188000000E+02 0.  0.
    9900012    2    3    3    0    0 -0.51182260557E+01  0.56221998073E+01 -0.42729592818E+02  0.47787268773E+02  0.19999989644E+02 0.  0.
         12    1    3    3    0    0  0.51182260557E+01 -0.56221998073E+01  0.42729592818E+02  0.43400731227E+02  0.00000000000E+00 0. -1.
         11    1    4    4    0    0 -0.66096447259E+01  0.86365095500E+01 -0.12575382411E+02  0.16625791519E+02  0.51100000000E-03 0. -1.
        -11    1    4    4    0    0 -0.41432582800E+00  0.10627386565E+01 -0.20256931529E+02  0.20289020543E+02  0.51100000000E-03 0.  1.
         12    1    4    4    0    0  0.19057444982E+01 -0.40770483992E+01 -0.98972788780E+01  0.10872456711E+02  0.00000000000E+00 0. -1.
</event>
<event>
 8    1  0.8600524E-011  0.9118800E+02  0.7816164E-02  0.1184000E+00
        -11   -1    0    0    0    0  0.00000000000E+00  0.00000000000E+00  0.45593999997E+02  0.45594000000E+02  0.51100000000E-03 0. -1.
         11   -1    0    0    0    0 -0.00000000000E+00 -0.00000000000E+00 -0.45593999997E+02  0.45594000000E+02  0.51100000000E-03 0.  1.
         23    2    1    2    0    0  0.44408920985E-15 -0.88817841970E-15  0.00000000000E+00  0.91188000000E+02  0.91188000000E+02 0.  0.
    9900012    2    3    3    0    0 -0.15004357743E+01  0.50056766617E+01  0.43084980416E+02  0.47787266783E+02  0.19999980570E+02 0.  0.
        -12    1    3    3    0    0  0.15004357743E+01 -0.50056766617E+01 -0.43084980416E+02  0.43400733217E+02  0.00000000000E+00 0.  1.
         11    1    4    4    0    0 -0.24893651051E+01 -0.27961820306E+01  0.12748372411E+02  0.13286706588E+02  0.51100000000E-03 0. -1.
        -11    1    4    4    0    0  0.51473439440E+01  0.74581087347E+01  0.28564102392E+02  0.29967089970E+02  0.51100000000E-03 0.  1.
        -12    1    4    4    0    0 -0.41584146132E+01  0.34374995762E+00  0.17725056132E+01  0.45334702246E+01  0.00000000000E+00 0.  1.
</event>
<event>
 8    1  0.8600524E-011  0.9118800E+02  0.7816164E-02  0.1184000E+00
        -11   -1    0    0    0    0  0.00000000000E+00  0.00000000000E+00  0.45593999997E+02  0.45594000000E+02  0.51100000000E-03 0. -1.
         11   -1    0    0    0    0 -0.00000000000E+00 -0.00000000000E+00 -0.45593999997E+02  0.45594000000E+02  0.51100000000E-03 0.  1.
         23    2    1    2    0    0  0.00000000000E+00  0.44408920985E-15  0.22204460493E-15  0.91188000000E+02  0.91188000000E+02 0.  0.
    9900012    2    3    3    0    0  0.43315451639E+02 -0.26300021695E+01 -0.69127126319E+00  0.47787272839E+02  0.20000008184E+02 0.  0.
         12    1    3    3    0    0 -0.43315451639E+02  0.26300021695E+01  0.69127126319E+00  0.43400727161E+02  0.00000000000E+00 0. -1.
         11    1    4    4    0    0  0.79926290826E+01  0.42123433034E+01  0.24551359820E+01  0.93623527336E+01  0.51100000000E-03 0. -1.
        -11    1    4    4    0    0  0.35655519270E+02 -0.63521778027E+01 -0.10347217423E+01  0.36231710788E+02  0.51100000000E-03 0.  1.
        -12    1    4    4    0    0 -0.33269671400E+00 -0.49016767018E+00 -0.21116855029E+01  0.21932093177E+01  0.00000000000E+00 0.  1.
</event>
<event>
 8    1  0.8600524E-011  0.9118800E+02  0.7816164E-02  0.1184000E+00
        -11   -1    0    0    0    0  0.00000000000E+00  0.00000000000E+00  0.45593999997E+02  0.45594000000E+02  0.51100000000E-03 0. -1.
         11   -1    0    0    0    0 -0.00000000000E+00 -0.00000000000E+00 -0.45593999997E+02  0.45594000000E+02  0.51100000000E-03 0.  1.
         23    2    1    2    0    0  0.44408920985E-15  0.00000000000E+00  0.00000000000E+00  0.91188000000E+02  0.91188000000E+02 0.  0.
    9900012    2    3    3    0    0 -0.14924623860E+01  0.29564969038E+02 -0.31738128644E+02  0.47787266735E+02  0.19999980349E+02 0.  0.
         12    1    3    3    0    0  0.14924623860E+01 -0.29564969038E+02  0.31738128644E+02  0.43400733265E+02  0.00000000000E+00 0. -1.
         11    1    4    4    0    0 -0.31919860133E+01  0.84008417340E+01 -0.39089668244E+00  0.89953163939E+01  0.51100000000E-03 0. -1.
        -11    1    4    4    0    0  0.70184181535E+00  0.21589316335E+02 -0.28616948184E+02  0.35854161340E+02  0.51100000000E-03 0.  1.
        -12    1    4    4    0    0  0.99768181194E+00 -0.42518903125E+00 -0.27302837768E+01  0.29377890006E+01  0.00000000000E+00 0.  1.
</event>
<event>
 8    1  0.8600524E-011  0.9118800E+02  0.7816164E-02  0.1184000E+00
        -11   -1    0    0    0    0  0.00000000000E+00  0.00000000000E+00  0.45593999997E+02  0.45594000000E+02  0.51100000000E-03 0. -1.
         11   -1    0    0    0    0 -0.00000000000E+00 -0.00000000000E+00 -0.45593999997E+02  0.45594000000E+02  0.51100000000E-03 0.  1.
         23    2    1    2    0    0  0.00000000000E+00  0.00000000000E+00  0.00000000000E+00  0.91188000000E+02  0.91188000000E+02 0.  0.
    9900012    2    3    3    0    0 -0.21559674391E+02 -0.20225254989E+02  0.31776450085E+02  0.47787270983E+02  0.19999999718E+02 0.  0.
        -12    1    3    3    0    0  0.21559674391E+02  0.20225254989E+02 -0.31776450085E+02  0.43400729017E+02  0.00000000000E+00 0.  1.
         11    1    4    4    0    0 -0.12966916455E+02 -0.98397645791E+01  0.21072873137E+02  0.26627577281E+02  0.51100000000E-03 0. -1.
        -11    1    4    4    0    0 -0.90556702619E+01 -0.30953432301E+01  0.99672798809E+01  0.13817850125E+02  0.51100000000E-03 0.  1.
         12    1    4    4    0    0  0.46291232613E+00 -0.72901471801E+01  0.73629706734E+00  0.73418435764E+01  0.00000000000E+00 0. -1.
</event>
<event>
 8    1  0.8600524E-011  0.9118800E+02  0.7816164E-02  0.1184000E+00
        -11   -1    0    0    0    0  0.00000000000E+00  0.00000000000E+00  0.45593999997E+02  0.45594000000E+02  0.51100000000E-03 0. -1.
         11   -1    0    0    0    0 -0.00000000000E+00 -0.00000000000E+00 -0.45593999997E+02  0.45594000000E+02  0.51100000000E-03 0.  1.
         23    2    1    2    0    0  0.00000000000E+00  0.00000000000E+00  0.00000000000E+00  0.91188000000E+02  0.91188000000E+02 0.  0.
    9900012    2    3    3    0    0  0.18627439788E+02 -0.71492257752E+01 -0.38542579242E+02  0.47787270088E+02  0.19999995641E+02 0.  0.
         12    1    3    3    0    0 -0.18627439788E+02  0.71492257752E+01  0.38542579242E+02  0.43400729912E+02  0.00000000000E+00 0. -1.
         11    1    4    4    0    0  0.16760002597E+02  0.10644952627E+01 -0.23101860366E+02  0.28560931180E+02  0.51100000000E-03 0. -1.
        -11    1    4    4    0    0 -0.25575321188E+01 -0.53734230920E+01 -0.10157990046E+02  0.11772824992E+02  0.51100000000E-03 0.  1.
        -12    1    4    4    0    0  0.44249693090E+01 -0.28402979459E+01 -0.52827288299E+01  0.74535139161E+01  0.00000000000E+00 0.  1.
</event>
<event>
 8    1  0.8600524E-011  0.9118800E+02  0.7816164E-02  0.1184000E+00
        -11   -1    0    0    0    0  0.00000000000E+00  0.00000000000E+00  0.45593999997E+02  0.45594000000E+02  0.51100000000E-03 0. -1.
         11   -1    0    0    0    0 -0.00000000000E+00 -0.00000000000E+00 -0.45593999997E+02  0.45594000000E+02  0.51100000000E-03 0.  1.
         23    2    1    2    0    0  0.00000000000E+00  0.17763568394E-14  0.00000000000E+00  0.91188000000E+02  0.91188000000E+02 0.  0.
    9900012    2    3    3    0    0  0.13299907889E+02 -0.11876005608E+02 -0.39568879558E+02  0.47787270876E+02  0.19999999232E+02 0.  0.
         12    1    3    3    0    0 -0.13299907889E+02  0.11876005608E+02  0.39568879558E+02  0.43400729124E+02  0.00000000000E+00 0. -1.
         11    1    4    4    0    0  0.11349920258E+02  0.83158951908E-01 -0.21942797165E+02  0.24704533045E+02  0.51100000000E-03 0. -1.
        -11    1    4    4    0    0  0.63884768942E+00 -0.23721239479E+01 -0.11201789027E+02  0.11468006629E+02  0.51100000000E-03 0.  1.
         12    1    4    4    0    0  0.13111399417E+01 -0.95870406118E+01 -0.64242933658E+01  0.11614731202E+02  0.00000000000E+00 0. -1.
</event>
<event>
 8    1  0.8600524E-011  0.9118800E+02  0.7816164E-02  0.1184000E+00
        -11   -1    0    0    0    0  0.00000000000E+00  0.00000000000E+00  0.45593999997E+02  0.45594000000E+02  0.51100000000E-03 0. -1.
         11   -1    0    0    0    0 -0.00000000000E+00 -0.00000000000E+00 -0.45593999997E+02  0.45594000000E+02  0.51100000000E-03 0.  1.
         23    2    1    2    0    0 -0.88817841970E-15  0.00000000000E+00  0.17763568394E-14  0.91188000000E+02  0.91188000000E+02 0.  0.
    9900012    2    3    3    0    0 -0.57555258905E+01  0.40781189681E+02  0.13689086427E+02  0.47787278839E+02  0.20000035537E+02 0.  0.
        -12    1    3    3    0    0  0.57555258905E+01 -0.40781189681E+02 -0.13689086427E+02  0.43400721161E+02  0.00000000000E+00 0.  1.
         11    1    4    4    0    0 -0.50425240785E+00  0.10660541077E+02  0.93407219077E+01  0.14182753349E+02  0.51100000000E-03 0. -1.
        -11    1    4    4    0    0 -0.43659980635E+01  0.31534442374E+01 -0.22352997511E+01  0.58311846898E+01  0.51100000000E-03 0.  1.
        -12    1    4    4    0    0 -0.88527541918E+00  0.26967204367E+02  0.65836642708E+01  0.27773340799E+02  0.00000000000E+00 0.  1.
</event>
<event>
 8    1  0.8600524E-011  0.9118800E+02  0.7816164E-02  0.1184000E+00
        -11   -1    0    0    0    0  0.00000000000E+00  0.00000000000E+00  0.45593999997E+02  0.45594000000E+02  0.51100000000E-03 0. -1.
         11   -1    0    0    0    0 -0.00000000000E+00 -0.00000000000E+00 -0.45593999997E+02  0.45594000000E+02  0.51100000000E-03 0.  1.
         23    2    1    2    0    0 -0.17763568394E-14  0.00000000000E+00  0.00000000000E+00  0.91188000000E+02  0.91188000000E+02 0.  0.
    9900012    2    3    3    0    0 -0.10770924979E+02  0.29775896018E+02  0.29681739641E+02  0.47787280229E+02  0.20000041875E+02 0.  0.
        -12    1    3    3    0    0  0.10770924979E+02 -0.29775896018E+02 -0.29681739641E+02  0.43400719771E+02  0.00000000000E+00 0.  1.
         11    1    4    4    0    0 -0.89771899004E+01  0.70397514305E+01  0.12409661302E+02  0.16856682135E+02  0.51100000000E-03 0. -1.
        -11    1    4    4    0    0 -0.24709356532E+01  0.15971710271E+02  0.50279095480E+01  0.16925747448E+02  0.51100000000E-03 0.  1.
        -12    1    4    4    0    0  0.67720057476E+00  0.67644343162E+01  0.12244168791E+02  0.14004850646E+02  0.00000000000E+00 0.  1.
</event>
<event>
 8    1  0.8600524E-011  0.9118800E+02  0.7816164E-02  0.1184000E+00
        -11   -1    0    0    0    0  0.00000000000E+00  0.00000000000E+00  0.45593999997E+02  0.45594000000E+02  0.51100000000E-03 0. -1.
         11   -1    0    0    0    0 -0.00000000000E+00 -0.00000000000E+00 -0.45593999997E+02  0.45594000000E+02  0.51100000000E-03 0.  1.
         23    2    1    2    0    0  0.00000000000E+00  0.00000000000E+00  0.71054273576E-14  0.91188000000E+02  0.91188000000E+02 0.  0.
    9900012    2    3    3    0    0 -0.21550632887E+02 -0.17278709987E+01 -0.37632532511E+02  0.47787276282E+02  0.20000023881E+02 0.  0.
         12    1    3    3    0    0  0.21550632887E+02  0.17278709987E+01  0.37632532511E+02  0.43400723718E+02  0.00000000000E+00 0. -1.
         11    1    4    4    0    0  0.35550777192E+01 -0.10720911519E+01 -0.82519901703E+01  0.90489391124E+01  0.51100000000E-03 0. -1.
        -11    1    4    4    0    0 -0.37461474037E+01  0.46624649257E-01 -0.58942291018E+01  0.69841056115E+01  0.51100000000E-03 0.  1.
         12    1    4    4    0    0 -0.21359563202E+02 -0.70240449603E+00 -0.23486313239E+02  0.31754231558E+02  0.00000000000E+00 0. -1.
</event>
<event>
 8    1  0.8600524E-011  0.9118800E+02  0.7816164E-02  0.1184000E+00
        -11   -1    0    0    0    0  0.00000000000E+00  0.00000000000E+00  0.45593999997E+02  0.45594000000E+02  0.51100000000E-03 0. -1.
         11   -1    0    0    0    0 -0.00000000000E+00 -0.00000000000E+00 -0.45593999997E+02  0.45594000000E+02  0.51100000000E-03 0.  1.
         23    2    1    2    0    0  0.00000000000E+00  0.00000000000E+00  0.00000000000E+00  0.91188000000E+02  0.91188000000E+02 0.  0.
    9900012    2    3    3    0    0  0.93378465174E+01 -0.20009840698E+02  0.37363540010E+02  0.47787271614E+02  0.20000002598E+02 0.  0.
        -12    1    3    3    0    0 -0.93378465174E+01  0.20009840698E+02 -0.37363540010E+02  0.43400728386E+02  0.00000000000E+00 0.  1.
         11    1    4    4    0    0  0.70298858563E+01 -0.74315458213E+01  0.60357412843E+01  0.11877598308E+02  0.51100000000E-03 0. -1.
        -11    1    4    4    0    0 -0.21868682937E+01 -0.56597836440E+01  0.24379457435E+02  0.25123166379E+02  0.51100000000E-03 0.  1.
        -12    1    4    4    0    0  0.44948289548E+01 -0.69185112327E+01  0.69483412908E+01  0.10786506928E+02  0.00000000000E+00 0.  1.
</event>
<event>
 8    1  0.8600524E-011  0.9118800E+02  0.7816164E-02  0.1184000E+00
        -11   -1    0    0    0    0  0.00000000000E+00  0.00000000000E+00  0.45593999997E+02  0.45594000000E+02  0.51100000000E-03 0. -1.
         11   -1    0    0    0    0 -0.00000000000E+00 -0.00000000000E+00 -0.45593999997E+02  0.45594000000E+02  0.51100000000E-03 0.  1.
         23    2    1    2    0    0  0.00000000000E+00  0.11102230246E-15  0.00000000000E+00  0.91188000000E+02  0.91188000000E+02 0.  0.
    9900012    2    3    3    0    0  0.37453956103E+02 -0.22076831934E+00 -0.21926597822E+02  0.47787271222E+02  0.20000000812E+02 0.  0.
         12    1    3    3    0    0 -0.37453956103E+02  0.22076831934E+00  0.21926597822E+02  0.43400728778E+02  0.00000000000E+00 0. -1.
         11    1    4    4    0    0  0.17449797092E+01 -0.29379600132E+01  0.22454017062E+01  0.40888130684E+01  0.51100000000E-03 0. -1.
        -11    1    4    4    0    0  0.19862293766E+02 -0.33979433070E+00 -0.16523414905E+02  0.25838912791E+02  0.51100000000E-03 0.  1.
         12    1    4    4    0    0  0.15846682627E+02  0.30569860246E+01 -0.76485846233E+01  0.17859545363E+02  0.00000000000E+00 0. -1.
</event>
<event>
 8    1  0.8600524E-011  0.9118800E+02  0.7816164E-02  0.1184000E+00
        -11   -1    0    0    0    0  0.00000000000E+00  0.00000000000E+00  0.45593999997E+02  0.45594000000E+02  0.51100000000E-03 0. -1.
         11   -1    0    0    0    0 -0.00000000000E+00 -0.00000000000E+00 -0.45593999997E+02  0.45594000000E+02  0.51100000000E-03 0.  1.
         23    2    1    2    0    0  0.00000000000E+00  0.00000000000E+00  0.00000000000E+00  0.91188000000E+02  0.91188000000E+02 0.  0.
    9900012    2    3    3    0    0  0.33349480504E+02 -0.53956607642E+01  0.27245599089E+02  0.47787266427E+02  0.19999978947E+02 0.  0.
        -12    1    3    3    0    0 -0.33349480504E+02  0.53956607642E+01 -0.27245599089E+02  0.43400733573E+02  0.00000000000E+00 0.  1.
         11    1    4    4    0    0  0.16575612936E+02 -0.78829409536E+01  0.14969919824E+02  0.23685231730E+02  0.51100000000E-03 0. -1.
        -11    1    4    4    0    0  0.88731057388E+01 -0.44781145891E+01  0.79010871138E+01  0.12696956075E+02  0.51100000000E-03 0.  1.
         12    1    4    4    0    0  0.79007618285E+01  0.69653947785E+01  0.43745921510E+01  0.11405078622E+02  0.00000000000E+00 0. -1.
</event>
<event>
 8    1  0.8600524E-011  0.9118800E+02  0.7816164E-02  0.1184000E+00
        -11   -1    0    0    0    0  0.00000000000E+00  0.00000000000E+00  0.45593999997E+02  0.45594000000E+02  0.51100000000E-03 0.  1.
         11   -1    0    0    0    0 -0.00000000000E+00 -0.00000000000E+00 -0.45593999997E+02  0.45594000000E+02  0.51100000000E-03 0. -1.
         23    2    1    2    0    0  0.00000000000E+00  0.00000000000E+00  0.00000000000E+00  0.91188000000E+02  0.91188000000E+02 0.  0.
    9900012    2    3    3    0    0 -0.31374646387E+02  0.29225373201E+02  0.67180511248E+01  0.47787273214E+02  0.20000009892E+02 0.  0.
        -12    1    3    3    0    0  0.31374646387E+02 -0.29225373201E+02 -0.67180511248E+01  0.43400726786E+02  0.00000000000E+00 0.  1.
         11    1    4    4    0    0 -0.10747126860E+02  0.14141792986E+02  0.11987666310E+01  0.17802474162E+02  0.51100000000E-03 0. -1.
        -11    1    4    4    0    0 -0.16692199087E+02  0.34248284396E+01  0.18259989768E+01  0.17137480349E+02  0.51100000000E-03 0.  1.
        -12    1    4    4    0    0 -0.39353204401E+01  0.11658751775E+02  0.36932855171E+01  0.12847318702E+02  0.00000000000E+00 0.  1.
</event>
<event>
 8    1  0.8600524E-011  0.9118800E+02  0.7816164E-02  0.1184000E+00
        -11   -1    0    0    0    0  0.00000000000E+00  0.00000000000E+00  0.45593999997E+02  0.45594000000E+02  0.51100000000E-03 0. -1.
         11   -1    0    0    0    0 -0.00000000000E+00 -0.00000000000E+00 -0.45593999997E+02  0.45594000000E+02  0.51100000000E-03 0.  1.
         23    2    1    2    0    0  0.00000000000E+00  0.00000000000E+00 -0.71054273576E-14  0.91188000000E+02  0.91188000000E+02 0.  0.
    9900012    2    3    3    0    0 -0.13125838017E+02 -0.12037487018E+02  0.39578208308E+02  0.47787270856E+02  0.19999999139E+02 0.  0.
        -12    1    3    3    0    0  0.13125838017E+02  0.12037487018E+02 -0.39578208308E+02  0.43400729144E+02  0.00000000000E+00 0.  1.
         11    1    4    4    0    0 -0.13392115622E+02 -0.69478056760E+01  0.36589441055E+02  0.39577872120E+02  0.51100000000E-03 0. -1.
        -11    1    4    4    0    0 -0.10534421047E+00  0.34947114826E+00 -0.12509084548E+01  0.13030731789E+01  0.51100000000E-03 0.  1.
         12    1    4    4    0    0  0.37162181594E+00 -0.54391524904E+01  0.42396757078E+01  0.69063255567E+01  0.00000000000E+00 0. -1.
</event>
<event>
 8    1  0.8600524E-011  0.9118800E+02  0.7816164E-02  0.1184000E+00
        -11   -1    0    0    0    0  0.00000000000E+00  0.00000000000E+00  0.45593999997E+02  0.45594000000E+02  0.51100000000E-03 0. -1.
         11   -1    0    0    0    0 -0.00000000000E+00 -0.00000000000E+00 -0.45593999997E+02  0.45594000000E+02  0.51100000000E-03 0.  1.
         23    2    1    2    0    0  0.00000000000E+00  0.00000000000E+00 -0.71054273576E-14  0.91188000000E+02  0.91188000000E+02 0.  0.
    9900012    2    3    3    0    0 -0.18932530755E+01 -0.12223053993E+02  0.41600911462E+02  0.47787270852E+02  0.19999999122E+02 0.  0.
        -12    1    3    3    0    0  0.18932530755E+01  0.12223053993E+02 -0.41600911462E+02  0.43400729148E+02  0.00000000000E+00 0.  1.
         11    1    4    4    0    0  0.31173579177E+01 -0.17943970946E+00  0.11295923978E+02  0.11719557064E+02  0.51100000000E-03 0. -1.
        -11    1    4    4    0    0 -0.59521879635E+01  0.63048404480E+00  0.51986403630E+01  0.79279198766E+01  0.51100000000E-03 0.  1.
        -12    1    4    4    0    0  0.94157697031E+00 -0.12674098328E+02  0.25106347121E+02  0.28139793912E+02  0.00000000000E+00 0.  1.
</event>
<event>
 8    1  0.8600524E-011  0.9118800E+02  0.7816164E-02  0.1184000E+00
        -11   -1    0    0    0    0  0.00000000000E+00  0.00000000000E+00  0.45593999997E+02  0.45594000000E+02  0.51100000000E-03 0. -1.
         11   -1    0    0    0    0 -0.00000000000E+00 -0.00000000000E+00 -0.45593999997E+02  0.45594000000E+02  0.51100000000E-03 0.  1.
         23    2    1    2    0    0 -0.44408920985E-15  0.00000000000E+00  0.00000000000E+00  0.91188000000E+02  0.91188000000E+02 0.  0.
    9900012    2    3    3    0    0  0.29183812240E+01 -0.50149187392E+01  0.43011119991E+02  0.47787276483E+02  0.20000024796E+02 0.  0.
        -12    1    3    3    0    0 -0.29183812240E+01  0.50149187392E+01 -0.43011119991E+02  0.43400723517E+02  0.00000000000E+00 0.  1.
         11    1    4    4    0    0 -0.43678380646E+01  0.42524023431E+01  0.16276972819E+02  0.17381046559E+02  0.51100000000E-03 0. -1.
        -11    1    4    4    0    0  0.73031682977E+01 -0.57200247844E+01  0.11554510414E+02  0.14817613231E+02  0.51100000000E-03 0.  1.
        -12    1    4    4    0    0 -0.16949009036E-01 -0.35472962979E+01  0.15179636758E+02  0.15588616693E+02  0.00000000000E+00 0.  1.
</event>
<event>
 8    1  0.8600524E-011  0.9118800E+02  0.7816164E-02  0.1184000E+00
        -11   -1    0    0    0    0  0.00000000000E+00  0.00000000000E+00  0.45593999997E+02  0.45594000000E+02  0.51100000000E-03 0.  1.
         11   -1    0    0    0    0 -0.00000000000E+00 -0.00000000000E+00 -0.45593999997E+02  0.45594000000E+02  0.51100000000E-03 0. -1.
         23    2    1    2    0    0  0.71054273576E-14 -0.35527136788E-14  0.17763568394E-14  0.91188000000E+02  0.91188000000E+02 0.  0.
    9900012    2    3    3    0    0 -0.36136962111E+02  0.18908287992E+02 -0.14839814943E+02  0.47787268521E+02  0.19999988493E+02 0.  0.
         12    1    3    3    0    0  0.36136962111E+02 -0.18908287992E+02  0.14839814943E+02  0.43400731479E+02  0.00000000000E+00 0. -1.
         11    1    4    4    0    0 -0.13801130285E+01  0.70260393897E+01 -0.32423452660E+01  0.78602000332E+01  0.51100000000E-03 0. -1.
        -11    1    4    4    0    0 -0.17693130025E+02  0.88479746725E+00 -0.73910765033E+01  0.19195252767E+02  0.51100000000E-03 0.  1.
         12    1    4    4    0    0 -0.17063719057E+02  0.10997451135E+02 -0.42063931738E+01  0.20731815720E+02  0.00000000000E+00 0. -1.
</event>
<event>
 8    1  0.8600524E-011  0.9118800E+02  0.7816164E-02  0.1184000E+00
        -11   -1    0    0    0    0  0.00000000000E+00  0.00000000000E+00  0.45593999997E+02  0.45594000000E+02  0.51100000000E-03 0. -1.
         11   -1    0    0    0    0 -0.00000000000E+00 -0.00000000000E+00 -0.45593999997E+02  0.45594000000E+02  0.51100000000E-03 0.  1.
         23    2    1    2    0    0 -0.35527136788E-14  0.00000000000E+00  0.00000000000E+00  0.91188000000E+02  0.91188000000E+02 0.  0.
    9900012    2    3    3    0    0 -0.18265488202E+02  0.17502747663E+02  0.35265408471E+02  0.47787271093E+02  0.20000000223E+02 0.  0.
        -12    1    3    3    0    0  0.18265488202E+02 -0.17502747663E+02 -0.35265408471E+02  0.43400728907E+02  0.00000000000E+00 0.  1.
         11    1    4    4    0    0  0.33357661777E+01  0.20026394026E+01  0.24683267036E+01  0.46076607455E+01  0.51100000000E-03 0.  1.
        -11    1    4    4    0    0 -0.11938074008E+02  0.33686021099E+01  0.12224084600E+02  0.17415318997E+02  0.51100000000E-03 0. -1.
         12    1    4    4    0    0 -0.96631803711E+01  0.12131506150E+02  0.20572997168E+02  0.25764291351E+02  0.00000000000E+00 0. -1.
</event>
<event>
 8    1  0.8600524E-011  0.9118800E+02  0.7816164E-02  0.1184000E+00
        -11   -1    0    0    0    0  0.00000000000E+00  0.00000000000E+00  0.45593999997E+02  0.45594000000E+02  0.51100000000E-03 0. -1.
         11   -1    0    0    0    0 -0.00000000000E+00 -0.00000000000E+00 -0.45593999997E+02  0.45594000000E+02  0.51100000000E-03 0.  1.
         23    2    1    2    0    0  0.35527136788E-14  0.00000000000E+00 -0.35527136788E-14  0.91188000000E+02  0.91188000000E+02 0.  0.
    9900012    2    3    3    0    0  0.24033476821E+02 -0.18947364855E+02 -0.30773565288E+02  0.47787274619E+02  0.20000016298E+02 0.  0.
         12    1    3    3    0    0 -0.24033476821E+02  0.18947364855E+02  0.30773565288E+02  0.43400725381E+02  0.00000000000E+00 0. -1.
         11    1    4    4    0    0  0.17623998813E+02 -0.10616971796E+02 -0.14116949578E+02  0.24952228155E+02  0.51100000000E-03 0. -1.
        -11    1    4    4    0    0 -0.30457960820E+01 -0.27181523873E+01 -0.20952669571E+01  0.45886130864E+01  0.51100000000E-03 0.  1.
        -12    1    4    4    0    0  0.94552740901E+01 -0.56122406718E+01 -0.14561348753E+02  0.18246433377E+02  0.00000000000E+00 0.  1.
</event>
<event>
 8    1  0.8600524E-011  0.9118800E+02  0.7816164E-02  0.1184000E+00
        -11   -1    0    0    0    0  0.00000000000E+00  0.00000000000E+00  0.45593999997E+02  0.45594000000E+02  0.51100000000E-03 0. -1.
         11   -1    0    0    0    0 -0.00000000000E+00 -0.00000000000E+00 -0.45593999997E+02  0.45594000000E+02  0.51100000000E-03 0.  1.
         23    2    1    2    0    0  0.00000000000E+00 -0.35527136788E-14  0.00000000000E+00  0.91188000000E+02  0.91188000000E+02 0.  0.
    9900012    2    3    3    0    0  0.23327736045E+02 -0.26768663943E+02  0.24957542543E+02  0.47787267655E+02  0.19999984545E+02 0.  0.
        -12    1    3    3    0    0 -0.23327736045E+02  0.26768663943E+02 -0.24957542543E+02  0.43400732345E+02  0.00000000000E+00 0.  1.
         11    1    4    4    0    0  0.14205091482E+02 -0.62843044440E+01  0.85008850129E+01  0.17707121523E+02  0.51100000000E-03 0.  1.
        -11    1    4    4    0    0  0.26262163519E+01 -0.17282089555E+02  0.89102747154E+01  0.19620413540E+02  0.51100000000E-03 0. -1.
         12    1    4    4    0    0  0.64964282113E+01 -0.32022699436E+01  0.75463828151E+01  0.10459732592E+02  0.00000000000E+00 0. -1.
</event>
<event>
 8    1  0.8600524E-011  0.9118800E+02  0.7816164E-02  0.1184000E+00
        -11   -1    0    0    0    0  0.00000000000E+00  0.00000000000E+00  0.45593999997E+02  0.45594000000E+02  0.51100000000E-03 0. -1.
         11   -1    0    0    0    0 -0.00000000000E+00 -0.00000000000E+00 -0.45593999997E+02  0.45594000000E+02  0.51100000000E-03 0.  1.
         23    2    1    2    0    0  0.00000000000E+00  0.00000000000E+00 -0.71054273576E-14  0.91188000000E+02  0.91188000000E+02 0.  0.
    9900012    2    3    3    0    0  0.47057286264E+01 -0.69124848556E+01 -0.42587535861E+02  0.47787256463E+02  0.19999933519E+02 0.  0.
         12    1    3    3    0    0 -0.47057286264E+01  0.69124848556E+01  0.42587535861E+02  0.43400743537E+02  0.00000000000E+00 0. -1.
         11    1    4    4    0    0  0.44863285577E+01 -0.37079959331E-01 -0.72880431596E+01  0.85582762405E+01  0.51100000000E-03 0. -1.
        -11    1    4    4    0    0 -0.48749193216E+01 -0.96569782734E+01 -0.27132967018E+02  0.29209929258E+02  0.51100000000E-03 0.  1.
        -12    1    4    4    0    0  0.50943193902E+01  0.27815733771E+01 -0.81665256833E+01  0.10019050965E+02  0.00000000000E+00 0.  1.
</event>
<event>
 8    1  0.8600524E-011  0.9118800E+02  0.7816164E-02  0.1184000E+00
        -11   -1    0    0    0    0  0.00000000000E+00  0.00000000000E+00  0.45593999997E+02  0.45594000000E+02  0.51100000000E-03 0. -1.
         11   -1    0    0    0    0 -0.00000000000E+00 -0.00000000000E+00 -0.45593999997E+02  0.45594000000E+02  0.51100000000E-03 0.  1.
         23    2    1    2    0    0  0.00000000000E+00 -0.44408920985E-15  0.00000000000E+00  0.91188000000E+02  0.91188000000E+02 0.  0.
    9900012    2    3    3    0    0  0.25198152971E+02  0.29615056665E+01 -0.35212303514E+02  0.47787265585E+02  0.19999975110E+02 0.  0.
         12    1    3    3    0    0 -0.25198152971E+02 -0.29615056665E+01  0.35212303514E+02  0.43400734415E+02  0.00000000000E+00 0. -1.
         11    1    4    4    0    0  0.20203530317E+02 -0.22613991717E+01 -0.17498810590E+02  0.26823589167E+02  0.51100000000E-03 0.  1.
        -11    1    4    4    0    0  0.21567963493E+01  0.39015257964E+01 -0.17228527287E+02  0.17795949730E+02  0.51100000000E-03 0. -1.
         12    1    4    4    0    0  0.28378263042E+01  0.13213790418E+01 -0.48496563752E+00  0.31677266887E+01  0.00000000000E+00 0. -1.
</event>
<event>
 8    1  0.8600524E-011  0.9118800E+02  0.7816164E-02  0.1184000E+00
        -11   -1    0    0    0    0  0.00000000000E+00  0.00000000000E+00  0.45593999997E+02  0.45594000000E+02  0.51100000000E-03 0. -1.
         11   -1    0    0    0    0 -0.00000000000E+00 -0.00000000000E+00 -0.45593999997E+02  0.45594000000E+02  0.51100000000E-03 0.  1.
         23    2    1    2    0    0  0.00000000000E+00 -0.35527136788E-14  0.00000000000E+00  0.91188000000E+02  0.91188000000E+02 0.  0.
    9900012    2    3    3    0    0  0.59534532198E+01 -0.28489189689E+02 -0.32195434194E+02  0.47787268240E+02  0.19999987215E+02 0.  0.
         12    1    3    3    0    0 -0.59534532198E+01  0.28489189689E+02  0.32195434194E+02  0.43400731760E+02  0.00000000000E+00 0. -1.
         11    1    4    4    0    0 -0.39515690050E+01 -0.27633476941E+01 -0.19172800189E+01  0.51891185197E+01  0.51100000000E-03 0. -1.
        -11    1    4    4    0    0  0.91559652410E+01 -0.94155051024E+01 -0.96878861649E+01  0.16319882795E+02  0.51100000000E-03 0.  1.
        -12    1    4    4    0    0  0.74905698385E+00 -0.16310336893E+02 -0.20590268010E+02  0.26278266926E+02  0.00000000000E+00 0.  1.
</event>
<event>
 8    1  0.8600524E-011  0.9118800E+02  0.7816164E-02  0.1184000E+00
        -11   -1    0    0    0    0  0.00000000000E+00  0.00000000000E+00  0.45593999997E+02  0.45594000000E+02  0.51100000000E-03 0. -1.
         11   -1    0    0    0    0 -0.00000000000E+00 -0.00000000000E+00 -0.45593999997E+02  0.45594000000E+02  0.51100000000E-03 0.  1.
         23    2    1    2    0    0 -0.44408920985E-15  0.00000000000E+00  0.00000000000E+00  0.91188000000E+02  0.91188000000E+02 0.  0.
    9900012    2    3    3    0    0  0.29597959906E+01  0.88898241817E+01 -0.42377281077E+02  0.47787270539E+02  0.19999997695E+02 0.  0.
         12    1    3    3    0    0 -0.29597959906E+01 -0.88898241817E+01  0.42377281077E+02  0.43400729461E+02  0.00000000000E+00 0. -1.
         11    1    4    4    0    0  0.31630248657E+01 -0.16689103030E+01 -0.36739450385E+01  0.51271688394E+01  0.51100000000E-03 0. -1.
        -11    1    4    4    0    0  0.18867780065E+01  0.13626047530E+02 -0.25858888509E+02  0.29290121504E+02  0.51100000000E-03 0.  1.
        -12    1    4    4    0    0 -0.20900068816E+01 -0.30673130457E+01 -0.12844447529E+02  0.13369980195E+02  0.00000000000E+00 0.  1.
</event>
<event>
 8    1  0.8600524E-011  0.9118800E+02  0.7816164E-02  0.1184000E+00
        -11   -1    0    0    0    0  0.00000000000E+00  0.00000000000E+00  0.45593999997E+02  0.45594000000E+02  0.51100000000E-03 0. -1.
         11   -1    0    0    0    0 -0.00000000000E+00 -0.00000000000E+00 -0.45593999997E+02  0.45594000000E+02  0.51100000000E-03 0.  1.
         23    2    1    2    0    0  0.00000000000E+00 -0.17763568394E-14  0.71054273576E-14  0.91188000000E+02  0.91188000000E+02 0.  0.
    9900012    2    3    3    0    0  0.26043058344E+02  0.94742882955E+01 -0.33400904248E+02  0.47787269232E+02  0.19999991735E+02 0.  0.
         12    1    3    3    0    0 -0.26043058344E+02 -0.94742882955E+01  0.33400904248E+02  0.43400730768E+02  0.00000000000E+00 0. -1.
         11    1    4    4    0    0 -0.29770927612E+00 -0.29513243136E+01  0.52156597676E+00  0.30118063262E+01  0.51100000000E-03 0. -1.
        -11    1    4    4    0    0  0.17615674927E+02  0.70558799200E+01 -0.21681806078E+02  0.28813159488E+02  0.51100000000E-03 0.  1.
         12    1    4    4    0    0  0.87250926932E+01  0.53697326892E+01 -0.12240664146E+02  0.15962303418E+02  0.00000000000E+00 0. -1.
</event>
<event>
 8    1  0.8600524E-011  0.9118800E+02  0.7816164E-02  0.1184000E+00
        -11   -1    0    0    0    0  0.00000000000E+00  0.00000000000E+00  0.45593999997E+02  0.45594000000E+02  0.51100000000E-03 0. -1.
         11   -1    0    0    0    0 -0.00000000000E+00 -0.00000000000E+00 -0.45593999997E+02  0.45594000000E+02  0.51100000000E-03 0.  1.
         23    2    1    2    0    0 -0.17763568394E-14 -0.35527136788E-14 -0.71054273576E-14  0.91188000000E+02  0.91188000000E+02 0.  0.
    9900012    2    3    3    0    0 -0.14863760011E+02 -0.30277588395E+02 -0.27312268642E+02  0.47787265685E+02  0.19999975566E+02 0.  0.
         12    1    3    3    0    0  0.14863760011E+02  0.30277588395E+02  0.27312268642E+02  0.43400734315E+02  0.00000000000E+00 0. -1.
         11    1    4    4    0    0  0.28016128724E+01 -0.38866995634E+01  0.55285330261E+00  0.48229778372E+01  0.51100000000E-03 0. -1.
        -11    1    4    4    0    0 -0.10541751325E+02 -0.20704892046E+02 -0.17039546057E+02  0.28812622334E+02  0.51100000000E-03 0.  1.
         12    1    4    4    0    0 -0.71236215576E+01 -0.56859967857E+01 -0.10825575887E+02  0.14151665514E+02  0.00000000000E+00 0. -1.
</event>
<event>
 8    1  0.8600524E-011  0.9118800E+02  0.7816164E-02  0.1184000E+00
        -11   -1    0    0    0    0  0.00000000000E+00  0.00000000000E+00  0.45593999997E+02  0.45594000000E+02  0.51100000000E-03 0.  1.
         11   -1    0    0    0    0 -0.00000000000E+00 -0.00000000000E+00 -0.45593999997E+02  0.45594000000E+02  0.51100000000E-03 0. -1.
         23    2    1    2    0    0  0.00000000000E+00  0.00000000000E+00  0.35527136788E-14  0.91188000000E+02  0.91188000000E+02 0.  0.
    9900012    2    3    3    0    0 -0.31597545447E+02 -0.16287502767E+02 -0.24898506773E+02  0.47787271157E+02  0.20000000512E+02 0.  0.
         12    1    3    3    0    0  0.31597545447E+02  0.16287502767E+02  0.24898506773E+02  0.43400728843E+02  0.00000000000E+00 0. -1.
         11    1    4    4    0    0 -0.74787582423E+01  0.24782182439E+01  0.51526509216E+00  0.78954980139E+01  0.51100000000E-03 0. -1.
        -11    1    4    4    0    0 -0.98397818212E+01 -0.65546032501E+01 -0.11676672640E+02  0.16617124127E+02  0.51100000000E-03 0.  1.
         12    1    4    4    0    0 -0.14279005383E+02 -0.12211117760E+02 -0.13737099225E+02  0.23274649016E+02  0.00000000000E+00 0. -1.
</event>
<event>
 8    1  0.8600524E-011  0.9118800E+02  0.7816164E-02  0.1184000E+00
        -11   -1    0    0    0    0  0.00000000000E+00  0.00000000000E+00  0.45593999997E+02  0.45594000000E+02  0.51100000000E-03 0. -1.
         11   -1    0    0    0    0 -0.00000000000E+00 -0.00000000000E+00 -0.45593999997E+02  0.45594000000E+02  0.51100000000E-03 0.  1.
         23    2    1    2    0    0  0.00000000000E+00  0.00000000000E+00  0.00000000000E+00  0.91188000000E+02  0.91188000000E+02 0.  0.
    9900012    2    3    3    0    0 -0.77433623004E+01 -0.14423455817E+02 -0.40194868919E+02  0.47787271609E+02  0.20000002574E+02 0.  0.
         12    1    3    3    0    0  0.77433623004E+01  0.14423455817E+02  0.40194868919E+02  0.43400728391E+02  0.00000000000E+00 0. -1.
         11    1    4    4    0    0  0.20017260056E+01 -0.51341942522E+01 -0.52265339412E+01  0.75949664199E+01  0.51100000000E-03 0. -1.
        -11    1    4    4    0    0 -0.40181435821E+01 -0.73883275133E+01 -0.32670100164E+02  0.33735267989E+02  0.51100000000E-03 0.  1.
        -12    1    4    4    0    0 -0.57269447239E+01 -0.19009340520E+01 -0.22982348138E+01  0.64570371998E+01  0.00000000000E+00 0.  1.
</event>
<event>
 8    1  0.8600524E-011  0.9118800E+02  0.7816164E-02  0.1184000E+00
        -11   -1    0    0    0    0  0.00000000000E+00  0.00000000000E+00  0.45593999997E+02  0.45594000000E+02  0.51100000000E-03 0. -1.
         11   -1    0    0    0    0 -0.00000000000E+00 -0.00000000000E+00 -0.45593999997E+02  0.45594000000E+02  0.51100000000E-03 0.  1.
         23    2    1    2    0    0  0.00000000000E+00  0.00000000000E+00  0.00000000000E+00  0.91188000000E+02  0.91188000000E+02 0.  0.
    9900012    2    3    3    0    0  0.26988787883E+02  0.21323172074E+02 -0.26467927500E+02  0.47787268154E+02  0.19999986821E+02 0.  0.
         12    1    3    3    0    0 -0.26988787883E+02 -0.21323172074E+02  0.26467927500E+02  0.43400731846E+02  0.00000000000E+00 0. -1.
         11    1    4    4    0    0  0.21678169202E+00 -0.17747011911E+00 -0.25198151818E+01  0.25353419408E+01  0.51100000000E-03 0. -1.
        -11    1    4    4    0    0  0.24923399243E+01  0.59427709688E+01  0.16943402698E+01  0.66632630367E+01  0.51100000000E-03 0.  1.
        -12    1    4    4    0    0  0.24279666266E+02  0.15557871224E+02 -0.25642452588E+02  0.38588663176E+02  0.00000000000E+00 0.  1.
</event>
<event>
 8    1  0.8600524E-011  0.9118800E+02  0.7816164E-02  0.1184000E+00
        -11   -1    0    0    0    0  0.00000000000E+00  0.00000000000E+00  0.45593999997E+02  0.45594000000E+02  0.51100000000E-03 0. -1.
         11   -1    0    0    0    0 -0.00000000000E+00 -0.00000000000E+00 -0.45593999997E+02  0.45594000000E+02  0.51100000000E-03 0.  1.
         23    2    1    2    0    0  0.00000000000E+00  0.00000000000E+00 -0.35527136788E-14  0.91188000000E+02  0.91188000000E+02 0.  0.
    9900012    2    3    3    0    0 -0.30140537607E+02  0.24238983957E+02  0.19688672503E+02  0.47787260658E+02  0.19999952645E+02 0.  0.
        -12    1    3    3    0    0  0.30140537607E+02 -0.24238983957E+02 -0.19688672503E+02  0.43400739342E+02  0.00000000000E+00 0.  1.
         11    1    4    4    0    0 -0.28789441333E+02  0.15628608403E+02  0.14449201243E+02  0.35803138825E+02  0.51100000000E-03 0. -1.
        -11    1    4    4    0    0 -0.11404912818E+00  0.20691384634E+01  0.48978249344E+01  0.53181792499E+01  0.51100000000E-03 0.  1.
         12    1    4    4    0    0 -0.12370471455E+01  0.65412370901E+01  0.34164632529E+00  0.66659425830E+01  0.00000000000E+00 0. -1.
</event>
<event>
 8    1  0.8600524E-011  0.9118800E+02  0.7816164E-02  0.1184000E+00
        -11   -1    0    0    0    0  0.00000000000E+00  0.00000000000E+00  0.45593999997E+02  0.45594000000E+02  0.51100000000E-03 0.  1.
         11   -1    0    0    0    0 -0.00000000000E+00 -0.00000000000E+00 -0.45593999997E+02  0.45594000000E+02  0.51100000000E-03 0. -1.
         23    2    1    2    0    0 -0.71054273576E-14  0.88817841970E-15  0.00000000000E+00  0.91188000000E+02  0.91188000000E+02 0.  0.
    9900012    2    3    3    0    0 -0.37639782067E+02  0.72756216865E+01  0.20345360566E+02  0.47787290771E+02  0.20000089942E+02 0.  0.
        -12    1    3    3    0    0  0.37639782067E+02 -0.72756216865E+01 -0.20345360566E+02  0.43400709229E+02  0.00000000000E+00 0.  1.
         11    1    4    4    0    0 -0.85274782267E+01 -0.55806070227E+01  0.41582282181E+01  0.11006903371E+02  0.51100000000E-03 0. -1.
        -11    1    4    4    0    0 -0.19536880659E+01  0.23212573457E+01 -0.69374531564E+00  0.31123006840E+01  0.51100000000E-03 0.  1.
         12    1    4    4    0    0 -0.27158615775E+02  0.10534971364E+02  0.16880877663E+02  0.33668086716E+02  0.00000000000E+00 0. -1.
</event>
<event>
 8    1  0.8600524E-011  0.9118800E+02  0.7816164E-02  0.1184000E+00
        -11   -1    0    0    0    0  0.00000000000E+00  0.00000000000E+00  0.45593999997E+02  0.45594000000E+02  0.51100000000E-03 0. -1.
         11   -1    0    0    0    0 -0.00000000000E+00 -0.00000000000E+00 -0.45593999997E+02  0.45594000000E+02  0.51100000000E-03 0.  1.
         23    2    1    2    0    0  0.00000000000E+00  0.00000000000E+00  0.00000000000E+00  0.91188000000E+02  0.91188000000E+02 0.  0.
    9900012    2    3    3    0    0  0.38411791427E+02 -0.17992328302E+02  0.91888046601E+01  0.47787265796E+02  0.19999976072E+02 0.  0.
        -12    1    3    3    0    0 -0.38411791427E+02  0.17992328302E+02 -0.91888046601E+01  0.43400734204E+02  0.00000000000E+00 0.  1.
         11    1    4    4    0    0  0.19721103685E+02 -0.64401276486E+01 -0.22970584427E+01  0.20872796948E+02  0.51100000000E-03 0. -1.
        -11    1    4    4    0    0  0.17050934876E+02 -0.12721482832E+02  0.12484581736E+02  0.24666481041E+02  0.51100000000E-03 0.  1.
        -12    1    4    4    0    0  0.16397528651E+01  0.11692821782E+01 -0.99871863289E+00  0.22479878066E+01  0.00000000000E+00 0.  1.
</event>
<event>
 8    1  0.8600524E-011  0.9118800E+02  0.7816164E-02  0.1184000E+00
        -11   -1    0    0    0    0  0.00000000000E+00  0.00000000000E+00  0.45593999997E+02  0.45594000000E+02  0.51100000000E-03 0.  1.
         11   -1    0    0    0    0 -0.00000000000E+00 -0.00000000000E+00 -0.45593999997E+02  0.45594000000E+02  0.51100000000E-03 0. -1.
         23    2    1    2    0    0  0.11102230246E-14  0.71054273576E-14  0.00000000000E+00  0.91188000000E+02  0.91188000000E+02 0.  0.
    9900012    2    3    3    0    0  0.90694856857E+00  0.39427695495E+02  0.18117880056E+02  0.47787270680E+02  0.19999998339E+02 0.  0.
        -12    1    3    3    0    0 -0.90694856857E+00 -0.39427695495E+02 -0.18117880056E+02  0.43400729320E+02  0.00000000000E+00 0.  1.
         11    1    4    4    0    0 -0.72866756038E+01  0.14032601251E+02  0.96250011077E+00  0.15840957861E+02  0.51100000000E-03 0. -1.
        -11    1    4    4    0    0  0.44227897458E+01  0.19148452669E+02  0.12541089602E+02  0.23313155888E+02  0.51100000000E-03 0.  1.
         12    1    4    4    0    0  0.37708344266E+01  0.62466415745E+01  0.46142903428E+01  0.86331569313E+01  0.00000000000E+00 0. -1.
</event>
<event>
 8    1  0.8600524E-011  0.9118800E+02  0.7816164E-02  0.1184000E+00
        -11   -1    0    0    0    0  0.00000000000E+00  0.00000000000E+00  0.45593999997E+02  0.45594000000E+02  0.51100000000E-03 0.  1.
         11   -1    0    0    0    0 -0.00000000000E+00 -0.00000000000E+00 -0.45593999997E+02  0.45594000000E+02  0.51100000000E-03 0. -1.
         23    2    1    2    0    0  0.00000000000E+00  0.00000000000E+00  0.88817841970E-15  0.91188000000E+02  0.91188000000E+02 0.  0.
    9900012    2    3    3    0    0  0.19049666172E+02 -0.38195702807E+02 -0.78626903030E+01  0.47787269673E+02  0.19999993745E+02 0.  0.
        -12    1    3    3    0    0 -0.19049666172E+02  0.38195702807E+02  0.78626903030E+01  0.43400730327E+02  0.00000000000E+00 0.  1.
         11    1    4    4    0    0  0.59468331876E+01 -0.11278166866E+02  0.31042136105E+01  0.13122424136E+02  0.51100000000E-03 0. -1.
        -11    1    4    4    0    0  0.12033808416E+02 -0.19487714984E+02 -0.13685922186E+02  0.26681230231E+02  0.51100000000E-03 0.  1.
        -12    1    4    4    0    0  0.10690245687E+01 -0.74298209567E+01  0.27190182728E+01  0.79836153055E+01  0.00000000000E+00 0.  1.
</event>
<event>
 8    1  0.8600524E-011  0.9118800E+02  0.7816164E-02  0.1184000E+00
        -11   -1    0    0    0    0  0.00000000000E+00  0.00000000000E+00  0.45593999997E+02  0.45594000000E+02  0.51100000000E-03 0. -1.
         11   -1    0    0    0    0 -0.00000000000E+00 -0.00000000000E+00 -0.45593999997E+02  0.45594000000E+02  0.51100000000E-03 0.  1.
         23    2    1    2    0    0  0.00000000000E+00  0.00000000000E+00  0.00000000000E+00  0.91188000000E+02  0.91188000000E+02 0.  0.
    9900012    2    3    3    0    0 -0.39967375668E+02 -0.13582192496E+02  0.10087427166E+02  0.47787271232E+02  0.20000000856E+02 0.  0.
        -12    1    3    3    0    0  0.39967375668E+02  0.13582192496E+02 -0.10087427166E+02  0.43400728768E+02  0.00000000000E+00 0.  1.
         11    1    4    4    0    0  0.11326988153E+01  0.36629597502E+00  0.29695470184E+01  0.31992794663E+01  0.51100000000E-03 0. -1.
        -11    1    4    4    0    0 -0.18144731856E+02 -0.94371598542E+01  0.13712657439E+01  0.20498088941E+02  0.51100000000E-03 0.  1.
         12    1    4    4    0    0 -0.22955342627E+02 -0.45113286171E+01  0.57466144033E+01  0.24089902825E+02  0.00000000000E+00 0. -1.
</event>
<event>
 8    1  0.8600524E-011  0.9118800E+02  0.7816164E-02  0.1184000E+00
        -11   -1    0    0    0    0  0.00000000000E+00  0.00000000000E+00  0.45593999997E+02  0.45594000000E+02  0.51100000000E-03 0. -1.
         11   -1    0    0    0    0 -0.00000000000E+00 -0.00000000000E+00 -0.45593999997E+02  0.45594000000E+02  0.51100000000E-03 0.  1.
         23    2    1    2    0    0 -0.35527136788E-14  0.22204460493E-15  0.00000000000E+00  0.91188000000E+02  0.91188000000E+02 0.  0.
    9900012    2    3    3    0    0 -0.19023409391E+02  0.18302561015E+01  0.38966432389E+02  0.47787276557E+02  0.20000025134E+02 0.  0.
        -12    1    3    3    0    0  0.19023409391E+02 -0.18302561015E+01 -0.38966432389E+02  0.43400723443E+02  0.00000000000E+00 0.  1.
         11    1    4    4    0    0 -0.67821925653E+01  0.33957416663E+01  0.16238157421E+01  0.77566729519E+01  0.51100000000E-03 0. -1.
        -11    1    4    4    0    0 -0.30967975659E+00 -0.20128068308E+01  0.98317394813E+01  0.10040437958E+02  0.51100000000E-03 0.  1.
         12    1    4    4    0    0 -0.11931537069E+02  0.44732126593E+00  0.27510877166E+02  0.29990165648E+02  0.00000000000E+00 0. -1.
</event>
<event>
 8    1  0.8600524E-011  0.9118800E+02  0.7816164E-02  0.1184000E+00
        -11   -1    0    0    0    0  0.00000000000E+00  0.00000000000E+00  0.45593999997E+02  0.45594000000E+02  0.51100000000E-03 0. -1.
         11   -1    0    0    0    0 -0.00000000000E+00 -0.00000000000E+00 -0.45593999997E+02  0.45594000000E+02  0.51100000000E-03 0.  1.
         23    2    1    2    0    0  0.00000000000E+00 -0.71054273576E-14  0.00000000000E+00  0.91188000000E+02  0.91188000000E+02 0.  0.
    9900012    2    3    3    0    0  0.29230552646E+01 -0.30787604887E+02 -0.30449996856E+02  0.47787272180E+02  0.20000005179E+02 0.  0.
         12    1    3    3    0    0 -0.29230552646E+01  0.30787604887E+02  0.30449996856E+02  0.43400727820E+02  0.00000000000E+00 0. -1.
         11    1    4    4    0    0  0.34685627277E+01 -0.16913501873E+02 -0.71592262139E+01  0.18690960201E+02  0.51100000000E-03 0. -1.
        -11    1    4    4    0    0  0.79500713846E+00 -0.13364913465E+01 -0.12214857705E+02  0.12313447709E+02  0.51100000000E-03 0.  1.
        -12    1    4    4    0    0 -0.13405146016E+01 -0.12537611668E+02 -0.11075912937E+02  0.16782864270E+02  0.00000000000E+00 0.  1.
</event>
<event>
 8    1  0.8600524E-011  0.9118800E+02  0.7816164E-02  0.1184000E+00
        -11   -1    0    0    0    0  0.00000000000E+00  0.00000000000E+00  0.45593999997E+02  0.45594000000E+02  0.51100000000E-03 0. -1.
         11   -1    0    0    0    0 -0.00000000000E+00 -0.00000000000E+00 -0.45593999997E+02  0.45594000000E+02  0.51100000000E-03 0.  1.
         23    2    1    2    0    0  0.00000000000E+00  0.00000000000E+00  0.00000000000E+00  0.91188000000E+02  0.91188000000E+02 0.  0.
    9900012    2    3    3    0    0  0.65787577916E+01  0.41976410451E+02  0.88500950980E+01  0.47787271070E+02  0.20000000115E+02 0.  0.
         12    1    3    3    0    0 -0.65787577916E+01 -0.41976410451E+02 -0.88500950980E+01  0.43400728930E+02  0.00000000000E+00 0. -1.
         11    1    4    4    0    0  0.71204504162E+01  0.14464134183E+02 -0.26324484881E+01  0.16335292379E+02  0.51100000000E-03 0. -1.
        -11    1    4    4    0    0 -0.37327760200E+01  0.38401531813E+01  0.27439527727E+01  0.60174471623E+01  0.51100000000E-03 0.  1.
         12    1    4    4    0    0  0.31910833954E+01  0.23672123087E+02  0.87385908134E+01  0.25434531529E+02  0.00000000000E+00 0. -1.
</event>
<event>
 8    1  0.8600524E-011  0.9118800E+02  0.7816164E-02  0.1184000E+00
        -11   -1    0    0    0    0  0.00000000000E+00  0.00000000000E+00  0.45593999997E+02  0.45594000000E+02  0.51100000000E-03 0. -1.
         11   -1    0    0    0    0 -0.00000000000E+00 -0.00000000000E+00 -0.45593999997E+02  0.45594000000E+02  0.51100000000E-03 0.  1.
         23    2    1    2    0    0  0.00000000000E+00  0.00000000000E+00  0.35527136788E-14  0.91188000000E+02  0.91188000000E+02 0.  0.
    9900012    2    3    3    0    0 -0.26804856560E+02 -0.13979907391E+02  0.31139752300E+02  0.47787282044E+02  0.20000050150E+02 0.  0.
        -12    1    3    3    0    0  0.26804856560E+02  0.13979907391E+02 -0.31139752300E+02  0.43400717956E+02  0.00000000000E+00 0.  1.
         11    1    4    4    0    0 -0.14136672599E+02 -0.17346760348E+02  0.23745754809E+02  0.32628461172E+02  0.51100000000E-03 0. -1.
        -11    1    4    4    0    0 -0.93836252968E+01  0.32884373959E+01  0.53837091836E+01  0.11307102593E+02  0.51100000000E-03 0.  1.
         12    1    4    4    0    0 -0.32845586641E+01  0.78415561696E-01  0.20102883072E+01  0.38517182785E+01  0.00000000000E+00 0. -1.
</event>
<event>
 8    1  0.8600524E-011  0.9118800E+02  0.7816164E-02  0.1184000E+00
        -11   -1    0    0    0    0  0.00000000000E+00  0.00000000000E+00  0.45593999997E+02  0.45594000000E+02  0.51100000000E-03 0. -1.
         11   -1    0    0    0    0 -0.00000000000E+00 -0.00000000000E+00 -0.45593999997E+02  0.45594000000E+02  0.51100000000E-03 0.  1.
         23    2    1    2    0    0  0.00000000000E+00  0.00000000000E+00  0.00000000000E+00  0.91188000000E+02  0.91188000000E+02 0.  0.
    9900012    2    3    3    0    0  0.13946886764E+01  0.11255881213E+02 -0.41892549728E+02  0.47787242621E+02  0.19999870405E+02 0.  0.
         12    1    3    3    0    0 -0.13946886764E+01 -0.11255881213E+02  0.41892549728E+02  0.43400757379E+02  0.00000000000E+00 0. -1.
         11    1    4    4    0    0  0.23483673508E+01 -0.29275562340E+01 -0.52168793095E+01  0.64266044462E+01  0.51100000000E-03 0. -1.
        -11    1    4    4    0    0 -0.58722115738E+01  0.12640928353E+02 -0.25763382666E+02  0.29292111994E+02  0.51100000000E-03 0.  1.
        -12    1    4    4    0    0  0.49185328994E+01  0.15425090940E+01 -0.10912287752E+02  0.12068526181E+02  0.00000000000E+00 0.  1.
</event>
<event>
 8    1  0.8600524E-011  0.9118800E+02  0.7816164E-02  0.1184000E+00
        -11   -1    0    0    0    0  0.00000000000E+00  0.00000000000E+00  0.45593999997E+02  0.45594000000E+02  0.51100000000E-03 0. -1.
         11   -1    0    0    0    0 -0.00000000000E+00 -0.00000000000E+00 -0.45593999997E+02  0.45594000000E+02  0.51100000000E-03 0.  1.
         23    2    1    2    0    0  0.00000000000E+00  0.17763568394E-14  0.00000000000E+00  0.91188000000E+02  0.91188000000E+02 0.  0.
    9900012    2    3    3    0    0 -0.30912806510E+02 -0.15395702061E+02  0.26286757581E+02  0.47787275670E+02  0.20000021090E+02 0.  0.
        -12    1    3    3    0    0  0.30912806510E+02  0.15395702061E+02 -0.26286757581E+02  0.43400724330E+02  0.00000000000E+00 0.  1.
         11    1    4    4    0    0 -0.31251473240E+02 -0.16960099518E+02  0.22027576771E+02  0.41827188454E+02  0.51100000000E-03 0. -1.
        -11    1    4    4    0    0  0.20201662721E+01  0.26325161298E+00  0.22413540070E+01  0.30288679774E+01  0.51100000000E-03 0.  1.
         12    1    4    4    0    0 -0.16814995415E+01  0.13011458441E+01  0.20178268030E+01  0.29312192382E+01  0.00000000000E+00 0. -1.
</event>
<event>
 8    1  0.8600524E-011  0.9118800E+02  0.7816164E-02  0.1184000E+00
        -11   -1    0    0    0    0  0.00000000000E+00  0.00000000000E+00  0.45593999997E+02  0.45594000000E+02  0.51100000000E-03 0. -1.
         11   -1    0    0    0    0 -0.00000000000E+00 -0.00000000000E+00 -0.45593999997E+02  0.45594000000E+02  0.51100000000E-03 0.  1.
         23    2    1    2    0    0  0.41633363423E-16  0.00000000000E+00 -0.71054273576E-14  0.91188000000E+02  0.91188000000E+02 0.  0.
    9900012    2    3    3    0    0  0.70527923931E-01  0.20643940458E+02 -0.38176505334E+02  0.47787276373E+02  0.20000024295E+02 0.  0.
         12    1    3    3    0    0 -0.70527923931E-01 -0.20643940458E+02  0.38176505334E+02  0.43400723627E+02  0.00000000000E+00 0. -1.
         11    1    4    4    0    0 -0.89523031967E-01  0.14769077568E+00  0.19217735302E+01  0.19295182562E+01  0.51100000000E-03 0. -1.
        -11    1    4    4    0    0  0.13532386627E+01  0.67880345030E+00 -0.78000582129E+01  0.79456237885E+01  0.51100000000E-03 0.  1.
         12    1    4    4    0    0 -0.11931877068E+01  0.19817446232E+02 -0.32298220651E+02  0.37912134328E+02  0.00000000000E+00 0. -1.
</event>
<event>
 8    1  0.8600524E-011  0.9118800E+02  0.7816164E-02  0.1184000E+00
        -11   -1    0    0    0    0  0.00000000000E+00  0.00000000000E+00  0.45593999997E+02  0.45594000000E+02  0.51100000000E-03 0. -1.
         11   -1    0    0    0    0 -0.00000000000E+00 -0.00000000000E+00 -0.45593999997E+02  0.45594000000E+02  0.51100000000E-03 0.  1.
         23    2    1    2    0    0  0.00000000000E+00 -0.35527136788E-14  0.35527136788E-14  0.91188000000E+02  0.91188000000E+02 0.  0.
    9900012    2    3    3    0    0  0.34700451596E+02 -0.16001892129E+02  0.20577691296E+02  0.47787271069E+02  0.20000000112E+02 0.  0.
        -12    1    3    3    0    0 -0.34700451596E+02  0.16001892129E+02 -0.20577691296E+02  0.43400728931E+02  0.00000000000E+00 0.  1.
         11    1    4    4    0    0  0.64942044109E+01 -0.33718829069E+01 -0.13870753315E+01  0.74477018942E+01  0.51100000000E-03 0.  1.
        -11    1    4    4    0    0  0.24754975157E+02 -0.12523275800E+02  0.23688829116E+02  0.36480157030E+02  0.51100000000E-03 0. -1.
         12    1    4    4    0    0  0.34512720283E+01 -0.10673342191E+00 -0.17240624889E+01  0.38594121446E+01  0.00000000000E+00 0. -1.
</event>
<event>
 8    1  0.8600524E-011  0.9118800E+02  0.7816164E-02  0.1184000E+00
        -11   -1    0    0    0    0  0.00000000000E+00  0.00000000000E+00  0.45593999997E+02  0.45594000000E+02  0.51100000000E-03 0. -1.
         11   -1    0    0    0    0 -0.00000000000E+00 -0.00000000000E+00 -0.45593999997E+02  0.45594000000E+02  0.51100000000E-03 0.  1.
         23    2    1    2    0    0  0.00000000000E+00 -0.71054273576E-14  0.00000000000E+00  0.91188000000E+02  0.91188000000E+02 0.  0.
    9900012    2    3    3    0    0  0.16814846579E+02  0.32210245694E+02  0.23735722849E+02  0.47787268067E+02  0.19999986426E+02 0.  0.
        -12    1    3    3    0    0 -0.16814846579E+02 -0.32210245694E+02 -0.23735722849E+02  0.43400731933E+02  0.00000000000E+00 0.  1.
         11    1    4    4    0    0  0.97104773958E+01  0.15759943511E+02  0.11690216047E+02  0.21893614188E+02  0.51100000000E-03 0. -1.
        -11    1    4    4    0    0 -0.12238247091E+01 -0.54990140160E+00  0.58095244805E+01  0.59624419008E+01  0.51100000000E-03 0.  1.
        -12    1    4    4    0    0  0.83281938923E+01  0.17000203584E+02  0.62359823214E+01  0.19931211978E+02  0.00000000000E+00 0.  1.
</event>
<event>
 8    1  0.8600524E-011  0.9118800E+02  0.7816164E-02  0.1184000E+00
        -11   -1    0    0    0    0  0.00000000000E+00  0.00000000000E+00  0.45593999997E+02  0.45594000000E+02  0.51100000000E-03 0. -1.
         11   -1    0    0    0    0 -0.00000000000E+00 -0.00000000000E+00 -0.45593999997E+02  0.45594000000E+02  0.51100000000E-03 0.  1.
         23    2    1    2    0    0 -0.71054273576E-14 -0.44408920985E-15 -0.71054273576E-14  0.91188000000E+02  0.91188000000E+02 0.  0.
    9900012    2    3    3    0    0  0.28551933612E+02  0.35998756907E+01  0.32487707036E+02  0.47787272743E+02  0.20000007743E+02 0.  0.
        -12    1    3    3    0    0 -0.28551933612E+02 -0.35998756907E+01 -0.32487707036E+02  0.43400727257E+02  0.00000000000E+00 0.  1.
         11    1    4    4    0    0  0.66658476767E+01  0.40082811976E+01  0.16152547558E+02  0.17927761608E+02  0.51100000000E-03 0. -1.
        -11    1    4    4    0    0  0.76422405951E+01  0.11796617744E+00  0.13218568147E+02  0.15269194525E+02  0.51100000000E-03 0.  1.
         12    1    4    4    0    0  0.14243845341E+02 -0.52637168428E+00  0.31165913316E+01  0.14590316609E+02  0.00000000000E+00 0. -1.
</event>
<event>
 8    1  0.8600524E-011  0.9118800E+02  0.7816164E-02  0.1184000E+00
        -11   -1    0    0    0    0  0.00000000000E+00  0.00000000000E+00  0.45593999997E+02  0.45594000000E+02  0.51100000000E-03 0. -1.
         11   -1    0    0    0    0 -0.00000000000E+00 -0.00000000000E+00 -0.45593999997E+02  0.45594000000E+02  0.51100000000E-03 0.  1.
         23    2    1    2    0    0  0.00000000000E+00 -0.22204460493E-15  0.00000000000E+00  0.91188000000E+02  0.91188000000E+02 0.  0.
    9900012    2    3    3    0    0 -0.14639202749E+02  0.11376275321E+01  0.40841436747E+02  0.47787269487E+02  0.19999992900E+02 0.  0.
        -12    1    3    3    0    0  0.14639202749E+02 -0.11376275321E+01 -0.40841436747E+02  0.43400730513E+02  0.00000000000E+00 0.  1.
         11    1    4    4    0    0 -0.10454526037E+01 -0.47410445548E+01  0.20048057429E+02  0.20627532124E+02  0.51100000000E-03 0. -1.
        -11    1    4    4    0    0 -0.14707934495E+02  0.46990506429E+01  0.16637177970E+02  0.22698019850E+02  0.51100000000E-03 0.  1.
        -12    1    4    4    0    0  0.11141843504E+01  0.11796214440E+01  0.41562013479E+01  0.44617175126E+01  0.00000000000E+00 0.  1.
</event>
<event>
 8    1  0.8600524E-011  0.9118800E+02  0.7816164E-02  0.1184000E+00
        -11   -1    0    0    0    0  0.00000000000E+00  0.00000000000E+00  0.45593999997E+02  0.45594000000E+02  0.51100000000E-03 0. -1.
         11   -1    0    0    0    0 -0.00000000000E+00 -0.00000000000E+00 -0.45593999997E+02  0.45594000000E+02  0.51100000000E-03 0.  1.
         23    2    1    2    0    0  0.00000000000E+00 -0.35527136788E-14  0.00000000000E+00  0.91188000000E+02  0.91188000000E+02 0.  0.
    9900012    2    3    3    0    0 -0.20895976183E+01  0.22952930767E+02  0.36775264827E+02  0.47787267840E+02  0.19999985388E+02 0.  0.
        -12    1    3    3    0    0  0.20895976183E+01 -0.22952930767E+02 -0.36775264827E+02  0.43400732160E+02  0.00000000000E+00 0.  1.
         11    1    4    4    0    0 -0.22102605469E+01  0.14541510790E+02  0.17267781933E+02  0.22682968961E+02  0.51100000000E-03 0. -1.
        -11    1    4    4    0    0 -0.36866099722E+00  0.12212417859E+01  0.17604256228E+02  0.17650415860E+02  0.51100000000E-03 0.  1.
        -12    1    4    4    0    0  0.48932392581E+00  0.71901781907E+01  0.19032266660E+01  0.74538830190E+01  0.00000000000E+00 0.  1.
</event>
<event>
 8    1  0.8600524E-011  0.9118800E+02  0.7816164E-02  0.1184000E+00
        -11   -1    0    0    0    0  0.00000000000E+00  0.00000000000E+00  0.45593999997E+02  0.45594000000E+02  0.51100000000E-03 0. -1.
         11   -1    0    0    0    0 -0.00000000000E+00 -0.00000000000E+00 -0.45593999997E+02  0.45594000000E+02  0.51100000000E-03 0.  1.
         23    2    1    2    0    0  0.00000000000E+00  0.00000000000E+00  0.00000000000E+00  0.91188000000E+02  0.91188000000E+02 0.  0.
    9900012    2    3    3    0    0  0.37038541197E+02 -0.21809489693E+02  0.60095442537E+01  0.47787285757E+02  0.20000067079E+02 0.  0.
        -12    1    3    3    0    0 -0.37038541197E+02  0.21809489693E+02 -0.60095442537E+01  0.43400714243E+02  0.00000000000E+00 0.  1.
         11    1    4    4    0    0  0.11024662628E+02 -0.15209594696E+02  0.52392704777E+01  0.19501920733E+02  0.51100000000E-03 0. -1.
        -11    1    4    4    0    0  0.11193981650E+02 -0.74219775993E+01  0.49731726900E+00  0.13440174902E+02  0.51100000000E-03 0.  1.
         12    1    4    4    0    0  0.14819896919E+02  0.82208260194E+00  0.27295650704E+00  0.14845190122E+02  0.00000000000E+00 0. -1.
</event>
<event>
 8    1  0.8600524E-011  0.9118800E+02  0.7816164E-02  0.1184000E+00
        -11   -1    0    0    0    0  0.00000000000E+00  0.00000000000E+00  0.45593999997E+02  0.45594000000E+02  0.51100000000E-03 0. -1.
         11   -1    0    0    0    0 -0.00000000000E+00 -0.00000000000E+00 -0.45593999997E+02  0.45594000000E+02  0.51100000000E-03 0.  1.
         23    2    1    2    0    0  0.00000000000E+00  0.35527136788E-14  0.00000000000E+00  0.91188000000E+02  0.91188000000E+02 0.  0.
    9900012    2    3    3    0    0  0.41915430418E+01  0.31044615126E+02 -0.30038089725E+02  0.47787262729E+02  0.19999962084E+02 0.  0.
         12    1    3    3    0    0 -0.41915430418E+01 -0.31044615126E+02  0.30038089725E+02  0.43400737271E+02  0.00000000000E+00 0. -1.
         11    1    4    4    0    0  0.65182104218E+01  0.15205379920E+02 -0.38680860979E+01  0.16989783281E+02  0.51100000000E-03 0. -1.
        -11    1    4    4    0    0 -0.27281844146E+01  0.11930903382E+02 -0.18540001275E+02  0.22215334642E+02  0.51100000000E-03 0.  1.
         12    1    4    4    0    0  0.40151703465E+00  0.39083318239E+01 -0.76300023522E+01  0.85821448059E+01  0.00000000000E+00 0. -1.
</event>
<event>
 8    1  0.8600524E-011  0.9118800E+02  0.7816164E-02  0.1184000E+00
        -11   -1    0    0    0    0  0.00000000000E+00  0.00000000000E+00  0.45593999997E+02  0.45594000000E+02  0.51100000000E-03 0. -1.
         11   -1    0    0    0    0 -0.00000000000E+00 -0.00000000000E+00 -0.45593999997E+02  0.45594000000E+02  0.51100000000E-03 0.  1.
         23    2    1    2    0    0 -0.35527136788E-14  0.00000000000E+00  0.00000000000E+00  0.91188000000E+02  0.91188000000E+02 0.  0.
    9900012    2    3    3    0    0  0.16033290510E+02 -0.15918511210E+02  0.37056139097E+02  0.47787275945E+02  0.20000022344E+02 0.  0.
        -12    1    3    3    0    0 -0.16033290510E+02  0.15918511210E+02 -0.37056139097E+02  0.43400724055E+02  0.00000000000E+00 0.  1.
         11    1    4    4    0    0  0.19360732636E+01 -0.51477206286E+01  0.16280549082E+02  0.17184402405E+02  0.51100000000E-03 0. -1.
        -11    1    4    4    0    0  0.17907668150E+00 -0.83518449554E+00 -0.19693054083E+01  0.21465706724E+01  0.51100000000E-03 0.  1.
        -12    1    4    4    0    0  0.13918140565E+02 -0.99356060858E+01  0.22744895423E+02  0.28456302868E+02  0.00000000000E+00 0.  1.
</event>
<event>
 8    1  0.8600524E-011  0.9118800E+02  0.7816164E-02  0.1184000E+00
        -11   -1    0    0    0    0  0.00000000000E+00  0.00000000000E+00  0.45593999997E+02  0.45594000000E+02  0.51100000000E-03 0. -1.
         11   -1    0    0    0    0 -0.00000000000E+00 -0.00000000000E+00 -0.45593999997E+02  0.45594000000E+02  0.51100000000E-03 0.  1.
         23    2    1    2    0    0  0.00000000000E+00 -0.88817841970E-15 -0.35527136788E-14  0.91188000000E+02  0.91188000000E+02 0.  0.
    9900012    2    3    3    0    0  0.34428961756E+02 -0.34753002243E+01 -0.26195266670E+02  0.47787272873E+02  0.20000008338E+02 0.  0.
         12    1    3    3    0    0 -0.34428961756E+02  0.34753002243E+01  0.26195266670E+02  0.43400727127E+02  0.00000000000E+00 0. -1.
         11    1    4    4    0    0  0.74659311683E+01  0.68713610726E+01 -0.10439338977E+02  0.14558005692E+02  0.51100000000E-03 0. -1.
        -11    1    4    4    0    0  0.15466487655E+02 -0.83432189943E+01 -0.89773067465E+01  0.19733564814E+02  0.51100000000E-03 0.  1.
        -12    1    4    4    0    0  0.11496542932E+02 -0.20034423026E+01 -0.67786209466E+01  0.13495702367E+02  0.00000000000E+00 0.  1.
</event>
<event>
 8    1  0.8600524E-011  0.9118800E+02  0.7816164E-02  0.1184000E+00
        -11   -1    0    0    0    0  0.00000000000E+00  0.00000000000E+00  0.45593999997E+02  0.45594000000E+02  0.51100000000E-03 0. -1.
         11   -1    0    0    0    0 -0.00000000000E+00 -0.00000000000E+00 -0.45593999997E+02  0.45594000000E+02  0.51100000000E-03 0.  1.
         23    2    1    2    0    0  0.88817841970E-15  0.35527136788E-14  0.00000000000E+00  0.91188000000E+02  0.91188000000E+02 0.  0.
    9900012    2    3    3    0    0  0.53035008382E+01 -0.20149449418E+02  0.38072247068E+02  0.47787269248E+02  0.19999991809E+02 0.  0.
        -12    1    3    3    0    0 -0.53035008382E+01  0.20149449418E+02 -0.38072247068E+02  0.43400730752E+02  0.00000000000E+00 0.  1.
         11    1    4    4    0    0  0.11945131164E+01 -0.17205098049E+02  0.37923247124E+02  0.41660712105E+02  0.51100000000E-03 0. -1.
        -11    1    4    4    0    0  0.44507400183E+01 -0.32362283338E+01  0.54196757610E+00  0.55295560087E+01  0.51100000000E-03 0.  1.
         12    1    4    4    0    0 -0.34175229652E+00  0.29187696448E+00 -0.39296763157E+00  0.59700113403E+00  0.00000000000E+00 0. -1.
</event>
<event>
 8    1  0.8600524E-011  0.9118800E+02  0.7816164E-02  0.1184000E+00
        -11   -1    0    0    0    0  0.00000000000E+00  0.00000000000E+00  0.45593999997E+02  0.45594000000E+02  0.51100000000E-03 0. -1.
         11   -1    0    0    0    0 -0.00000000000E+00 -0.00000000000E+00 -0.45593999997E+02  0.45594000000E+02  0.51100000000E-03 0.  1.
         23    2    1    2    0    0  0.17763568394E-14  0.00000000000E+00  0.00000000000E+00  0.91188000000E+02  0.91188000000E+02 0.  0.
    9900012    2    3    3    0    0 -0.14912715467E+02 -0.26517128637E+02  0.30952803811E+02  0.47787271233E+02  0.20000000860E+02 0.  0.
        -12    1    3    3    0    0  0.14912715467E+02  0.26517128637E+02 -0.30952803811E+02  0.43400728767E+02  0.00000000000E+00 0.  1.
         11    1    4    4    0    0 -0.51472434161E+01 -0.67262583724E+01  0.12675763858E+02  0.15245053496E+02  0.51100000000E-03 0. -1.
        -11    1    4    4    0    0 -0.51991338651E-01  0.20020288725E+01 -0.63005908272E+00  0.20994755094E+01  0.51100000000E-03 0.  1.
        -12    1    4    4    0    0 -0.97134807124E+01 -0.21792899137E+02  0.18907099036E+02  0.30442742227E+02  0.00000000000E+00 0.  1.
</event>
<event>
 8    1  0.8600524E-011  0.9118800E+02  0.7816164E-02  0.1184000E+00
        -11   -1    0    0    0    0  0.00000000000E+00  0.00000000000E+00  0.45593999997E+02  0.45594000000E+02  0.51100000000E-03 0. -1.
         11   -1    0    0    0    0 -0.00000000000E+00 -0.00000000000E+00 -0.45593999997E+02  0.45594000000E+02  0.51100000000E-03 0.  1.
         23    2    1    2    0    0  0.44408920985E-15 -0.17763568394E-14  0.00000000000E+00  0.91188000000E+02  0.91188000000E+02 0.  0.
    9900012    2    3    3    0    0  0.31836425961E+01 -0.88310443370E+01  0.42373344653E+02  0.47787271189E+02  0.20000000659E+02 0.  0.
        -12    1    3    3    0    0 -0.31836425961E+01  0.88310443370E+01 -0.42373344653E+02  0.43400728811E+02  0.00000000000E+00 0.  1.
         11    1    4    4    0    0  0.10722869126E+02 -0.76251254099E+01  0.22872386983E+02  0.26386901037E+02  0.51100000000E-03 0. -1.
        -11    1    4    4    0    0 -0.63991039681E+01  0.80253660045E+00  0.13243950697E+02  0.14730744276E+02  0.51100000000E-03 0.  1.
         12    1    4    4    0    0 -0.11401225622E+01 -0.20084555275E+01  0.62570069733E+01  0.66696258761E+01  0.00000000000E+00 0. -1.
</event>
<event>
 8    1  0.8600524E-011  0.9118800E+02  0.7816164E-02  0.1184000E+00
        -11   -1    0    0    0    0  0.00000000000E+00  0.00000000000E+00  0.45593999997E+02  0.45594000000E+02  0.51100000000E-03 0. -1.
         11   -1    0    0    0    0 -0.00000000000E+00 -0.00000000000E+00 -0.45593999997E+02  0.45594000000E+02  0.51100000000E-03 0.  1.
         23    2    1    2    0    0 -0.71054273576E-14 -0.35527136788E-14  0.35527136788E-14  0.91188000000E+02  0.91188000000E+02 0.  0.
    9900012    2    3    3    0    0 -0.27876448728E+02  0.17671163582E+02  0.28182568403E+02  0.47787267543E+02  0.19999984035E+02 0.  0.
        -12    1    3    3    0    0  0.27876448728E+02 -0.17671163582E+02 -0.28182568403E+02  0.43400732457E+02  0.00000000000E+00 0.  1.
         11    1    4    4    0    0 -0.15522532840E+02  0.98246659352E+00  0.16590856094E+02  0.22741388977E+02  0.51100000000E-03 0. -1.
        -11    1    4    4    0    0 -0.95140770817E+01  0.16849645772E+02  0.98864023680E+01  0.21729454144E+02  0.51100000000E-03 0.  1.
        -12    1    4    4    0    0 -0.28398388061E+01 -0.16094878302E+00  0.17053099403E+01  0.33164244222E+01  0.00000000000E+00 0.  1.
</event>
<event>
 8    1  0.8600524E-011  0.9118800E+02  0.7816164E-02  0.1184000E+00
        -11   -1    0    0    0    0  0.00000000000E+00  0.00000000000E+00  0.45593999997E+02  0.45594000000E+02  0.51100000000E-03 0. -1.
         11   -1    0    0    0    0 -0.00000000000E+00 -0.00000000000E+00 -0.45593999997E+02  0.45594000000E+02  0.51100000000E-03 0.  1.
         23    2    1    2    0    0 -0.10658141036E-13  0.17763568394E-14  0.71054273576E-14  0.91188000000E+02  0.91188000000E+02 0.  0.
    9900012    2    3    3    0    0 -0.22028583681E+02  0.11641536005E+02  0.35536461062E+02  0.47787263551E+02  0.19999965833E+02 0.  0.
        -12    1    3    3    0    0  0.22028583681E+02 -0.11641536005E+02 -0.35536461062E+02  0.43400736449E+02  0.00000000000E+00 0.  1.
         11    1    4    4    0    0 -0.18064361710E+02  0.99077416017E+01  0.21313841172E+02  0.29643959475E+02  0.51100000000E-03 0. -1.
        -11    1    4    4    0    0  0.22770827806E+01  0.99127723961E+00  0.10603589298E+02  0.10890539142E+02  0.51100000000E-03 0.  1.
        -12    1    4    4    0    0 -0.62413047517E+01  0.74251716322E+00  0.36190305925E+01  0.72527649328E+01  0.00000000000E+00 0.  1.
</event>
<event>
 8    1  0.8600524E-011  0.9118800E+02  0.7816164E-02  0.1184000E+00
        -11   -1    0    0    0    0  0.00000000000E+00  0.00000000000E+00  0.45593999997E+02  0.45594000000E+02  0.51100000000E-03 0.  1.
         11   -1    0    0    0    0 -0.00000000000E+00 -0.00000000000E+00 -0.45593999997E+02  0.45594000000E+02  0.51100000000E-03 0. -1.
         23    2    1    2    0    0 -0.88817841970E-15  0.00000000000E+00 -0.24980018054E-15  0.91188000000E+02  0.91188000000E+02 0.  0.
    9900012    2    3    3    0    0 -0.57746984715E+01 -0.43014314818E+02 -0.21245430609E+00  0.47787267765E+02  0.19999985048E+02 0.  0.
         12    1    3    3    0    0  0.57746984715E+01  0.43014314818E+02  0.21245430609E+00  0.43400732235E+02  0.00000000000E+00 0. -1.
         11    1    4    4    0    0 -0.48144950608E+01 -0.10887338151E+02  0.48695068696E+01  0.12861788061E+02  0.51100000000E-03 0. -1.
        -11    1    4    4    0    0  0.54576762174E+01 -0.20983562615E+02 -0.27328692674E+01  0.21853253863E+02  0.51100000000E-03 0.  1.
        -12    1    4    4    0    0 -0.64178796281E+01 -0.11143414051E+02 -0.23490919083E+01  0.13072225841E+02  0.00000000000E+00 0.  1.
</event>
<event>
 8    1  0.8600524E-011  0.9118800E+02  0.7816164E-02  0.1184000E+00
        -11   -1    0    0    0    0  0.00000000000E+00  0.00000000000E+00  0.45593999997E+02  0.45594000000E+02  0.51100000000E-03 0. -1.
         11   -1    0    0    0    0 -0.00000000000E+00 -0.00000000000E+00 -0.45593999997E+02  0.45594000000E+02  0.51100000000E-03 0.  1.
         23    2    1    2    0    0  0.00000000000E+00  0.00000000000E+00 -0.35527136788E-14  0.91188000000E+02  0.91188000000E+02 0.  0.
    9900012    2    3    3    0    0  0.20837515289E+02  0.28764585743E+02  0.24940326408E+02  0.47787270539E+02  0.19999997696E+02 0.  0.
        -12    1    3    3    0    0 -0.20837515289E+02 -0.28764585743E+02 -0.24940326408E+02  0.43400729461E+02  0.00000000000E+00 0.  1.
         11    1    4    4    0    0  0.82384192598E+01  0.61645365971E+01  0.43747912453E+01  0.11180870362E+02  0.51100000000E-03 0. -1.
        -11    1    4    4    0    0  0.14038411458E+02  0.22537597033E+02  0.22067436666E+02  0.34525237690E+02  0.51100000000E-03 0.  1.
        -12    1    4    4    0    0 -0.14393154288E+01  0.62452112631E-01 -0.15019015033E+01  0.20811624866E+01  0.00000000000E+00 0.  1.
</event>
<event>
 8    1  0.8600524E-011  0.9118800E+02  0.7816164E-02  0.1184000E+00
        -11   -1    0    0    0    0  0.00000000000E+00  0.00000000000E+00  0.45593999997E+02  0.45594000000E+02  0.51100000000E-03 0. -1.
         11   -1    0    0    0    0 -0.00000000000E+00 -0.00000000000E+00 -0.45593999997E+02  0.45594000000E+02  0.51100000000E-03 0.  1.
         23    2    1    2    0    0 -0.44408920985E-15  0.00000000000E+00  0.00000000000E+00  0.91188000000E+02  0.91188000000E+02 0.  0.
    9900012    2    3    3    0    0  0.36609102005E+01  0.30975994773E+02  0.30177951911E+02  0.47787270775E+02  0.19999998773E+02 0.  0.
        -12    1    3    3    0    0 -0.36609102005E+01 -0.30975994773E+02 -0.30177951911E+02  0.43400729225E+02  0.00000000000E+00 0.  1.
         11    1    4    4    0    0  0.10462993709E+02  0.23950397190E+02  0.22586184617E+02  0.34543183100E+02  0.51100000000E-03 0. -1.
        -11    1    4    4    0    0 -0.32788921058E+01  0.83533525671E+00  0.97260830894E+00  0.35206371038E+01  0.51100000000E-03 0.  1.
         12    1    4    4    0    0 -0.35231914029E+01  0.61902623265E+01  0.66191589860E+01  0.97234505714E+01  0.00000000000E+00 0. -1.
</event>
<event>
 8    1  0.8600524E-011  0.9118800E+02  0.7816164E-02  0.1184000E+00
        -11   -1    0    0    0    0  0.00000000000E+00  0.00000000000E+00  0.45593999997E+02  0.45594000000E+02  0.51100000000E-03 0. -1.
         11   -1    0    0    0    0 -0.00000000000E+00 -0.00000000000E+00 -0.45593999997E+02  0.45594000000E+02  0.51100000000E-03 0.  1.
         23    2    1    2    0    0  0.00000000000E+00  0.00000000000E+00  0.00000000000E+00  0.91188000000E+02  0.91188000000E+02 0.  0.
    9900012    2    3    3    0    0 -0.14610116335E+01  0.15349700189E+02 -0.40569389164E+02  0.47787272034E+02  0.20000004512E+02 0.  0.
         12    1    3    3    0    0  0.14610116335E+01 -0.15349700189E+02  0.40569389164E+02  0.43400727966E+02  0.00000000000E+00 0. -1.
         11    1    4    4    0    0  0.80616503177E+01  0.48596180633E+01 -0.21256072761E+02  0.23247079882E+02  0.51100000000E-03 0.  1.
        -11    1    4    4    0    0 -0.69846689839E+01  0.10477844725E+02 -0.16388834475E+02  0.20667963775E+02  0.51100000000E-03 0. -1.
        -12    1    4    4    0    0 -0.25379929673E+01  0.12237400315E-01 -0.29244819277E+01  0.38722283767E+01  0.00000000000E+00 0.  1.
</event>
<event>
 8    1  0.8600524E-011  0.9118800E+02  0.7816164E-02  0.1184000E+00
        -11   -1    0    0    0    0  0.00000000000E+00  0.00000000000E+00  0.45593999997E+02  0.45594000000E+02  0.51100000000E-03 0. -1.
         11   -1    0    0    0    0 -0.00000000000E+00 -0.00000000000E+00 -0.45593999997E+02  0.45594000000E+02  0.51100000000E-03 0.  1.
         23    2    1    2    0    0  0.88817841970E-15  0.88817841970E-15  0.00000000000E+00  0.91188000000E+02  0.91188000000E+02 0.  0.
    9900012    2    3    3    0    0  0.34679777538E+01  0.19628545680E+01  0.43217398676E+02  0.47787271711E+02  0.20000003038E+02 0.  0.
        -12    1    3    3    0    0 -0.34679777538E+01 -0.19628545680E+01 -0.43217398676E+02  0.43400728289E+02  0.00000000000E+00 0.  1.
         11    1    4    4    0    0 -0.61741118358E+01 -0.30977560743E+01  0.93085485394E+01  0.11591584267E+02  0.51100000000E-03 0.  1.
        -11    1    4    4    0    0  0.74282419206E+01  0.33560138647E+01  0.31399347079E+02  0.32440107958E+02  0.51100000000E-03 0. -1.
         12    1    4    4    0    0  0.22138476689E+01  0.17045967776E+01  0.25095030570E+01  0.37555794851E+01  0.00000000000E+00 0. -1.
</event>
<event>
 8    1  0.8600524E-011  0.9118800E+02  0.7816164E-02  0.1184000E+00
        -11   -1    0    0    0    0  0.00000000000E+00  0.00000000000E+00  0.45593999997E+02  0.45594000000E+02  0.51100000000E-03 0. -1.
         11   -1    0    0    0    0 -0.00000000000E+00 -0.00000000000E+00 -0.45593999997E+02  0.45594000000E+02  0.51100000000E-03 0.  1.
         23    2    1    2    0    0  0.35527136788E-14  0.00000000000E+00  0.00000000000E+00  0.91188000000E+02  0.91188000000E+02 0.  0.
    9900012    2    3    3    0    0 -0.24341186615E+02 -0.61838673141E+01 -0.35396186730E+02  0.47787267105E+02  0.19999982038E+02 0.  0.
         12    1    3    3    0    0  0.24341186615E+02  0.61838673141E+01  0.35396186730E+02  0.43400732895E+02  0.00000000000E+00 0. -1.
         11    1    4    4    0    0 -0.16795331476E+02 -0.85715442897E+00 -0.11285549813E+02  0.20252938254E+02  0.51100000000E-03 0. -1.
        -11    1    4    4    0    0 -0.96840675213E+01 -0.54797596630E+01 -0.19541493558E+02  0.22487305318E+02  0.51100000000E-03 0.  1.
         12    1    4    4    0    0  0.21382123816E+01  0.15304677778E+00 -0.45691433593E+01  0.50470235331E+01  0.00000000000E+00 0. -1.
</event>
<event>
 8    1  0.8600524E-011  0.9118800E+02  0.7816164E-02  0.1184000E+00
        -11   -1    0    0    0    0  0.00000000000E+00  0.00000000000E+00  0.45593999997E+02  0.45594000000E+02  0.51100000000E-03 0. -1.
         11   -1    0    0    0    0 -0.00000000000E+00 -0.00000000000E+00 -0.45593999997E+02  0.45594000000E+02  0.51100000000E-03 0.  1.
         23    2    1    2    0    0  0.35527136788E-14  0.00000000000E+00  0.00000000000E+00  0.91188000000E+02  0.91188000000E+02 0.  0.
    9900012    2    3    3    0    0  0.24013219500E+02  0.19187461598E+02 -0.30640334166E+02  0.47787268772E+02  0.19999989640E+02 0.  0.
         12    1    3    3    0    0 -0.24013219500E+02 -0.19187461598E+02  0.30640334166E+02  0.43400731228E+02  0.00000000000E+00 0. -1.
         11    1    4    4    0    0  0.38783244263E+01  0.95940931182E+01 -0.25346223242E+01  0.10654216710E+02  0.51100000000E-03 0. -1.
        -11    1    4    4    0    0  0.16355097323E+02  0.95379700284E+01 -0.27372551203E+02  0.33282407370E+02  0.51100000000E-03 0.  1.
         12    1    4    4    0    0  0.37797977510E+01  0.55398451472E-01 -0.73316063841E+00  0.38506446926E+01  0.00000000000E+00 0. -1.
</event>
<event>
 8    1  0.8600524E-011  0.9118800E+02  0.7816164E-02  0.1184000E+00
        -11   -1    0    0    0    0  0.00000000000E+00  0.00000000000E+00  0.45593999997E+02  0.45594000000E+02  0.51100000000E-03 0. -1.
         11   -1    0    0    0    0 -0.00000000000E+00 -0.00000000000E+00 -0.45593999997E+02  0.45594000000E+02  0.51100000000E-03 0.  1.
         23    2    1    2    0    0  0.71054273576E-14  0.00000000000E+00  0.00000000000E+00  0.91188000000E+02  0.91188000000E+02 0.  0.
    9900012    2    3    3    0    0  0.32492092465E+02 -0.26497114694E+02 -0.11215610573E+02  0.47787273273E+02  0.20000010163E+02 0.  0.
         12    1    3    3    0    0 -0.32492092465E+02  0.26497114694E+02  0.11215610573E+02  0.43400726727E+02  0.00000000000E+00 0. -1.
         11    1    4    4    0    0  0.32327315300E+02 -0.27282825360E+02 -0.92489780002E+01  0.43300709791E+02  0.51100000000E-03 0. -1.
        -11    1    4    4    0    0  0.14686135954E+01  0.18325380826E+01 -0.13188212493E+01  0.26933829036E+01  0.51100000000E-03 0.  1.
         12    1    4    4    0    0 -0.13038364299E+01 -0.10468274167E+01 -0.64781132383E+00  0.17931805787E+01  0.00000000000E+00 0. -1.
</event>
<event>
 8    1  0.8600524E-011  0.9118800E+02  0.7816164E-02  0.1184000E+00
        -11   -1    0    0    0    0  0.00000000000E+00  0.00000000000E+00  0.45593999997E+02  0.45594000000E+02  0.51100000000E-03 0. -1.
         11   -1    0    0    0    0 -0.00000000000E+00 -0.00000000000E+00 -0.45593999997E+02  0.45594000000E+02  0.51100000000E-03 0.  1.
         23    2    1    2    0    0  0.00000000000E+00  0.35527136788E-14  0.00000000000E+00  0.91188000000E+02  0.91188000000E+02 0.  0.
    9900012    2    3    3    0    0 -0.13426534634E+02  0.24937679613E+02  0.32885614455E+02  0.47787270342E+02  0.19999996796E+02 0.  0.
        -12    1    3    3    0    0  0.13426534634E+02 -0.24937679613E+02 -0.32885614455E+02  0.43400729658E+02  0.00000000000E+00 0.  1.
         11    1    4    4    0    0 -0.26131543073E+01  0.35436880347E+01 -0.15163651712E+01  0.46567868659E+01  0.51100000000E-03 0. -1.
        -11    1    4    4    0    0 -0.48923811815E+00  0.61100331207E+01  0.32758050156E+01  0.69500185203E+01  0.51100000000E-03 0.  1.
         12    1    4    4    0    0 -0.10324142209E+02  0.15283958458E+02  0.31126174611E+02  0.36180464955E+02  0.00000000000E+00 0. -1.
</event>
<event>
 8    1  0.8600524E-011  0.9118800E+02  0.7816164E-02  0.1184000E+00
        -11   -1    0    0    0    0  0.00000000000E+00  0.00000000000E+00  0.45593999997E+02  0.45594000000E+02  0.51100000000E-03 0. -1.
         11   -1    0    0    0    0 -0.00000000000E+00 -0.00000000000E+00 -0.45593999997E+02  0.45594000000E+02  0.51100000000E-03 0.  1.
         23    2    1    2    0    0  0.24424906542E-14  0.00000000000E+00  0.35527136788E-14  0.91188000000E+02  0.91188000000E+02 0.  0.
    9900012    2    3    3    0    0  0.11218918428E+00  0.33347326618E+02 -0.27777099495E+02  0.47787262272E+02  0.19999960003E+02 0.  0.
         12    1    3    3    0    0 -0.11218918428E+00 -0.33347326618E+02  0.27777099495E+02  0.43400737728E+02  0.00000000000E+00 0. -1.
         11    1    4    4    0    0 -0.94868542211E+01  0.15442930125E+02 -0.12342071897E+02  0.21927408256E+02  0.51100000000E-03 0. -1.
        -11    1    4    4    0    0  0.79051596589E+00  0.52738764838E+01 -0.44313278036E+01  0.69336393779E+01  0.51100000000E-03 0.  1.
         12    1    4    4    0    0  0.88085274395E+01  0.12630520009E+02 -0.11003699794E+02  0.18926214638E+02  0.00000000000E+00 0. -1.
</event>
<event>
 8    1  0.8600524E-011  0.9118800E+02  0.7816164E-02  0.1184000E+00
        -11   -1    0    0    0    0  0.00000000000E+00  0.00000000000E+00  0.45593999997E+02  0.45594000000E+02  0.51100000000E-03 0. -1.
         11   -1    0    0    0    0 -0.00000000000E+00 -0.00000000000E+00 -0.45593999997E+02  0.45594000000E+02  0.51100000000E-03 0.  1.
         23    2    1    2    0    0  0.44408920985E-15  0.35527136788E-14 -0.71054273576E-14  0.91188000000E+02  0.91188000000E+02 0.  0.
    9900012    2    3    3    0    0 -0.25350955626E+01  0.21359307166E+02 -0.37695837595E+02  0.47787275535E+02  0.20000020474E+02 0.  0.
         12    1    3    3    0    0  0.25350955626E+01 -0.21359307166E+02  0.37695837595E+02  0.43400724465E+02  0.00000000000E+00 0. -1.
         11    1    4    4    0    0  0.31961320005E+01  0.11418432549E+01 -0.48731704097E+00  0.34287816995E+01  0.51100000000E-03 0. -1.
        -11    1    4    4    0    0 -0.75908752016E+01  0.18482202202E+02 -0.25597892406E+02  0.32472531168E+02  0.51100000000E-03 0.  1.
        -12    1    4    4    0    0  0.18596476385E+01  0.17352617087E+01 -0.11610628148E+02  0.11885962668E+02  0.00000000000E+00 0.  1.
</event>
<event>
 8    1  0.8600524E-011  0.9118800E+02  0.7816164E-02  0.1184000E+00
        -11   -1    0    0    0    0  0.00000000000E+00  0.00000000000E+00  0.45593999997E+02  0.45594000000E+02  0.51100000000E-03 0. -1.
         11   -1    0    0    0    0 -0.00000000000E+00 -0.00000000000E+00 -0.45593999997E+02  0.45594000000E+02  0.51100000000E-03 0.  1.
         23    2    1    2    0    0 -0.35527136788E-14  0.00000000000E+00  0.00000000000E+00  0.91188000000E+02  0.91188000000E+02 0.  0.
    9900012    2    3    3    0    0 -0.23045102110E+02  0.36529615769E+02  0.42583131875E+01  0.47787276611E+02  0.20000025382E+02 0.  0.
        -12    1    3    3    0    0  0.23045102110E+02 -0.36529615769E+02 -0.42583131875E+01  0.43400723389E+02  0.00000000000E+00 0.  1.
         11    1    4    4    0    0 -0.41390957884E+00  0.41168518186E+01 -0.12047780701E+01  0.43094408564E+01  0.51100000000E-03 0. -1.
        -11    1    4    4    0    0 -0.23837250087E+01 -0.37408344174E+00 -0.31738449447E+01  0.39869004669E+01  0.51100000000E-03 0.  1.
        -12    1    4    4    0    0 -0.20247467522E+02  0.32786847392E+02  0.86369362023E+01  0.39490935288E+02  0.00000000000E+00 0.  1.
</event>
<event>
 8    1  0.8600524E-011  0.9118800E+02  0.7816164E-02  0.1184000E+00
        -11   -1    0    0    0    0  0.00000000000E+00  0.00000000000E+00  0.45593999997E+02  0.45594000000E+02  0.51100000000E-03 0. -1.
         11   -1    0    0    0    0 -0.00000000000E+00 -0.00000000000E+00 -0.45593999997E+02  0.45594000000E+02  0.51100000000E-03 0.  1.
         23    2    1    2    0    0  0.00000000000E+00  0.00000000000E+00  0.35527136788E-14  0.91188000000E+02  0.91188000000E+02 0.  0.
    9900012    2    3    3    0    0  0.33781037743E+02  0.62594661306E+01  0.26519496531E+02  0.47787272777E+02  0.20000007900E+02 0.  0.
        -12    1    3    3    0    0 -0.33781037743E+02 -0.62594661306E+01 -0.26519496531E+02  0.43400727223E+02  0.00000000000E+00 0.  1.
         11    1    4    4    0    0  0.17000561414E+01  0.18104286117E+01 -0.23243329020E+01  0.34015241205E+01  0.51100000000E-03 0. -1.
        -11    1    4    4    0    0  0.12743539414E+02 -0.34754559910E-01  0.58894605453E+01  0.14038687633E+02  0.51100000000E-03 0.  1.
         12    1    4    4    0    0  0.19337442187E+02  0.44837920788E+01  0.22954368888E+02  0.30347061024E+02  0.00000000000E+00 0. -1.
</event>
<event>
 8    1  0.8600524E-011  0.9118800E+02  0.7816164E-02  0.1184000E+00
        -11   -1    0    0    0    0  0.00000000000E+00  0.00000000000E+00  0.45593999997E+02  0.45594000000E+02  0.51100000000E-03 0. -1.
         11   -1    0    0    0    0 -0.00000000000E+00 -0.00000000000E+00 -0.45593999997E+02  0.45594000000E+02  0.51100000000E-03 0.  1.
         23    2    1    2    0    0  0.00000000000E+00  0.00000000000E+00  0.00000000000E+00  0.91188000000E+02  0.91188000000E+02 0.  0.
    9900012    2    3    3    0    0 -0.75656936644E+01 -0.25980966205E+02 -0.33931885234E+02  0.47787272343E+02  0.20000005922E+02 0.  0.
         12    1    3    3    0    0  0.75656936644E+01  0.25980966205E+02  0.33931885234E+02  0.43400727657E+02  0.00000000000E+00 0. -1.
         11    1    4    4    0    0 -0.11388059707E+01 -0.10673844254E+01 -0.38513882403E+01  0.41556443771E+01  0.51100000000E-03 0. -1.
        -11    1    4    4    0    0 -0.46877264800E+00 -0.15214990768E+02 -0.48891908204E+01  0.15988116807E+02  0.51100000000E-03 0.  1.
        -12    1    4    4    0    0 -0.59581150457E+01 -0.96985910116E+01 -0.25191306173E+02  0.27643511160E+02  0.00000000000E+00 0.  1.
</event>
<event>
 8    1  0.8600524E-011  0.9118800E+02  0.7816164E-02  0.1184000E+00
        -11   -1    0    0    0    0  0.00000000000E+00  0.00000000000E+00  0.45593999997E+02  0.45594000000E+02  0.51100000000E-03 0.  1.
         11   -1    0    0    0    0 -0.00000000000E+00 -0.00000000000E+00 -0.45593999997E+02  0.45594000000E+02  0.51100000000E-03 0. -1.
         23    2    1    2    0    0  0.35527136788E-14 -0.35527136788E-14 -0.35527136788E-14  0.91188000000E+02  0.91188000000E+02 0.  0.
    9900012    2    3    3    0    0 -0.31144458858E+02  0.23511713118E+02  0.18996067216E+02  0.47787210365E+02  0.19999723335E+02 0.  0.
        -12    1    3    3    0    0  0.31144458858E+02 -0.23511713118E+02 -0.18996067216E+02  0.43400789635E+02  0.00000000000E+00 0.  1.
         11    1    4    4    0    0 -0.15943579986E+02  0.13352546665E+02  0.33206586627E+01  0.21059796282E+02  0.51100000000E-03 0. -1.
        -11    1    4    4    0    0 -0.11848266975E+02  0.96130374438E+01  0.17210493502E+02  0.22999847957E+02  0.51100000000E-03 0.  1.
         12    1    4    4    0    0 -0.33526118965E+01  0.54612900922E+00 -0.15350849484E+01  0.37275661258E+01  0.00000000000E+00 0. -1.
</event>
<event>
 8    1  0.8600524E-011  0.9118800E+02  0.7816164E-02  0.1184000E+00
        -11   -1    0    0    0    0  0.00000000000E+00  0.00000000000E+00  0.45593999997E+02  0.45594000000E+02  0.51100000000E-03 0. -1.
         11   -1    0    0    0    0 -0.00000000000E+00 -0.00000000000E+00 -0.45593999997E+02  0.45594000000E+02  0.51100000000E-03 0.  1.
         23    2    1    2    0    0  0.00000000000E+00 -0.71054273576E-14  0.35527136788E-14  0.91188000000E+02  0.91188000000E+02 0.  0.
    9900012    2    3    3    0    0  0.49874413971E+01 -0.34832289997E+02  0.25405910513E+02  0.47787270892E+02  0.19999999304E+02 0.  0.
        -12    1    3    3    0    0 -0.49874413971E+01  0.34832289997E+02 -0.25405910513E+02  0.43400729108E+02  0.00000000000E+00 0.  1.
         11    1    4    4    0    0 -0.65547854187E+00 -0.71251789905E+01  0.18081482497E+01  0.73801916045E+01  0.51100000000E-03 0. -1.
        -11    1    4    4    0    0  0.21804555124E+01 -0.13516809270E+02  0.21727007450E+02  0.25681148185E+02  0.51100000000E-03 0.  1.
        -12    1    4    4    0    0  0.34624644267E+01 -0.14190301736E+02  0.18707548135E+01  0.14725931102E+02  0.00000000000E+00 0.  1.
</event>
<event>
 8    1  0.8600524E-011  0.9118800E+02  0.7816164E-02  0.1184000E+00
        -11   -1    0    0    0    0  0.00000000000E+00  0.00000000000E+00  0.45593999997E+02  0.45594000000E+02  0.51100000000E-03 0. -1.
         11   -1    0    0    0    0 -0.00000000000E+00 -0.00000000000E+00 -0.45593999997E+02  0.45594000000E+02  0.51100000000E-03 0.  1.
         23    2    1    2    0    0  0.88817841970E-15  0.00000000000E+00 -0.71054273576E-14  0.91188000000E+02  0.91188000000E+02 0.  0.
    9900012    2    3    3    0    0  0.58261968592E+01 -0.98044792501E+01  0.41875422304E+02  0.47787269864E+02  0.19999994617E+02 0.  0.
        -12    1    3    3    0    0 -0.58261968592E+01  0.98044792501E+01 -0.41875422304E+02  0.43400730136E+02  0.00000000000E+00 0.  1.
         11    1    4    4    0    0  0.14864901295E+01  0.44423403514E+01  0.42725187890E+01  0.63402253718E+01  0.51100000000E-03 0.  1.
        -11    1    4    4    0    0  0.19460281789E+01 -0.29572411993E+00  0.10111681793E+01  0.22129030200E+01  0.51100000000E-03 0. -1.
         12    1    4    4    0    0  0.23936785509E+01 -0.13951095482E+02  0.36591735336E+02  0.39234141472E+02  0.00000000000E+00 0. -1.
</event>
<event>
 8    1  0.8600524E-011  0.9118800E+02  0.7816164E-02  0.1184000E+00
        -11   -1    0    0    0    0  0.00000000000E+00  0.00000000000E+00  0.45593999997E+02  0.45594000000E+02  0.51100000000E-03 0. -1.
         11   -1    0    0    0    0 -0.00000000000E+00 -0.00000000000E+00 -0.45593999997E+02  0.45594000000E+02  0.51100000000E-03 0.  1.
         23    2    1    2    0    0  0.00000000000E+00  0.13322676296E-14  0.00000000000E+00  0.91188000000E+02  0.91188000000E+02 0.  0.
    9900012    2    3    3    0    0 -0.19446751304E+02  0.25388407292E+01  0.38716938531E+02  0.47787272151E+02  0.20000005047E+02 0.  0.
        -12    1    3    3    0    0  0.19446751304E+02 -0.25388407292E+01 -0.38716938531E+02  0.43400727849E+02  0.00000000000E+00 0.  1.
         11    1    4    4    0    0 -0.71108651713E+01  0.80534890876E+01  0.89423572876E+01  0.13978155962E+02  0.51100000000E-03 0. -1.
        -11    1    4    4    0    0 -0.12657625155E+02 -0.41164777115E+01  0.29478557567E+02  0.32344183709E+02  0.51100000000E-03 0.  1.
        -12    1    4    4    0    0  0.32173902253E+00 -0.13981706469E+01  0.29602367734E+00  0.14649324810E+01  0.00000000000E+00 0.  1.
</event>
<event>
 8    1  0.8600524E-011  0.9118800E+02  0.7816164E-02  0.1184000E+00
        -11   -1    0    0    0    0  0.00000000000E+00  0.00000000000E+00  0.45593999997E+02  0.45594000000E+02  0.51100000000E-03 0. -1.
         11   -1    0    0    0    0 -0.00000000000E+00 -0.00000000000E+00 -0.45593999997E+02  0.45594000000E+02  0.51100000000E-03 0.  1.
         23    2    1    2    0    0  0.00000000000E+00 -0.44408920985E-15  0.00000000000E+00  0.91188000000E+02  0.91188000000E+02 0.  0.
    9900012    2    3    3    0    0  0.36228578394E+02  0.33153636758E+01  0.23666891538E+02  0.47787270930E+02  0.19999999477E+02 0.  0.
        -12    1    3    3    0    0 -0.36228578394E+02 -0.33153636758E+01 -0.23666891538E+02  0.43400729070E+02  0.00000000000E+00 0.  1.
         11    1    4    4    0    0  0.11071125844E+02 -0.13544190711E+01 -0.15620494284E+01  0.11262516467E+02  0.51100000000E-03 0. -1.
        -11    1    4    4    0    0  0.93969794007E+00  0.10421391260E+01  0.35581951110E+01  0.38248972386E+01  0.51100000000E-03 0.  1.
         12    1    4    4    0    0  0.24217754609E+02  0.36276436209E+01  0.21670745856E+02  0.32699857225E+02  0.00000000000E+00 0. -1.
</event>
<event>
 8    1  0.8600524E-011  0.9118800E+02  0.7816164E-02  0.1184000E+00
        -11   -1    0    0    0    0  0.00000000000E+00  0.00000000000E+00  0.45593999997E+02  0.45594000000E+02  0.51100000000E-03 0.  1.
         11   -1    0    0    0    0 -0.00000000000E+00 -0.00000000000E+00 -0.45593999997E+02  0.45594000000E+02  0.51100000000E-03 0. -1.
         23    2    1    2    0    0  0.00000000000E+00  0.71054273576E-14  0.11102230246E-15  0.91188000000E+02  0.91188000000E+02 0.  0.
    9900012    2    3    3    0    0  0.89742074174E+01  0.42460058332E+02  0.48001736840E+00  0.47787269949E+02  0.19999995005E+02 0.  0.
        -12    1    3    3    0    0 -0.89742074174E+01 -0.42460058332E+02 -0.48001736840E+00  0.43400730051E+02  0.00000000000E+00 0.  1.
         11    1    4    4    0    0  0.82234285008E+00 -0.11715859872E+01 -0.20212695691E-01  0.14315272623E+01  0.51100000000E-03 0.  1.
        -11    1    4    4    0    0  0.82180228868E+01  0.44492126504E+02 -0.19875630322E+00  0.45245162453E+02  0.51100000000E-03 0. -1.
         12    1    4    4    0    0 -0.66158319523E-01 -0.86048218546E+00  0.69898636731E+00  0.11105802341E+01  0.00000000000E+00 0. -1.
</event>
<event>
 8    1  0.8600524E-011  0.9118800E+02  0.7816164E-02  0.1184000E+00
        -11   -1    0    0    0    0  0.00000000000E+00  0.00000000000E+00  0.45593999997E+02  0.45594000000E+02  0.51100000000E-03 0. -1.
         11   -1    0    0    0    0 -0.00000000000E+00 -0.00000000000E+00 -0.45593999997E+02  0.45594000000E+02  0.51100000000E-03 0.  1.
         23    2    1    2    0    0  0.00000000000E+00 -0.66613381478E-15 -0.35527136788E-14  0.91188000000E+02  0.91188000000E+02 0.  0.
    9900012    2    3    3    0    0  0.38378439410E+02  0.34421315861E+00  0.20263273498E+02  0.47787270201E+02  0.19999996156E+02 0.  0.
        -12    1    3    3    0    0 -0.38378439410E+02 -0.34421315861E+00 -0.20263273498E+02  0.43400729799E+02  0.00000000000E+00 0.  1.
         11    1    4    4    0    0  0.14811065483E+01 -0.55733234126E+01  0.15282300186E+01  0.59658274967E+01  0.51100000000E-03 0. -1.
        -11    1    4    4    0    0  0.26381254813E+02  0.37828368053E+01  0.13761293146E+02  0.29994226930E+02  0.51100000000E-03 0.  1.
         12    1    4    4    0    0  0.10516078048E+02  0.21346997659E+01  0.49737503329E+01  0.11827215775E+02  0.00000000000E+00 0. -1.
</event>
<event>
 8    1  0.8600524E-011  0.9118800E+02  0.7816164E-02  0.1184000E+00
        -11   -1    0    0    0    0  0.00000000000E+00  0.00000000000E+00  0.45593999997E+02  0.45594000000E+02  0.51100000000E-03 0. -1.
         11   -1    0    0    0    0 -0.00000000000E+00 -0.00000000000E+00 -0.45593999997E+02  0.45594000000E+02  0.51100000000E-03 0.  1.
         23    2    1    2    0    0  0.00000000000E+00  0.00000000000E+00  0.00000000000E+00  0.91188000000E+02  0.91188000000E+02 0.  0.
    9900012    2    3    3    0    0  0.35865464905E+02 -0.35300794090E+01 -0.24183261976E+02  0.47787271973E+02  0.20000004232E+02 0.  0.
         12    1    3    3    0    0 -0.35865464905E+02  0.35300794090E+01  0.24183261976E+02  0.43400728027E+02  0.00000000000E+00 0. -1.
         11    1    4    4    0    0  0.61675794192E+01 -0.47061984771E+01  0.16887111762E+01  0.79397157188E+01  0.51100000000E-03 0. -1.
        -11    1    4    4    0    0  0.17398563155E+02  0.51500156115E+00 -0.11232547229E+02  0.20715823516E+02  0.51100000000E-03 0.  1.
         12    1    4    4    0    0  0.12299322332E+02  0.66111750691E+00 -0.14639425923E+02  0.19131732737E+02  0.00000000000E+00 0. -1.
</event>
<event>
 8    1  0.8600524E-011  0.9118800E+02  0.7816164E-02  0.1184000E+00
        -11   -1    0    0    0    0  0.00000000000E+00  0.00000000000E+00  0.45593999997E+02  0.45594000000E+02  0.51100000000E-03 0. -1.
         11   -1    0    0    0    0 -0.00000000000E+00 -0.00000000000E+00 -0.45593999997E+02  0.45594000000E+02  0.51100000000E-03 0.  1.
         23    2    1    2    0    0  0.22204460493E-15  0.71054273576E-14  0.88817841970E-15  0.91188000000E+02  0.91188000000E+02 0.  0.
    9900012    2    3    3    0    0  0.97369957157E+00  0.43141110839E+02 -0.46389432766E+01  0.47787270398E+02  0.19999997051E+02 0.  0.
         12    1    3    3    0    0 -0.97369957157E+00 -0.43141110839E+02  0.46389432766E+01  0.43400729602E+02  0.00000000000E+00 0. -1.
         11    1    4    4    0    0 -0.39151186857E+01  0.30381748063E+01  0.39896116006E+01  0.63620485272E+01  0.51100000000E-03 0. -1.
        -11    1    4    4    0    0  0.37694566859E+01  0.25212380370E+02 -0.40933944624E+01  0.25819155798E+02  0.51100000000E-03 0.  1.
         12    1    4    4    0    0  0.11193615714E+01  0.14890555662E+02 -0.45351604149E+01  0.15606066072E+02  0.00000000000E+00 0. -1.
</event>
<event>
 8    1  0.8600524E-011  0.9118800E+02  0.7816164E-02  0.1184000E+00
        -11   -1    0    0    0    0  0.00000000000E+00  0.00000000000E+00  0.45593999997E+02  0.45594000000E+02  0.51100000000E-03 0. -1.
         11   -1    0    0    0    0 -0.00000000000E+00 -0.00000000000E+00 -0.45593999997E+02  0.45594000000E+02  0.51100000000E-03 0.  1.
         23    2    1    2    0    0  0.00000000000E+00  0.35527136788E-14  0.00000000000E+00  0.91188000000E+02  0.91188000000E+02 0.  0.
    9900012    2    3    3    0    0  0.88739867741E+01  0.19492948323E+02  0.37747858705E+02  0.47787268296E+02  0.19999987469E+02 0.  0.
        -12    1    3    3    0    0 -0.88739867741E+01 -0.19492948323E+02 -0.37747858705E+02  0.43400731704E+02  0.00000000000E+00 0.  1.
         11    1    4    4    0    0  0.15371475770E+01  0.14238451392E+02  0.12656818566E+02  0.19112597343E+02  0.51100000000E-03 0. -1.
        -11    1    4    4    0    0  0.35648152590E+01  0.38165178838E+01  0.23902709977E+02  0.24466574364E+02  0.51100000000E-03 0.  1.
         12    1    4    4    0    0  0.37720239382E+01  0.14379790467E+01  0.11883301625E+01  0.42080965892E+01  0.00000000000E+00 0. -1.
</event>
<event>
 8    1  0.8600524E-011  0.9118800E+02  0.7816164E-02  0.1184000E+00
        -11   -1    0    0    0    0  0.00000000000E+00  0.00000000000E+00  0.45593999997E+02  0.45594000000E+02  0.51100000000E-03 0. -1.
         11   -1    0    0    0    0 -0.00000000000E+00 -0.00000000000E+00 -0.45593999997E+02  0.45594000000E+02  0.51100000000E-03 0.  1.
         23    2    1    2    0    0  0.17763568394E-14  0.00000000000E+00  0.00000000000E+00  0.91188000000E+02  0.91188000000E+02 0.  0.
    9900012    2    3    3    0    0 -0.74091458475E+01 -0.28050741259E+02  0.32278220567E+02  0.47787273619E+02  0.20000011740E+02 0.  0.
        -12    1    3    3    0    0  0.74091458475E+01  0.28050741259E+02 -0.32278220567E+02  0.43400726381E+02  0.00000000000E+00 0.  1.
         11    1    4    4    0    0  0.81398330682E+00 -0.11143254103E+02  0.69061254573E+01  0.13135039015E+02  0.51100000000E-03 0. -1.
        -11    1    4    4    0    0 -0.11196988529E+02 -0.15415273902E+02  0.24803980484E+02  0.31276839190E+02  0.51100000000E-03 0.  1.
         12    1    4    4    0    0  0.29738593748E+01 -0.14922132541E+01  0.56811462581E+00  0.33753954146E+01  0.00000000000E+00 0. -1.
</event>
<event>
 8    1  0.8600524E-011  0.9118800E+02  0.7816164E-02  0.1184000E+00
        -11   -1    0    0    0    0  0.00000000000E+00  0.00000000000E+00  0.45593999997E+02  0.45594000000E+02  0.51100000000E-03 0. -1.
         11   -1    0    0    0    0 -0.00000000000E+00 -0.00000000000E+00 -0.45593999997E+02  0.45594000000E+02  0.51100000000E-03 0.  1.
         23    2    1    2    0    0  0.00000000000E+00  0.00000000000E+00  0.17763568394E-14  0.91188000000E+02  0.91188000000E+02 0.  0.
    9900012    2    3    3    0    0  0.38565393682E+02  0.11902460825E+02 -0.15958228004E+02  0.47787271843E+02  0.20000003643E+02 0.  0.
         12    1    3    3    0    0 -0.38565393682E+02 -0.11902460825E+02  0.15958228004E+02  0.43400728157E+02  0.00000000000E+00 0. -1.
         11    1    4    4    0    0  0.11964775941E+02  0.10483053708E+02 -0.99864206654E+01  0.18782408694E+02  0.51100000000E-03 0. -1.
        -11    1    4    4    0    0  0.26021193123E+02  0.25049386302E+01 -0.73521489918E+01  0.27155686405E+02  0.51100000000E-03 0.  1.
        -12    1    4    4    0    0  0.57942461782E+00 -0.10855315133E+01  0.13803416533E+01  0.18491767449E+01  0.00000000000E+00 0.  1.
</event>
<event>
 8    1  0.8600524E-011  0.9118800E+02  0.7816164E-02  0.1184000E+00
        -11   -1    0    0    0    0  0.00000000000E+00  0.00000000000E+00  0.45593999997E+02  0.45594000000E+02  0.51100000000E-03 0. -1.
         11   -1    0    0    0    0 -0.00000000000E+00 -0.00000000000E+00 -0.45593999997E+02  0.45594000000E+02  0.51100000000E-03 0.  1.
         23    2    1    2    0    0  0.00000000000E+00  0.00000000000E+00  0.00000000000E+00  0.91188000000E+02  0.91188000000E+02 0.  0.
    9900012    2    3    3    0    0  0.19555276872E+02  0.15858449315E+02  0.35351432508E+02  0.47787273640E+02  0.20000011833E+02 0.  0.
        -12    1    3    3    0    0 -0.19555276872E+02 -0.15858449315E+02 -0.35351432508E+02  0.43400726360E+02  0.00000000000E+00 0.  1.
         11    1    4    4    0    0  0.33249906532E+01  0.66695910640E+01  0.21869613179E+01  0.77667115224E+01  0.51100000000E-03 0.  1.
        -11    1    4    4    0    0  0.13945257999E+02  0.70897867710E+01  0.33427027973E+02  0.36906659243E+02  0.51100000000E-03 0. -1.
         12    1    4    4    0    0  0.22850282204E+01  0.20990714799E+01 -0.26255678306E+00  0.31139028743E+01  0.00000000000E+00 0. -1.
</event>
<event>
 8    1  0.8600524E-011  0.9118800E+02  0.7816164E-02  0.1184000E+00
        -11   -1    0    0    0    0  0.00000000000E+00  0.00000000000E+00  0.45593999997E+02  0.45594000000E+02  0.51100000000E-03 0. -1.
         11   -1    0    0    0    0 -0.00000000000E+00 -0.00000000000E+00 -0.45593999997E+02  0.45594000000E+02  0.51100000000E-03 0.  1.
         23    2    1    2    0    0  0.00000000000E+00  0.00000000000E+00  0.00000000000E+00  0.91188000000E+02  0.91188000000E+02 0.  0.
    9900012    2    3    3    0    0  0.25205103199E+02  0.15069811831E+02 -0.31956565770E+02  0.47787325446E+02  0.20000248039E+02 0.  0.
         12    1    3    3    0    0 -0.25205103199E+02 -0.15069811831E+02  0.31956565770E+02  0.43400674554E+02  0.00000000000E+00 0. -1.
         11    1    4    4    0    0 -0.39295411804E+00  0.80697050010E+01 -0.63596284784E+01  0.10281995253E+02  0.51100000000E-03 0. -1.
        -11    1    4    4    0    0  0.22030351669E+02  0.36049814998E+01 -0.22456555882E+02  0.31664320435E+02  0.51100000000E-03 0.  1.
        -12    1    4    4    0    0  0.35677056485E+01  0.33951253299E+01 -0.31403814099E+01  0.58410097585E+01  0.00000000000E+00 0.  1.
</event>
<event>
 8    1  0.8600524E-011  0.9118800E+02  0.7816164E-02  0.1184000E+00
        -11   -1    0    0    0    0  0.00000000000E+00  0.00000000000E+00  0.45593999997E+02  0.45594000000E+02  0.51100000000E-03 0. -1.
         11   -1    0    0    0    0 -0.00000000000E+00 -0.00000000000E+00 -0.45593999997E+02  0.45594000000E+02  0.51100000000E-03 0.  1.
         23    2    1    2    0    0  0.00000000000E+00  0.00000000000E+00  0.00000000000E+00  0.91188000000E+02  0.91188000000E+02 0.  0.
    9900012    2    3    3    0    0  0.12651744078E+02  0.17300671354E+02  0.37739149995E+02  0.47787270745E+02  0.19999998636E+02 0.  0.
        -12    1    3    3    0    0 -0.12651744078E+02 -0.17300671354E+02 -0.37739149995E+02  0.43400729255E+02  0.00000000000E+00 0.  1.
         11    1    4    4    0    0  0.73478805967E+01  0.16479484245E+02  0.29231439762E+02  0.34351736799E+02  0.51100000000E-03 0.  1.
        -11    1    4    4    0    0  0.53582364686E+01  0.43301874020E+01  0.56182055855E+01  0.88896262718E+01  0.51100000000E-03 0. -1.
         12    1    4    4    0    0 -0.54372987457E-01 -0.35090002935E+01  0.28895046470E+01  0.45459076746E+01  0.00000000000E+00 0. -1.
</event>
<event>
 8    1  0.8600524E-011  0.9118800E+02  0.7816164E-02  0.1184000E+00
        -11   -1    0    0    0    0  0.00000000000E+00  0.00000000000E+00  0.45593999997E+02  0.45594000000E+02  0.51100000000E-03 0. -1.
         11   -1    0    0    0    0 -0.00000000000E+00 -0.00000000000E+00 -0.45593999997E+02  0.45594000000E+02  0.51100000000E-03 0.  1.
         23    2    1    2    0    0  0.11102230246E-15 -0.35527136788E-14 -0.71054273576E-14  0.91188000000E+02  0.91188000000E+02 0.  0.
    9900012    2    3    3    0    0  0.87398731657E+00  0.23980169320E+02 -0.36163668329E+02  0.47787270957E+02  0.19999999600E+02 0.  0.
         12    1    3    3    0    0 -0.87398731657E+00 -0.23980169320E+02  0.36163668329E+02  0.43400729043E+02  0.00000000000E+00 0. -1.
         11    1    4    4    0    0  0.49718515149E+01  0.88665818426E+01 -0.85335490485E+01  0.13272416535E+02  0.51100000000E-03 0. -1.
        -11    1    4    4    0    0 -0.32416454178E+01  0.14620047147E+01 -0.16504101486E+02  0.16882863765E+02  0.51100000000E-03 0.  1.
        -12    1    4    4    0    0 -0.85621878054E+00  0.13651582763E+02 -0.11126017795E+02  0.17631990656E+02  0.00000000000E+00 0.  1.
</event>
<event>
 8    1  0.8600524E-011  0.9118800E+02  0.7816164E-02  0.1184000E+00
        -11   -1    0    0    0    0  0.00000000000E+00  0.00000000000E+00  0.45593999997E+02  0.45594000000E+02  0.51100000000E-03 0. -1.
         11   -1    0    0    0    0 -0.00000000000E+00 -0.00000000000E+00 -0.45593999997E+02  0.45594000000E+02  0.51100000000E-03 0.  1.
         23    2    1    2    0    0  0.00000000000E+00  0.00000000000E+00  0.00000000000E+00  0.91188000000E+02  0.91188000000E+02 0.  0.
    9900012    2    3    3    0    0  0.16816906116E+02 -0.28952369354E+02 -0.27614778369E+02  0.47787262600E+02  0.19999961496E+02 0.  0.
         12    1    3    3    0    0 -0.16816906116E+02  0.28952369354E+02  0.27614778369E+02  0.43400737400E+02  0.00000000000E+00 0. -1.
         11    1    4    4    0    0  0.65120430492E+01 -0.57376430124E+01 -0.28345065757E+01  0.91302617597E+01  0.51100000000E-03 0. -1.
        -11    1    4    4    0    0  0.12930489633E+02 -0.19084096946E+02 -0.24666111576E+02  0.33761181540E+02  0.51100000000E-03 0.  1.
        -12    1    4    4    0    0 -0.26256265657E+01 -0.41306293955E+01 -0.11416021699E+00  0.48958193002E+01  0.00000000000E+00 0.  1.
</event>
<event>
 8    1  0.8600524E-011  0.9118800E+02  0.7816164E-02  0.1184000E+00
        -11   -1    0    0    0    0  0.00000000000E+00  0.00000000000E+00  0.45593999997E+02  0.45594000000E+02  0.51100000000E-03 0. -1.
         11   -1    0    0    0    0 -0.00000000000E+00 -0.00000000000E+00 -0.45593999997E+02  0.45594000000E+02  0.51100000000E-03 0.  1.
         23    2    1    2    0    0  0.17763568394E-14 -0.35527136788E-14  0.35527136788E-14  0.91188000000E+02  0.91188000000E+02 0.  0.
    9900012    2    3    3    0    0  0.10742157976E+02 -0.27287114847E+02 -0.31994419620E+02  0.47787268653E+02  0.19999989094E+02 0.  0.
         12    1    3    3    0    0 -0.10742157976E+02  0.27287114847E+02  0.31994419620E+02  0.43400731347E+02  0.00000000000E+00 0. -1.
         11    1    4    4    0    0 -0.32846572506E+00 -0.16504080499E+02 -0.23063202732E+02  0.28362014797E+02  0.51100000000E-03 0. -1.
        -11    1    4    4    0    0  0.11884697380E+02 -0.81118956160E+01 -0.80967974835E+01  0.16510815003E+02  0.51100000000E-03 0.  1.
        -12    1    4    4    0    0 -0.81407367931E+00 -0.26711387321E+01 -0.83441940474E+00  0.29144388524E+01  0.00000000000E+00 0.  1.
</event>
<event>
 8    1  0.8600524E-011  0.9118800E+02  0.7816164E-02  0.1184000E+00
        -11   -1    0    0    0    0  0.00000000000E+00  0.00000000000E+00  0.45593999997E+02  0.45594000000E+02  0.51100000000E-03 0. -1.
         11   -1    0    0    0    0 -0.00000000000E+00 -0.00000000000E+00 -0.45593999997E+02  0.45594000000E+02  0.51100000000E-03 0.  1.
         23    2    1    2    0    0  0.00000000000E+00  0.00000000000E+00 -0.17763568394E-14  0.91188000000E+02  0.91188000000E+02 0.  0.
    9900012    2    3    3    0    0 -0.13210303485E+02 -0.39153461095E+02  0.13270921752E+02  0.47787274222E+02  0.20000014489E+02 0.  0.
        -12    1    3    3    0    0  0.13210303485E+02  0.39153461095E+02 -0.13270921752E+02  0.43400725778E+02  0.00000000000E+00 0.  1.
         11    1    4    4    0    0 -0.15086358470E+02 -0.30379934431E+02  0.11791298156E+02  0.35910629908E+02  0.51100000000E-03 0. -1.
        -11    1    4    4    0    0  0.30966555321E+01 -0.82998949914E+01  0.34534231411E+01  0.95080841396E+01  0.51100000000E-03 0.  1.
        -12    1    4    4    0    0 -0.12206005472E+01 -0.47363167260E+00 -0.19737995451E+01  0.23685601748E+01  0.00000000000E+00 0.  1.
</event>
<event>
 8    1  0.8600524E-011  0.9118800E+02  0.7816164E-02  0.1184000E+00
        -11   -1    0    0    0    0  0.00000000000E+00  0.00000000000E+00  0.45593999997E+02  0.45594000000E+02  0.51100000000E-03 0.  1.
         11   -1    0    0    0    0 -0.00000000000E+00 -0.00000000000E+00 -0.45593999997E+02  0.45594000000E+02  0.51100000000E-03 0. -1.
         23    2    1    2    0    0  0.00000000000E+00  0.35527136788E-14  0.00000000000E+00  0.91188000000E+02  0.91188000000E+02 0.  0.
    9900012    2    3    3    0    0 -0.18879966869E+02  0.30403327927E+02 -0.24552148863E+02  0.47787268303E+02  0.19999987502E+02 0.  0.
         12    1    3    3    0    0  0.18879966869E+02 -0.30403327927E+02  0.24552148863E+02  0.43400731697E+02  0.00000000000E+00 0. -1.
         11    1    4    4    0    0  0.18070863136E+01 -0.16729070986E+00  0.11508210266E+01  0.21489384409E+01  0.51100000000E-03 0. -1.
        -11    1    4    4    0    0 -0.21033304437E+02  0.27558852733E+02 -0.23310974566E+02  0.41776689612E+02  0.51100000000E-03 0.  1.
        -12    1    4    4    0    0  0.34625125423E+00  0.30117659048E+01 -0.23919953232E+01  0.38616402503E+01  0.00000000000E+00 0.  1.
</event>
<event>
 8    1  0.8600524E-011  0.9118800E+02  0.7816164E-02  0.1184000E+00
        -11   -1    0    0    0    0  0.00000000000E+00  0.00000000000E+00  0.45593999997E+02  0.45594000000E+02  0.51100000000E-03 0. -1.
         11   -1    0    0    0    0 -0.00000000000E+00 -0.00000000000E+00 -0.45593999997E+02  0.45594000000E+02  0.51100000000E-03 0.  1.
         23    2    1    2    0    0  0.00000000000E+00  0.00000000000E+00  0.00000000000E+00  0.91188000000E+02  0.91188000000E+02 0.  0.
    9900012    2    3    3    0    0 -0.21694723186E+02  0.11510715191E+02 -0.35783598681E+02  0.47787268291E+02  0.19999987446E+02 0.  0.
         12    1    3    3    0    0  0.21694723186E+02 -0.11510715191E+02  0.35783598681E+02  0.43400731709E+02  0.00000000000E+00 0. -1.
         11    1    4    4    0    0  0.10419105868E+01  0.23285832366E+01 -0.99982181355E+00  0.27399856716E+01  0.51100000000E-03 0. -1.
        -11    1    4    4    0    0 -0.85067763606E+01  0.33561354503E-01 -0.29610931830E+01  0.90074659873E+01  0.51100000000E-03 0.  1.
        -12    1    4    4    0    0 -0.14229857412E+02  0.91485705997E+01 -0.31822683685E+02  0.36039816632E+02  0.00000000000E+00 0.  1.
</event>
<event>
 8    1  0.8600524E-011  0.9118800E+02  0.7816164E-02  0.1184000E+00
        -11   -1    0    0    0    0  0.00000000000E+00  0.00000000000E+00  0.45593999997E+02  0.45594000000E+02  0.51100000000E-03 0. -1.
         11   -1    0    0    0    0 -0.00000000000E+00 -0.00000000000E+00 -0.45593999997E+02  0.45594000000E+02  0.51100000000E-03 0.  1.
         23    2    1    2    0    0  0.00000000000E+00  0.13322676296E-14  0.00000000000E+00  0.91188000000E+02  0.91188000000E+02 0.  0.
    9900012    2    3    3    0    0  0.12482885392E+02 -0.12980718119E+01 -0.41546546328E+02  0.47787275007E+02  0.20000018068E+02 0.  0.
         12    1    3    3    0    0 -0.12482885392E+02  0.12980718119E+01  0.41546546328E+02  0.43400724993E+02  0.00000000000E+00 0. -1.
         11    1    4    4    0    0  0.24617659253E+01  0.28915109671E+01 -0.94366567580E+00  0.39130080900E+01  0.51100000000E-03 0. -1.
        -11    1    4    4    0    0  0.87243411247E+01 -0.84265030227E+01 -0.31368064242E+02  0.33631466454E+02  0.51100000000E-03 0.  1.
        -12    1    4    4    0    0  0.12967783422E+01  0.42369202437E+01 -0.92348164095E+01  0.10242800464E+02  0.00000000000E+00 0.  1.
</event>
<event>
 8    1  0.8600524E-011  0.9118800E+02  0.7816164E-02  0.1184000E+00
        -11   -1    0    0    0    0  0.00000000000E+00  0.00000000000E+00  0.45593999997E+02  0.45594000000E+02  0.51100000000E-03 0. -1.
         11   -1    0    0    0    0 -0.00000000000E+00 -0.00000000000E+00 -0.45593999997E+02  0.45594000000E+02  0.51100000000E-03 0.  1.
         23    2    1    2    0    0  0.00000000000E+00  0.00000000000E+00  0.00000000000E+00  0.91188000000E+02  0.91188000000E+02 0.  0.
    9900012    2    3    3    0    0 -0.21545801283E+02 -0.32999317514E+02 -0.18178196156E+02  0.47787270457E+02  0.19999997324E+02 0.  0.
         12    1    3    3    0    0  0.21545801283E+02  0.32999317514E+02  0.18178196156E+02  0.43400729543E+02  0.00000000000E+00 0. -1.
         11    1    4    4    0    0 -0.23951487364E-01 -0.49934617215E+01 -0.87577152467E+01  0.10081309947E+02  0.51100000000E-03 0. -1.
        -11    1    4    4    0    0 -0.16637369304E+02 -0.25344939913E+02 -0.10412348362E+02  0.32055967233E+02  0.51100000000E-03 0.  1.
         12    1    4    4    0    0 -0.48844804921E+01 -0.26609158793E+01  0.99186745306E+00  0.56499932778E+01  0.00000000000E+00 0. -1.
</event>
<event>
 8    1  0.8600524E-011  0.9118800E+02  0.7816164E-02  0.1184000E+00
        -11   -1    0    0    0    0  0.00000000000E+00  0.00000000000E+00  0.45593999997E+02  0.45594000000E+02  0.51100000000E-03 0. -1.
         11   -1    0    0    0    0 -0.00000000000E+00 -0.00000000000E+00 -0.45593999997E+02  0.45594000000E+02  0.51100000000E-03 0.  1.
         23    2    1    2    0    0 -0.35527136788E-14  0.00000000000E+00  0.00000000000E+00  0.91188000000E+02  0.91188000000E+02 0.  0.
    9900012    2    3    3    0    0 -0.30508980687E+02  0.26665433275E+02  0.15549270442E+02  0.47787273674E+02  0.20000011990E+02 0.  0.
        -12    1    3    3    0    0  0.30508980687E+02 -0.26665433275E+02 -0.15549270442E+02  0.43400726326E+02  0.00000000000E+00 0.  1.
         11    1    4    4    0    0 -0.68467211261E-01  0.98771160728E+00  0.36397515842E+01  0.37720092568E+01  0.51100000000E-03 0. -1.
        -11    1    4    4    0    0 -0.18756477384E+02  0.19334666901E+02  0.12357948699E+01  0.26965941060E+02  0.51100000000E-03 0.  1.
        -12    1    4    4    0    0 -0.11684036092E+02  0.63430547671E+01  0.10673723988E+02  0.17049323358E+02  0.00000000000E+00 0.  1.
</event>
<event>
 8    1  0.8600524E-011  0.9118800E+02  0.7816164E-02  0.1184000E+00
        -11   -1    0    0    0    0  0.00000000000E+00  0.00000000000E+00  0.45593999997E+02  0.45594000000E+02  0.51100000000E-03 0. -1.
         11   -1    0    0    0    0 -0.00000000000E+00 -0.00000000000E+00 -0.45593999997E+02  0.45594000000E+02  0.51100000000E-03 0.  1.
         23    2    1    2    0    0  0.35527136788E-14 -0.35527136788E-14  0.71054273576E-14  0.91188000000E+02  0.91188000000E+02 0.  0.
    9900012    2    3    3    0    0  0.21287508176E+02  0.18438019748E+02  0.33022790044E+02  0.47787271448E+02  0.20000001839E+02 0.  0.
        -12    1    3    3    0    0 -0.21287508176E+02 -0.18438019748E+02 -0.33022790044E+02  0.43400728552E+02  0.00000000000E+00 0.  1.
         11    1    4    4    0    0  0.16280438873E+02  0.86941806777E+01  0.27835666458E+02  0.33398589715E+02  0.51100000000E-03 0. -1.
        -11    1    4    4    0    0 -0.52746142701E+00  0.72752521826E+01  0.35442909399E+01  0.81098402207E+01  0.51100000000E-03 0.  1.
        -12    1    4    4    0    0  0.55345307302E+01  0.24685868878E+01  0.16428326460E+01  0.62788415117E+01  0.00000000000E+00 0.  1.
</event>
<event>
 8    1  0.8600524E-011  0.9118800E+02  0.7816164E-02  0.1184000E+00
        -11   -1    0    0    0    0  0.00000000000E+00  0.00000000000E+00  0.45593999997E+02  0.45594000000E+02  0.51100000000E-03 0. -1.
         11   -1    0    0    0    0 -0.00000000000E+00 -0.00000000000E+00 -0.45593999997E+02  0.45594000000E+02  0.51100000000E-03 0.  1.
         23    2    1    2    0    0 -0.17763568394E-14  0.00000000000E+00  0.00000000000E+00  0.91188000000E+02  0.91188000000E+02 0.  0.
    9900012    2    3    3    0    0 -0.85497254237E+01 -0.33363159304E+02  0.26408794237E+02  0.47787278616E+02  0.20000034524E+02 0.  0.
        -12    1    3    3    0    0  0.85497254237E+01  0.33363159304E+02 -0.26408794237E+02  0.43400721384E+02  0.00000000000E+00 0.  1.
         11    1    4    4    0    0 -0.39028279319E+01 -0.17308904724E+02  0.32520708797E+01  0.18039019205E+02  0.51100000000E-03 0. -1.
        -11    1    4    4    0    0 -0.34687930385E+00 -0.73931450147E-01 -0.65842707560E+00  0.74787538117E+00  0.51100000000E-03 0.  1.
         12    1    4    4    0    0 -0.43000181879E+01 -0.15980323130E+02  0.23815150433E+02  0.29000384030E+02  0.00000000000E+00 0. -1.
</event>
<event>
 8    1  0.8600524E-011  0.9118800E+02  0.7816164E-02  0.1184000E+00
        -11   -1    0    0    0    0  0.00000000000E+00  0.00000000000E+00  0.45593999997E+02  0.45594000000E+02  0.51100000000E-03 0.  1.
         11   -1    0    0    0    0 -0.00000000000E+00 -0.00000000000E+00 -0.45593999997E+02  0.45594000000E+02  0.51100000000E-03 0. -1.
         23    2    1    2    0    0  0.88817841970E-15 -0.71054273576E-14  0.35527136788E-14  0.91188000000E+02  0.91188000000E+02 0.  0.
    9900012    2    3    3    0    0 -0.58076447696E+01  0.39876703319E+02 -0.16116521599E+02  0.47787280261E+02  0.20000042023E+02 0.  0.
         12    1    3    3    0    0  0.58076447696E+01 -0.39876703319E+02  0.16116521599E+02  0.43400719739E+02  0.00000000000E+00 0. -1.
         11    1    4    4    0    0 -0.60288255924E+00  0.26286088637E+02 -0.15307029851E+02  0.30424120141E+02  0.51100000000E-03 0. -1.
        -11    1    4    4    0    0 -0.46377082799E+01  0.13939088729E+02  0.16801175360E+01  0.14786119433E+02  0.51100000000E-03 0.  1.
         12    1    4    4    0    0 -0.56705393046E+00 -0.34847404664E+00 -0.24896092834E+01  0.25770406875E+01  0.00000000000E+00 0. -1.
</event>
<event>
 8    1  0.8600524E-011  0.9118800E+02  0.7816164E-02  0.1184000E+00
        -11   -1    0    0    0    0  0.00000000000E+00  0.00000000000E+00  0.45593999997E+02  0.45594000000E+02  0.51100000000E-03 0. -1.
         11   -1    0    0    0    0 -0.00000000000E+00 -0.00000000000E+00 -0.45593999997E+02  0.45594000000E+02  0.51100000000E-03 0.  1.
         23    2    1    2    0    0  0.35527136788E-14  0.00000000000E+00  0.00000000000E+00  0.91188000000E+02  0.91188000000E+02 0.  0.
    9900012    2    3    3    0    0  0.24492235767E+02 -0.66293115820E+01 -0.35210898709E+02  0.47787253775E+02  0.19999921264E+02 0.  0.
         12    1    3    3    0    0 -0.24492235767E+02  0.66293115820E+01  0.35210898709E+02  0.43400746225E+02  0.00000000000E+00 0. -1.
         11    1    4    4    0    0  0.18197969838E+01  0.36233642860E+01 -0.12132883920E+02  0.12792470531E+02  0.51100000000E-03 0. -1.
        -11    1    4    4    0    0  0.17363207989E+02 -0.44034903746E+01 -0.18970693696E+02  0.26091357548E+02  0.51100000000E-03 0.  1.
        -12    1    4    4    0    0  0.53092307947E+01 -0.58491854934E+01 -0.41073210937E+01  0.89034256966E+01  0.00000000000E+00 0.  1.
</event>
<event>
 8    1  0.8600524E-011  0.9118800E+02  0.7816164E-02  0.1184000E+00
        -11   -1    0    0    0    0  0.00000000000E+00  0.00000000000E+00  0.45593999997E+02  0.45594000000E+02  0.51100000000E-03 0. -1.
         11   -1    0    0    0    0 -0.00000000000E+00 -0.00000000000E+00 -0.45593999997E+02  0.45594000000E+02  0.51100000000E-03 0.  1.
         23    2    1    2    0    0  0.00000000000E+00  0.35527136788E-14 -0.35527136788E-14  0.91188000000E+02  0.91188000000E+02 0.  0.
    9900012    2    3    3    0    0  0.65975525470E+01 -0.30626524482E+02 -0.30035144830E+02  0.47787290024E+02  0.20000086535E+02 0.  0.
         12    1    3    3    0    0 -0.65975525470E+01  0.30626524482E+02  0.30035144830E+02  0.43400709976E+02  0.00000000000E+00 0. -1.
         11    1    4    4    0    0 -0.37809357480E+01 -0.14069471950E+02 -0.57348447308E+01  0.15656754467E+02  0.51100000000E-03 0. -1.
        -11    1    4    4    0    0  0.28205935153E+01 -0.84507829138E+01 -0.60179128527E+01  0.10751128080E+02  0.51100000000E-03 0.  1.
         12    1    4    4    0    0  0.75578947797E+01 -0.81062696183E+01 -0.18282387247E+02  0.21379407477E+02  0.00000000000E+00 0. -1.
</event>
<event>
 8    1  0.8600524E-011  0.9118800E+02  0.7816164E-02  0.1184000E+00
        -11   -1    0    0    0    0  0.00000000000E+00  0.00000000000E+00  0.45593999997E+02  0.45594000000E+02  0.51100000000E-03 0. -1.
         11   -1    0    0    0    0 -0.00000000000E+00 -0.00000000000E+00 -0.45593999997E+02  0.45594000000E+02  0.51100000000E-03 0.  1.
         23    2    1    2    0    0  0.00000000000E+00  0.00000000000E+00  0.71054273576E-14  0.91188000000E+02  0.91188000000E+02 0.  0.
    9900012    2    3    3    0    0 -0.29022618276E+02 -0.22875055402E+01  0.32188165344E+02  0.47787273723E+02  0.20000012212E+02 0.  0.
        -12    1    3    3    0    0  0.29022618276E+02  0.22875055402E+01 -0.32188165344E+02  0.43400726277E+02  0.00000000000E+00 0.  1.
         11    1    4    4    0    0 -0.11796973090E+02  0.24273118893E+01  0.13621600991E+02  0.18182640922E+02  0.51100000000E-03 0. -1.
        -11    1    4    4    0    0 -0.15006579580E+02 -0.37413989313E+01  0.56545722328E+01  0.16467230612E+02  0.51100000000E-03 0.  1.
        -12    1    4    4    0    0 -0.22190656058E+01 -0.97341849817E+00  0.12911992120E+02  0.13137402188E+02  0.00000000000E+00 0.  1.
</event>
<event>
 8    1  0.8600524E-011  0.9118800E+02  0.7816164E-02  0.1184000E+00
        -11   -1    0    0    0    0  0.00000000000E+00  0.00000000000E+00  0.45593999997E+02  0.45594000000E+02  0.51100000000E-03 0. -1.
         11   -1    0    0    0    0 -0.00000000000E+00 -0.00000000000E+00 -0.45593999997E+02  0.45594000000E+02  0.51100000000E-03 0.  1.
         23    2    1    2    0    0  0.35527136788E-14 -0.35527136788E-14  0.71054273576E-14  0.91188000000E+02  0.91188000000E+02 0.  0.
    9900012    2    3    3    0    0 -0.18866582941E+02  0.14904067282E+02 -0.36132321886E+02  0.47787264311E+02  0.19999969301E+02 0.  0.
         12    1    3    3    0    0  0.18866582941E+02 -0.14904067282E+02  0.36132321886E+02  0.43400735689E+02  0.00000000000E+00 0. -1.
         11    1    4    4    0    0  0.30241866366E+01  0.47729512611E+01 -0.10071802724E+02  0.11548505484E+02  0.51100000000E-03 0. -1.
        -11    1    4    4    0    0 -0.15875621538E+02  0.82071419163E+01 -0.23253274885E+02  0.29327586515E+02  0.51100000000E-03 0.  1.
         12    1    4    4    0    0 -0.60151480399E+01  0.19239741047E+01 -0.28072442775E+01  0.69111723123E+01  0.00000000000E+00 0. -1.
</event>
<event>
 8    1  0.8600524E-011  0.9118800E+02  0.7816164E-02  0.1184000E+00
        -11   -1    0    0    0    0  0.00000000000E+00  0.00000000000E+00  0.45593999997E+02  0.45594000000E+02  0.51100000000E-03 0. -1.
         11   -1    0    0    0    0 -0.00000000000E+00 -0.00000000000E+00 -0.45593999997E+02  0.45594000000E+02  0.51100000000E-03 0.  1.
         23    2    1    2    0    0  0.00000000000E+00  0.00000000000E+00  0.00000000000E+00  0.91188000000E+02  0.91188000000E+02 0.  0.
    9900012    2    3    3    0    0  0.38625325776E+01 -0.16053111312E+02 -0.40137285426E+02  0.47787271641E+02  0.20000002718E+02 0.  0.
         12    1    3    3    0    0 -0.38625325776E+01  0.16053111312E+02  0.40137285426E+02  0.43400728359E+02  0.00000000000E+00 0. -1.
         11    1    4    4    0    0 -0.26731826143E+00 -0.10196669011E+01 -0.59750652095E+00  0.12116905322E+01  0.51100000000E-03 0. -1.
        -11    1    4    4    0    0  0.82087572877E+00 -0.18021701969E+02 -0.21862741995E+02  0.28344930175E+02  0.51100000000E-03 0.  1.
        -12    1    4    4    0    0  0.33089751103E+01  0.29882575581E+01 -0.17677036910E+02  0.18230650933E+02  0.00000000000E+00 0.  1.
</event>
<event>
 8    1  0.8600524E-011  0.9118800E+02  0.7816164E-02  0.1184000E+00
        -11   -1    0    0    0    0  0.00000000000E+00  0.00000000000E+00  0.45593999997E+02  0.45594000000E+02  0.51100000000E-03 0. -1.
         11   -1    0    0    0    0 -0.00000000000E+00 -0.00000000000E+00 -0.45593999997E+02  0.45594000000E+02  0.51100000000E-03 0.  1.
         23    2    1    2    0    0  0.00000000000E+00  0.00000000000E+00  0.00000000000E+00  0.91188000000E+02  0.91188000000E+02 0.  0.
    9900012    2    3    3    0    0  0.10199573331E+02 -0.13901900008E+02  0.39828748595E+02  0.47787270345E+02  0.19999996809E+02 0.  0.
        -12    1    3    3    0    0 -0.10199573331E+02  0.13901900008E+02 -0.39828748595E+02  0.43400729655E+02  0.00000000000E+00 0.  1.
         11    1    4    4    0    0  0.11344892337E+01 -0.14407885874E+02  0.24835380290E+02  0.28734480256E+02  0.51100000000E-03 0. -1.
        -11    1    4    4    0    0  0.11049289242E+01 -0.23500465518E+00 -0.77749784459E+00  0.13713490711E+01  0.51100000000E-03 0.  1.
         12    1    4    4    0    0  0.79601551728E+01  0.74099052129E+00  0.15770866150E+02  0.17681441017E+02  0.00000000000E+00 0. -1.
</event>
<event>
 8    1  0.8600524E-011  0.9118800E+02  0.7816164E-02  0.1184000E+00
        -11   -1    0    0    0    0  0.00000000000E+00  0.00000000000E+00  0.45593999997E+02  0.45594000000E+02  0.51100000000E-03 0. -1.
         11   -1    0    0    0    0 -0.00000000000E+00 -0.00000000000E+00 -0.45593999997E+02  0.45594000000E+02  0.51100000000E-03 0.  1.
         23    2    1    2    0    0  0.00000000000E+00 -0.35527136788E-14  0.35527136788E-14  0.91188000000E+02  0.91188000000E+02 0.  0.
    9900012    2    3    3    0    0  0.11105367353E+02 -0.27579159415E+02  0.31617756226E+02  0.47787288868E+02  0.20000081263E+02 0.  0.
        -12    1    3    3    0    0 -0.11105367353E+02  0.27579159415E+02 -0.31617756226E+02  0.43400711132E+02  0.00000000000E+00 0.  1.
         11    1    4    4    0    0 -0.39875555182E+01 -0.25452351126E+01  0.63671669561E+01  0.79321898677E+01  0.51100000000E-03 0. -1.
        -11    1    4    4    0    0  0.60150677948E+01 -0.14629882653E+02  0.79008248262E+01  0.17681559327E+02  0.51100000000E-03 0.  1.
         12    1    4    4    0    0  0.90778550762E+01 -0.10404041649E+02  0.17349764443E+02  0.22173539673E+02  0.00000000000E+00 0. -1.
</event>
<event>
 8    1  0.8600524E-011  0.9118800E+02  0.7816164E-02  0.1184000E+00
        -11   -1    0    0    0    0  0.00000000000E+00  0.00000000000E+00  0.45593999997E+02  0.45594000000E+02  0.51100000000E-03 0. -1.
         11   -1    0    0    0    0 -0.00000000000E+00 -0.00000000000E+00 -0.45593999997E+02  0.45594000000E+02  0.51100000000E-03 0.  1.
         23    2    1    2    0    0 -0.35527136788E-14  0.35527136788E-14 -0.71054273576E-14  0.91188000000E+02  0.91188000000E+02 0.  0.
    9900012    2    3    3    0    0 -0.17969767568E+02  0.21381213134E+02 -0.33219788809E+02  0.47787272011E+02  0.20000004406E+02 0.  0.
         12    1    3    3    0    0  0.17969767568E+02 -0.21381213134E+02  0.33219788809E+02  0.43400727989E+02  0.00000000000E+00 0. -1.
         11    1    4    4    0    0 -0.12277730856E+02  0.96640309367E+01 -0.25878721775E+02  0.30229859574E+02  0.51100000000E-03 0. -1.
        -11    1    4    4    0    0 -0.72720843195E+01  0.75965255317E+01 -0.78387085650E+01  0.13116240419E+02  0.51100000000E-03 0.  1.
         12    1    4    4    0    0  0.15800476078E+01  0.41206566652E+01  0.49764153101E+00  0.44411720175E+01  0.00000000000E+00 0. -1.
</event>
<event>
 8    1  0.8811635E-011  0.9118800E+02  0.7816164E-02  0.1184000E+00
        -11   -1    0    0    0    0  0.00000000000E+00  0.00000000000E+00  0.45593999997E+02  0.45594000000E+02  0.51100000000E-03 0. -1.
         11   -1    0    0    0    0 -0.00000000000E+00 -0.00000000000E+00 -0.45593999997E+02  0.45594000000E+02  0.51100000000E-03 0.  1.
         23    2    1    2    0    0  0.00000000000E+00  0.00000000000E+00  0.00000000000E+00  0.91188000000E+02  0.91188000000E+02 0.  0.
    9900012    2    3    3    0    0 -0.79736660449E+01  0.31565270166E+02  0.28699787622E+02  0.47787269126E+02  0.19999991254E+02 0.  0.
        -12    1    3    3    0    0  0.79736660449E+01 -0.31565270166E+02 -0.28699787622E+02  0.43400730874E+02  0.00000000000E+00 0.  1.
         11    1    4    4    0    0 -0.13136510109E+01  0.10570275955E+02  0.12547740180E+02  0.16459106799E+02  0.51100000000E-03 0. -1.
        -11    1    4    4    0    0  0.36579768400E+01  0.12334716798E+02  0.48684924785E+01  0.13756026037E+02  0.51100000000E-03 0.  1.
        -12    1    4    4    0    0 -0.10317991874E+02  0.86602774126E+01  0.11283554964E+02  0.17572136290E+02  0.00000000000E+00 0.  1.
</event>
<event>
 8    1  0.8600524E-011  0.9118800E+02  0.7816164E-02  0.1184000E+00
        -11   -1    0    0    0    0  0.00000000000E+00  0.00000000000E+00  0.45593999997E+02  0.45594000000E+02  0.51100000000E-03 0. -1.
         11   -1    0    0    0    0 -0.00000000000E+00 -0.00000000000E+00 -0.45593999997E+02  0.45594000000E+02  0.51100000000E-03 0.  1.
         23    2    1    2    0    0  0.00000000000E+00  0.00000000000E+00  0.00000000000E+00  0.91188000000E+02  0.91188000000E+02 0.  0.
    9900012    2    3    3    0    0  0.17837919020E+02 -0.15303705293E+02 -0.36486006722E+02  0.47787269163E+02  0.19999991423E+02 0.  0.
         12    1    3    3    0    0 -0.17837919020E+02  0.15303705293E+02  0.36486006722E+02  0.43400730837E+02  0.00000000000E+00 0. -1.
         11    1    4    4    0    0 -0.39747488280E+00 -0.41950886639E+01 -0.11629442894E+01  0.43714065084E+01  0.51100000000E-03 0. -1.
        -11    1    4    4    0    0  0.44464273079E+01 -0.35829882663E+01 -0.22273253033E+02  0.22993614802E+02  0.51100000000E-03 0.  1.
        -12    1    4    4    0    0  0.13788966595E+02 -0.75256283624E+01 -0.13049809400E+02  0.20422247853E+02  0.00000000000E+00 0.  1.
</event>
<event>
 8    1  0.8600524E-011  0.9118800E+02  0.7816164E-02  0.1184000E+00
        -11   -1    0    0    0    0  0.00000000000E+00  0.00000000000E+00  0.45593999997E+02  0.45594000000E+02  0.51100000000E-03 0. -1.
         11   -1    0    0    0    0 -0.00000000000E+00 -0.00000000000E+00 -0.45593999997E+02  0.45594000000E+02  0.51100000000E-03 0.  1.
         23    2    1    2    0    0  0.71054273576E-14 -0.17763568394E-14  0.00000000000E+00  0.91188000000E+02  0.91188000000E+02 0.  0.
    9900012    2    3    3    0    0 -0.38487939993E+02  0.15168258759E+02 -0.13123482712E+02  0.47787269624E+02  0.19999993522E+02 0.  0.
         12    1    3    3    0    0  0.38487939993E+02 -0.15168258759E+02  0.13123482712E+02  0.43400730376E+02  0.00000000000E+00 0. -1.
         11    1    4    4    0    0 -0.10940129759E+02 -0.12292879748E+01  0.22811492229E+01  0.11242830165E+02  0.51100000000E-03 0. -1.
        -11    1    4    4    0    0 -0.44774301725E+01  0.51283509046E+01 -0.63766688851E+01  0.93278759791E+01  0.51100000000E-03 0.  1.
         12    1    4    4    0    0 -0.23070380061E+02  0.11269195829E+02 -0.90279630497E+01  0.27216563480E+02  0.00000000000E+00 0. -1.
</event>
<event>
 8    1  0.8600524E-011  0.9118800E+02  0.7816164E-02  0.1184000E+00
        -11   -1    0    0    0    0  0.00000000000E+00  0.00000000000E+00  0.45593999997E+02  0.45594000000E+02  0.51100000000E-03 0. -1.
         11   -1    0    0    0    0 -0.00000000000E+00 -0.00000000000E+00 -0.45593999997E+02  0.45594000000E+02  0.51100000000E-03 0.  1.
         23    2    1    2    0    0  0.00000000000E+00  0.00000000000E+00  0.00000000000E+00  0.91188000000E+02  0.91188000000E+02 0.  0.
    9900012    2    3    3    0    0  0.19700665430E+02 -0.71773731932E+01  0.37999921721E+02  0.47787251675E+02  0.19999911687E+02 0.  0.
        -12    1    3    3    0    0 -0.19700665430E+02  0.71773731932E+01 -0.37999921721E+02  0.43400748325E+02  0.00000000000E+00 0.  1.
         11    1    4    4    0    0  0.77612525156E+01  0.29282140915E+01  0.15768482038E+02  0.17817309124E+02  0.51100000000E-03 0. -1.
        -11    1    4    4    0    0  0.11184131400E+01 -0.91034472810E+01  0.90320614832E+01  0.12872518605E+02  0.51100000000E-03 0.  1.
         12    1    4    4    0    0  0.10820999775E+02 -0.10021400037E+01  0.13199378200E+02  0.17097423946E+02  0.00000000000E+00 0. -1.
</event>
<event>
 8    1  0.8600524E-011  0.9118800E+02  0.7816164E-02  0.1184000E+00
        -11   -1    0    0    0    0  0.00000000000E+00  0.00000000000E+00  0.45593999997E+02  0.45594000000E+02  0.51100000000E-03 0. -1.
         11   -1    0    0    0    0 -0.00000000000E+00 -0.00000000000E+00 -0.45593999997E+02  0.45594000000E+02  0.51100000000E-03 0.  1.
         23    2    1    2    0    0  0.00000000000E+00  0.00000000000E+00  0.00000000000E+00  0.91188000000E+02  0.91188000000E+02 0.  0.
    9900012    2    3    3    0    0  0.29630268869E+01 -0.27557624273E+02  0.33397921204E+02  0.47787270460E+02  0.19999997333E+02 0.  0.
        -12    1    3    3    0    0 -0.29630268869E+01  0.27557624273E+02 -0.33397921204E+02  0.43400729540E+02  0.00000000000E+00 0.  1.
         11    1    4    4    0    0 -0.44680399670E+01 -0.28562768520E+01  0.52822912753E+01  0.74849382082E+01  0.51100000000E-03 0.  1.
        -11    1    4    4    0    0  0.10167412609E+02 -0.12060301912E+02  0.13276863301E+02  0.20618008166E+02  0.51100000000E-03 0. -1.
        -12    1    4    4    0    0 -0.27363457553E+01 -0.12641045509E+02  0.14838766627E+02  0.19684324085E+02  0.00000000000E+00 0.  1.
</event>
<event>
 8    1  0.8600524E-011  0.9118800E+02  0.7816164E-02  0.1184000E+00
        -11   -1    0    0    0    0  0.00000000000E+00  0.00000000000E+00  0.45593999997E+02  0.45594000000E+02  0.51100000000E-03 0. -1.
         11   -1    0    0    0    0 -0.00000000000E+00 -0.00000000000E+00 -0.45593999997E+02  0.45594000000E+02  0.51100000000E-03 0.  1.
         23    2    1    2    0    0 -0.35527136788E-14  0.35527136788E-14  0.00000000000E+00  0.91188000000E+02  0.91188000000E+02 0.  0.
    9900012    2    3    3    0    0  0.17788921765E+02  0.18608845282E+02  0.34941216861E+02  0.47787268485E+02  0.19999988333E+02 0.  0.
        -12    1    3    3    0    0 -0.17788921765E+02 -0.18608845282E+02 -0.34941216861E+02  0.43400731515E+02  0.00000000000E+00 0.  1.
         11    1    4    4    0    0 -0.14923438880E+01 -0.17514641909E+01  0.18697232637E+01  0.29648916398E+01  0.51100000000E-03 0. -1.
        -11    1    4    4    0    0 -0.10250188931E+01 -0.44065919602E+00  0.71281048863E+00  0.13239876555E+01  0.51100000000E-03 0.  1.
         12    1    4    4    0    0  0.20306284546E+02  0.20800968669E+02  0.32358683108E+02  0.43498389190E+02  0.00000000000E+00 0. -1.
</event>
<event>
 8    1  0.8600524E-011  0.9118800E+02  0.7816164E-02  0.1184000E+00
        -11   -1    0    0    0    0  0.00000000000E+00  0.00000000000E+00  0.45593999997E+02  0.45594000000E+02  0.51100000000E-03 0.  1.
         11   -1    0    0    0    0 -0.00000000000E+00 -0.00000000000E+00 -0.45593999997E+02  0.45594000000E+02  0.51100000000E-03 0. -1.
         23    2    1    2    0    0  0.00000000000E+00 -0.35527136788E-14  0.44408920985E-15  0.91188000000E+02  0.91188000000E+02 0.  0.
    9900012    2    3    3    0    0  0.37988193414E+02 -0.20865844001E+02  0.22661740925E+01  0.47787287681E+02  0.20000075854E+02 0.  0.
         12    1    3    3    0    0 -0.37988193414E+02  0.20865844001E+02 -0.22661740925E+01  0.43400712319E+02  0.00000000000E+00 0. -1.
         11    1    4    4    0    0  0.24284646153E+02 -0.47105774708E+01  0.53634943698E+01  0.25312065324E+02  0.51100000000E-03 0. -1.
        -11    1    4    4    0    0  0.88859992074E+01 -0.11173809087E+02  0.11906882196E+01  0.14325946046E+02  0.51100000000E-03 0.  1.
         12    1    4    4    0    0  0.48175480543E+01 -0.49814574430E+01 -0.42880084970E+01  0.81492763104E+01  0.00000000000E+00 0. -1.
</event>
<event>
 8    1  0.8600524E-011  0.9118800E+02  0.7816164E-02  0.1184000E+00
        -11   -1    0    0    0    0  0.00000000000E+00  0.00000000000E+00  0.45593999997E+02  0.45594000000E+02  0.51100000000E-03 0.  1.
         11   -1    0    0    0    0 -0.00000000000E+00 -0.00000000000E+00 -0.45593999997E+02  0.45594000000E+02  0.51100000000E-03 0. -1.
         23    2    1    2    0    0  0.00000000000E+00  0.71054273576E-14 -0.17763568394E-14  0.91188000000E+02  0.91188000000E+02 0.  0.
    9900012    2    3    3    0    0 -0.16379358892E+02 -0.38800718939E+02  0.10480652058E+02  0.47787271257E+02  0.20000000967E+02 0.  0.
        -12    1    3    3    0    0  0.16379358892E+02  0.38800718939E+02 -0.10480652058E+02  0.43400728743E+02  0.00000000000E+00 0.  1.
         11    1    4    4    0    0 -0.11514201735E+02 -0.13138142386E+02  0.89570031771E+00  0.17492567172E+02  0.51100000000E-03 0. -1.
        -11    1    4    4    0    0 -0.17665828188E+01 -0.24934636808E+02  0.10294011817E+02  0.27033749409E+02  0.51100000000E-03 0.  1.
         12    1    4    4    0    0 -0.30985743382E+01 -0.72793974577E+00 -0.70906007689E+00  0.32609546755E+01  0.00000000000E+00 0. -1.
</event>
<event>
 8    1  0.8600524E-011  0.9118800E+02  0.7816164E-02  0.1184000E+00
        -11   -1    0    0    0    0  0.00000000000E+00  0.00000000000E+00  0.45593999997E+02  0.45594000000E+02  0.51100000000E-03 0.  1.
         11   -1    0    0    0    0 -0.00000000000E+00 -0.00000000000E+00 -0.45593999997E+02  0.45594000000E+02  0.51100000000E-03 0. -1.
         23    2    1    2    0    0 -0.71054273576E-14  0.00000000000E+00  0.17763568394E-14  0.91188000000E+02  0.91188000000E+02 0.  0.
    9900012    2    3    3    0    0  0.41926050177E+02  0.14186318007E+01  0.11127253093E+02  0.47787286169E+02  0.20000068960E+02 0.  0.
        -12    1    3    3    0    0 -0.41926050177E+02 -0.14186318007E+01 -0.11127253093E+02  0.43400713831E+02  0.00000000000E+00 0.  1.
         11    1    4    4    0    0  0.33239997860E+02  0.27533360406E+00  0.73759470975E+01  0.34049638209E+02  0.51100000000E-03 0. -1.
        -11    1    4    4    0    0 -0.78278601333E+00 -0.23797552463E+01 -0.83732031109E+00  0.26414190390E+01  0.51100000000E-03 0.  1.
        -12    1    4    4    0    0  0.94688383302E+01  0.35230534430E+01  0.45886263069E+01  0.11096228921E+02  0.00000000000E+00 0.  1.
</event>
<event>
 8    1  0.8600524E-011  0.9118800E+02  0.7816164E-02  0.1184000E+00
        -11   -1    0    0    0    0  0.00000000000E+00  0.00000000000E+00  0.45593999997E+02  0.45594000000E+02  0.51100000000E-03 0. -1.
         11   -1    0    0    0    0 -0.00000000000E+00 -0.00000000000E+00 -0.45593999997E+02  0.45594000000E+02  0.51100000000E-03 0.  1.
         23    2    1    2    0    0  0.00000000000E+00  0.00000000000E+00  0.00000000000E+00  0.91188000000E+02  0.91188000000E+02 0.  0.
    9900012    2    3    3    0    0 -0.48835779774E+01 -0.16965766800E+02  0.39647660371E+02  0.47787267865E+02  0.19999985501E+02 0.  0.
        -12    1    3    3    0    0  0.48835779774E+01  0.16965766800E+02 -0.39647660371E+02  0.43400732135E+02  0.00000000000E+00 0.  1.
         11    1    4    4    0    0  0.14311367723E+01 -0.43085659806E+01  0.79769472530E+01  0.91784302039E+01  0.51100000000E-03 0. -1.
        -11    1    4    4    0    0 -0.11622930663E+01 -0.15700330903E+02  0.19630817082E+02  0.25163868844E+02  0.51100000000E-03 0.  1.
        -12    1    4    4    0    0 -0.51524216834E+01  0.30431300837E+01  0.12039896037E+02  0.13444968817E+02  0.00000000000E+00 0.  1.
</event>
<event>
 8    1  0.8600524E-011  0.9118800E+02  0.7816164E-02  0.1184000E+00
        -11   -1    0    0    0    0  0.00000000000E+00  0.00000000000E+00  0.45593999997E+02  0.45594000000E+02  0.51100000000E-03 0. -1.
         11   -1    0    0    0    0 -0.00000000000E+00 -0.00000000000E+00 -0.45593999997E+02  0.45594000000E+02  0.51100000000E-03 0.  1.
         23    2    1    2    0    0  0.00000000000E+00  0.00000000000E+00  0.00000000000E+00  0.91188000000E+02  0.91188000000E+02 0.  0.
    9900012    2    3    3    0    0  0.13944720161E+02 -0.21555329214E+02 -0.34993366364E+02  0.47787272732E+02  0.20000007694E+02 0.  0.
         12    1    3    3    0    0 -0.13944720161E+02  0.21555329214E+02  0.34993366364E+02  0.43400727268E+02  0.00000000000E+00 0. -1.
         11    1    4    4    0    0 -0.10094943752E+01  0.29198489562E+01 -0.11807358834E+01  0.33073757434E+01  0.51100000000E-03 0. -1.
        -11    1    4    4    0    0  0.74084072229E+01 -0.93681501592E+01 -0.15535266224E+02  0.19595694218E+02  0.51100000000E-03 0.  1.
         12    1    4    4    0    0  0.75458073138E+01 -0.15107028011E+02 -0.18277364257E+02  0.24884202770E+02  0.00000000000E+00 0. -1.
</event>
<event>
 8    1  0.8600524E-011  0.9118800E+02  0.7816164E-02  0.1184000E+00
        -11   -1    0    0    0    0  0.00000000000E+00  0.00000000000E+00  0.45593999997E+02  0.45594000000E+02  0.51100000000E-03 0. -1.
         11   -1    0    0    0    0 -0.00000000000E+00 -0.00000000000E+00 -0.45593999997E+02  0.45594000000E+02  0.51100000000E-03 0.  1.
         23    2    1    2    0    0 -0.17763568394E-14  0.00000000000E+00  0.00000000000E+00  0.91188000000E+02  0.91188000000E+02 0.  0.
    9900012    2    3    3    0    0 -0.99847276045E+01 -0.15615559270E+02 -0.39243885950E+02  0.47787273496E+02  0.20000011178E+02 0.  0.
         12    1    3    3    0    0  0.99847276045E+01  0.15615559270E+02  0.39243885950E+02  0.43400726504E+02  0.00000000000E+00 0. -1.
         11    1    4    4    0    0 -0.10620561053E+02 -0.10629168544E+02 -0.29732195251E+02  0.33313345310E+02  0.51100000000E-03 0. -1.
        -11    1    4    4    0    0 -0.26205135749E+01 -0.49637931352E+01 -0.97055029106E+01  0.11211740306E+02  0.51100000000E-03 0.  1.
         12    1    4    4    0    0  0.32563470238E+01 -0.22597590219E-01  0.19381221223E+00  0.32621878799E+01  0.00000000000E+00 0. -1.
</event>
<event>
 8    1  0.8600524E-011  0.9118800E+02  0.7816164E-02  0.1184000E+00
        -11   -1    0    0    0    0  0.00000000000E+00  0.00000000000E+00  0.45593999997E+02  0.45594000000E+02  0.51100000000E-03 0. -1.
         11   -1    0    0    0    0 -0.00000000000E+00 -0.00000000000E+00 -0.45593999997E+02  0.45594000000E+02  0.51100000000E-03 0.  1.
         23    2    1    2    0    0  0.00000000000E+00  0.00000000000E+00  0.00000000000E+00  0.91188000000E+02  0.91188000000E+02 0.  0.
    9900012    2    3    3    0    0  0.20163557080E+02 -0.71439431160E+01  0.37762658250E+02  0.47787270565E+02  0.19999997814E+02 0.  0.
        -12    1    3    3    0    0 -0.20163557080E+02  0.71439431160E+01 -0.37762658250E+02  0.43400729435E+02  0.00000000000E+00 0.  1.
         11    1    4    4    0    0  0.72963595993E+01  0.30061206791E+00  0.69703252443E+01  0.10095180300E+02  0.51100000000E-03 0. -1.
        -11    1    4    4    0    0  0.24718242815E+01  0.47944718377E+01  0.52893316436E+01  0.75547273265E+01  0.51100000000E-03 0.  1.
        -12    1    4    4    0    0  0.10395373199E+02 -0.12239027022E+02  0.25503001362E+02  0.30137362938E+02  0.00000000000E+00 0.  1.
</event>
<event>
 8    1  0.8600524E-011  0.9118800E+02  0.7816164E-02  0.1184000E+00
        -11   -1    0    0    0    0  0.00000000000E+00  0.00000000000E+00  0.45593999997E+02  0.45594000000E+02  0.51100000000E-03 0. -1.
         11   -1    0    0    0    0 -0.00000000000E+00 -0.00000000000E+00 -0.45593999997E+02  0.45594000000E+02  0.51100000000E-03 0.  1.
         23    2    1    2    0    0  0.17763568394E-14  0.00000000000E+00  0.35527136788E-14  0.91188000000E+02  0.91188000000E+02 0.  0.
    9900012    2    3    3    0    0 -0.12338801361E+02 -0.30083184511E+02 -0.28746814517E+02  0.47787270119E+02  0.19999995779E+02 0.  0.
         12    1    3    3    0    0  0.12338801361E+02  0.30083184511E+02  0.28746814517E+02  0.43400729881E+02  0.00000000000E+00 0. -1.
         11    1    4    4    0    0 -0.12469067377E+02 -0.14025843613E+02 -0.82638459332E+01  0.20505927928E+02  0.51100000000E-03 0. -1.
        -11    1    4    4    0    0 -0.40105210656E+01 -0.77252403129E+01 -0.94147824219E+01  0.12821924404E+02  0.51100000000E-03 0.  1.
         12    1    4    4    0    0  0.41407870818E+01 -0.83321005846E+01 -0.11068186162E+02  0.14459417787E+02  0.00000000000E+00 0. -1.
</event>
<event>
 8    1  0.8600524E-011  0.9118800E+02  0.7816164E-02  0.1184000E+00
        -11   -1    0    0    0    0  0.00000000000E+00  0.00000000000E+00  0.45593999997E+02  0.45594000000E+02  0.51100000000E-03 0. -1.
         11   -1    0    0    0    0 -0.00000000000E+00 -0.00000000000E+00 -0.45593999997E+02  0.45594000000E+02  0.51100000000E-03 0.  1.
         23    2    1    2    0    0  0.00000000000E+00 -0.35527136788E-14  0.00000000000E+00  0.91188000000E+02  0.91188000000E+02 0.  0.
    9900012    2    3    3    0    0  0.10429817453E+02 -0.21246832318E+02 -0.36378759883E+02  0.47787272515E+02  0.20000006703E+02 0.  0.
         12    1    3    3    0    0 -0.10429817453E+02  0.21246832318E+02  0.36378759883E+02  0.43400727485E+02  0.00000000000E+00 0. -1.
         11    1    4    4    0    0 -0.31086892104E+01 -0.12410554318E+02 -0.13788026261E+02  0.18809451760E+02  0.51100000000E-03 0. -1.
        -11    1    4    4    0    0  0.80570321966E+01 -0.76091818591E+00 -0.12868611606E+02  0.15201839666E+02  0.51100000000E-03 0.  1.
        -12    1    4    4    0    0  0.54814744668E+01 -0.80753598139E+01 -0.97221220163E+01  0.13775981089E+02  0.00000000000E+00 0.  1.
</event>
<event>
 8    1  0.8600524E-011  0.9118800E+02  0.7816164E-02  0.1184000E+00
        -11   -1    0    0    0    0  0.00000000000E+00  0.00000000000E+00  0.45593999997E+02  0.45594000000E+02  0.51100000000E-03 0.  1.
         11   -1    0    0    0    0 -0.00000000000E+00 -0.00000000000E+00 -0.45593999997E+02  0.45594000000E+02  0.51100000000E-03 0. -1.
         23    2    1    2    0    0 -0.17763568394E-14  0.00000000000E+00  0.00000000000E+00  0.91188000000E+02  0.91188000000E+02 0.  0.
    9900012    2    3    3    0    0 -0.13032567711E+02 -0.36052490692E+02  0.20346831268E+02  0.47787269028E+02  0.19999990805E+02 0.  0.
        -12    1    3    3    0    0  0.13032567711E+02  0.36052490692E+02 -0.20346831268E+02  0.43400730972E+02  0.00000000000E+00 0.  1.
         11    1    4    4    0    0  0.33556597201E+01 -0.82907623855E+00  0.20620141070E+01  0.40248878252E+01  0.51100000000E-03 0.  1.
        -11    1    4    4    0    0 -0.98434037664E+01 -0.28677472617E+02  0.12184663565E+02  0.32676536841E+02  0.51100000000E-03 0. -1.
        -12    1    4    4    0    0 -0.65448236648E+01 -0.65459418364E+01  0.61001535956E+01  0.11085844362E+02  0.00000000000E+00 0.  1.
</event>
<event>
 8    1  0.8600524E-011  0.9118800E+02  0.7816164E-02  0.1184000E+00
        -11   -1    0    0    0    0  0.00000000000E+00  0.00000000000E+00  0.45593999997E+02  0.45594000000E+02  0.51100000000E-03 0. -1.
         11   -1    0    0    0    0 -0.00000000000E+00 -0.00000000000E+00 -0.45593999997E+02  0.45594000000E+02  0.51100000000E-03 0.  1.
         23    2    1    2    0    0  0.00000000000E+00  0.00000000000E+00  0.00000000000E+00  0.91188000000E+02  0.91188000000E+02 0.  0.
    9900012    2    3    3    0    0  0.10531762054E+02 -0.34087673783E+02 -0.24713048365E+02  0.47787282548E+02  0.20000052449E+02 0.  0.
         12    1    3    3    0    0 -0.10531762054E+02  0.34087673783E+02  0.24713048365E+02  0.43400717452E+02  0.00000000000E+00 0. -1.
         11    1    4    4    0    0  0.88803991919E+01 -0.11277994483E+02 -0.13440501579E+02  0.19664733212E+02  0.51100000000E-03 0. -1.
        -11    1    4    4    0    0 -0.40806523764E+01 -0.62412696880E+01 -0.34698193705E+00  0.74649559852E+01  0.51100000000E-03 0.  1.
        -12    1    4    4    0    0  0.57320152387E+01 -0.16568409612E+02 -0.10925564849E+02  0.20657593350E+02  0.00000000000E+00 0.  1.
</event>
<event>
 8    1  0.8600524E-011  0.9118800E+02  0.7816164E-02  0.1184000E+00
        -11   -1    0    0    0    0  0.00000000000E+00  0.00000000000E+00  0.45593999997E+02  0.45594000000E+02  0.51100000000E-03 0. -1.
         11   -1    0    0    0    0 -0.00000000000E+00 -0.00000000000E+00 -0.45593999997E+02  0.45594000000E+02  0.51100000000E-03 0.  1.
         23    2    1    2    0    0  0.17763568394E-14  0.00000000000E+00 -0.71054273576E-14  0.91188000000E+02  0.91188000000E+02 0.  0.
    9900012    2    3    3    0    0 -0.40844611090E+01  0.11709381612E+01 -0.43192235847E+02  0.47787272400E+02  0.20000006179E+02 0.  0.
         12    1    3    3    0    0  0.40844611090E+01 -0.11709381612E+01  0.43192235847E+02  0.43400727600E+02  0.00000000000E+00 0. -1.
         11    1    4    4    0    0 -0.99154836404E+01  0.38314954145E+01 -0.19084842671E+02  0.21845557740E+02  0.51100000000E-03 0. -1.
        -11    1    4    4    0    0 -0.14520344516E+01  0.42382980369E+00 -0.23851171807E+01  0.28243264645E+01  0.51100000000E-03 0.  1.
         12    1    4    4    0    0  0.72830569830E+01 -0.30843870570E+01 -0.21722275995E+02  0.23117388195E+02  0.00000000000E+00 0. -1.
</event>
<event>
 8    1  0.8600524E-011  0.9118800E+02  0.7816164E-02  0.1184000E+00
        -11   -1    0    0    0    0  0.00000000000E+00  0.00000000000E+00  0.45593999997E+02  0.45594000000E+02  0.51100000000E-03 0. -1.
         11   -1    0    0    0    0 -0.00000000000E+00 -0.00000000000E+00 -0.45593999997E+02  0.45594000000E+02  0.51100000000E-03 0.  1.
         23    2    1    2    0    0  0.00000000000E+00  0.00000000000E+00  0.00000000000E+00  0.91188000000E+02  0.91188000000E+02 0.  0.
    9900012    2    3    3    0    0 -0.56833474646E+01 -0.36918732260E+02  0.22098192537E+02  0.47787270242E+02  0.19999996341E+02 0.  0.
        -12    1    3    3    0    0  0.56833474646E+01  0.36918732260E+02 -0.22098192537E+02  0.43400729758E+02  0.00000000000E+00 0.  1.
         11    1    4    4    0    0 -0.63439535547E+01 -0.26163738351E+02  0.21659583181E+02  0.34553212514E+02  0.51100000000E-03 0. -1.
        -11    1    4    4    0    0 -0.10242716385E+01 -0.11381773381E+02  0.44341174298E+00  0.11436367952E+02  0.51100000000E-03 0.  1.
         12    1    4    4    0    0  0.16848777286E+01  0.62677947228E+00 -0.48023864884E-02  0.17976897758E+01  0.00000000000E+00 0. -1.
</event>
<event>
 8    1  0.8600524E-011  0.9118800E+02  0.7816164E-02  0.1184000E+00
        -11   -1    0    0    0    0  0.00000000000E+00  0.00000000000E+00  0.45593999997E+02  0.45594000000E+02  0.51100000000E-03 0. -1.
         11   -1    0    0    0    0 -0.00000000000E+00 -0.00000000000E+00 -0.45593999997E+02  0.45594000000E+02  0.51100000000E-03 0.  1.
         23    2    1    2    0    0  0.35527136788E-14  0.88817841970E-15  0.00000000000E+00  0.91188000000E+02  0.91188000000E+02 0.  0.
    9900012    2    3    3    0    0  0.31798392248E+02 -0.45569581463E+01  0.29184225137E+02  0.47787278647E+02  0.20000034664E+02 0.  0.
        -12    1    3    3    0    0 -0.31798392248E+02  0.45569581463E+01 -0.29184225137E+02  0.43400721353E+02  0.00000000000E+00 0.  1.
         11    1    4    4    0    0  0.15310135868E+02  0.55273212032E+01  0.10430288132E+02  0.19332419682E+02  0.51100000000E-03 0. -1.
        -11    1    4    4    0    0  0.16896825062E+02 -0.11145047291E+02  0.18030499182E+02  0.27107446898E+02  0.51100000000E-03 0.  1.
        -12    1    4    4    0    0 -0.40856868255E+00  0.10607679419E+01  0.72343782315E+00  0.13474120672E+01  0.00000000000E+00 0.  1.
</event>
<event>
 8    1  0.8600524E-011  0.9118800E+02  0.7816164E-02  0.1184000E+00
        -11   -1    0    0    0    0  0.00000000000E+00  0.00000000000E+00  0.45593999997E+02  0.45594000000E+02  0.51100000000E-03 0. -1.
         11   -1    0    0    0    0 -0.00000000000E+00 -0.00000000000E+00 -0.45593999997E+02  0.45594000000E+02  0.51100000000E-03 0.  1.
         23    2    1    2    0    0  0.00000000000E+00  0.35527136788E-14 -0.35527136788E-14  0.91188000000E+02  0.91188000000E+02 0.  0.
    9900012    2    3    3    0    0 -0.15006868827E+02 -0.29999601234E+02  0.27539806670E+02  0.47787272614E+02  0.20000007159E+02 0.  0.
        -12    1    3    3    0    0  0.15006868827E+02  0.29999601234E+02 -0.27539806670E+02  0.43400727386E+02  0.00000000000E+00 0.  1.
         11    1    4    4    0    0 -0.53775072707E+01 -0.76082248332E+01  0.99158364717E+01  0.13606119313E+02  0.51100000000E-03 0. -1.
        -11    1    4    4    0    0 -0.10659378339E+02 -0.24438128438E+02  0.14632726236E+02  0.30413173881E+02  0.51100000000E-03 0.  1.
        -12    1    4    4    0    0  0.10300167831E+01  0.20467520374E+01  0.29912439623E+01  0.37679794211E+01  0.00000000000E+00 0.  1.
</event>
<event>
 8    1  0.8600524E-011  0.9118800E+02  0.7816164E-02  0.1184000E+00
        -11   -1    0    0    0    0  0.00000000000E+00  0.00000000000E+00  0.45593999997E+02  0.45594000000E+02  0.51100000000E-03 0. -1.
         11   -1    0    0    0    0 -0.00000000000E+00 -0.00000000000E+00 -0.45593999997E+02  0.45594000000E+02  0.51100000000E-03 0.  1.
         23    2    1    2    0    0  0.00000000000E+00  0.35527136788E-14 -0.71054273576E-14  0.91188000000E+02  0.91188000000E+02 0.  0.
    9900012    2    3    3    0    0  0.75569640216E+01 -0.22255940955E+02  0.36485444840E+02  0.47787282285E+02  0.20000051250E+02 0.  0.
        -12    1    3    3    0    0 -0.75569640216E+01  0.22255940955E+02 -0.36485444840E+02  0.43400717715E+02  0.00000000000E+00 0.  1.
         11    1    4    4    0    0  0.26906270781E+00 -0.93408626150E+01  0.16873416504E+02  0.19288242375E+02  0.51100000000E-03 0. -1.
        -11    1    4    4    0    0  0.64979256823E+01 -0.50981694168E+01  0.18880963340E+02  0.20608375639E+02  0.51100000000E-03 0.  1.
        -12    1    4    4    0    0  0.78997563146E+00 -0.78169089234E+01  0.73106499607E+00  0.78906642714E+01  0.00000000000E+00 0.  1.
</event>
<event>
 8    1  0.8600524E-011  0.9118800E+02  0.7816164E-02  0.1184000E+00
        -11   -1    0    0    0    0  0.00000000000E+00  0.00000000000E+00  0.45593999997E+02  0.45594000000E+02  0.51100000000E-03 0.  1.
         11   -1    0    0    0    0 -0.00000000000E+00 -0.00000000000E+00 -0.45593999997E+02  0.45594000000E+02  0.51100000000E-03 0. -1.
         23    2    1    2    0    0  0.00000000000E+00  0.00000000000E+00  0.00000000000E+00  0.91188000000E+02  0.91188000000E+02 0.  0.
    9900012    2    3    3    0    0  0.26982274181E+02 -0.14020219746E+02 -0.30967943546E+02  0.47787271790E+02  0.20000003399E+02 0.  0.
         12    1    3    3    0    0 -0.26982274181E+02  0.14020219746E+02  0.30967943546E+02  0.43400728210E+02  0.00000000000E+00 0. -1.
         11    1    4    4    0    0  0.12665989337E+02 -0.10292703256E+02 -0.78212181104E+01  0.18098024179E+02  0.51100000000E-03 0. -1.
        -11    1    4    4    0    0  0.12960248842E+02 -0.71197458654E+01 -0.19965019720E+02  0.24844734733E+02  0.51100000000E-03 0.  1.
        -12    1    4    4    0    0  0.13560360015E+01  0.33922293750E+01 -0.31817057148E+01  0.48445128780E+01  0.00000000000E+00 0.  1.
</event>
<event>
 8    1  0.8600524E-011  0.9118800E+02  0.7816164E-02  0.1184000E+00
        -11   -1    0    0    0    0  0.00000000000E+00  0.00000000000E+00  0.45593999997E+02  0.45594000000E+02  0.51100000000E-03 0. -1.
         11   -1    0    0    0    0 -0.00000000000E+00 -0.00000000000E+00 -0.45593999997E+02  0.45594000000E+02  0.51100000000E-03 0.  1.
         23    2    1    2    0    0 -0.17763568394E-14 -0.71054273576E-14  0.00000000000E+00  0.91188000000E+02  0.91188000000E+02 0.  0.
    9900012    2    3    3    0    0  0.10332490939E+02  0.33198785387E+02 -0.25975055371E+02  0.47787271645E+02  0.20000002739E+02 0.  0.
         12    1    3    3    0    0 -0.10332490939E+02 -0.33198785387E+02  0.25975055371E+02  0.43400728355E+02  0.00000000000E+00 0. -1.
         11    1    4    4    0    0  0.26989819239E+01  0.10187542613E+01  0.43102438955E+00  0.29168726328E+01  0.51100000000E-03 0. -1.
        -11    1    4    4    0    0 -0.19860883072E+01  0.96885882377E+01 -0.14785477876E+02  0.17788300792E+02  0.51100000000E-03 0.  1.
        -12    1    4    4    0    0  0.96195973225E+01  0.22491442888E+02 -0.11620601885E+02  0.27082098220E+02  0.00000000000E+00 0.  1.
</event>
<event>
 8    1  0.8600524E-011  0.9118800E+02  0.7816164E-02  0.1184000E+00
        -11   -1    0    0    0    0  0.00000000000E+00  0.00000000000E+00  0.45593999997E+02  0.45594000000E+02  0.51100000000E-03 0. -1.
         11   -1    0    0    0    0 -0.00000000000E+00 -0.00000000000E+00 -0.45593999997E+02  0.45594000000E+02  0.51100000000E-03 0.  1.
         23    2    1    2    0    0  0.44408920985E-15  0.00000000000E+00  0.00000000000E+00  0.91188000000E+02  0.91188000000E+02 0.  0.
    9900012    2    3    3    0    0 -0.28982045039E+01  0.18674983799E+02  0.39070047498E+02  0.47787271656E+02  0.20000002790E+02 0.  0.
        -12    1    3    3    0    0  0.28982045039E+01 -0.18674983799E+02 -0.39070047498E+02  0.43400728344E+02  0.00000000000E+00 0.  1.
         11    1    4    4    0    0  0.31502129194E+01  0.13997673809E+02  0.18489497673E+02  0.23403423638E+02  0.51100000000E-03 0.  1.
        -11    1    4    4    0    0 -0.39331998152E+01 -0.14270096154E+01  0.15806478885E+02  0.16350877415E+02  0.51100000000E-03 0. -1.
        -12    1    4    4    0    0 -0.21152176081E+01  0.61043196063E+01  0.47740709399E+01  0.80329706040E+01  0.00000000000E+00 0.  1.
</event>
<event>
 8    1  0.8600524E-011  0.9118800E+02  0.7816164E-02  0.1184000E+00
        -11   -1    0    0    0    0  0.00000000000E+00  0.00000000000E+00  0.45593999997E+02  0.45594000000E+02  0.51100000000E-03 0. -1.
         11   -1    0    0    0    0 -0.00000000000E+00 -0.00000000000E+00 -0.45593999997E+02  0.45594000000E+02  0.51100000000E-03 0.  1.
         23    2    1    2    0    0 -0.17763568394E-14  0.00000000000E+00  0.00000000000E+00  0.91188000000E+02  0.91188000000E+02 0.  0.
    9900012    2    3    3    0    0 -0.12659506065E+02  0.17050305255E+02 -0.37850376573E+02  0.47787228004E+02  0.19999803761E+02 0.  0.
         12    1    3    3    0    0  0.12659506065E+02 -0.17050305255E+02  0.37850376573E+02  0.43400771996E+02  0.00000000000E+00 0. -1.
         11    1    4    4    0    0 -0.32792898211E+01  0.97587283421E+01 -0.33335863006E+02  0.34889343405E+02  0.51100000000E-03 0. -1.
        -11    1    4    4    0    0 -0.81327115249E+01  0.69672955280E+01 -0.35297293437E+01  0.11275779052E+02  0.51100000000E-03 0.  1.
         12    1    4    4    0    0 -0.12475047195E+01  0.32428138488E+00 -0.98478422341E+00  0.16221055479E+01  0.00000000000E+00 0. -1.
</event>
<event>
 8    1  0.8600524E-011  0.9118800E+02  0.7816164E-02  0.1184000E+00
        -11   -1    0    0    0    0  0.00000000000E+00  0.00000000000E+00  0.45593999997E+02  0.45594000000E+02  0.51100000000E-03 0. -1.
         11   -1    0    0    0    0 -0.00000000000E+00 -0.00000000000E+00 -0.45593999997E+02  0.45594000000E+02  0.51100000000E-03 0.  1.
         23    2    1    2    0    0  0.00000000000E+00  0.35527136788E-14  0.00000000000E+00  0.91188000000E+02  0.91188000000E+02 0.  0.
    9900012    2    3    3    0    0 -0.40235448881E+01 -0.25620339258E+02 -0.34799893178E+02  0.47787271177E+02  0.20000000604E+02 0.  0.
         12    1    3    3    0    0  0.40235448881E+01  0.25620339258E+02  0.34799893178E+02  0.43400728823E+02  0.00000000000E+00 0. -1.
         11    1    4    4    0    0 -0.68523096177E+01 -0.10611181711E+02 -0.24448916124E+02  0.27519099264E+02  0.51100000000E-03 0. -1.
        -11    1    4    4    0    0  0.92767446491E+00 -0.15324856746E+02 -0.82959756683E+01  0.17450931974E+02  0.51100000000E-03 0.  1.
        -12    1    4    4    0    0  0.19010902646E+01  0.31569919905E+00 -0.20550013861E+01  0.28172399393E+01  0.00000000000E+00 0.  1.
</event>
<event>
 8    1  0.8600524E-011  0.9118800E+02  0.7816164E-02  0.1184000E+00
        -11   -1    0    0    0    0  0.00000000000E+00  0.00000000000E+00  0.45593999997E+02  0.45594000000E+02  0.51100000000E-03 0. -1.
         11   -1    0    0    0    0 -0.00000000000E+00 -0.00000000000E+00 -0.45593999997E+02  0.45594000000E+02  0.51100000000E-03 0.  1.
         23    2    1    2    0    0  0.00000000000E+00  0.00000000000E+00  0.00000000000E+00  0.91188000000E+02  0.91188000000E+02 0.  0.
    9900012    2    3    3    0    0 -0.16680154667E+02  0.14790783131E+02 -0.37237458643E+02  0.47787272454E+02  0.20000006428E+02 0.  0.
         12    1    3    3    0    0  0.16680154667E+02 -0.14790783131E+02  0.37237458643E+02  0.43400727546E+02  0.00000000000E+00 0. -1.
         11    1    4    4    0    0 -0.37434868450E+01  0.15776278395E+02 -0.16534592010E+02  0.23158095495E+02  0.51100000000E-03 0. -1.
        -11    1    4    4    0    0 -0.79142831177E+01 -0.21081772804E+01 -0.13027607930E+02  0.15388270122E+02  0.51100000000E-03 0.  1.
         12    1    4    4    0    0 -0.50223847039E+01  0.11226820164E+01 -0.76752587025E+01  0.92409068372E+01  0.00000000000E+00 0. -1.
</event>
<event>
 8    1  0.8600524E-011  0.9118800E+02  0.7816164E-02  0.1184000E+00
        -11   -1    0    0    0    0  0.00000000000E+00  0.00000000000E+00  0.45593999997E+02  0.45594000000E+02  0.51100000000E-03 0. -1.
         11   -1    0    0    0    0 -0.00000000000E+00 -0.00000000000E+00 -0.45593999997E+02  0.45594000000E+02  0.51100000000E-03 0.  1.
         23    2    1    2    0    0  0.00000000000E+00  0.00000000000E+00  0.00000000000E+00  0.91188000000E+02  0.91188000000E+02 0.  0.
    9900012    2    3    3    0    0  0.57466930258E+01  0.38825444373E+02  0.18525225381E+02  0.47787267438E+02  0.19999983555E+02 0.  0.
        -12    1    3    3    0    0 -0.57466930258E+01 -0.38825444373E+02 -0.18525225381E+02  0.43400732562E+02  0.00000000000E+00 0.  1.
         11    1    4    4    0    0  0.16985273913E+01  0.25816741157E+02  0.20118442614E+01  0.25950657734E+02  0.51100000000E-03 0.  1.
        -11    1    4    4    0    0  0.24971468023E+01  0.12354739763E+02  0.14598271800E+02  0.19286909462E+02  0.51100000000E-03 0. -1.
        -12    1    4    4    0    0  0.15510188322E+01  0.65396345357E+00  0.19151093196E+01  0.25497002417E+01  0.00000000000E+00 0.  1.
</event>
<event>
 8    1  0.8841928E-011  0.9118800E+02  0.7816164E-02  0.1184000E+00
        -11   -1    0    0    0    0  0.00000000000E+00  0.00000000000E+00  0.45593999997E+02  0.45594000000E+02  0.51100000000E-03 0. -1.
         11   -1    0    0    0    0 -0.00000000000E+00 -0.00000000000E+00 -0.45593999997E+02  0.45594000000E+02  0.51100000000E-03 0.  1.
         23    2    1    2    0    0 -0.17763568394E-14  0.00000000000E+00  0.71054273576E-14  0.91188000000E+02  0.91188000000E+02 0.  0.
    9900012    2    3    3    0    0 -0.55366318474E+01  0.18805706555E+02  0.38720981043E+02  0.47787271156E+02  0.20000000510E+02 0.  0.
        -12    1    3    3    0    0  0.55366318474E+01 -0.18805706555E+02 -0.38720981043E+02  0.43400728844E+02  0.00000000000E+00 0.  1.
         11    1    4    4    0    0 -0.60131352807E+01  0.13094410117E+02  0.28236594063E+02  0.31700577546E+02  0.51100000000E-03 0. -1.
        -11    1    4    4    0    0  0.51877121767E+01  0.56773089892E+00  0.42178816965E+01  0.67100821358E+01  0.51100000000E-03 0.  1.
        -12    1    4    4    0    0 -0.47112087433E+01  0.51435655394E+01  0.62665052830E+01  0.93766114745E+01  0.00000000000E+00 0.  1.
</event>
<event>
 8    1  0.8600524E-011  0.9118800E+02  0.7816164E-02  0.1184000E+00
        -11   -1    0    0    0    0  0.00000000000E+00  0.00000000000E+00  0.45593999997E+02  0.45594000000E+02  0.51100000000E-03 0. -1.
         11   -1    0    0    0    0 -0.00000000000E+00 -0.00000000000E+00 -0.45593999997E+02  0.45594000000E+02  0.51100000000E-03 0.  1.
         23    2    1    2    0    0 -0.35527136788E-14  0.00000000000E+00  0.17763568394E-14  0.91188000000E+02  0.91188000000E+02 0.  0.
    9900012    2    3    3    0    0  0.16152572091E+02 -0.38626938257E+02 -0.11431418449E+02  0.47787271066E+02  0.20000000098E+02 0.  0.
         12    1    3    3    0    0 -0.16152572091E+02  0.38626938257E+02  0.11431418449E+02  0.43400728934E+02  0.00000000000E+00 0. -1.
         11    1    4    4    0    0 -0.67132332447E+00 -0.85366609662E+01  0.32042574048E+01  0.91428945764E+01  0.51100000000E-03 0. -1.
        -11    1    4    4    0    0  0.13589205822E+02 -0.14980378172E+02 -0.69515075265E+01  0.21386951681E+02  0.51100000000E-03 0.  1.
         12    1    4    4    0    0  0.32346895934E+01 -0.15109899119E+02 -0.76841683272E+01  0.17257424809E+02  0.00000000000E+00 0. -1.
</event>
<event>
 8    1  0.8600524E-011  0.9118800E+02  0.7816164E-02  0.1184000E+00
        -11   -1    0    0    0    0  0.00000000000E+00  0.00000000000E+00  0.45593999997E+02  0.45594000000E+02  0.51100000000E-03 0.  1.
         11   -1    0    0    0    0 -0.00000000000E+00 -0.00000000000E+00 -0.45593999997E+02  0.45594000000E+02  0.51100000000E-03 0. -1.
         23    2    1    2    0    0 -0.14210854715E-13  0.00000000000E+00  0.15543122345E-14  0.91188000000E+02  0.91188000000E+02 0.  0.
    9900012    2    3    3    0    0 -0.42888751638E+02 -0.64243565982E+01  0.17047844634E+01  0.47787266540E+02  0.19999979464E+02 0.  0.
        -12    1    3    3    0    0  0.42888751638E+02  0.64243565982E+01 -0.17047844634E+01  0.43400733460E+02  0.00000000000E+00 0.  1.
         11    1    4    4    0    0 -0.13641439139E+02  0.12532317522E+00  0.82263494541E+01  0.15930392126E+02  0.51100000000E-03 0. -1.
        -11    1    4    4    0    0 -0.65177506176E+01 -0.34252108305E+01  0.15700744196E+01  0.75284976118E+01  0.51100000000E-03 0.  1.
         12    1    4    4    0    0 -0.22729561881E+02 -0.31244689430E+01 -0.80916394104E+01  0.24328376803E+02  0.00000000000E+00 0. -1.
</event>
<event>
 8    1  0.8600524E-011  0.9118800E+02  0.7816164E-02  0.1184000E+00
        -11   -1    0    0    0    0  0.00000000000E+00  0.00000000000E+00  0.45593999997E+02  0.45594000000E+02  0.51100000000E-03 0. -1.
         11   -1    0    0    0    0 -0.00000000000E+00 -0.00000000000E+00 -0.45593999997E+02  0.45594000000E+02  0.51100000000E-03 0.  1.
         23    2    1    2    0    0 -0.71054273576E-14  0.88817841970E-15  0.00000000000E+00  0.91188000000E+02  0.91188000000E+02 0.  0.
    9900012    2    3    3    0    0  0.40232596180E+02  0.72169271882E+01  0.14590316330E+02  0.47787272310E+02  0.20000005771E+02 0.  0.
        -12    1    3    3    0    0 -0.40232596180E+02 -0.72169271882E+01 -0.14590316330E+02  0.43400727690E+02  0.00000000000E+00 0.  1.
         11    1    4    4    0    0  0.17500554358E+02  0.22907362184E+01  0.16322468947E+02  0.24040379948E+02  0.51100000000E-03 0. -1.
        -11    1    4    4    0    0  0.18767833735E+02  0.25974683958E+01 -0.36466302725E+00  0.18950234947E+02  0.51100000000E-03 0.  1.
         12    1    4    4    0    0  0.39642080873E+01  0.23287225741E+01 -0.13674895893E+01  0.47966574157E+01  0.00000000000E+00 0. -1.
</event>
<event>
 8    1  0.8600524E-011  0.9118800E+02  0.7816164E-02  0.1184000E+00
        -11   -1    0    0    0    0  0.00000000000E+00  0.00000000000E+00  0.45593999997E+02  0.45594000000E+02  0.51100000000E-03 0. -1.
         11   -1    0    0    0    0 -0.00000000000E+00 -0.00000000000E+00 -0.45593999997E+02  0.45594000000E+02  0.51100000000E-03 0.  1.
         23    2    1    2    0    0  0.00000000000E+00  0.00000000000E+00  0.00000000000E+00  0.91188000000E+02  0.91188000000E+02 0.  0.
    9900012    2    3    3    0    0  0.33620796791E+02 -0.27018637655E+02  0.48227352580E+01  0.47787268060E+02  0.19999986392E+02 0.  0.
         12    1    3    3    0    0 -0.33620796791E+02  0.27018637655E+02 -0.48227352580E+01  0.43400731940E+02  0.00000000000E+00 0. -1.
         11    1    4    4    0    0  0.20527685904E+02 -0.24250338523E+02  0.44750607155E+01  0.32085681786E+02  0.51100000000E-03 0. -1.
        -11    1    4    4    0    0  0.12620385595E+02 -0.16981139008E+01 -0.21771327579E+01  0.12918886589E+02  0.51100000000E-03 0.  1.
         12    1    4    4    0    0  0.47272529213E+00 -0.10701852310E+01  0.25248073004E+01  0.27826996846E+01  0.00000000000E+00 0. -1.
</event>
<event>
 8    1  0.8600524E-011  0.9118800E+02  0.7816164E-02  0.1184000E+00
        -11   -1    0    0    0    0  0.00000000000E+00  0.00000000000E+00  0.45593999997E+02  0.45594000000E+02  0.51100000000E-03 0. -1.
         11   -1    0    0    0    0 -0.00000000000E+00 -0.00000000000E+00 -0.45593999997E+02  0.45594000000E+02  0.51100000000E-03 0.  1.
         23    2    1    2    0    0  0.17763568394E-14  0.00000000000E+00  0.00000000000E+00  0.91188000000E+02  0.91188000000E+02 0.  0.
    9900012    2    3    3    0    0  0.11759905587E+01 -0.26988842995E+02  0.33968263769E+02  0.47787267939E+02  0.19999985839E+02 0.  0.
        -12    1    3    3    0    0 -0.11759905587E+01  0.26988842995E+02 -0.33968263769E+02  0.43400732061E+02  0.00000000000E+00 0.  1.
         11    1    4    4    0    0 -0.75341124193E+01 -0.49952718957E+01  0.54630422102E+01  0.10562216704E+02  0.51100000000E-03 0. -1.
        -11    1    4    4    0    0  0.79864775199E+01 -0.15919936232E+02  0.21750028553E+02  0.28112131458E+02  0.51100000000E-03 0.  1.
         12    1    4    4    0    0  0.72362545806E+00 -0.60736348667E+01  0.67551930060E+01  0.91129197761E+01  0.00000000000E+00 0. -1.
</event>
<event>
 8    1  0.8600524E-011  0.9118800E+02  0.7816164E-02  0.1184000E+00
        -11   -1    0    0    0    0  0.00000000000E+00  0.00000000000E+00  0.45593999997E+02  0.45594000000E+02  0.51100000000E-03 0. -1.
         11   -1    0    0    0    0 -0.00000000000E+00 -0.00000000000E+00 -0.45593999997E+02  0.45594000000E+02  0.51100000000E-03 0.  1.
         23    2    1    2    0    0  0.00000000000E+00  0.00000000000E+00  0.00000000000E+00  0.91188000000E+02  0.91188000000E+02 0.  0.
    9900012    2    3    3    0    0  0.12234803564E+02 -0.25642754584E+02  0.32808270019E+02  0.47787264263E+02  0.19999969079E+02 0.  0.
        -12    1    3    3    0    0 -0.12234803564E+02  0.25642754584E+02 -0.32808270019E+02  0.43400735737E+02  0.00000000000E+00 0.  1.
         11    1    4    4    0    0  0.73567507600E+01 -0.21718857553E+02  0.17273435425E+02  0.28708920683E+02  0.51100000000E-03 0. -1.
        -11    1    4    4    0    0 -0.18306027781E+01  0.66338249931E+00  0.53652170240E+00  0.20196630090E+01  0.51100000000E-03 0.  1.
         12    1    4    4    0    0  0.67086555822E+01 -0.45872795301E+01  0.14998312891E+02  0.17058680570E+02  0.00000000000E+00 0. -1.
</event>
<event>
 8    1  0.8600524E-011  0.9118800E+02  0.7816164E-02  0.1184000E+00
        -11   -1    0    0    0    0  0.00000000000E+00  0.00000000000E+00  0.45593999997E+02  0.45594000000E+02  0.51100000000E-03 0. -1.
         11   -1    0    0    0    0 -0.00000000000E+00 -0.00000000000E+00 -0.45593999997E+02  0.45594000000E+02  0.51100000000E-03 0.  1.
         23    2    1    2    0    0  0.00000000000E+00  0.88817841970E-15 -0.35527136788E-14  0.91188000000E+02  0.91188000000E+02 0.  0.
    9900012    2    3    3    0    0 -0.37997135366E+02 -0.58006012998E+01  0.20154258088E+02  0.47787269700E+02  0.19999993871E+02 0.  0.
        -12    1    3    3    0    0  0.37997135366E+02  0.58006012998E+01 -0.20154258088E+02  0.43400730300E+02  0.00000000000E+00 0.  1.
         11    1    4    4    0    0 -0.24778282939E+02 -0.32845318482E+00  0.15708662199E+02  0.29339960041E+02  0.51100000000E-03 0. -1.
        -11    1    4    4    0    0 -0.33516239363E+01 -0.33755832888E+01 -0.32486383558E+01  0.57603469495E+01  0.51100000000E-03 0.  1.
        -12    1    4    4    0    0 -0.98672284911E+01 -0.20965648261E+01  0.76942342451E+01  0.12686962709E+02  0.00000000000E+00 0.  1.
</event>
<event>
 8    1  0.8600524E-011  0.9118800E+02  0.7816164E-02  0.1184000E+00
        -11   -1    0    0    0    0  0.00000000000E+00  0.00000000000E+00  0.45593999997E+02  0.45594000000E+02  0.51100000000E-03 0.  1.
         11   -1    0    0    0    0 -0.00000000000E+00 -0.00000000000E+00 -0.45593999997E+02  0.45594000000E+02  0.51100000000E-03 0. -1.
         23    2    1    2    0    0  0.00000000000E+00  0.00000000000E+00  0.00000000000E+00  0.91188000000E+02  0.91188000000E+02 0.  0.
    9900012    2    3    3    0    0 -0.13598627365E+02 -0.36648463067E+02 -0.18857108905E+02  0.47787273420E+02  0.20000010832E+02 0.  0.
         12    1    3    3    0    0  0.13598627365E+02  0.36648463067E+02  0.18857108905E+02  0.43400726580E+02  0.00000000000E+00 0. -1.
         11    1    4    4    0    0 -0.85177573493E+01 -0.12535976242E+02  0.12698076450E+01  0.15209053301E+02  0.51100000000E-03 0. -1.
        -11    1    4    4    0    0 -0.64087427959E-01 -0.13058178204E+02 -0.13352649485E+02  0.18676546087E+02  0.51100000000E-03 0.  1.
        -12    1    4    4    0    0 -0.50167825873E+01 -0.11054308621E+02 -0.67742670654E+01  0.13901674032E+02  0.00000000000E+00 0.  1.
</event>
<event>
 8    1  0.8600524E-011  0.9118800E+02  0.7816164E-02  0.1184000E+00
        -11   -1    0    0    0    0  0.00000000000E+00  0.00000000000E+00  0.45593999997E+02  0.45594000000E+02  0.51100000000E-03 0. -1.
         11   -1    0    0    0    0 -0.00000000000E+00 -0.00000000000E+00 -0.45593999997E+02  0.45594000000E+02  0.51100000000E-03 0.  1.
         23    2    1    2    0    0  0.00000000000E+00  0.35527136788E-14  0.35527136788E-14  0.91188000000E+02  0.91188000000E+02 0.  0.
    9900012    2    3    3    0    0  0.16055427354E+02  0.25498543925E+02  0.31235728570E+02  0.47787271560E+02  0.20000002350E+02 0.  0.
        -12    1    3    3    0    0 -0.16055427354E+02 -0.25498543925E+02 -0.31235728570E+02  0.43400728440E+02  0.00000000000E+00 0.  1.
         11    1    4    4    0    0  0.38420852500E+01  0.13083034249E+01  0.20622892188E+01  0.45526161713E+01  0.51100000000E-03 0. -1.
        -11    1    4    4    0    0  0.97313162205E+01  0.65461080360E+01  0.39960456805E+01  0.12390255330E+02  0.51100000000E-03 0.  1.
        -12    1    4    4    0    0  0.24820258835E+01  0.17644132464E+02  0.25177393671E+02  0.30844400058E+02  0.00000000000E+00 0.  1.
</event>
<event>
 8    1  0.8600524E-011  0.9118800E+02  0.7816164E-02  0.1184000E+00
        -11   -1    0    0    0    0  0.00000000000E+00  0.00000000000E+00  0.45593999997E+02  0.45594000000E+02  0.51100000000E-03 0. -1.
         11   -1    0    0    0    0 -0.00000000000E+00 -0.00000000000E+00 -0.45593999997E+02  0.45594000000E+02  0.51100000000E-03 0.  1.
         23    2    1    2    0    0  0.00000000000E+00 -0.35527136788E-14  0.71054273576E-14  0.91188000000E+02  0.91188000000E+02 0.  0.
    9900012    2    3    3    0    0 -0.10230732797E+02  0.11356830276E+02 -0.40619927011E+02  0.47787263165E+02  0.19999964074E+02 0.  0.
         12    1    3    3    0    0  0.10230732797E+02 -0.11356830276E+02  0.40619927011E+02  0.43400736835E+02  0.00000000000E+00 0. -1.
         11    1    4    4    0    0 -0.66912804461E+01  0.46906927975E+01 -0.35123599714E+01  0.88945211091E+01  0.51100000000E-03 0. -1.
        -11    1    4    4    0    0 -0.43081292580E+01  0.34190981382E+01 -0.87193094203E+01  0.10309052663E+02  0.51100000000E-03 0.  1.
         12    1    4    4    0    0  0.76867690701E+00  0.32470393404E+01 -0.28388257619E+02  0.28583689393E+02  0.00000000000E+00 0. -1.
</event>
<event>
 8    1  0.8600524E-011  0.9118800E+02  0.7816164E-02  0.1184000E+00
        -11   -1    0    0    0    0  0.00000000000E+00  0.00000000000E+00  0.45593999997E+02  0.45594000000E+02  0.51100000000E-03 0. -1.
         11   -1    0    0    0    0 -0.00000000000E+00 -0.00000000000E+00 -0.45593999997E+02  0.45594000000E+02  0.51100000000E-03 0.  1.
         23    2    1    2    0    0  0.00000000000E+00  0.00000000000E+00  0.00000000000E+00  0.91188000000E+02  0.91188000000E+02 0.  0.
    9900012    2    3    3    0    0 -0.36876284238E+02 -0.14647089926E+02  0.17584811539E+02  0.47787272133E+02  0.20000004964E+02 0.  0.
        -12    1    3    3    0    0  0.36876284238E+02  0.14647089926E+02 -0.17584811539E+02  0.43400727867E+02  0.00000000000E+00 0.  1.
         11    1    4    4    0    0 -0.26521653596E+02 -0.98000420398E+01  0.15847455267E+02  0.32412663762E+02  0.51100000000E-03 0. -1.
        -11    1    4    4    0    0 -0.33972519212E+01 -0.70269772631E+01 -0.27877504639E+00  0.78100861621E+01  0.51100000000E-03 0.  1.
         12    1    4    4    0    0 -0.69573787215E+01  0.21799293773E+01  0.20161313177E+01  0.75645222093E+01  0.00000000000E+00 0. -1.
</event>
<event>
 8    1  0.8600524E-011  0.9118800E+02  0.7816164E-02  0.1184000E+00
        -11   -1    0    0    0    0  0.00000000000E+00  0.00000000000E+00  0.45593999997E+02  0.45594000000E+02  0.51100000000E-03 0. -1.
         11   -1    0    0    0    0 -0.00000000000E+00 -0.00000000000E+00 -0.45593999997E+02  0.45594000000E+02  0.51100000000E-03 0.  1.
         23    2    1    2    0    0  0.22204460493E-15  0.00000000000E+00  0.35527136788E-14  0.91188000000E+02  0.91188000000E+02 0.  0.
    9900012    2    3    3    0    0 -0.11297908820E+01 -0.32444028832E+02 -0.28805078960E+02  0.47787262585E+02  0.19999961431E+02 0.  0.
         12    1    3    3    0    0  0.11297908820E+01  0.32444028832E+02  0.28805078960E+02  0.43400737415E+02  0.00000000000E+00 0. -1.
         11    1    4    4    0    0 -0.53102780530E+01 -0.32836795744E+01 -0.79872369333E+01  0.10137926743E+02  0.51100000000E-03 0. -1.
        -11    1    4    4    0    0  0.62484200486E+01 -0.93248341709E+01 -0.54838128090E+01  0.12492697411E+02  0.51100000000E-03 0.  1.
        -12    1    4    4    0    0 -0.20679328776E+01 -0.19835515086E+02 -0.15334029217E+02  0.25156638432E+02  0.00000000000E+00 0.  1.
</event>
<event>
 8    1  0.8600524E-011  0.9118800E+02  0.7816164E-02  0.1184000E+00
        -11   -1    0    0    0    0  0.00000000000E+00  0.00000000000E+00  0.45593999997E+02  0.45594000000E+02  0.51100000000E-03 0. -1.
         11   -1    0    0    0    0 -0.00000000000E+00 -0.00000000000E+00 -0.45593999997E+02  0.45594000000E+02  0.51100000000E-03 0.  1.
         23    2    1    2    0    0  0.35527136788E-14  0.71054273576E-14 -0.88817841970E-15  0.91188000000E+02  0.91188000000E+02 0.  0.
    9900012    2    3    3    0    0 -0.28147913262E+02  0.32733913990E+02  0.44508701094E+01  0.47787258177E+02  0.19999941331E+02 0.  0.
        -12    1    3    3    0    0  0.28147913262E+02 -0.32733913990E+02 -0.44508701094E+01  0.43400741823E+02  0.00000000000E+00 0.  1.
         11    1    4    4    0    0 -0.13030829046E+02  0.10434284995E+02  0.76144417430E+01  0.18348202427E+02  0.51100000000E-03 0. -1.
        -11    1    4    4    0    0 -0.24388727800E+00  0.16777027744E+01 -0.36327155438E+01  0.40088389949E+01  0.51100000000E-03 0.  1.
        -12    1    4    4    0    0 -0.14873196938E+02  0.20621926221E+02  0.46914391018E+00  0.25430216755E+02  0.00000000000E+00 0.  1.
</event>
<event>
 8    1  0.8756340E-011  0.9118800E+02  0.7816164E-02  0.1184000E+00
        -11   -1    0    0    0    0  0.00000000000E+00  0.00000000000E+00  0.45593999997E+02  0.45594000000E+02  0.51100000000E-03 0. -1.
         11   -1    0    0    0    0 -0.00000000000E+00 -0.00000000000E+00 -0.45593999997E+02  0.45594000000E+02  0.51100000000E-03 0.  1.
         23    2    1    2    0    0  0.44408920985E-15  0.00000000000E+00  0.00000000000E+00  0.91188000000E+02  0.91188000000E+02 0.  0.
    9900012    2    3    3    0    0 -0.38290128367E+01  0.10780342005E+02  0.41865821986E+02  0.47787260794E+02  0.19999953265E+02 0.  0.
        -12    1    3    3    0    0  0.38290128367E+01 -0.10780342005E+02 -0.41865821986E+02  0.43400739206E+02  0.00000000000E+00 0.  1.
         11    1    4    4    0    0 -0.88800895164E+01  0.94284251549E+01  0.18263269083E+02  0.22389689336E+02  0.51100000000E-03 0. -1.
        -11    1    4    4    0    0  0.49704654781E+01  0.40783788102E+01  0.13829723833E+02  0.15251228224E+02  0.51100000000E-03 0.  1.
        -12    1    4    4    0    0  0.80611201531E-01 -0.27264619597E+01  0.97728290701E+01  0.10146343234E+02  0.00000000000E+00 0.  1.
</event>
<event>
 8    1  0.8600524E-011  0.9118800E+02  0.7816164E-02  0.1184000E+00
        -11   -1    0    0    0    0  0.00000000000E+00  0.00000000000E+00  0.45593999997E+02  0.45594000000E+02  0.51100000000E-03 0. -1.
         11   -1    0    0    0    0 -0.00000000000E+00 -0.00000000000E+00 -0.45593999997E+02  0.45594000000E+02  0.51100000000E-03 0.  1.
         23    2    1    2    0    0  0.00000000000E+00  0.35527136788E-14  0.35527136788E-14  0.91188000000E+02  0.91188000000E+02 0.  0.
    9900012    2    3    3    0    0 -0.20305494313E+02 -0.26681861198E+02 -0.27556999801E+02  0.47787273574E+02  0.20000011533E+02 0.  0.
         12    1    3    3    0    0  0.20305494313E+02  0.26681861198E+02  0.27556999801E+02  0.43400726426E+02  0.00000000000E+00 0. -1.
         11    1    4    4    0    0 -0.97418286347E+01 -0.17547285373E+02 -0.67002456462E+01  0.21159010872E+02  0.51100000000E-03 0. -1.
        -11    1    4    4    0    0  0.25010740374E+00 -0.29828669548E+01 -0.88332527365E+01  0.93266501570E+01  0.51100000000E-03 0.  1.
        -12    1    4    4    0    0 -0.10813773082E+02 -0.61517088701E+01 -0.12023501418E+02  0.17301612545E+02  0.00000000000E+00 0.  1.
</event>
<event>
 8    1  0.8600524E-011  0.9118800E+02  0.7816164E-02  0.1184000E+00
        -11   -1    0    0    0    0  0.00000000000E+00  0.00000000000E+00  0.45593999997E+02  0.45594000000E+02  0.51100000000E-03 0. -1.
         11   -1    0    0    0    0 -0.00000000000E+00 -0.00000000000E+00 -0.45593999997E+02  0.45594000000E+02  0.51100000000E-03 0.  1.
         23    2    1    2    0    0 -0.17763568394E-14 -0.44408920985E-15 -0.71054273576E-14  0.91188000000E+02  0.91188000000E+02 0.  0.
    9900012    2    3    3    0    0  0.11411296253E+02  0.13058798729E+01  0.41853320828E+02  0.47787268799E+02  0.19999989764E+02 0.  0.
        -12    1    3    3    0    0 -0.11411296253E+02 -0.13058798729E+01 -0.41853320828E+02  0.43400731201E+02  0.00000000000E+00 0.  1.
         11    1    4    4    0    0 -0.41742525400E+01 -0.83234923924E+00  0.10653644768E+02  0.11472459920E+02  0.51100000000E-03 0. -1.
        -11    1    4    4    0    0  0.39851784326E+01 -0.38242532160E+01  0.10007576953E+02  0.11430579886E+02  0.51100000000E-03 0.  1.
         12    1    4    4    0    0  0.11600370360E+02  0.59624823282E+01  0.21192099107E+02  0.24884228993E+02  0.00000000000E+00 0. -1.
</event>
<event>
 8    1  0.8600524E-011  0.9118800E+02  0.7816164E-02  0.1184000E+00
        -11   -1    0    0    0    0  0.00000000000E+00  0.00000000000E+00  0.45593999997E+02  0.45594000000E+02  0.51100000000E-03 0.  1.
         11   -1    0    0    0    0 -0.00000000000E+00 -0.00000000000E+00 -0.45593999997E+02  0.45594000000E+02  0.51100000000E-03 0. -1.
         23    2    1    2    0    0  0.00000000000E+00  0.00000000000E+00  0.00000000000E+00  0.91188000000E+02  0.91188000000E+02 0.  0.
    9900012    2    3    3    0    0 -0.38388865526E+02 -0.10736168396E+02 -0.17165444326E+02  0.47787276652E+02  0.20000025568E+02 0.  0.
         12    1    3    3    0    0  0.38388865526E+02  0.10736168396E+02  0.17165444326E+02  0.43400723348E+02  0.00000000000E+00 0. -1.
         11    1    4    4    0    0 -0.10219850267E+02 -0.96412259083E+01 -0.86538674664E+01  0.16501151441E+02  0.51100000000E-03 0.  1.
        -11    1    4    4    0    0 -0.28939003115E+02 -0.49877573680E+00 -0.75372934570E+01  0.29908618682E+02  0.51100000000E-03 0. -1.
        -12    1    4    4    0    0  0.76998785516E+00 -0.59616675070E+00 -0.97428340209E+00  0.13775065297E+01  0.00000000000E+00 0.  1.
</event>
<event>
 8    1  0.8600524E-011  0.9118800E+02  0.7816164E-02  0.1184000E+00
        -11   -1    0    0    0    0  0.00000000000E+00  0.00000000000E+00  0.45593999997E+02  0.45594000000E+02  0.51100000000E-03 0. -1.
         11   -1    0    0    0    0 -0.00000000000E+00 -0.00000000000E+00 -0.45593999997E+02  0.45594000000E+02  0.51100000000E-03 0.  1.
         23    2    1    2    0    0  0.00000000000E+00 -0.17763568394E-14  0.00000000000E+00  0.91188000000E+02  0.91188000000E+02 0.  0.
    9900012    2    3    3    0    0 -0.36156271990E+02 -0.14057700618E+02 -0.19460950692E+02  0.47787267832E+02  0.19999985354E+02 0.  0.
         12    1    3    3    0    0  0.36156271990E+02  0.14057700618E+02  0.19460950692E+02  0.43400732168E+02  0.00000000000E+00 0. -1.
         11    1    4    4    0    0 -0.27046484411E+02 -0.78583549230E+01 -0.18438455448E+02  0.33663670339E+02  0.51100000000E-03 0. -1.
        -11    1    4    4    0    0 -0.48974628891E+01  0.11552783825E+01 -0.23346759717E+01  0.55471184452E+01  0.51100000000E-03 0.  1.
         12    1    4    4    0    0 -0.42123246892E+01 -0.73546240771E+01  0.13121807272E+01  0.85764790481E+01  0.00000000000E+00 0. -1.
</event>
<event>
 8    1  0.8600524E-011  0.9118800E+02  0.7816164E-02  0.1184000E+00
        -11   -1    0    0    0    0  0.00000000000E+00  0.00000000000E+00  0.45593999997E+02  0.45594000000E+02  0.51100000000E-03 0. -1.
         11   -1    0    0    0    0 -0.00000000000E+00 -0.00000000000E+00 -0.45593999997E+02  0.45594000000E+02  0.51100000000E-03 0.  1.
         23    2    1    2    0    0  0.00000000000E+00  0.00000000000E+00  0.00000000000E+00  0.91188000000E+02  0.91188000000E+02 0.  0.
    9900012    2    3    3    0    0 -0.11210154247E+02 -0.25689608174E+02  0.33136090376E+02  0.47787262543E+02  0.19999961240E+02 0.  0.
        -12    1    3    3    0    0  0.11210154247E+02  0.25689608174E+02 -0.33136090376E+02  0.43400737457E+02  0.00000000000E+00 0.  1.
         11    1    4    4    0    0 -0.64564588821E+01 -0.20532962068E+02  0.11706461451E+02  0.24501625100E+02  0.51100000000E-03 0. -1.
        -11    1    4    4    0    0 -0.46351648142E+01 -0.74290913422E+00  0.11143302049E+02  0.12091726413E+02  0.51100000000E-03 0.  1.
         12    1    4    4    0    0 -0.11853055042E+00 -0.44137369716E+01  0.10286326876E+02  0.11193911030E+02  0.00000000000E+00 0. -1.
</event>
<event>
 8    1  0.8600524E-011  0.9118800E+02  0.7816164E-02  0.1184000E+00
        -11   -1    0    0    0    0  0.00000000000E+00  0.00000000000E+00  0.45593999997E+02  0.45594000000E+02  0.51100000000E-03 0. -1.
         11   -1    0    0    0    0 -0.00000000000E+00 -0.00000000000E+00 -0.45593999997E+02  0.45594000000E+02  0.51100000000E-03 0.  1.
         23    2    1    2    0    0  0.00000000000E+00  0.17763568394E-14  0.00000000000E+00  0.91188000000E+02  0.91188000000E+02 0.  0.
    9900012    2    3    3    0    0 -0.12114050918E+02 -0.11961497165E+02 -0.39922371161E+02  0.47787270016E+02  0.19999995309E+02 0.  0.
         12    1    3    3    0    0  0.12114050918E+02  0.11961497165E+02  0.39922371161E+02  0.43400729984E+02  0.00000000000E+00 0. -1.
         11    1    4    4    0    0 -0.62850723729E+01 -0.38925936677E+01 -0.27494697497E+02  0.28471262896E+02  0.51100000000E-03 0. -1.
        -11    1    4    4    0    0  0.20117583262E+01  0.19126970124E+00 -0.57932605830E+01  0.61356029945E+01  0.51100000000E-03 0.  1.
         12    1    4    4    0    0 -0.78407368718E+01 -0.82601731989E+01 -0.66344130807E+01  0.13180404125E+02  0.00000000000E+00 0. -1.
</event>
<event>
 8    1  0.8600524E-011  0.9118800E+02  0.7816164E-02  0.1184000E+00
        -11   -1    0    0    0    0  0.00000000000E+00  0.00000000000E+00  0.45593999997E+02  0.45594000000E+02  0.51100000000E-03 0. -1.
         11   -1    0    0    0    0 -0.00000000000E+00 -0.00000000000E+00 -0.45593999997E+02  0.45594000000E+02  0.51100000000E-03 0.  1.
         23    2    1    2    0    0  0.17763568394E-14  0.17763568394E-14 -0.71054273576E-14  0.91188000000E+02  0.91188000000E+02 0.  0.
    9900012    2    3    3    0    0 -0.86911270525E+01 -0.99503054820E+01  0.41341010179E+02  0.47787269692E+02  0.19999993833E+02 0.  0.
        -12    1    3    3    0    0  0.86911270525E+01  0.99503054820E+01 -0.41341010179E+02  0.43400730308E+02  0.00000000000E+00 0.  1.
         11    1    4    4    0    0 -0.59699164637E-01  0.10559643693E+01  0.28091025541E+02  0.28110929208E+02  0.51100000000E-03 0. -1.
        -11    1    4    4    0    0 -0.60146237666E+01 -0.58544543723E+01  0.99674496020E+01  0.13030747748E+02  0.51100000000E-03 0.  1.
         12    1    4    4    0    0 -0.26168041212E+01 -0.51518154790E+01  0.32825350364E+01  0.66455927353E+01  0.00000000000E+00 0. -1.
</event>
<event>
 8    1  0.8600524E-011  0.9118800E+02  0.7816164E-02  0.1184000E+00
        -11   -1    0    0    0    0  0.00000000000E+00  0.00000000000E+00  0.45593999997E+02  0.45594000000E+02  0.51100000000E-03 0. -1.
         11   -1    0    0    0    0 -0.00000000000E+00 -0.00000000000E+00 -0.45593999997E+02  0.45594000000E+02  0.51100000000E-03 0.  1.
         23    2    1    2    0    0  0.88817841970E-15  0.35527136788E-14 -0.71054273576E-14  0.91188000000E+02  0.91188000000E+02 0.  0.
    9900012    2    3    3    0    0  0.75318541889E+01  0.16266212744E+02 -0.39526001327E+02  0.47787270911E+02  0.19999999391E+02 0.  0.
         12    1    3    3    0    0 -0.75318541889E+01 -0.16266212744E+02  0.39526001327E+02  0.43400729089E+02  0.00000000000E+00 0. -1.
         11    1    4    4    0    0  0.91187809429E+01 -0.71236954029E+00 -0.12833759021E+02  0.15759600475E+02  0.51100000000E-03 0. -1.
        -11    1    4    4    0    0 -0.13437404267E+01  0.13688740326E+02 -0.24402873766E+02  0.28012274066E+02  0.51100000000E-03 0.  1.
         12    1    4    4    0    0 -0.24318632728E+00  0.32898419580E+01 -0.22893685399E+01  0.40153963702E+01  0.00000000000E+00 0. -1.
</event>
<event>
 8    1  0.8600524E-011  0.9118800E+02  0.7816164E-02  0.1184000E+00
        -11   -1    0    0    0    0  0.00000000000E+00  0.00000000000E+00  0.45593999997E+02  0.45594000000E+02  0.51100000000E-03 0. -1.
         11   -1    0    0    0    0 -0.00000000000E+00 -0.00000000000E+00 -0.45593999997E+02  0.45594000000E+02  0.51100000000E-03 0.  1.
         23    2    1    2    0    0  0.00000000000E+00 -0.88817841970E-15  0.00000000000E+00  0.91188000000E+02  0.91188000000E+02 0.  0.
    9900012    2    3    3    0    0  0.16052100823E+02  0.63881967573E+01  0.39813870872E+02  0.47787270600E+02  0.19999997972E+02 0.  0.
        -12    1    3    3    0    0 -0.16052100823E+02 -0.63881967573E+01 -0.39813870872E+02  0.43400729400E+02  0.00000000000E+00 0.  1.
         11    1    4    4    0    0  0.34546117677E+01 -0.24351299631E+01  0.38961664754E+01  0.57484183797E+01  0.51100000000E-03 0. -1.
        -11    1    4    4    0    0  0.59217421536E+01  0.17944786363E+01  0.16181274654E+01  0.63957423702E+01  0.51100000000E-03 0.  1.
         12    1    4    4    0    0  0.66757469020E+01  0.70288480841E+01  0.34299576931E+02  0.35643109850E+02  0.00000000000E+00 0. -1.
</event>
<event>
 8    1  0.8600524E-011  0.9118800E+02  0.7816164E-02  0.1184000E+00
        -11   -1    0    0    0    0  0.00000000000E+00  0.00000000000E+00  0.45593999997E+02  0.45594000000E+02  0.51100000000E-03 0. -1.
         11   -1    0    0    0    0 -0.00000000000E+00 -0.00000000000E+00 -0.45593999997E+02  0.45594000000E+02  0.51100000000E-03 0.  1.
         23    2    1    2    0    0  0.00000000000E+00  0.35527136788E-14 -0.71054273576E-14  0.91188000000E+02  0.91188000000E+02 0.  0.
    9900012    2    3    3    0    0  0.26009439872E+01 -0.23645076331E+02  0.36301080229E+02  0.47787274544E+02  0.20000015955E+02 0.  0.
        -12    1    3    3    0    0 -0.26009439872E+01  0.23645076331E+02 -0.36301080229E+02  0.43400725456E+02  0.00000000000E+00 0.  1.
         11    1    4    4    0    0  0.38156459201E+01 -0.58571345317E+01  0.23235299612E+02  0.24264054217E+02  0.51100000000E-03 0. -1.
        -11    1    4    4    0    0 -0.20156804328E+01 -0.36802411764E+01 -0.11774952756E+00  0.41977384311E+01  0.51100000000E-03 0.  1.
         12    1    4    4    0    0  0.80097849980E+00 -0.14107700623E+02  0.13183530144E+02  0.19325481896E+02  0.00000000000E+00 0. -1.
</event>
<event>
 8    1  0.8600524E-011  0.9118800E+02  0.7816164E-02  0.1184000E+00
        -11   -1    0    0    0    0  0.00000000000E+00  0.00000000000E+00  0.45593999997E+02  0.45594000000E+02  0.51100000000E-03 0.  1.
         11   -1    0    0    0    0 -0.00000000000E+00 -0.00000000000E+00 -0.45593999997E+02  0.45594000000E+02  0.51100000000E-03 0. -1.
         23    2    1    2    0    0 -0.35527136788E-14  0.00000000000E+00  0.35527136788E-14  0.91188000000E+02  0.91188000000E+02 0.  0.
    9900012    2    3    3    0    0  0.27327367620E+02 -0.16634637822E+02 -0.29327923358E+02  0.47787270916E+02  0.19999999415E+02 0.  0.
         12    1    3    3    0    0 -0.27327367620E+02  0.16634637822E+02  0.29327923358E+02  0.43400729084E+02  0.00000000000E+00 0. -1.
         11    1    4    4    0    0  0.60576633048E+01 -0.14077222528E+02 -0.82088180609E+01  0.17385286108E+02  0.51100000000E-03 0. -1.
        -11    1    4    4    0    0  0.36893066678E+01 -0.12340924824E+01 -0.19271080802E+01  0.43413953700E+01  0.51100000000E-03 0.  1.
         12    1    4    4    0    0  0.17580397648E+02 -0.13233228110E+01 -0.19191997217E+02  0.26060589439E+02  0.00000000000E+00 0. -1.
</event>
<event>
 8    1  0.8600524E-011  0.9118800E+02  0.7816164E-02  0.1184000E+00
        -11   -1    0    0    0    0  0.00000000000E+00  0.00000000000E+00  0.45593999997E+02  0.45594000000E+02  0.51100000000E-03 0. -1.
         11   -1    0    0    0    0 -0.00000000000E+00 -0.00000000000E+00 -0.45593999997E+02  0.45594000000E+02  0.51100000000E-03 0.  1.
         23    2    1    2    0    0 -0.17763568394E-14  0.17763568394E-14  0.00000000000E+00  0.91188000000E+02  0.91188000000E+02 0.  0.
    9900012    2    3    3    0    0 -0.78871167694E+01  0.99558988954E+01 -0.41500563477E+02  0.47787270713E+02  0.19999998488E+02 0.  0.
         12    1    3    3    0    0  0.78871167694E+01 -0.99558988954E+01  0.41500563477E+02  0.43400729287E+02  0.00000000000E+00 0. -1.
         11    1    4    4    0    0 -0.13518963895E+02  0.96144436164E+01 -0.25122717203E+02  0.30105661108E+02  0.51100000000E-03 0. -1.
        -11    1    4    4    0    0  0.17035413373E+01 -0.10673613951E+01 -0.88390872935E+01  0.90648098645E+01  0.51100000000E-03 0.  1.
         12    1    4    4    0    0  0.39283057887E+01  0.14088166741E+01 -0.75387589807E+01  0.86167997400E+01  0.00000000000E+00 0. -1.
</event>
<event>
 8    1  0.1086305E-010  0.9118800E+02  0.7816164E-02  0.1184000E+00
        -11   -1    0    0    0    0  0.00000000000E+00  0.00000000000E+00  0.45593999997E+02  0.45594000000E+02  0.51100000000E-03 0. -1.
         11   -1    0    0    0    0 -0.00000000000E+00 -0.00000000000E+00 -0.45593999997E+02  0.45594000000E+02  0.51100000000E-03 0.  1.
         23    2    1    2    0    0 -0.17763568394E-14  0.00000000000E+00  0.00000000000E+00  0.91188000000E+02  0.91188000000E+02 0.  0.
    9900012    2    3    3    0    0 -0.82227675103E+01  0.40720933755E+01  0.42419658452E+02  0.47787271053E+02  0.20000000038E+02 0.  0.
        -12    1    3    3    0    0  0.82227675103E+01 -0.40720933755E+01 -0.42419658452E+02  0.43400728947E+02  0.00000000000E+00 0.  1.
         11    1    4    4    0    0  0.14804085384E+01 -0.29392857885E+01  0.25255650790E+02  0.25469175634E+02  0.51100000000E-03 0. -1.
        -11    1    4    4    0    0 -0.86697691643E+01  0.16868390287E+01  0.10248606509E+02  0.13529385016E+02  0.51100000000E-03 0.  1.
        -12    1    4    4    0    0 -0.10334068844E+01  0.53245401354E+01  0.69154011528E+01  0.87887104029E+01  0.00000000000E+00 0.  1.
</event>
<event>
 8    1  0.8600524E-011  0.9118800E+02  0.7816164E-02  0.1184000E+00
        -11   -1    0    0    0    0  0.00000000000E+00  0.00000000000E+00  0.45593999997E+02  0.45594000000E+02  0.51100000000E-03 0.  1.
         11   -1    0    0    0    0 -0.00000000000E+00 -0.00000000000E+00 -0.45593999997E+02  0.45594000000E+02  0.51100000000E-03 0. -1.
         23    2    1    2    0    0  0.00000000000E+00  0.00000000000E+00 -0.17763568394E-14  0.91188000000E+02  0.91188000000E+02 0.  0.
    9900012    2    3    3    0    0  0.32745043684E+02 -0.24792333061E+02  0.14025870280E+02  0.47787277638E+02  0.20000030061E+02 0.  0.
        -12    1    3    3    0    0 -0.32745043684E+02  0.24792333061E+02 -0.14025870280E+02  0.43400722362E+02  0.00000000000E+00 0.  1.
         11    1    4    4    0    0  0.31694823253E+02 -0.23491564806E+02  0.88146724061E+01  0.40424174549E+02  0.51100000000E-03 0. -1.
        -11    1    4    4    0    0  0.43308559102E+00 -0.12227645395E+01  0.61232355578E+01  0.62591317454E+01  0.51100000000E-03 0.  1.
        -12    1    4    4    0    0  0.61713483969E+00 -0.78003715586E-01 -0.91203768389E+00  0.11039713433E+01  0.00000000000E+00 0.  1.
</event>
<event>
 8    1  0.1126415E-010  0.9118800E+02  0.7816164E-02  0.1184000E+00
        -11   -1    0    0    0    0  0.00000000000E+00  0.00000000000E+00  0.45593999997E+02  0.45594000000E+02  0.51100000000E-03 0. -1.
         11   -1    0    0    0    0 -0.00000000000E+00 -0.00000000000E+00 -0.45593999997E+02  0.45594000000E+02  0.51100000000E-03 0.  1.
         23    2    1    2    0    0  0.71054273576E-14  0.00000000000E+00 -0.35527136788E-14  0.91188000000E+02  0.91188000000E+02 0.  0.
    9900012    2    3    3    0    0 -0.34327430520E+02  0.80868381698E+01  0.25295336787E+02  0.47787268429E+02  0.19999988077E+02 0.  0.
        -12    1    3    3    0    0  0.34327430520E+02 -0.80868381698E+01 -0.25295336787E+02  0.43400731571E+02  0.00000000000E+00 0.  1.
         11    1    4    4    0    0 -0.18918054219E+02  0.38259864078E+01  0.14750259507E+02  0.24291996691E+02  0.51100000000E-03 0. -1.
        -11    1    4    4    0    0 -0.41803877075E+01  0.81112429994E+01  0.45692130052E+01  0.10205175752E+02  0.51100000000E-03 0.  1.
        -12    1    4    4    0    0 -0.11228988593E+02 -0.38503912374E+01  0.59758642749E+01  0.13290095987E+02  0.00000000000E+00 0.  1.
</event>
<event>
 8    1  0.8600524E-011  0.9118800E+02  0.7816164E-02  0.1184000E+00
        -11   -1    0    0    0    0  0.00000000000E+00  0.00000000000E+00  0.45593999997E+02  0.45594000000E+02  0.51100000000E-03 0. -1.
         11   -1    0    0    0    0 -0.00000000000E+00 -0.00000000000E+00 -0.45593999997E+02  0.45594000000E+02  0.51100000000E-03 0.  1.
         23    2    1    2    0    0  0.00000000000E+00 -0.17763568394E-14  0.00000000000E+00  0.91188000000E+02  0.91188000000E+02 0.  0.
    9900012    2    3    3    0    0 -0.96566717274E+01 -0.86862932659E+01  0.41411591476E+02  0.47787275258E+02  0.20000019210E+02 0.  0.
        -12    1    3    3    0    0  0.96566717274E+01  0.86862932659E+01 -0.41411591476E+02  0.43400724742E+02  0.00000000000E+00 0.  1.
         11    1    4    4    0    0  0.35553757325E+01 -0.34253977945E+01  0.41934109383E+01  0.64775568086E+01  0.51100000000E-03 0. -1.
        -11    1    4    4    0    0 -0.11372388844E+02  0.86819450764E+00  0.21479287864E+02  0.24319638096E+02  0.51100000000E-03 0.  1.
        -12    1    4    4    0    0 -0.18396586163E+01 -0.61290899791E+01  0.15738892674E+02  0.16990080353E+02  0.00000000000E+00 0.  1.
</event>
<event>
 8    1  0.8600524E-011  0.9118800E+02  0.7816164E-02  0.1184000E+00
        -11   -1    0    0    0    0  0.00000000000E+00  0.00000000000E+00  0.45593999997E+02  0.45594000000E+02  0.51100000000E-03 0. -1.
         11   -1    0    0    0    0 -0.00000000000E+00 -0.00000000000E+00 -0.45593999997E+02  0.45594000000E+02  0.51100000000E-03 0.  1.
         23    2    1    2    0    0  0.00000000000E+00 -0.17763568394E-14  0.71054273576E-14  0.91188000000E+02  0.91188000000E+02 0.  0.
    9900012    2    3    3    0    0 -0.97765253691E+01 -0.12367740745E+02 -0.40436135041E+02  0.47787280231E+02  0.20000041885E+02 0.  0.
         12    1    3    3    0    0  0.97765253691E+01  0.12367740745E+02  0.40436135041E+02  0.43400719769E+02  0.00000000000E+00 0. -1.
         11    1    4    4    0    0 -0.64278999640E+00 -0.11486665092E+02 -0.14912319424E+02  0.18834381454E+02  0.51100000000E-03 0. -1.
        -11    1    4    4    0    0 -0.34433810114E+01 -0.80353910885E+00 -0.21949854910E+02  0.22232828851E+02  0.51100000000E-03 0.  1.
         12    1    4    4    0    0 -0.56903543613E+01 -0.77536544774E-01 -0.35739607076E+01  0.67200699261E+01  0.00000000000E+00 0. -1.
</event>
<event>
 8    1  0.8600524E-011  0.9118800E+02  0.7816164E-02  0.1184000E+00
        -11   -1    0    0    0    0  0.00000000000E+00  0.00000000000E+00  0.45593999997E+02  0.45594000000E+02  0.51100000000E-03 0. -1.
         11   -1    0    0    0    0 -0.00000000000E+00 -0.00000000000E+00 -0.45593999997E+02  0.45594000000E+02  0.51100000000E-03 0.  1.
         23    2    1    2    0    0  0.35527136788E-14  0.00000000000E+00  0.00000000000E+00  0.91188000000E+02  0.91188000000E+02 0.  0.
    9900012    2    3    3    0    0 -0.29958860017E+02 -0.25243405925E+02  0.18677801458E+02  0.47787273007E+02  0.20000008950E+02 0.  0.
        -12    1    3    3    0    0  0.29958860017E+02  0.25243405925E+02 -0.18677801458E+02  0.43400726993E+02  0.00000000000E+00 0.  1.
         11    1    4    4    0    0 -0.46266193676E+01 -0.11331550672E+02  0.13073990057E+01  0.12309302979E+02  0.51100000000E-03 0. -1.
        -11    1    4    4    0    0 -0.80046019020E+01 -0.30709587832E+01 -0.12337067994E+00  0.85743606201E+01  0.51100000000E-03 0.  1.
         12    1    4    4    0    0 -0.17327638748E+02 -0.10840896470E+02  0.17493773132E+02  0.26903609409E+02  0.00000000000E+00 0. -1.
</event>
<event>
 8    1  0.8600524E-011  0.9118800E+02  0.7816164E-02  0.1184000E+00
        -11   -1    0    0    0    0  0.00000000000E+00  0.00000000000E+00  0.45593999997E+02  0.45594000000E+02  0.51100000000E-03 0. -1.
         11   -1    0    0    0    0 -0.00000000000E+00 -0.00000000000E+00 -0.45593999997E+02  0.45594000000E+02  0.51100000000E-03 0.  1.
         23    2    1    2    0    0  0.00000000000E+00  0.71054273576E-14  0.00000000000E+00  0.91188000000E+02  0.91188000000E+02 0.  0.
    9900012    2    3    3    0    0 -0.14127509534E+02 -0.29764687949E+02 -0.28250665916E+02  0.47787270755E+02  0.19999998680E+02 0.  0.
         12    1    3    3    0    0  0.14127509534E+02  0.29764687949E+02  0.28250665916E+02  0.43400729245E+02  0.00000000000E+00 0. -1.
         11    1    4    4    0    0 -0.30354472237E+01 -0.69338009872E+01  0.11846651878E+01  0.76612641154E+01  0.51100000000E-03 0. -1.
        -11    1    4    4    0    0 -0.52056591743E+01 -0.18815270984E+02 -0.17459471028E+02  0.26190579193E+02  0.51100000000E-03 0.  1.
         12    1    4    4    0    0 -0.58864031364E+01 -0.40156159775E+01 -0.11975860076E+02  0.13935427447E+02  0.00000000000E+00 0. -1.
</event>
<event>
 8    1  0.8600524E-011  0.9118800E+02  0.7816164E-02  0.1184000E+00
        -11   -1    0    0    0    0  0.00000000000E+00  0.00000000000E+00  0.45593999997E+02  0.45594000000E+02  0.51100000000E-03 0. -1.
         11   -1    0    0    0    0 -0.00000000000E+00 -0.00000000000E+00 -0.45593999997E+02  0.45594000000E+02  0.51100000000E-03 0.  1.
         23    2    1    2    0    0  0.00000000000E+00  0.00000000000E+00  0.00000000000E+00  0.91188000000E+02  0.91188000000E+02 0.  0.
    9900012    2    3    3    0    0  0.21171981891E+02 -0.22257580043E+02  0.30658954556E+02  0.47787260593E+02  0.19999952350E+02 0.  0.
        -12    1    3    3    0    0 -0.21171981891E+02  0.22257580043E+02 -0.30658954556E+02  0.43400739407E+02  0.00000000000E+00 0.  1.
         11    1    4    4    0    0  0.60592680987E+01 -0.12270561032E+02  0.24261065069E+02  0.27854634740E+02  0.51100000000E-03 0. -1.
        -11    1    4    4    0    0  0.69539716844E+01 -0.74704324799E+01  0.22999278779E+01  0.10462062518E+02  0.51100000000E-03 0.  1.
         12    1    4    4    0    0  0.81587421079E+01 -0.25165865311E+01  0.40979616091E+01  0.94705633360E+01  0.00000000000E+00 0. -1.
</event>
<event>
 8    1  0.8600524E-011  0.9118800E+02  0.7816164E-02  0.1184000E+00
        -11   -1    0    0    0    0  0.00000000000E+00  0.00000000000E+00  0.45593999997E+02  0.45594000000E+02  0.51100000000E-03 0. -1.
         11   -1    0    0    0    0 -0.00000000000E+00 -0.00000000000E+00 -0.45593999997E+02  0.45594000000E+02  0.51100000000E-03 0.  1.
         23    2    1    2    0    0  0.35527136788E-14  0.71054273576E-14  0.00000000000E+00  0.91188000000E+02  0.91188000000E+02 0.  0.
    9900012    2    3    3    0    0  0.21288256762E+02  0.31289157626E+02 -0.21246694565E+02  0.47787270849E+02  0.19999999109E+02 0.  0.
         12    1    3    3    0    0 -0.21288256762E+02 -0.31289157626E+02  0.21246694565E+02  0.43400729151E+02  0.00000000000E+00 0. -1.
         11    1    4    4    0    0  0.17969306770E+01  0.15620359429E+00  0.18418493038E+00  0.18130868073E+01  0.51100000000E-03 0. -1.
        -11    1    4    4    0    0 -0.99341076149E+00  0.46044014996E+01  0.19603205407E+01  0.51019834373E+01  0.51100000000E-03 0.  1.
        -12    1    4    4    0    0  0.20484736847E+02  0.26528552532E+02 -0.23391200036E+02  0.40872200604E+02  0.00000000000E+00 0.  1.
</event>
<event>
 8    1  0.8600524E-011  0.9118800E+02  0.7816164E-02  0.1184000E+00
        -11   -1    0    0    0    0  0.00000000000E+00  0.00000000000E+00  0.45593999997E+02  0.45594000000E+02  0.51100000000E-03 0. -1.
         11   -1    0    0    0    0 -0.00000000000E+00 -0.00000000000E+00 -0.45593999997E+02  0.45594000000E+02  0.51100000000E-03 0.  1.
         23    2    1    2    0    0  0.00000000000E+00  0.00000000000E+00  0.00000000000E+00  0.91188000000E+02  0.91188000000E+02 0.  0.
    9900012    2    3    3    0    0 -0.25905558742E+01 -0.19641177560E+02 -0.38615235034E+02  0.47787271752E+02  0.20000003226E+02 0.  0.
         12    1    3    3    0    0  0.25905558742E+01  0.19641177560E+02  0.38615235034E+02  0.43400728248E+02  0.00000000000E+00 0. -1.
         11    1    4    4    0    0 -0.31773338816E+01 -0.19742563994E+01  0.57291597845E+00  0.37843588500E+01  0.51100000000E-03 0. -1.
        -11    1    4    4    0    0  0.31739235069E+01 -0.13831243777E+01 -0.55533049686E+01  0.65441592132E+01  0.51100000000E-03 0.  1.
         12    1    4    4    0    0 -0.25871454994E+01 -0.16283796783E+02 -0.33634846044E+02  0.37458753689E+02  0.00000000000E+00 0. -1.
</event>
<event>
 8    1  0.8600524E-011  0.9118800E+02  0.7816164E-02  0.1184000E+00
        -11   -1    0    0    0    0  0.00000000000E+00  0.00000000000E+00  0.45593999997E+02  0.45594000000E+02  0.51100000000E-03 0. -1.
         11   -1    0    0    0    0 -0.00000000000E+00 -0.00000000000E+00 -0.45593999997E+02  0.45594000000E+02  0.51100000000E-03 0.  1.
         23    2    1    2    0    0  0.00000000000E+00  0.00000000000E+00  0.00000000000E+00  0.91188000000E+02  0.91188000000E+02 0.  0.
    9900012    2    3    3    0    0 -0.14871864812E+02 -0.63948375141E+01  0.40268540183E+02  0.47787289888E+02  0.20000085913E+02 0.  0.
        -12    1    3    3    0    0  0.14871864812E+02  0.63948375141E+01 -0.40268540183E+02  0.43400710112E+02  0.00000000000E+00 0.  1.
         11    1    4    4    0    0  0.33002309826E+00 -0.28582466773E+01  0.13142881900E+02  0.13454138182E+02  0.51100000000E-03 0. -1.
        -11    1    4    4    0    0 -0.13736255009E+02 -0.77362489350E+01  0.16533458234E+02  0.22844900759E+02  0.51100000000E-03 0.  1.
        -12    1    4    4    0    0 -0.14656329009E+01  0.41996580982E+01  0.10592200049E+02  0.11488250947E+02  0.00000000000E+00 0.  1.
</event>
<event>
 8    1  0.8600524E-011  0.9118800E+02  0.7816164E-02  0.1184000E+00
        -11   -1    0    0    0    0  0.00000000000E+00  0.00000000000E+00  0.45593999997E+02  0.45594000000E+02  0.51100000000E-03 0. -1.
         11   -1    0    0    0    0 -0.00000000000E+00 -0.00000000000E+00 -0.45593999997E+02  0.45594000000E+02  0.51100000000E-03 0.  1.
         23    2    1    2    0    0  0.00000000000E+00 -0.77715611724E-15 -0.35527136788E-14  0.91188000000E+02  0.91188000000E+02 0.  0.
    9900012    2    3    3    0    0 -0.34028393926E+02  0.48013684468E+00  0.26934387754E+02  0.47787269957E+02  0.19999995044E+02 0.  0.
        -12    1    3    3    0    0  0.34028393926E+02 -0.48013684468E+00 -0.26934387754E+02  0.43400730043E+02  0.00000000000E+00 0.  1.
         11    1    4    4    0    0 -0.14503537294E+02 -0.23738369542E+01  0.18328798831E+02  0.23493245045E+02  0.51100000000E-03 0. -1.
        -11    1    4    4    0    0 -0.46181509101E+01 -0.40091174717E+01  0.96292720126E+00  0.61909264077E+01  0.51100000000E-03 0.  1.
         12    1    4    4    0    0 -0.14906705722E+02  0.68630912705E+01  0.76426617214E+01  0.18103098504E+02  0.00000000000E+00 0. -1.
</event>
<event>
 8    1  0.8600524E-011  0.9118800E+02  0.7816164E-02  0.1184000E+00
        -11   -1    0    0    0    0  0.00000000000E+00  0.00000000000E+00  0.45593999997E+02  0.45594000000E+02  0.51100000000E-03 0. -1.
         11   -1    0    0    0    0 -0.00000000000E+00 -0.00000000000E+00 -0.45593999997E+02  0.45594000000E+02  0.51100000000E-03 0.  1.
         23    2    1    2    0    0  0.35527136788E-14 -0.17763568394E-14 -0.71054273576E-14  0.91188000000E+02  0.91188000000E+02 0.  0.
    9900012    2    3    3    0    0  0.24091742723E+02 -0.13279755031E+02 -0.33568726186E+02  0.47787270296E+02  0.19999996586E+02 0.  0.
         12    1    3    3    0    0 -0.24091742723E+02  0.13279755031E+02  0.33568726186E+02  0.43400729704E+02  0.00000000000E+00 0. -1.
         11    1    4    4    0    0  0.10989398650E+02 -0.65719418187E+01 -0.47717938129E+01  0.13664820467E+02  0.51100000000E-03 0. -1.
        -11    1    4    4    0    0  0.21556683961E+01 -0.61699013855E+01 -0.15941504463E+02  0.17229223841E+02  0.51100000000E-03 0.  1.
        -12    1    4    4    0    0  0.10946675677E+02 -0.53791182653E+00 -0.12855427910E+02  0.16893225987E+02  0.00000000000E+00 0.  1.
</event>
<event>
 8    1  0.8600524E-011  0.9118800E+02  0.7816164E-02  0.1184000E+00
        -11   -1    0    0    0    0  0.00000000000E+00  0.00000000000E+00  0.45593999997E+02  0.45594000000E+02  0.51100000000E-03 0. -1.
         11   -1    0    0    0    0 -0.00000000000E+00 -0.00000000000E+00 -0.45593999997E+02  0.45594000000E+02  0.51100000000E-03 0.  1.
         23    2    1    2    0    0  0.00000000000E+00  0.00000000000E+00  0.00000000000E+00  0.91188000000E+02  0.91188000000E+02 0.  0.
    9900012    2    3    3    0    0  0.33986515145E+01 -0.36782453953E+02 -0.22784284087E+02  0.47787270141E+02  0.19999995882E+02 0.  0.
         12    1    3    3    0    0 -0.33986515145E+01  0.36782453953E+02  0.22784284087E+02  0.43400729859E+02  0.00000000000E+00 0. -1.
         11    1    4    4    0    0 -0.48625932243E+00 -0.53744533286E+01  0.20235621845E+01  0.57633324462E+01  0.51100000000E-03 0. -1.
        -11    1    4    4    0    0  0.67754649312E+01 -0.20899262755E+02 -0.11421020141E+02  0.24761377386E+02  0.51100000000E-03 0.  1.
        -12    1    4    4    0    0 -0.28905540942E+01 -0.10508737869E+02 -0.13386826130E+02  0.17262560309E+02  0.00000000000E+00 0.  1.
</event>
<event>
 8    1  0.8600524E-011  0.9118800E+02  0.7816164E-02  0.1184000E+00
        -11   -1    0    0    0    0  0.00000000000E+00  0.00000000000E+00  0.45593999997E+02  0.45594000000E+02  0.51100000000E-03 0. -1.
         11   -1    0    0    0    0 -0.00000000000E+00 -0.00000000000E+00 -0.45593999997E+02  0.45594000000E+02  0.51100000000E-03 0.  1.
         23    2    1    2    0    0  0.35527136788E-14  0.00000000000E+00  0.00000000000E+00  0.91188000000E+02  0.91188000000E+02 0.  0.
    9900012    2    3    3    0    0 -0.10305921016E+02 -0.23380984818E+02 -0.35081906520E+02  0.47787278529E+02  0.20000034127E+02 0.  0.
         12    1    3    3    0    0  0.10305921016E+02  0.23380984818E+02  0.35081906520E+02  0.43400721471E+02  0.00000000000E+00 0. -1.
         11    1    4    4    0    0 -0.15275745248E+02 -0.16124904681E+02 -0.23914296510E+02  0.32638237111E+02  0.51100000000E-03 0.  1.
        -11    1    4    4    0    0  0.54631660592E+01 -0.66461695732E+01 -0.75470183250E+01  0.11444441413E+02  0.51100000000E-03 0. -1.
         12    1    4    4    0    0 -0.49334182709E+00 -0.60991056414E+00 -0.36205916851E+01  0.37046000060E+01  0.00000000000E+00 0. -1.
</event>
<event>
 8    1  0.8600524E-011  0.9118800E+02  0.7816164E-02  0.1184000E+00
        -11   -1    0    0    0    0  0.00000000000E+00  0.00000000000E+00  0.45593999997E+02  0.45594000000E+02  0.51100000000E-03 0. -1.
         11   -1    0    0    0    0 -0.00000000000E+00 -0.00000000000E+00 -0.45593999997E+02  0.45594000000E+02  0.51100000000E-03 0.  1.
         23    2    1    2    0    0  0.00000000000E+00  0.00000000000E+00 -0.71054273576E-14  0.91188000000E+02  0.91188000000E+02 0.  0.
    9900012    2    3    3    0    0  0.19138373185E+02 -0.24734902943E+01 -0.38874518294E+02  0.47787266654E+02  0.19999979982E+02 0.  0.
         12    1    3    3    0    0 -0.19138373185E+02  0.24734902943E+01  0.38874518294E+02  0.43400733346E+02  0.00000000000E+00 0. -1.
         11    1    4    4    0    0  0.18082803258E+02  0.38362851263E+01 -0.22357367405E+02  0.29009597288E+02  0.51100000000E-03 0.  1.
        -11    1    4    4    0    0  0.33225575559E+01 -0.56294382180E+01 -0.11438601007E+02  0.13174655844E+02  0.51100000000E-03 0. -1.
        -12    1    4    4    0    0 -0.22669876297E+01 -0.68033720251E+00 -0.50785498822E+01  0.56030135221E+01  0.00000000000E+00 0.  1.
</event>
<event>
 8    1  0.8600524E-011  0.9118800E+02  0.7816164E-02  0.1184000E+00
        -11   -1    0    0    0    0  0.00000000000E+00  0.00000000000E+00  0.45593999997E+02  0.45594000000E+02  0.51100000000E-03 0. -1.
         11   -1    0    0    0    0 -0.00000000000E+00 -0.00000000000E+00 -0.45593999997E+02  0.45594000000E+02  0.51100000000E-03 0.  1.
         23    2    1    2    0    0  0.00000000000E+00  0.00000000000E+00  0.00000000000E+00  0.91188000000E+02  0.91188000000E+02 0.  0.
    9900012    2    3    3    0    0  0.11476891814E+02 -0.24312751112E+02  0.34070432571E+02  0.47787270883E+02  0.19999999264E+02 0.  0.
        -12    1    3    3    0    0 -0.11476891814E+02  0.24312751112E+02 -0.34070432571E+02  0.43400729117E+02  0.00000000000E+00 0.  1.
         11    1    4    4    0    0 -0.14307971310E+01 -0.11797921583E+02  0.14139062129E+02  0.18470279160E+02  0.51100000000E-03 0. -1.
        -11    1    4    4    0    0  0.12702687770E+02 -0.45031635980E+01  0.12881234612E+02  0.18643040642E+02  0.51100000000E-03 0.  1.
         12    1    4    4    0    0  0.20500117484E+00 -0.80116659310E+01  0.70501358291E+01  0.10673951081E+02  0.00000000000E+00 0. -1.
</event>
<event>
 8    1  0.8600524E-011  0.9118800E+02  0.7816164E-02  0.1184000E+00
        -11   -1    0    0    0    0  0.00000000000E+00  0.00000000000E+00  0.45593999997E+02  0.45594000000E+02  0.51100000000E-03 0. -1.
         11   -1    0    0    0    0 -0.00000000000E+00 -0.00000000000E+00 -0.45593999997E+02  0.45594000000E+02  0.51100000000E-03 0.  1.
         23    2    1    2    0    0  0.00000000000E+00  0.88817841970E-15 -0.17763568394E-14  0.91188000000E+02  0.91188000000E+02 0.  0.
    9900012    2    3    3    0    0  0.40917037554E+02 -0.67083880793E+01 -0.12822380628E+02  0.47787310169E+02  0.20000178385E+02 0.  0.
         12    1    3    3    0    0 -0.40917037554E+02  0.67083880793E+01  0.12822380628E+02  0.43400689831E+02  0.00000000000E+00 0. -1.
         11    1    4    4    0    0  0.42569699504E+01  0.18442200736E+01 -0.65329878493E+00  0.46850550052E+01  0.51100000000E-03 0. -1.
        -11    1    4    4    0    0  0.31174496814E+02 -0.43366826921E+01 -0.15877364265E+02  0.35252613586E+02  0.51100000000E-03 0.  1.
        -12    1    4    4    0    0  0.54855707892E+01 -0.42159254609E+01  0.37082824222E+01  0.78496415776E+01  0.00000000000E+00 0.  1.
</event>
<event>
 8    1  0.8600524E-011  0.9118800E+02  0.7816164E-02  0.1184000E+00
        -11   -1    0    0    0    0  0.00000000000E+00  0.00000000000E+00  0.45593999997E+02  0.45594000000E+02  0.51100000000E-03 0. -1.
         11   -1    0    0    0    0 -0.00000000000E+00 -0.00000000000E+00 -0.45593999997E+02  0.45594000000E+02  0.51100000000E-03 0.  1.
         23    2    1    2    0    0 -0.35527136788E-14 -0.35527136788E-14 -0.71054273576E-14  0.91188000000E+02  0.91188000000E+02 0.  0.
    9900012    2    3    3    0    0  0.19055572961E+02  0.18149947449E+02  0.34512145073E+02  0.47787267163E+02  0.19999982302E+02 0.  0.
        -12    1    3    3    0    0 -0.19055572961E+02 -0.18149947449E+02 -0.34512145073E+02  0.43400732837E+02  0.00000000000E+00 0.  1.
         11    1    4    4    0    0  0.56348965355E+01 -0.26948957447E+01  0.10324744374E+02  0.12067098602E+02  0.51100000000E-03 0.  1.
        -11    1    4    4    0    0  0.11641762664E+02  0.16710413044E+02  0.14385054655E+02  0.24933879356E+02  0.51100000000E-03 0. -1.
         12    1    4    4    0    0  0.17789137620E+01  0.41344301492E+01  0.98023460444E+01  0.10786289205E+02  0.00000000000E+00 0. -1.
</event>
<event>
 8    1  0.8600524E-011  0.9118800E+02  0.7816164E-02  0.1184000E+00
        -11   -1    0    0    0    0  0.00000000000E+00  0.00000000000E+00  0.45593999997E+02  0.45594000000E+02  0.51100000000E-03 0. -1.
         11   -1    0    0    0    0 -0.00000000000E+00 -0.00000000000E+00 -0.45593999997E+02  0.45594000000E+02  0.51100000000E-03 0.  1.
         23    2    1    2    0    0  0.00000000000E+00  0.00000000000E+00  0.00000000000E+00  0.91188000000E+02  0.91188000000E+02 0.  0.
    9900012    2    3    3    0    0 -0.39333829724E+02 -0.15191824736E+02  0.10280167534E+02  0.47787267932E+02  0.19999985807E+02 0.  0.
        -12    1    3    3    0    0  0.39333829724E+02  0.15191824736E+02 -0.10280167534E+02  0.43400732068E+02  0.00000000000E+00 0.  1.
         11    1    4    4    0    0 -0.26860259750E+02 -0.96695677523E+01  0.13964423549E+02  0.31780170227E+02  0.51100000000E-03 0. -1.
        -11    1    4    4    0    0 -0.13441155850E+02 -0.54214201253E+01 -0.39036726933E+01  0.15009834360E+02  0.51100000000E-03 0.  1.
         12    1    4    4    0    0  0.96758587605E+00 -0.10083685855E+00  0.21941667853E+00  0.99726334455E+00  0.00000000000E+00 0. -1.
</event>
<event>
 8    1  0.8600524E-011  0.9118800E+02  0.7816164E-02  0.1184000E+00
        -11   -1    0    0    0    0  0.00000000000E+00  0.00000000000E+00  0.45593999997E+02  0.45594000000E+02  0.51100000000E-03 0. -1.
         11   -1    0    0    0    0 -0.00000000000E+00 -0.00000000000E+00 -0.45593999997E+02  0.45594000000E+02  0.51100000000E-03 0.  1.
         23    2    1    2    0    0 -0.44408920985E-15 -0.35527136788E-14  0.71054273576E-14  0.91188000000E+02  0.91188000000E+02 0.  0.
    9900012    2    3    3    0    0 -0.14491932777E+00 -0.18451078387E+02  0.39283116238E+02  0.47787233686E+02  0.19999829668E+02 0.  0.
        -12    1    3    3    0    0  0.14491932777E+00  0.18451078387E+02 -0.39283116238E+02  0.43400766314E+02  0.00000000000E+00 0.  1.
         11    1    4    4    0    0  0.29865331025E+01 -0.59431312316E+01  0.29674580650E+01  0.72832682524E+01  0.51100000000E-03 0.  1.
        -11    1    4    4    0    0 -0.22485703572E+01 -0.11174095098E+02  0.37035580284E+02  0.38749847447E+02  0.51100000000E-03 0. -1.
         12    1    4    4    0    0 -0.88288207312E+00 -0.13338520575E+01 -0.71992211112E+00  0.17541179870E+01  0.00000000000E+00 0. -1.
</event>
<event>
 8    1  0.8600524E-011  0.9118800E+02  0.7816164E-02  0.1184000E+00
        -11   -1    0    0    0    0  0.00000000000E+00  0.00000000000E+00  0.45593999997E+02  0.45594000000E+02  0.51100000000E-03 0. -1.
         11   -1    0    0    0    0 -0.00000000000E+00 -0.00000000000E+00 -0.45593999997E+02  0.45594000000E+02  0.51100000000E-03 0.  1.
         23    2    1    2    0    0 -0.17763568394E-14  0.00000000000E+00  0.00000000000E+00  0.91188000000E+02  0.91188000000E+02 0.  0.
    9900012    2    3    3    0    0 -0.15142310014E+02  0.38938480139E+02  0.11752817493E+02  0.47787268357E+02  0.19999987749E+02 0.  0.
        -12    1    3    3    0    0  0.15142310014E+02 -0.38938480139E+02 -0.11752817493E+02  0.43400731643E+02  0.00000000000E+00 0.  1.
         11    1    4    4    0    0 -0.16406008080E+01  0.23868156907E+02  0.50265932666E+01  0.24446822397E+02  0.51100000000E-03 0. -1.
        -11    1    4    4    0    0 -0.78316868150E+01  0.50185435328E+01  0.72416749189E+01  0.11788254894E+02  0.51100000000E-03 0.  1.
         12    1    4    4    0    0 -0.56700223906E+01  0.10051779699E+02 -0.51545069255E+00  0.11552191067E+02  0.00000000000E+00 0. -1.
</event>
<event>
 8    1  0.8600524E-011  0.9118800E+02  0.7816164E-02  0.1184000E+00
        -11   -1    0    0    0    0  0.00000000000E+00  0.00000000000E+00  0.45593999997E+02  0.45594000000E+02  0.51100000000E-03 0. -1.
         11   -1    0    0    0    0 -0.00000000000E+00 -0.00000000000E+00 -0.45593999997E+02  0.45594000000E+02  0.51100000000E-03 0.  1.
         23    2    1    2    0    0 -0.35527136788E-14 -0.35527136788E-14  0.00000000000E+00  0.91188000000E+02  0.91188000000E+02 0.  0.
    9900012    2    3    3    0    0  0.26413615370E+02  0.20821807689E+02 -0.27429854809E+02  0.47787266283E+02  0.19999978288E+02 0.  0.
         12    1    3    3    0    0 -0.26413615370E+02 -0.20821807689E+02  0.27429854809E+02  0.43400733717E+02  0.00000000000E+00 0. -1.
         11    1    4    4    0    0 -0.95461000587E-02 -0.16905973793E+01 -0.54380424585E+01  0.56947797735E+01  0.51100000000E-03 0. -1.
        -11    1    4    4    0    0  0.15932996680E+02  0.11208054716E+02 -0.73309445254E+01  0.20814024638E+02  0.51100000000E-03 0.  1.
         12    1    4    4    0    0  0.10490164790E+02  0.11304350353E+02 -0.14660867826E+02  0.21278461871E+02  0.00000000000E+00 0. -1.
</event>
<event>
 8    1  0.8600524E-011  0.9118800E+02  0.7816164E-02  0.1184000E+00
        -11   -1    0    0    0    0  0.00000000000E+00  0.00000000000E+00  0.45593999997E+02  0.45594000000E+02  0.51100000000E-03 0. -1.
         11   -1    0    0    0    0 -0.00000000000E+00 -0.00000000000E+00 -0.45593999997E+02  0.45594000000E+02  0.51100000000E-03 0.  1.
         23    2    1    2    0    0  0.00000000000E+00  0.00000000000E+00  0.00000000000E+00  0.91188000000E+02  0.91188000000E+02 0.  0.
    9900012    2    3    3    0    0  0.20293734914E+02 -0.64531438958E+01  0.37817279408E+02  0.47787246957E+02  0.19999890175E+02 0.  0.
        -12    1    3    3    0    0 -0.20293734914E+02  0.64531438958E+01 -0.37817279408E+02  0.43400753043E+02  0.00000000000E+00 0.  1.
         11    1    4    4    0    0  0.14658590485E+02 -0.10865503920E+02  0.36041066356E+02  0.40396681978E+02  0.51100000000E-03 0. -1.
        -11    1    4    4    0    0  0.25135757670E+01  0.22798733379E+01  0.84478857944E+00  0.34970778628E+01  0.51100000000E-03 0.  1.
         12    1    4    4    0    0  0.31215686622E+01  0.21324866861E+01  0.93142447209E+00  0.38934871165E+01  0.00000000000E+00 0. -1.
</event>
<event>
 8    1  0.8600524E-011  0.9118800E+02  0.7816164E-02  0.1184000E+00
        -11   -1    0    0    0    0  0.00000000000E+00  0.00000000000E+00  0.45593999997E+02  0.45594000000E+02  0.51100000000E-03 0. -1.
         11   -1    0    0    0    0 -0.00000000000E+00 -0.00000000000E+00 -0.45593999997E+02  0.45594000000E+02  0.51100000000E-03 0.  1.
         23    2    1    2    0    0  0.00000000000E+00 -0.17763568394E-14  0.00000000000E+00  0.91188000000E+02  0.91188000000E+02 0.  0.
    9900012    2    3    3    0    0 -0.27991453558E+02  0.88046833219E+01  0.31977783513E+02  0.47787279279E+02  0.20000037545E+02 0.  0.
        -12    1    3    3    0    0  0.27991453558E+02 -0.88046833219E+01 -0.31977783513E+02  0.43400720721E+02  0.00000000000E+00 0.  1.
         11    1    4    4    0    0 -0.14517632291E+02 -0.65425342625E-01  0.25156395166E+02  0.29044967651E+02  0.51100000000E-03 0. -1.
        -11    1    4    4    0    0 -0.19390167367E+01  0.37478057491E+01 -0.33604220325E+00  0.42330554522E+01  0.51100000000E-03 0.  1.
         12    1    4    4    0    0 -0.11534804530E+02  0.51223029154E+01  0.71574305501E+01  0.14509256176E+02  0.00000000000E+00 0. -1.
</event>
<event>
 8    1  0.8600524E-011  0.9118800E+02  0.7816164E-02  0.1184000E+00
        -11   -1    0    0    0    0  0.00000000000E+00  0.00000000000E+00  0.45593999997E+02  0.45594000000E+02  0.51100000000E-03 0. -1.
         11   -1    0    0    0    0 -0.00000000000E+00 -0.00000000000E+00 -0.45593999997E+02  0.45594000000E+02  0.51100000000E-03 0.  1.
         23    2    1    2    0    0  0.00000000000E+00  0.00000000000E+00  0.00000000000E+00  0.91188000000E+02  0.91188000000E+02 0.  0.
    9900012    2    3    3    0    0 -0.12705963987E+02  0.20364702567E+02  0.36158821884E+02  0.47787273837E+02  0.20000012732E+02 0.  0.
        -12    1    3    3    0    0  0.12705963987E+02 -0.20364702567E+02 -0.36158821884E+02  0.43400726163E+02  0.00000000000E+00 0.  1.
         11    1    4    4    0    0 -0.12588490394E+02  0.11410784555E+02  0.20895680750E+02  0.26931497708E+02  0.51100000000E-03 0. -1.
        -11    1    4    4    0    0  0.14172797047E+00  0.11317240117E+02  0.10091080109E+02  0.15163439871E+02  0.51100000000E-03 0.  1.
         12    1    4    4    0    0 -0.25920156326E+00 -0.23633221052E+01  0.51720610253E+01  0.56923362579E+01  0.00000000000E+00 0. -1.
</event>
<event>
 8    1  0.8600524E-011  0.9118800E+02  0.7816164E-02  0.1184000E+00
        -11   -1    0    0    0    0  0.00000000000E+00  0.00000000000E+00  0.45593999997E+02  0.45594000000E+02  0.51100000000E-03 0. -1.
         11   -1    0    0    0    0 -0.00000000000E+00 -0.00000000000E+00 -0.45593999997E+02  0.45594000000E+02  0.51100000000E-03 0.  1.
         23    2    1    2    0    0  0.00000000000E+00 -0.35527136788E-14  0.00000000000E+00  0.91188000000E+02  0.91188000000E+02 0.  0.
    9900012    2    3    3    0    0 -0.19820264992E+02 -0.31643229677E+02 -0.22124335065E+02  0.47787273153E+02  0.20000009615E+02 0.  0.
         12    1    3    3    0    0  0.19820264992E+02  0.31643229677E+02  0.22124335065E+02  0.43400726847E+02  0.00000000000E+00 0. -1.
         11    1    4    4    0    0 -0.72891683017E+01 -0.28609967780E+01 -0.10172191093E+02  0.12837084910E+02  0.51100000000E-03 0.  1.
        -11    1    4    4    0    0 -0.65204602047E+01 -0.11219275843E+02 -0.19654754020E+00  0.12977949874E+02  0.51100000000E-03 0. -1.
         12    1    4    4    0    0 -0.60106364859E+01 -0.17562957056E+02 -0.11755596432E+02  0.21972238370E+02  0.00000000000E+00 0. -1.
</event>
<event>
 8    1  0.8600524E-011  0.9118800E+02  0.7816164E-02  0.1184000E+00
        -11   -1    0    0    0    0  0.00000000000E+00  0.00000000000E+00  0.45593999997E+02  0.45594000000E+02  0.51100000000E-03 0. -1.
         11   -1    0    0    0    0 -0.00000000000E+00 -0.00000000000E+00 -0.45593999997E+02  0.45594000000E+02  0.51100000000E-03 0.  1.
         23    2    1    2    0    0 -0.66613381478E-15  0.00000000000E+00 -0.71054273576E-14  0.91188000000E+02  0.91188000000E+02 0.  0.
    9900012    2    3    3    0    0  0.14225584770E+01 -0.14552302519E+01 -0.43352990121E+02  0.47787272816E+02  0.20000008076E+02 0.  0.
         12    1    3    3    0    0 -0.14225584770E+01  0.14552302519E+01  0.43352990121E+02  0.43400727184E+02  0.00000000000E+00 0. -1.
         11    1    4    4    0    0  0.78276564266E+01 -0.23082101363E+01 -0.33230021722E+02  0.34217457285E+02  0.51100000000E-03 0.  1.
        -11    1    4    4    0    0 -0.95481258524E+00  0.15571542714E+01 -0.70304443696E+01  0.72638519253E+01  0.51100000000E-03 0. -1.
         12    1    4    4    0    0 -0.54502853643E+01 -0.70417438705E+00 -0.30925240297E+01  0.63059636055E+01  0.00000000000E+00 0. -1.
</event>
<event>
 8    1  0.8600524E-011  0.9118800E+02  0.7816164E-02  0.1184000E+00
        -11   -1    0    0    0    0  0.00000000000E+00  0.00000000000E+00  0.45593999997E+02  0.45594000000E+02  0.51100000000E-03 0. -1.
         11   -1    0    0    0    0 -0.00000000000E+00 -0.00000000000E+00 -0.45593999997E+02  0.45594000000E+02  0.51100000000E-03 0.  1.
         23    2    1    2    0    0  0.61062266354E-15  0.35527136788E-14  0.00000000000E+00  0.91188000000E+02  0.91188000000E+02 0.  0.
    9900012    2    3    3    0    0  0.41411377936E+00 -0.29364778356E+02  0.31955618750E+02  0.47787271114E+02  0.20000000318E+02 0.  0.
        -12    1    3    3    0    0 -0.41411377936E+00  0.29364778356E+02 -0.31955618750E+02  0.43400728886E+02  0.00000000000E+00 0.  1.
         11    1    4    4    0    0 -0.41027610104E+01 -0.94798234501E+01  0.28005156564E+01  0.10702457136E+02  0.51100000000E-03 0. -1.
        -11    1    4    4    0    0  0.38744684818E+01 -0.20678290045E+02  0.24382157316E+02  0.32203924929E+02  0.51100000000E-03 0.  1.
        -12    1    4    4    0    0  0.64240630803E+00  0.79333513886E+00  0.47729457778E+01  0.48808890486E+01  0.00000000000E+00 0.  1.
</event>
<event>
 8    1  0.1044840E-010  0.9118800E+02  0.7816164E-02  0.1184000E+00
        -11   -1    0    0    0    0  0.00000000000E+00  0.00000000000E+00  0.45593999997E+02  0.45594000000E+02  0.51100000000E-03 0. -1.
         11   -1    0    0    0    0 -0.00000000000E+00 -0.00000000000E+00 -0.45593999997E+02  0.45594000000E+02  0.51100000000E-03 0.  1.
         23    2    1    2    0    0 -0.17763568394E-14  0.17763568394E-14  0.00000000000E+00  0.91188000000E+02  0.91188000000E+02 0.  0.
    9900012    2    3    3    0    0 -0.96191047652E+01 -0.14657870250E+02  0.39701926651E+02  0.47787270552E+02  0.19999997756E+02 0.  0.
        -12    1    3    3    0    0  0.96191047652E+01  0.14657870250E+02 -0.39701926651E+02  0.43400729448E+02  0.00000000000E+00 0.  1.
         11    1    4    4    0    0 -0.10491473654E+02 -0.10650300162E+02  0.24183780058E+02  0.28431586855E+02  0.51100000000E-03 0. -1.
        -11    1    4    4    0    0  0.35463180058E+01 -0.53779628008E+01  0.43076126792E+01  0.77494762752E+01  0.51100000000E-03 0.  1.
        -12    1    4    4    0    0 -0.26739491166E+01  0.13703927125E+01  0.11210533915E+02  0.11606207422E+02  0.00000000000E+00 0.  1.
</event>
<event>
 8    1  0.8600524E-011  0.9118800E+02  0.7816164E-02  0.1184000E+00
        -11   -1    0    0    0    0  0.00000000000E+00  0.00000000000E+00  0.45593999997E+02  0.45594000000E+02  0.51100000000E-03 0. -1.
         11   -1    0    0    0    0 -0.00000000000E+00 -0.00000000000E+00 -0.45593999997E+02  0.45594000000E+02  0.51100000000E-03 0.  1.
         23    2    1    2    0    0  0.88817841970E-15 -0.44408920985E-15 -0.71054273576E-14  0.91188000000E+02  0.91188000000E+02 0.  0.
    9900012    2    3    3    0    0 -0.54313106261E+01  0.13021428109E+01 -0.43039849945E+02  0.47787269657E+02  0.19999993674E+02 0.  0.
         12    1    3    3    0    0  0.54313106261E+01 -0.13021428109E+01  0.43039849945E+02  0.43400730343E+02  0.00000000000E+00 0. -1.
         11    1    4    4    0    0 -0.84297550706E+01  0.62063647780E+01 -0.24136046741E+02  0.26308334931E+02  0.51100000000E-03 0. -1.
        -11    1    4    4    0    0  0.65219896846E+00  0.16486272846E+01 -0.10108404625E+02  0.10262708207E+02  0.51100000000E-03 0.  1.
         12    1    4    4    0    0  0.23462454761E+01 -0.65528492518E+01 -0.87953985790E+01  0.11216226518E+02  0.00000000000E+00 0. -1.
</event>
<event>
 8    1  0.8600524E-011  0.9118800E+02  0.7816164E-02  0.1184000E+00
        -11   -1    0    0    0    0  0.00000000000E+00  0.00000000000E+00  0.45593999997E+02  0.45594000000E+02  0.51100000000E-03 0. -1.
         11   -1    0    0    0    0 -0.00000000000E+00 -0.00000000000E+00 -0.45593999997E+02  0.45594000000E+02  0.51100000000E-03 0.  1.
         23    2    1    2    0    0 -0.35527136788E-14  0.00000000000E+00  0.00000000000E+00  0.91188000000E+02  0.91188000000E+02 0.  0.
    9900012    2    3    3    0    0 -0.23632765208E+02 -0.33102172241E+02  0.15144696234E+02  0.47787271637E+02  0.20000002701E+02 0.  0.
        -12    1    3    3    0    0  0.23632765208E+02  0.33102172241E+02 -0.15144696234E+02  0.43400728363E+02  0.00000000000E+00 0.  1.
         11    1    4    4    0    0 -0.78589882847E+00 -0.61496977153E+01  0.98713265411E+01  0.11656736546E+02  0.51100000000E-03 0.  1.
        -11    1    4    4    0    0 -0.15982713130E+02 -0.22239030604E+02  0.46722092881E+01  0.27782209075E+02  0.51100000000E-03 0. -1.
         12    1    4    4    0    0 -0.68641532497E+01 -0.47134439220E+01  0.60116040471E+00  0.83483260162E+01  0.00000000000E+00 0. -1.
</event>
<event>
 8    1  0.8600524E-011  0.9118800E+02  0.7816164E-02  0.1184000E+00
        -11   -1    0    0    0    0  0.00000000000E+00  0.00000000000E+00  0.45593999997E+02  0.45594000000E+02  0.51100000000E-03 0. -1.
         11   -1    0    0    0    0 -0.00000000000E+00 -0.00000000000E+00 -0.45593999997E+02  0.45594000000E+02  0.51100000000E-03 0.  1.
         23    2    1    2    0    0  0.00000000000E+00  0.17763568394E-14  0.00000000000E+00  0.91188000000E+02  0.91188000000E+02 0.  0.
    9900012    2    3    3    0    0  0.37807242537E+02  0.96076065521E+01 -0.19024445741E+02  0.47787271577E+02  0.20000002428E+02 0.  0.
         12    1    3    3    0    0 -0.37807242537E+02 -0.96076065521E+01  0.19024445741E+02  0.43400728423E+02  0.00000000000E+00 0. -1.
         11    1    4    4    0    0  0.77504468905E+01  0.34665399346E+01 -0.38067640640E+01  0.93047181054E+01  0.51100000000E-03 0. -1.
        -11    1    4    4    0    0  0.23090576506E+02  0.35195030819E+01 -0.21657533914E+01  0.23457453257E+02  0.51100000000E-03 0.  1.
        -12    1    4    4    0    0  0.69662191408E+01  0.26215635356E+01 -0.13051928285E+02  0.15025100214E+02  0.00000000000E+00 0.  1.
</event>
<event>
 8    1  0.8600524E-011  0.9118800E+02  0.7816164E-02  0.1184000E+00
        -11   -1    0    0    0    0  0.00000000000E+00  0.00000000000E+00  0.45593999997E+02  0.45594000000E+02  0.51100000000E-03 0. -1.
         11   -1    0    0    0    0 -0.00000000000E+00 -0.00000000000E+00 -0.45593999997E+02  0.45594000000E+02  0.51100000000E-03 0.  1.
         23    2    1    2    0    0 -0.35527136788E-14  0.00000000000E+00  0.00000000000E+00  0.91188000000E+02  0.91188000000E+02 0.  0.
    9900012    2    3    3    0    0  0.25311079484E+02  0.27855824489E+02  0.21610774100E+02  0.47787271206E+02  0.20000000737E+02 0.  0.
        -12    1    3    3    0    0 -0.25311079484E+02 -0.27855824489E+02 -0.21610774100E+02  0.43400728794E+02  0.00000000000E+00 0.  1.
         11    1    4    4    0    0  0.66315353600E+01  0.54455706468E+00  0.47839069858E+01  0.81950942605E+01  0.51100000000E-03 0. -1.
        -11    1    4    4    0    0  0.11633885202E+02  0.26214925061E+02  0.14088867276E+02  0.31954119644E+02  0.51100000000E-03 0.  1.
        -12    1    4    4    0    0  0.70456589228E+01  0.10963423639E+01  0.27379998377E+01  0.76380573018E+01  0.00000000000E+00 0.  1.
</event>
<event>
 8    1  0.8600524E-011  0.9118800E+02  0.7816164E-02  0.1184000E+00
        -11   -1    0    0    0    0  0.00000000000E+00  0.00000000000E+00  0.45593999997E+02  0.45594000000E+02  0.51100000000E-03 0. -1.
         11   -1    0    0    0    0 -0.00000000000E+00 -0.00000000000E+00 -0.45593999997E+02  0.45594000000E+02  0.51100000000E-03 0.  1.
         23    2    1    2    0    0 -0.17763568394E-14  0.00000000000E+00  0.00000000000E+00  0.91188000000E+02  0.91188000000E+02 0.  0.
    9900012    2    3    3    0    0 -0.98186634727E+01 -0.47846040168E+01 -0.42003864293E+02  0.47787271855E+02  0.20000003696E+02 0.  0.
         12    1    3    3    0    0  0.98186634727E+01  0.47846040168E+01  0.42003864293E+02  0.43400728145E+02  0.00000000000E+00 0. -1.
         11    1    4    4    0    0 -0.82423002029E+01  0.21839203184E+01 -0.68294068148E+01  0.10924551171E+02  0.51100000000E-03 0. -1.
        -11    1    4    4    0    0 -0.21136388875E+01 -0.42530324024E+01 -0.33007131073E+02  0.33347060679E+02  0.51100000000E-03 0.  1.
        -12    1    4    4    0    0  0.53727561763E+00 -0.27154919328E+01 -0.21673264044E+01  0.35156600049E+01  0.00000000000E+00 0.  1.
</event>
<event>
 8    1  0.8600524E-011  0.9118800E+02  0.7816164E-02  0.1184000E+00
        -11   -1    0    0    0    0  0.00000000000E+00  0.00000000000E+00  0.45593999997E+02  0.45594000000E+02  0.51100000000E-03 0. -1.
         11   -1    0    0    0    0 -0.00000000000E+00 -0.00000000000E+00 -0.45593999997E+02  0.45594000000E+02  0.51100000000E-03 0.  1.
         23    2    1    2    0    0  0.12212453271E-14  0.00000000000E+00  0.00000000000E+00  0.91188000000E+02  0.91188000000E+02 0.  0.
    9900012    2    3    3    0    0 -0.30772174709E+00  0.15287120557E+02 -0.40618132171E+02  0.47787269491E+02  0.19999992919E+02 0.  0.
         12    1    3    3    0    0  0.30772174709E+00 -0.15287120557E+02  0.40618132171E+02  0.43400730509E+02  0.00000000000E+00 0. -1.
         11    1    4    4    0    0  0.39507204052E+01 -0.11826845166E+00 -0.28321345446E+01  0.48624238283E+01  0.51100000000E-03 0. -1.
        -11    1    4    4    0    0 -0.60107031377E+01  0.12958464089E+02 -0.18336510942E+02  0.23243880432E+02  0.51100000000E-03 0.  1.
        -12    1    4    4    0    0  0.17522609854E+01  0.24469249193E+01 -0.19449486685E+02  0.19680965231E+02  0.00000000000E+00 0.  1.
</event>
<event>
 8    1  0.8600524E-011  0.9118800E+02  0.7816164E-02  0.1184000E+00
        -11   -1    0    0    0    0  0.00000000000E+00  0.00000000000E+00  0.45593999997E+02  0.45594000000E+02  0.51100000000E-03 0. -1.
         11   -1    0    0    0    0 -0.00000000000E+00 -0.00000000000E+00 -0.45593999997E+02  0.45594000000E+02  0.51100000000E-03 0.  1.
         23    2    1    2    0    0 -0.44408920985E-15 -0.55511151231E-16  0.00000000000E+00  0.91188000000E+02  0.91188000000E+02 0.  0.
    9900012    2    3    3    0    0  0.10513925072E+01 -0.37059110495E+00 -0.43386412201E+02  0.47787268121E+02  0.19999986671E+02 0.  0.
         12    1    3    3    0    0 -0.10513925072E+01  0.37059110495E+00  0.43386412201E+02  0.43400731879E+02  0.00000000000E+00 0. -1.
         11    1    4    4    0    0  0.11491899695E+01 -0.32433962797E+01 -0.85032022384E+00  0.35444748211E+01  0.51100000000E-03 0. -1.
        -11    1    4    4    0    0 -0.43155674833E+01 -0.53714661537E+00 -0.32891335744E+02  0.33177592083E+02  0.51100000000E-03 0.  1.
        -12    1    4    4    0    0  0.42177700211E+01  0.34099517902E+01 -0.96447562332E+01  0.11065201216E+02  0.00000000000E+00 0.  1.
</event>
<event>
 8    1  0.8600524E-011  0.9118800E+02  0.7816164E-02  0.1184000E+00
        -11   -1    0    0    0    0  0.00000000000E+00  0.00000000000E+00  0.45593999997E+02  0.45594000000E+02  0.51100000000E-03 0. -1.
         11   -1    0    0    0    0 -0.00000000000E+00 -0.00000000000E+00 -0.45593999997E+02  0.45594000000E+02  0.51100000000E-03 0.  1.
         23    2    1    2    0    0  0.00000000000E+00  0.00000000000E+00  0.00000000000E+00  0.91188000000E+02  0.91188000000E+02 0.  0.
    9900012    2    3    3    0    0  0.21084910239E+02 -0.30480523197E+02  0.22582906975E+02  0.47787269343E+02  0.19999992242E+02 0.  0.
        -12    1    3    3    0    0 -0.21084910239E+02  0.30480523197E+02 -0.22582906975E+02  0.43400730657E+02  0.00000000000E+00 0.  1.
         11    1    4    4    0    0  0.19002786464E+02 -0.13444654729E+02  0.90685607146E+01  0.24982062122E+02  0.51100000000E-03 0. -1.
        -11    1    4    4    0    0 -0.99581661389E+00 -0.79316587919E+01  0.29432203363E+01  0.85185332146E+01  0.51100000000E-03 0.  1.
         12    1    4    4    0    0  0.30779403888E+01 -0.91042096764E+01  0.10571125924E+02  0.14286674006E+02  0.00000000000E+00 0. -1.
</event>
<event>
 8    1  0.8600524E-011  0.9118800E+02  0.7816164E-02  0.1184000E+00
        -11   -1    0    0    0    0  0.00000000000E+00  0.00000000000E+00  0.45593999997E+02  0.45594000000E+02  0.51100000000E-03 0. -1.
         11   -1    0    0    0    0 -0.00000000000E+00 -0.00000000000E+00 -0.45593999997E+02  0.45594000000E+02  0.51100000000E-03 0.  1.
         23    2    1    2    0    0  0.35527136788E-14  0.00000000000E+00  0.00000000000E+00  0.91188000000E+02  0.91188000000E+02 0.  0.
    9900012    2    3    3    0    0 -0.21389447744E+02 -0.17588512436E+02  0.33417941304E+02  0.47787273675E+02  0.20000011996E+02 0.  0.
        -12    1    3    3    0    0  0.21389447744E+02  0.17588512436E+02 -0.33417941304E+02  0.43400726325E+02  0.00000000000E+00 0.  1.
         11    1    4    4    0    0 -0.18207584672E+02 -0.98968571309E+01  0.14312030414E+02  0.25185276164E+02  0.51100000000E-03 0. -1.
        -11    1    4    4    0    0  0.23096708429E+01 -0.12597883338E+00  0.65611751812E+01  0.69569727676E+01  0.51100000000E-03 0.  1.
         12    1    4    4    0    0 -0.54915339147E+01 -0.75656764716E+01  0.12544735709E+02  0.15645024744E+02  0.00000000000E+00 0. -1.
</event>
<event>
 8    1  0.8600524E-011  0.9118800E+02  0.7816164E-02  0.1184000E+00
        -11   -1    0    0    0    0  0.00000000000E+00  0.00000000000E+00  0.45593999997E+02  0.45594000000E+02  0.51100000000E-03 0. -1.
         11   -1    0    0    0    0 -0.00000000000E+00 -0.00000000000E+00 -0.45593999997E+02  0.45594000000E+02  0.51100000000E-03 0.  1.
         23    2    1    2    0    0  0.00000000000E+00  0.00000000000E+00 -0.35527136788E-14  0.91188000000E+02  0.91188000000E+02 0.  0.
    9900012    2    3    3    0    0  0.23211541750E+02  0.18964410248E+02 -0.31387880385E+02  0.47787267731E+02  0.19999984891E+02 0.  0.
         12    1    3    3    0    0 -0.23211541750E+02 -0.18964410248E+02  0.31387880385E+02  0.43400732269E+02  0.00000000000E+00 0. -1.
         11    1    4    4    0    0  0.93874861675E+01  0.14881572016E+02 -0.26872115899E+02  0.32120035731E+02  0.51100000000E-03 0. -1.
        -11    1    4    4    0    0  0.86479574451E+01  0.15593818849E+01 -0.82173115837E+00  0.88257624143E+01  0.51100000000E-03 0.  1.
         12    1    4    4    0    0  0.51760981379E+01  0.25234563464E+01 -0.36940333277E+01  0.68414695857E+01  0.00000000000E+00 0. -1.
</event>
<event>
 8    1  0.1336384E-010  0.9118800E+02  0.7816164E-02  0.1184000E+00
        -11   -1    0    0    0    0  0.00000000000E+00  0.00000000000E+00  0.45593999997E+02  0.45594000000E+02  0.51100000000E-03 0. -1.
         11   -1    0    0    0    0 -0.00000000000E+00 -0.00000000000E+00 -0.45593999997E+02  0.45594000000E+02  0.51100000000E-03 0.  1.
         23    2    1    2    0    0 -0.35527136788E-14  0.35527136788E-14 -0.35527136788E-14  0.91188000000E+02  0.91188000000E+02 0.  0.
    9900012    2    3    3    0    0  0.26046790521E+02 -0.25299728189E+02  0.23772081018E+02  0.47787269835E+02  0.19999994486E+02 0.  0.
        -12    1    3    3    0    0 -0.26046790521E+02  0.25299728189E+02 -0.23772081018E+02  0.43400730165E+02  0.00000000000E+00 0.  1.
         11    1    4    4    0    0  0.16494815163E+02 -0.12150351745E+02  0.11768868892E+02  0.23626600476E+02  0.51100000000E-03 0. -1.
        -11    1    4    4    0    0  0.39357196927E+00 -0.97388857682E+01  0.15827131874E+01  0.98745013137E+01  0.51100000000E-03 0.  1.
        -12    1    4    4    0    0  0.91584033886E+01 -0.34104906763E+01  0.10420498939E+02  0.14286168045E+02  0.00000000000E+00 0.  1.
</event>
<event>
 8    1  0.8600524E-011  0.9118800E+02  0.7816164E-02  0.1184000E+00
        -11   -1    0    0    0    0  0.00000000000E+00  0.00000000000E+00  0.45593999997E+02  0.45594000000E+02  0.51100000000E-03 0. -1.
         11   -1    0    0    0    0 -0.00000000000E+00 -0.00000000000E+00 -0.45593999997E+02  0.45594000000E+02  0.51100000000E-03 0.  1.
         23    2    1    2    0    0  0.35527136788E-14  0.00000000000E+00  0.00000000000E+00  0.91188000000E+02  0.91188000000E+02 0.  0.
    9900012    2    3    3    0    0  0.20609272060E+02  0.22732322299E+02 -0.30694017861E+02  0.47787270692E+02  0.19999998395E+02 0.  0.
         12    1    3    3    0    0 -0.20609272060E+02 -0.22732322299E+02  0.30694017861E+02  0.43400729308E+02  0.00000000000E+00 0. -1.
         11    1    4    4    0    0  0.87323840072E+01  0.23166299305E+01 -0.14702970770E+02  0.17256843698E+02  0.51100000000E-03 0. -1.
        -11    1    4    4    0    0  0.66755310925E+01  0.70916346288E+01 -0.12428881974E+02  0.15790221799E+02  0.51100000000E-03 0.  1.
         12    1    4    4    0    0  0.52013569600E+01  0.13324057740E+02 -0.35621651172E+01  0.14740205196E+02  0.00000000000E+00 0. -1.
</event>
<event>
 8    1  0.8600524E-011  0.9118800E+02  0.7816164E-02  0.1184000E+00
        -11   -1    0    0    0    0  0.00000000000E+00  0.00000000000E+00  0.45593999997E+02  0.45594000000E+02  0.51100000000E-03 0. -1.
         11   -1    0    0    0    0 -0.00000000000E+00 -0.00000000000E+00 -0.45593999997E+02  0.45594000000E+02  0.51100000000E-03 0.  1.
         23    2    1    2    0    0  0.00000000000E+00  0.00000000000E+00  0.00000000000E+00  0.91188000000E+02  0.91188000000E+02 0.  0.
    9900012    2    3    3    0    0  0.21518074883E+02  0.57283681612E+01 -0.37252941721E+02  0.47787269415E+02  0.19999992569E+02 0.  0.
         12    1    3    3    0    0 -0.21518074883E+02 -0.57283681612E+01  0.37252941721E+02  0.43400730585E+02  0.00000000000E+00 0. -1.
         11    1    4    4    0    0 -0.18302085079E+01  0.81697540914E-01  0.90472492259E+00  0.20432486675E+01  0.51100000000E-03 0. -1.
        -11    1    4    4    0    0  0.16110985743E+02  0.57044496192E+01 -0.20689110513E+02  0.26835497036E+02  0.51100000000E-03 0.  1.
        -12    1    4    4    0    0  0.72372976478E+01 -0.57778998864E-01 -0.17468556131E+02  0.18908523712E+02  0.00000000000E+00 0.  1.
</event>
<event>
 8    1  0.8600524E-011  0.9118800E+02  0.7816164E-02  0.1184000E+00
        -11   -1    0    0    0    0  0.00000000000E+00  0.00000000000E+00  0.45593999997E+02  0.45594000000E+02  0.51100000000E-03 0. -1.
         11   -1    0    0    0    0 -0.00000000000E+00 -0.00000000000E+00 -0.45593999997E+02  0.45594000000E+02  0.51100000000E-03 0.  1.
         23    2    1    2    0    0  0.00000000000E+00  0.00000000000E+00  0.00000000000E+00  0.91188000000E+02  0.91188000000E+02 0.  0.
    9900012    2    3    3    0    0 -0.26205898420E+02 -0.34492445459E+02 -0.26731433026E+01  0.47787267278E+02  0.19999982825E+02 0.  0.
         12    1    3    3    0    0  0.26205898420E+02  0.34492445459E+02  0.26731433026E+01  0.43400732722E+02  0.00000000000E+00 0. -1.
         11    1    4    4    0    0 -0.20044166542E+01 -0.16794473919E+02 -0.14361912267E+01  0.16974530504E+02  0.51100000000E-03 0. -1.
        -11    1    4    4    0    0 -0.18962750940E+01 -0.39293292917E+01 -0.14552900509E+01  0.45992779116E+01  0.51100000000E-03 0.  1.
         12    1    4    4    0    0 -0.22305206672E+02 -0.13768642248E+02  0.21833797503E+00  0.26213458862E+02  0.00000000000E+00 0. -1.
</event>
<event>
 8    1  0.8600524E-011  0.9118800E+02  0.7816164E-02  0.1184000E+00
        -11   -1    0    0    0    0  0.00000000000E+00  0.00000000000E+00  0.45593999997E+02  0.45594000000E+02  0.51100000000E-03 0.  1.
         11   -1    0    0    0    0 -0.00000000000E+00 -0.00000000000E+00 -0.45593999997E+02  0.45594000000E+02  0.51100000000E-03 0. -1.
         23    2    1    2    0    0  0.00000000000E+00  0.00000000000E+00 -0.88817841970E-15  0.91188000000E+02  0.91188000000E+02 0.  0.
    9900012    2    3    3    0    0 -0.15803688960E+02 -0.40169440820E+02  0.45036184359E+01  0.47787272592E+02  0.20000007055E+02 0.  0.
        -12    1    3    3    0    0  0.15803688960E+02  0.40169440820E+02 -0.45036184359E+01  0.43400727408E+02  0.00000000000E+00 0.  1.
         11    1    4    4    0    0 -0.59021237385E+00 -0.15973740757E+01 -0.28757966414E+01  0.33421791047E+01  0.51100000000E-03 0. -1.
        -11    1    4    4    0    0 -0.15046234477E+02 -0.38455018393E+02  0.44773065282E+01  0.41535814492E+02  0.51100000000E-03 0.  1.
        -12    1    4    4    0    0 -0.16724210836E+00 -0.11704835189E+00  0.29021085491E+01  0.29092789950E+01  0.00000000000E+00 0.  1.
</event>
<event>
 8    1  0.8600524E-011  0.9118800E+02  0.7816164E-02  0.1184000E+00
        -11   -1    0    0    0    0  0.00000000000E+00  0.00000000000E+00  0.45593999997E+02  0.45594000000E+02  0.51100000000E-03 0.  1.
         11   -1    0    0    0    0 -0.00000000000E+00 -0.00000000000E+00 -0.45593999997E+02  0.45594000000E+02  0.51100000000E-03 0. -1.
         23    2    1    2    0    0  0.00000000000E+00  0.00000000000E+00  0.00000000000E+00  0.91188000000E+02  0.91188000000E+02 0.  0.
    9900012    2    3    3    0    0  0.20095511173E+02  0.38340727231E+02 -0.31276897445E+01  0.47787269856E+02  0.19999994581E+02 0.  0.
         12    1    3    3    0    0 -0.20095511173E+02 -0.38340727231E+02  0.31276897445E+01  0.43400730144E+02  0.00000000000E+00 0. -1.
         11    1    4    4    0    0 -0.11451762585E+01  0.10959871286E+02 -0.14535764063E+01  0.11114994012E+02  0.51100000000E-03 0. -1.
        -11    1    4    4    0    0  0.15685104036E+02  0.11838580360E+02  0.20315301489E+01  0.19756051948E+02  0.51100000000E-03 0.  1.
        -12    1    4    4    0    0  0.55555833951E+01  0.15542275586E+02 -0.37056434871E+01  0.16916223896E+02  0.00000000000E+00 0.  1.
</event>
<event>
 8    1  0.8600524E-011  0.9118800E+02  0.7816164E-02  0.1184000E+00
        -11   -1    0    0    0    0  0.00000000000E+00  0.00000000000E+00  0.45593999997E+02  0.45594000000E+02  0.51100000000E-03 0. -1.
         11   -1    0    0    0    0 -0.00000000000E+00 -0.00000000000E+00 -0.45593999997E+02  0.45594000000E+02  0.51100000000E-03 0.  1.
         23    2    1    2    0    0  0.00000000000E+00 -0.44408920985E-15 -0.35527136788E-14  0.91188000000E+02  0.91188000000E+02 0.  0.
    9900012    2    3    3    0    0  0.39988790010E+02  0.38153041670E+01  0.16430527681E+02  0.47787284427E+02  0.20000061018E+02 0.  0.
        -12    1    3    3    0    0 -0.39988790010E+02 -0.38153041670E+01 -0.16430527681E+02  0.43400715573E+02  0.00000000000E+00 0.  1.
         11    1    4    4    0    0  0.32912588868E+02  0.44283248586E+01  0.18958300030E+02  0.38239582992E+02  0.51100000000E-03 0. -1.
        -11    1    4    4    0    0  0.33961158328E+01 -0.28304997576E+01 -0.28157158556E+01  0.52415253188E+01  0.51100000000E-03 0.  1.
         12    1    4    4    0    0  0.36800853087E+01  0.22174790660E+01  0.28794350625E+00  0.43061761170E+01  0.00000000000E+00 0. -1.
</event>
<event>
 8    1  0.8600524E-011  0.9118800E+02  0.7816164E-02  0.1184000E+00
        -11   -1    0    0    0    0  0.00000000000E+00  0.00000000000E+00  0.45593999997E+02  0.45594000000E+02  0.51100000000E-03 0. -1.
         11   -1    0    0    0    0 -0.00000000000E+00 -0.00000000000E+00 -0.45593999997E+02  0.45594000000E+02  0.51100000000E-03 0.  1.
         23    2    1    2    0    0  0.00000000000E+00  0.00000000000E+00 -0.71054273576E-14  0.91188000000E+02  0.91188000000E+02 0.  0.
    9900012    2    3    3    0    0 -0.27512156930E+02 -0.53808719779E+01  0.33132312131E+02  0.47787278009E+02  0.20000031754E+02 0.  0.
        -12    1    3    3    0    0  0.27512156930E+02  0.53808719779E+01 -0.33132312131E+02  0.43400721991E+02  0.00000000000E+00 0.  1.
         11    1    4    4    0    0 -0.46337072976E+01 -0.23826683980E+01  0.95579640572E+00  0.52973483032E+01  0.51100000000E-03 0. -1.
        -11    1    4    4    0    0 -0.73337092493E+01  0.69401248413E+00  0.96856993094E+00  0.74298770282E+01  0.51100000000E-03 0.  1.
         12    1    4    4    0    0 -0.15544740383E+02 -0.36922160640E+01  0.31207945795E+02  0.35060052678E+02  0.00000000000E+00 0. -1.
</event>
<event>
 8    1  0.8600524E-011  0.9118800E+02  0.7816164E-02  0.1184000E+00
        -11   -1    0    0    0    0  0.00000000000E+00  0.00000000000E+00  0.45593999997E+02  0.45594000000E+02  0.51100000000E-03 0.  1.
         11   -1    0    0    0    0 -0.00000000000E+00 -0.00000000000E+00 -0.45593999997E+02  0.45594000000E+02  0.51100000000E-03 0. -1.
         23    2    1    2    0    0  0.00000000000E+00  0.00000000000E+00  0.00000000000E+00  0.91188000000E+02  0.91188000000E+02 0.  0.
    9900012    2    3    3    0    0 -0.35499762609E+02  0.22205203238E+02  0.11415740673E+02  0.47787270383E+02  0.19999996985E+02 0.  0.
        -12    1    3    3    0    0  0.35499762609E+02 -0.22205203238E+02 -0.11415740673E+02  0.43400729617E+02  0.00000000000E+00 0.  1.
         11    1    4    4    0    0 -0.22943098377E+02  0.17719068256E+02  0.89078914268E+01  0.30326583601E+02  0.51100000000E-03 0.  1.
        -11    1    4    4    0    0 -0.87880839128E+01  0.45917793257E+00 -0.33489502136E+01  0.94157703363E+01  0.51100000000E-03 0. -1.
         12    1    4    4    0    0 -0.37685803199E+01  0.40269570493E+01  0.58567994596E+01  0.80449164455E+01  0.00000000000E+00 0. -1.
</event>
<event>
 8    1  0.8600524E-011  0.9118800E+02  0.7816164E-02  0.1184000E+00
        -11   -1    0    0    0    0  0.00000000000E+00  0.00000000000E+00  0.45593999997E+02  0.45594000000E+02  0.51100000000E-03 0. -1.
         11   -1    0    0    0    0 -0.00000000000E+00 -0.00000000000E+00 -0.45593999997E+02  0.45594000000E+02  0.51100000000E-03 0.  1.
         23    2    1    2    0    0  0.17763568394E-14  0.00000000000E+00  0.00000000000E+00  0.91188000000E+02  0.91188000000E+02 0.  0.
    9900012    2    3    3    0    0  0.14927850109E+02 -0.29276828081E+02 -0.28348713839E+02  0.47787274803E+02  0.20000017135E+02 0.  0.
         12    1    3    3    0    0 -0.14927850109E+02  0.29276828081E+02  0.28348713839E+02  0.43400725197E+02  0.00000000000E+00 0. -1.
         11    1    4    4    0    0  0.97417332786E+00 -0.15760449241E+02 -0.18403438254E+02  0.24249274500E+02  0.51100000000E-03 0. -1.
        -11    1    4    4    0    0  0.74099644677E+01 -0.12084292675E+02 -0.89541986614E+01  0.16766495662E+02  0.51100000000E-03 0.  1.
         12    1    4    4    0    0  0.65437123133E+01 -0.14320861647E+01 -0.99107692351E+00  0.67715046401E+01  0.00000000000E+00 0. -1.
</event>
<event>
 8    1  0.8600524E-011  0.9118800E+02  0.7816164E-02  0.1184000E+00
        -11   -1    0    0    0    0  0.00000000000E+00  0.00000000000E+00  0.45593999997E+02  0.45594000000E+02  0.51100000000E-03 0. -1.
         11   -1    0    0    0    0 -0.00000000000E+00 -0.00000000000E+00 -0.45593999997E+02  0.45594000000E+02  0.51100000000E-03 0.  1.
         23    2    1    2    0    0  0.44408920985E-15  0.35527136788E-14  0.00000000000E+00  0.91188000000E+02  0.91188000000E+02 0.  0.
    9900012    2    3    3    0    0  0.14357702374E+01 -0.19565766258E+02  0.38713597472E+02  0.47787271035E+02  0.19999999957E+02 0.  0.
        -12    1    3    3    0    0 -0.14357702374E+01  0.19565766258E+02 -0.38713597472E+02  0.43400728965E+02  0.00000000000E+00 0.  1.
         11    1    4    4    0    0  0.27062389384E+01 -0.16594648519E+02  0.20925127113E+02  0.26843379698E+02  0.51100000000E-03 0. -1.
        -11    1    4    4    0    0  0.33617799478E+01  0.19064077063E+01  0.95873895162E+01  0.10337020497E+02  0.51100000000E-03 0.  1.
         12    1    4    4    0    0 -0.46322486489E+01 -0.48775254460E+01  0.82010808435E+01  0.10606870840E+02  0.00000000000E+00 0. -1.
</event>
<event>
 8    1  0.8600524E-011  0.9118800E+02  0.7816164E-02  0.1184000E+00
        -11   -1    0    0    0    0  0.00000000000E+00  0.00000000000E+00  0.45593999997E+02  0.45594000000E+02  0.51100000000E-03 0. -1.
         11   -1    0    0    0    0 -0.00000000000E+00 -0.00000000000E+00 -0.45593999997E+02  0.45594000000E+02  0.51100000000E-03 0.  1.
         23    2    1    2    0    0  0.88817841970E-15 -0.22204460493E-15  0.71054273576E-14  0.91188000000E+02  0.91188000000E+02 0.  0.
    9900012    2    3    3    0    0 -0.62317164767E+01 -0.93808947982E+00 -0.42940759810E+02  0.47787272412E+02  0.20000006235E+02 0.  0.
         12    1    3    3    0    0  0.62317164767E+01  0.93808947982E+00  0.42940759810E+02  0.43400727588E+02  0.00000000000E+00 0. -1.
         11    1    4    4    0    0 -0.13116502729E+01  0.39077277378E+01 -0.29499531491E+02  0.29786122960E+02  0.51100000000E-03 0.  1.
        -11    1    4    4    0    0 -0.51343759122E+01 -0.17123649304E+01 -0.14469455213E+01  0.56024692115E+01  0.51100000000E-03 0. -1.
        -12    1    4    4    0    0  0.21430970839E+00 -0.31334522872E+01 -0.11994282797E+02  0.12398680241E+02  0.00000000000E+00 0.  1.
</event>
<event>
 8    1  0.8600524E-011  0.9118800E+02  0.7816164E-02  0.1184000E+00
        -11   -1    0    0    0    0  0.00000000000E+00  0.00000000000E+00  0.45593999997E+02  0.45594000000E+02  0.51100000000E-03 0. -1.
         11   -1    0    0    0    0 -0.00000000000E+00 -0.00000000000E+00 -0.45593999997E+02  0.45594000000E+02  0.51100000000E-03 0.  1.
         23    2    1    2    0    0  0.00000000000E+00  0.00000000000E+00  0.35527136788E-14  0.91188000000E+02  0.91188000000E+02 0.  0.
    9900012    2    3    3    0    0  0.32279193653E+02  0.11165403500E+02 -0.26777055647E+02  0.47787270890E+02  0.19999999294E+02 0.  0.
         12    1    3    3    0    0 -0.32279193653E+02 -0.11165403500E+02  0.26777055647E+02  0.43400729110E+02  0.00000000000E+00 0. -1.
         11    1    4    4    0    0  0.26049047875E+02  0.49153439144E+01 -0.14151468889E+02  0.30049585238E+02  0.51100000000E-03 0. -1.
        -11    1    4    4    0    0  0.51732498045E+01  0.77238569901E+01 -0.12902920515E+02  0.15903013501E+02  0.51100000000E-03 0.  1.
        -12    1    4    4    0    0  0.10568959739E+01 -0.14737974043E+01  0.27733375697E+00  0.18346721509E+01  0.00000000000E+00 0.  1.
</event>
<event>
 8    1  0.8600524E-011  0.9118800E+02  0.7816164E-02  0.1184000E+00
        -11   -1    0    0    0    0  0.00000000000E+00  0.00000000000E+00  0.45593999997E+02  0.45594000000E+02  0.51100000000E-03 0. -1.
         11   -1    0    0    0    0 -0.00000000000E+00 -0.00000000000E+00 -0.45593999997E+02  0.45594000000E+02  0.51100000000E-03 0.  1.
         23    2    1    2    0    0  0.17763568394E-14  0.00000000000E+00  0.71054273576E-14  0.91188000000E+02  0.91188000000E+02 0.  0.
    9900012    2    3    3    0    0 -0.12133870879E+02  0.23393930009E+02  0.34483544998E+02  0.47787289643E+02  0.20000084800E+02 0.  0.
        -12    1    3    3    0    0  0.12133870879E+02 -0.23393930009E+02 -0.34483544998E+02  0.43400710357E+02  0.00000000000E+00 0.  1.
         11    1    4    4    0    0 -0.16122167239E+00  0.12023908408E+01  0.86878553272E+00  0.14921543903E+01  0.51100000000E-03 0. -1.
        -11    1    4    4    0    0 -0.14115623168E+02  0.12278091727E+02  0.11486381552E+02  0.21953116300E+02  0.51100000000E-03 0.  1.
        -12    1    4    4    0    0  0.21429739614E+01  0.99134474416E+01  0.22128377914E+02  0.24342018953E+02  0.00000000000E+00 0.  1.
</event>
<event>
 8    1  0.8600524E-011  0.9118800E+02  0.7816164E-02  0.1184000E+00
        -11   -1    0    0    0    0  0.00000000000E+00  0.00000000000E+00  0.45593999997E+02  0.45594000000E+02  0.51100000000E-03 0.  1.
         11   -1    0    0    0    0 -0.00000000000E+00 -0.00000000000E+00 -0.45593999997E+02  0.45594000000E+02  0.51100000000E-03 0. -1.
         23    2    1    2    0    0 -0.35527136788E-14  0.71054273576E-14  0.00000000000E+00  0.91188000000E+02  0.91188000000E+02 0.  0.
    9900012    2    3    3    0    0  0.28556478030E+02 -0.32650231093E+02 -0.14537653823E+01  0.47787268881E+02  0.19999990134E+02 0.  0.
        -12    1    3    3    0    0 -0.28556478030E+02  0.32650231093E+02  0.14537653823E+01  0.43400731119E+02  0.00000000000E+00 0.  1.
         11    1    4    4    0    0  0.23157286807E+02 -0.12424350494E+02 -0.19684352816E+01  0.26353351877E+02  0.51100000000E-03 0. -1.
        -11    1    4    4    0    0  0.58609400985E+01 -0.16315916295E+02  0.14177666838E+01  0.17394533797E+02  0.51100000000E-03 0.  1.
         12    1    4    4    0    0 -0.46174887563E+00 -0.39099643047E+01 -0.90309678451E+00  0.40393832067E+01  0.00000000000E+00 0. -1.
</event>
<event>
 8    1  0.8600524E-011  0.9118800E+02  0.7816164E-02  0.1184000E+00
        -11   -1    0    0    0    0  0.00000000000E+00  0.00000000000E+00  0.45593999997E+02  0.45594000000E+02  0.51100000000E-03 0.  1.
         11   -1    0    0    0    0 -0.00000000000E+00 -0.00000000000E+00 -0.45593999997E+02  0.45594000000E+02  0.51100000000E-03 0. -1.
         23    2    1    2    0    0  0.00000000000E+00  0.35527136788E-14  0.00000000000E+00  0.91188000000E+02  0.91188000000E+02 0.  0.
    9900012    2    3    3    0    0 -0.25382246131E+02 -0.23666109460E+02  0.26063007392E+02  0.47787268324E+02  0.19999987598E+02 0.  0.
        -12    1    3    3    0    0  0.25382246131E+02  0.23666109460E+02 -0.26063007392E+02  0.43400731676E+02  0.00000000000E+00 0.  1.
         11    1    4    4    0    0 -0.39102697717E+01 -0.27022964263E+01  0.13222944695E+01  0.49336678636E+01  0.51100000000E-03 0. -1.
        -11    1    4    4    0    0 -0.12389966940E+02 -0.11142458624E+01  0.49486431566E+01  0.13388125111E+02  0.51100000000E-03 0.  1.
        -12    1    4    4    0    0 -0.90820094190E+01 -0.19849567171E+02  0.19792069766E+02  0.29465475350E+02  0.00000000000E+00 0.  1.
</event>
<event>
 8    1  0.8600524E-011  0.9118800E+02  0.7816164E-02  0.1184000E+00
        -11   -1    0    0    0    0  0.00000000000E+00  0.00000000000E+00  0.45593999997E+02  0.45594000000E+02  0.51100000000E-03 0. -1.
         11   -1    0    0    0    0 -0.00000000000E+00 -0.00000000000E+00 -0.45593999997E+02  0.45594000000E+02  0.51100000000E-03 0.  1.
         23    2    1    2    0    0  0.00000000000E+00  0.00000000000E+00  0.00000000000E+00  0.91188000000E+02  0.91188000000E+02 0.  0.
    9900012    2    3    3    0    0 -0.90757069271E+01  0.35247046823E+02  0.23641080837E+02  0.47787268795E+02  0.19999989746E+02 0.  0.
        -12    1    3    3    0    0  0.90757069271E+01 -0.35247046823E+02 -0.23641080837E+02  0.43400731205E+02  0.00000000000E+00 0.  1.
         11    1    4    4    0    0  0.20342383210E+01  0.61302353760E+01  0.91451041641E+01  0.11196019013E+02  0.51100000000E-03 0.  1.
        -11    1    4    4    0    0 -0.29114584643E+01  0.20956636849E+02  0.52939808111E+01  0.21810168535E+02  0.51100000000E-03 0. -1.
        -12    1    4    4    0    0 -0.81984867838E+01  0.81601745976E+01  0.92019958618E+01  0.14781081248E+02  0.00000000000E+00 0.  1.
</event>
<event>
 8    1  0.8600524E-011  0.9118800E+02  0.7816164E-02  0.1184000E+00
        -11   -1    0    0    0    0  0.00000000000E+00  0.00000000000E+00  0.45593999997E+02  0.45594000000E+02  0.51100000000E-03 0. -1.
         11   -1    0    0    0    0 -0.00000000000E+00 -0.00000000000E+00 -0.45593999997E+02  0.45594000000E+02  0.51100000000E-03 0.  1.
         23    2    1    2    0    0  0.00000000000E+00  0.22204460493E-15  0.00000000000E+00  0.91188000000E+02  0.91188000000E+02 0.  0.
    9900012    2    3    3    0    0 -0.83566953926E+01  0.12607183947E+01  0.42569944797E+02  0.47787263039E+02  0.19999963500E+02 0.  0.
        -12    1    3    3    0    0  0.83566953926E+01 -0.12607183947E+01 -0.42569944797E+02  0.43400736961E+02  0.00000000000E+00 0.  1.
         11    1    4    4    0    0  0.23992384660E+01  0.16995120804E+01 -0.24458450648E-01  0.29402865516E+01  0.51100000000E-03 0. -1.
        -11    1    4    4    0    0 -0.14371378174E+01 -0.73530997173E+00  0.43915379556E+00  0.16729919838E+01  0.51100000000E-03 0.  1.
         12    1    4    4    0    0 -0.93187960412E+01  0.29651628601E+00  0.42155249452E+02  0.43173984504E+02  0.00000000000E+00 0. -1.
</event>
<event>
 8    1  0.8600524E-011  0.9118800E+02  0.7816164E-02  0.1184000E+00
        -11   -1    0    0    0    0  0.00000000000E+00  0.00000000000E+00  0.45593999997E+02  0.45594000000E+02  0.51100000000E-03 0. -1.
         11   -1    0    0    0    0 -0.00000000000E+00 -0.00000000000E+00 -0.45593999997E+02  0.45594000000E+02  0.51100000000E-03 0.  1.
         23    2    1    2    0    0  0.35527136788E-14  0.00000000000E+00  0.00000000000E+00  0.91188000000E+02  0.91188000000E+02 0.  0.
    9900012    2    3    3    0    0 -0.27803926151E+02  0.17927036127E+02 -0.28092462028E+02  0.47787270092E+02  0.19999995660E+02 0.  0.
         12    1    3    3    0    0  0.27803926151E+02 -0.17927036127E+02  0.28092462028E+02  0.43400729908E+02  0.00000000000E+00 0. -1.
         11    1    4    4    0    0 -0.42163030900E+01  0.18258628334E+01 -0.24424937527E+01  0.52035336865E+01  0.51100000000E-03 0. -1.
        -11    1    4    4    0    0 -0.22129594203E+02  0.17106603507E+02 -0.14905548557E+02  0.31694324431E+02  0.51100000000E-03 0.  1.
        -12    1    4    4    0    0 -0.14580288585E+01 -0.10054302132E+01 -0.10744419719E+02  0.10889411975E+02  0.00000000000E+00 0.  1.
</event>
<event>
 8    1  0.8600524E-011  0.9118800E+02  0.7816164E-02  0.1184000E+00
        -11   -1    0    0    0    0  0.00000000000E+00  0.00000000000E+00  0.45593999997E+02  0.45594000000E+02  0.51100000000E-03 0. -1.
         11   -1    0    0    0    0 -0.00000000000E+00 -0.00000000000E+00 -0.45593999997E+02  0.45594000000E+02  0.51100000000E-03 0.  1.
         23    2    1    2    0    0 -0.88817841970E-15  0.00000000000E+00  0.00000000000E+00  0.91188000000E+02  0.91188000000E+02 0.  0.
    9900012    2    3    3    0    0 -0.18342614209E+01 -0.24762177019E+02 -0.35596250020E+02  0.47787274878E+02  0.20000017478E+02 0.  0.
         12    1    3    3    0    0  0.18342614209E+01  0.24762177019E+02  0.35596250020E+02  0.43400725122E+02  0.00000000000E+00 0. -1.
         11    1    4    4    0    0  0.63604065721E+01 -0.47367245145E+01 -0.39622160864E+01  0.88651276057E+01  0.51100000000E-03 0. -1.
        -11    1    4    4    0    0  0.43708057913E+00 -0.43452382650E+01 -0.95061185143E+01  0.10461282162E+02  0.51100000000E-03 0.  1.
         12    1    4    4    0    0 -0.86317485721E+01 -0.15680214239E+02 -0.22127915419E+02  0.28460865110E+02  0.00000000000E+00 0. -1.
</event>
<event>
 8    1  0.8600524E-011  0.9118800E+02  0.7816164E-02  0.1184000E+00
        -11   -1    0    0    0    0  0.00000000000E+00  0.00000000000E+00  0.45593999997E+02  0.45594000000E+02  0.51100000000E-03 0. -1.
         11   -1    0    0    0    0 -0.00000000000E+00 -0.00000000000E+00 -0.45593999997E+02  0.45594000000E+02  0.51100000000E-03 0.  1.
         23    2    1    2    0    0  0.00000000000E+00  0.00000000000E+00  0.00000000000E+00  0.91188000000E+02  0.91188000000E+02 0.  0.
    9900012    2    3    3    0    0  0.35674744928E+02 -0.16417049474E+01 -0.24662532422E+02  0.47787272745E+02  0.20000007752E+02 0.  0.
         12    1    3    3    0    0 -0.35674744928E+02  0.16417049474E+01  0.24662532422E+02  0.43400727255E+02  0.00000000000E+00 0. -1.
         11    1    4    4    0    0  0.85277734598E+01 -0.27731984375E+01 -0.22032297952E+01  0.92340549895E+01  0.51100000000E-03 0. -1.
        -11    1    4    4    0    0 -0.18513409987E+01 -0.76296637664E+00 -0.33645306542E+00  0.20304635214E+01  0.51100000000E-03 0.  1.
        -12    1    4    4    0    0  0.28998312467E+02  0.18944598668E+01 -0.22122849561E+02  0.36522754234E+02  0.00000000000E+00 0.  1.
</event>
<event>
 8    1  0.8600524E-011  0.9118800E+02  0.7816164E-02  0.1184000E+00
        -11   -1    0    0    0    0  0.00000000000E+00  0.00000000000E+00  0.45593999997E+02  0.45594000000E+02  0.51100000000E-03 0. -1.
         11   -1    0    0    0    0 -0.00000000000E+00 -0.00000000000E+00 -0.45593999997E+02  0.45594000000E+02  0.51100000000E-03 0.  1.
         23    2    1    2    0    0  0.88817841970E-15 -0.17763568394E-14 -0.71054273576E-14  0.91188000000E+02  0.91188000000E+02 0.  0.
    9900012    2    3    3    0    0  0.61032929533E+01  0.94496400983E+01 -0.41917509548E+02  0.47787268559E+02  0.19999988670E+02 0.  0.
         12    1    3    3    0    0 -0.61032929533E+01 -0.94496400983E+01  0.41917509548E+02  0.43400731441E+02  0.00000000000E+00 0. -1.
         11    1    4    4    0    0  0.32793831512E+01  0.13105267366E+02 -0.19983943272E+02  0.24121782180E+02  0.51100000000E-03 0. -1.
        -11    1    4    4    0    0  0.83510869792E+00  0.85229111902E+00 -0.15578461244E+02  0.15624092347E+02  0.51100000000E-03 0.  1.
         12    1    4    4    0    0  0.19888011042E+01 -0.45079183865E+01 -0.63551050326E+01  0.80413940325E+01  0.00000000000E+00 0. -1.
</event>
<event>
 8    1  0.8600524E-011  0.9118800E+02  0.7816164E-02  0.1184000E+00
        -11   -1    0    0    0    0  0.00000000000E+00  0.00000000000E+00  0.45593999997E+02  0.45594000000E+02  0.51100000000E-03 0. -1.
         11   -1    0    0    0    0 -0.00000000000E+00 -0.00000000000E+00 -0.45593999997E+02  0.45594000000E+02  0.51100000000E-03 0.  1.
         23    2    1    2    0    0  0.00000000000E+00  0.17763568394E-14  0.00000000000E+00  0.91188000000E+02  0.91188000000E+02 0.  0.
    9900012    2    3    3    0    0 -0.28862559283E+02  0.11455745997E+02 -0.30320644162E+02  0.47787275269E+02  0.20000019263E+02 0.  0.
         12    1    3    3    0    0  0.28862559283E+02 -0.11455745997E+02  0.30320644162E+02  0.43400724731E+02  0.00000000000E+00 0. -1.
         11    1    4    4    0    0 -0.11488412770E+02  0.14071846087E+02 -0.18053874113E+02  0.25611381278E+02  0.51100000000E-03 0. -1.
        -11    1    4    4    0    0 -0.15249639749E+02 -0.19502023360E+00 -0.99945754835E+01  0.18234063857E+02  0.51100000000E-03 0.  1.
         12    1    4    4    0    0 -0.21245067642E+01 -0.24210798560E+01 -0.22721945662E+01  0.39418301342E+01  0.00000000000E+00 0. -1.
</event>
<event>
 8    1  0.8600524E-011  0.9118800E+02  0.7816164E-02  0.1184000E+00
        -11   -1    0    0    0    0  0.00000000000E+00  0.00000000000E+00  0.45593999997E+02  0.45594000000E+02  0.51100000000E-03 0. -1.
         11   -1    0    0    0    0 -0.00000000000E+00 -0.00000000000E+00 -0.45593999997E+02  0.45594000000E+02  0.51100000000E-03 0.  1.
         23    2    1    2    0    0  0.00000000000E+00  0.00000000000E+00  0.00000000000E+00  0.91188000000E+02  0.91188000000E+02 0.  0.
    9900012    2    3    3    0    0  0.21806823209E+01 -0.16567030296E+02 -0.40054981565E+02  0.47787269402E+02  0.19999992514E+02 0.  0.
         12    1    3    3    0    0 -0.21806823209E+01  0.16567030296E+02  0.40054981565E+02  0.43400730598E+02  0.00000000000E+00 0. -1.
         11    1    4    4    0    0 -0.89007267800E+00 -0.19225087098E+01  0.41002913520E-01  0.21189503560E+01  0.51100000000E-03 0. -1.
        -11    1    4    4    0    0  0.47467584712E+01 -0.17057717561E+02 -0.27297494622E+02  0.32536912227E+02  0.51100000000E-03 0.  1.
        -12    1    4    4    0    0 -0.16760034723E+01  0.24131959743E+01 -0.12798489857E+02  0.13131406820E+02  0.00000000000E+00 0.  1.
</event>
<event>
 8    1  0.8600524E-011  0.9118800E+02  0.7816164E-02  0.1184000E+00
        -11   -1    0    0    0    0  0.00000000000E+00  0.00000000000E+00  0.45593999997E+02  0.45594000000E+02  0.51100000000E-03 0. -1.
         11   -1    0    0    0    0 -0.00000000000E+00 -0.00000000000E+00 -0.45593999997E+02  0.45594000000E+02  0.51100000000E-03 0.  1.
         23    2    1    2    0    0 -0.35527136788E-14  0.00000000000E+00  0.00000000000E+00  0.91188000000E+02  0.91188000000E+02 0.  0.
    9900012    2    3    3    0    0 -0.29252971887E+02 -0.59803498571E+01  0.31498007896E+02  0.47787245973E+02  0.19999885691E+02 0.  0.
        -12    1    3    3    0    0  0.29252971887E+02  0.59803498571E+01 -0.31498007896E+02  0.43400754027E+02  0.00000000000E+00 0.  1.
         11    1    4    4    0    0 -0.93408102792E+01 -0.59318173685E+00  0.55495703818E+01  0.10881191705E+02  0.51100000000E-03 0. -1.
        -11    1    4    4    0    0 -0.62263583306E+01  0.58380753701E+01  0.80170967879E+01  0.11710017218E+02  0.51100000000E-03 0.  1.
        -12    1    4    4    0    0 -0.13685803278E+02 -0.11225243490E+02  0.17931340726E+02  0.25196037050E+02  0.00000000000E+00 0.  1.
</event>
<event>
 8    1  0.8600524E-011  0.9118800E+02  0.7816164E-02  0.1184000E+00
        -11   -1    0    0    0    0  0.00000000000E+00  0.00000000000E+00  0.45593999997E+02  0.45594000000E+02  0.51100000000E-03 0. -1.
         11   -1    0    0    0    0 -0.00000000000E+00 -0.00000000000E+00 -0.45593999997E+02  0.45594000000E+02  0.51100000000E-03 0.  1.
         23    2    1    2    0    0  0.00000000000E+00  0.00000000000E+00  0.00000000000E+00  0.91188000000E+02  0.91188000000E+02 0.  0.
    9900012    2    3    3    0    0  0.14638950967E+02  0.21373329098E+02  0.34821040568E+02  0.47787274794E+02  0.20000017097E+02 0.  0.
        -12    1    3    3    0    0 -0.14638950967E+02 -0.21373329098E+02 -0.34821040568E+02  0.43400725206E+02  0.00000000000E+00 0.  1.
         11    1    4    4    0    0  0.14963401747E+02  0.15832953379E+02  0.20791685084E+02  0.30114447919E+02  0.51100000000E-03 0. -1.
        -11    1    4    4    0    0 -0.23005141400E+01 -0.10160448802E+01  0.85215811139E+01  0.88849342963E+01  0.51100000000E-03 0.  1.
         12    1    4    4    0    0  0.19760633601E+01  0.65564205990E+01  0.55077743700E+01  0.87878925793E+01  0.00000000000E+00 0. -1.
</event>
<event>
 8    1  0.8600524E-011  0.9118800E+02  0.7816164E-02  0.1184000E+00
        -11   -1    0    0    0    0  0.00000000000E+00  0.00000000000E+00  0.45593999997E+02  0.45594000000E+02  0.51100000000E-03 0. -1.
         11   -1    0    0    0    0 -0.00000000000E+00 -0.00000000000E+00 -0.45593999997E+02  0.45594000000E+02  0.51100000000E-03 0.  1.
         23    2    1    2    0    0 -0.35527136788E-14  0.00000000000E+00 -0.71054273576E-14  0.91188000000E+02  0.91188000000E+02 0.  0.
    9900012    2    3    3    0    0 -0.26754265764E+02 -0.19036503910E+01 -0.34120501336E+02  0.47787271518E+02  0.20000002157E+02 0.  0.
         12    1    3    3    0    0  0.26754265764E+02  0.19036503910E+01  0.34120501336E+02  0.43400728482E+02  0.00000000000E+00 0. -1.
         11    1    4    4    0    0 -0.16367418098E+02  0.12637898486E+00 -0.73619953487E+01  0.17947348624E+02  0.51100000000E-03 0. -1.
        -11    1    4    4    0    0 -0.38101389387E+01 -0.44765825419E+00 -0.19674431491E+02  0.20044969728E+02  0.51100000000E-03 0.  1.
         12    1    4    4    0    0 -0.65767087267E+01 -0.15823711217E+01 -0.70840744967E+01  0.97949531657E+01  0.00000000000E+00 0. -1.
</event>
<event>
 8    1  0.8600524E-011  0.9118800E+02  0.7816164E-02  0.1184000E+00
        -11   -1    0    0    0    0  0.00000000000E+00  0.00000000000E+00  0.45593999997E+02  0.45594000000E+02  0.51100000000E-03 0. -1.
         11   -1    0    0    0    0 -0.00000000000E+00 -0.00000000000E+00 -0.45593999997E+02  0.45594000000E+02  0.51100000000E-03 0.  1.
         23    2    1    2    0    0  0.00000000000E+00 -0.35527136788E-14  0.00000000000E+00  0.91188000000E+02  0.91188000000E+02 0.  0.
    9900012    2    3    3    0    0 -0.25333525088E+02 -0.25867886512E+02  0.23930893138E+02  0.47787277744E+02  0.20000030544E+02 0.  0.
        -12    1    3    3    0    0  0.25333525088E+02  0.25867886512E+02 -0.23930893138E+02  0.43400722256E+02  0.00000000000E+00 0.  1.
         11    1    4    4    0    0  0.32632532558E+00 -0.61514633401E+01  0.53779749973E+00  0.61835439559E+01  0.51100000000E-03 0. -1.
        -11    1    4    4    0    0 -0.18312290670E+02 -0.10605559116E+02  0.88552579440E+01  0.22939779146E+02  0.51100000000E-03 0.  1.
        -12    1    4    4    0    0 -0.73475597435E+01 -0.91108640555E+01  0.14537837694E+02  0.18663954641E+02  0.00000000000E+00 0.  1.
</event>
<event>
 8    1  0.8600524E-011  0.9118800E+02  0.7816164E-02  0.1184000E+00
        -11   -1    0    0    0    0  0.00000000000E+00  0.00000000000E+00  0.45593999997E+02  0.45594000000E+02  0.51100000000E-03 0. -1.
         11   -1    0    0    0    0 -0.00000000000E+00 -0.00000000000E+00 -0.45593999997E+02  0.45594000000E+02  0.51100000000E-03 0.  1.
         23    2    1    2    0    0  0.00000000000E+00  0.17763568394E-14 -0.35527136788E-14  0.91188000000E+02  0.91188000000E+02 0.  0.
    9900012    2    3    3    0    0 -0.36183832657E+02 -0.12115667120E+02  0.20677647786E+02  0.47787259759E+02  0.19999948545E+02 0.  0.
        -12    1    3    3    0    0  0.36183832657E+02  0.12115667120E+02 -0.20677647786E+02  0.43400740241E+02  0.00000000000E+00 0.  1.
         11    1    4    4    0    0 -0.17274130729E+02 -0.61003667889E+01  0.83886047437E+00  0.18338859140E+02  0.51100000000E-03 0. -1.
        -11    1    4    4    0    0 -0.98534196688E+01  0.47167570439E+00  0.55117009452E+01  0.11300053306E+02  0.51100000000E-03 0.  1.
         12    1    4    4    0    0 -0.90562822592E+01 -0.64869760359E+01  0.14327086367E+02  0.18148347313E+02  0.00000000000E+00 0. -1.
</event>
<event>
 8    1  0.8600524E-011  0.9118800E+02  0.7816164E-02  0.1184000E+00
        -11   -1    0    0    0    0  0.00000000000E+00  0.00000000000E+00  0.45593999997E+02  0.45594000000E+02  0.51100000000E-03 0. -1.
         11   -1    0    0    0    0 -0.00000000000E+00 -0.00000000000E+00 -0.45593999997E+02  0.45594000000E+02  0.51100000000E-03 0.  1.
         23    2    1    2    0    0  0.00000000000E+00 -0.88817841970E-15  0.00000000000E+00  0.91188000000E+02  0.91188000000E+02 0.  0.
    9900012    2    3    3    0    0 -0.11810908331E+02 -0.68402246866E+01 -0.41198757335E+02  0.47787264576E+02  0.19999970509E+02 0.  0.
         12    1    3    3    0    0  0.11810908331E+02  0.68402246866E+01  0.41198757335E+02  0.43400735424E+02  0.00000000000E+00 0. -1.
         11    1    4    4    0    0 -0.18243196772E+01 -0.50176633472E+01 -0.45856765782E+01  0.70380052353E+01  0.51100000000E-03 0. -1.
        -11    1    4    4    0    0 -0.11430728847E+02 -0.10971262777E+01 -0.37274343851E+02  0.39003101900E+02  0.51100000000E-03 0.  1.
        -12    1    4    4    0    0  0.14441401939E+01 -0.72543506169E+00  0.66126309408E+00  0.17461574408E+01  0.00000000000E+00 0.  1.
</event>
<event>
 8    1  0.8600524E-011  0.9118800E+02  0.7816164E-02  0.1184000E+00
        -11   -1    0    0    0    0  0.00000000000E+00  0.00000000000E+00  0.45593999997E+02  0.45594000000E+02  0.51100000000E-03 0.  1.
         11   -1    0    0    0    0 -0.00000000000E+00 -0.00000000000E+00 -0.45593999997E+02  0.45594000000E+02  0.51100000000E-03 0. -1.
         23    2    1    2    0    0  0.00000000000E+00  0.00000000000E+00  0.88817841970E-15  0.91188000000E+02  0.91188000000E+02 0.  0.
    9900012    2    3    3    0    0 -0.35534932902E+02 -0.23750751732E+02 -0.75361572594E+01  0.47787270393E+02  0.19999997029E+02 0.  0.
         12    1    3    3    0    0  0.35534932902E+02  0.23750751732E+02  0.75361572594E+01  0.43400729607E+02  0.00000000000E+00 0. -1.
         11    1    4    4    0    0 -0.16235054111E+01  0.42952949701E+00  0.37367946615E+01  0.40968158382E+01  0.51100000000E-03 0. -1.
        -11    1    4    4    0    0 -0.17849175786E+02 -0.11913917332E+02 -0.23176160953E+01  0.21584852259E+02  0.51100000000E-03 0.  1.
         12    1    4    4    0    0 -0.16062251705E+02 -0.12266363897E+02 -0.89553358256E+01  0.22105602295E+02  0.00000000000E+00 0. -1.
</event>
<event>
 8    1  0.8600524E-011  0.9118800E+02  0.7816164E-02  0.1184000E+00
        -11   -1    0    0    0    0  0.00000000000E+00  0.00000000000E+00  0.45593999997E+02  0.45594000000E+02  0.51100000000E-03 0. -1.
         11   -1    0    0    0    0 -0.00000000000E+00 -0.00000000000E+00 -0.45593999997E+02  0.45594000000E+02  0.51100000000E-03 0.  1.
         23    2    1    2    0    0 -0.44408920985E-15  0.00000000000E+00  0.00000000000E+00  0.91188000000E+02  0.91188000000E+02 0.  0.
    9900012    2    3    3    0    0  0.12490742007E+01  0.22586728636E+02  0.37039202559E+02  0.47787273934E+02  0.20000013173E+02 0.  0.
        -12    1    3    3    0    0 -0.12490742007E+01 -0.22586728636E+02 -0.37039202559E+02  0.43400726066E+02  0.00000000000E+00 0.  1.
         11    1    4    4    0    0  0.27182335344E+01  0.21101824093E+02  0.28195802462E+02  0.35322500624E+02  0.51100000000E-03 0. -1.
        -11    1    4    4    0    0 -0.42891614546E+01  0.25726782915E+01  0.28606050930E+01  0.57618262152E+01  0.51100000000E-03 0.  1.
         12    1    4    4    0    0  0.28200021209E+01 -0.10877737479E+01  0.59827950046E+01  0.67029470948E+01  0.00000000000E+00 0. -1.
</event>
<event>
 8    1  0.8600524E-011  0.9118800E+02  0.7816164E-02  0.1184000E+00
        -11   -1    0    0    0    0  0.00000000000E+00  0.00000000000E+00  0.45593999997E+02  0.45594000000E+02  0.51100000000E-03 0. -1.
         11   -1    0    0    0    0 -0.00000000000E+00 -0.00000000000E+00 -0.45593999997E+02  0.45594000000E+02  0.51100000000E-03 0.  1.
         23    2    1    2    0    0  0.00000000000E+00  0.00000000000E+00  0.00000000000E+00  0.91188000000E+02  0.91188000000E+02 0.  0.
    9900012    2    3    3    0    0 -0.11830491397E+02 -0.36712273246E+02 -0.19896527809E+02  0.47787270140E+02  0.19999995875E+02 0.  0.
         12    1    3    3    0    0  0.11830491397E+02  0.36712273246E+02  0.19896527809E+02  0.43400729860E+02  0.00000000000E+00 0. -1.
         11    1    4    4    0    0 -0.32076133351E+01 -0.16908921234E+02 -0.36360584956E+01  0.17590375841E+02  0.51100000000E-03 0. -1.
        -11    1    4    4    0    0 -0.24024449512E+01 -0.15426656776E+02 -0.16327509786E+02  0.22590729450E+02  0.51100000000E-03 0.  1.
        -12    1    4    4    0    0 -0.62204331104E+01 -0.43766952362E+01  0.67040473091E-01  0.76061648481E+01  0.00000000000E+00 0.  1.
</event>
<event>
 8    1  0.8600524E-011  0.9118800E+02  0.7816164E-02  0.1184000E+00
        -11   -1    0    0    0    0  0.00000000000E+00  0.00000000000E+00  0.45593999997E+02  0.45594000000E+02  0.51100000000E-03 0. -1.
         11   -1    0    0    0    0 -0.00000000000E+00 -0.00000000000E+00 -0.45593999997E+02  0.45594000000E+02  0.51100000000E-03 0.  1.
         23    2    1    2    0    0  0.00000000000E+00  0.00000000000E+00  0.00000000000E+00  0.91188000000E+02  0.91188000000E+02 0.  0.
    9900012    2    3    3    0    0 -0.34903855319E+02 -0.11622023149E+02  0.23027657947E+02  0.47787267648E+02  0.19999984514E+02 0.  0.
        -12    1    3    3    0    0  0.34903855319E+02  0.11622023149E+02 -0.23027657947E+02  0.43400732352E+02  0.00000000000E+00 0.  1.
         11    1    4    4    0    0 -0.19096925434E+01 -0.32993956956E+01  0.12014395775E+01  0.39970482717E+01  0.51100000000E-03 0. -1.
        -11    1    4    4    0    0 -0.25323295443E+02 -0.85419108996E+01  0.78641435382E+01  0.27858181702E+02  0.51100000000E-03 0.  1.
        -12    1    4    4    0    0 -0.76708673323E+01  0.21928344592E+00  0.13962074831E+02  0.15932037674E+02  0.00000000000E+00 0.  1.
</event>
<event>
 8    1  0.8600524E-011  0.9118800E+02  0.7816164E-02  0.1184000E+00
        -11   -1    0    0    0    0  0.00000000000E+00  0.00000000000E+00  0.45593999997E+02  0.45594000000E+02  0.51100000000E-03 0. -1.
         11   -1    0    0    0    0 -0.00000000000E+00 -0.00000000000E+00 -0.45593999997E+02  0.45594000000E+02  0.51100000000E-03 0.  1.
         23    2    1    2    0    0  0.13322676296E-14  0.00000000000E+00  0.00000000000E+00  0.91188000000E+02  0.91188000000E+02 0.  0.
    9900012    2    3    3    0    0 -0.21016160295E+01 -0.39941981557E+02 -0.16847663305E+02  0.47787280658E+02  0.20000043830E+02 0.  0.
         12    1    3    3    0    0  0.21016160295E+01  0.39941981557E+02  0.16847663305E+02  0.43400719342E+02  0.00000000000E+00 0. -1.
         11    1    4    4    0    0 -0.72921490722E+01 -0.83758065971E+01 -0.17508987435E+01  0.11242562916E+02  0.51100000000E-03 0. -1.
        -11    1    4    4    0    0  0.50237810398E+01 -0.32212136676E+02 -0.14927013184E+02  0.35856322289E+02  0.51100000000E-03 0.  1.
        -12    1    4    4    0    0  0.16675200295E+00  0.64596171688E+00 -0.16975137712E+00  0.68839545335E+00  0.00000000000E+00 0.  1.
</event>
<event>
 8    1  0.8600524E-011  0.9118800E+02  0.7816164E-02  0.1184000E+00
        -11   -1    0    0    0    0  0.00000000000E+00  0.00000000000E+00  0.45593999997E+02  0.45594000000E+02  0.51100000000E-03 0. -1.
         11   -1    0    0    0    0 -0.00000000000E+00 -0.00000000000E+00 -0.45593999997E+02  0.45594000000E+02  0.51100000000E-03 0.  1.
         23    2    1    2    0    0  0.35527136788E-14  0.35527136788E-14  0.35527136788E-14  0.91188000000E+02  0.91188000000E+02 0.  0.
    9900012    2    3    3    0    0 -0.18731912426E+02 -0.25845268263E+02 -0.29406819172E+02  0.47787269032E+02  0.19999990824E+02 0.  0.
         12    1    3    3    0    0  0.18731912426E+02  0.25845268263E+02  0.29406819172E+02  0.43400730968E+02  0.00000000000E+00 0. -1.
         11    1    4    4    0    0 -0.12449873533E+02 -0.11468492530E+02 -0.87818903163E+01  0.19069537742E+02  0.51100000000E-03 0.  1.
        -11    1    4    4    0    0  0.14202489156E+01  0.73565476602E+00 -0.63498195454E+01  0.65481679451E+01  0.51100000000E-03 0. -1.
        -12    1    4    4    0    0 -0.77022878092E+01 -0.15112430499E+02 -0.14275109311E+02  0.22169563345E+02  0.00000000000E+00 0.  1.
</event>
<event>
 8    1  0.8600524E-011  0.9118800E+02  0.7816164E-02  0.1184000E+00
        -11   -1    0    0    0    0  0.00000000000E+00  0.00000000000E+00  0.45593999997E+02  0.45594000000E+02  0.51100000000E-03 0.  1.
         11   -1    0    0    0    0 -0.00000000000E+00 -0.00000000000E+00 -0.45593999997E+02  0.45594000000E+02  0.51100000000E-03 0. -1.
         23    2    1    2    0    0  0.00000000000E+00  0.00000000000E+00  0.00000000000E+00  0.91188000000E+02  0.91188000000E+02 0.  0.
    9900012    2    3    3    0    0 -0.42021544813E+02 -0.79000190848E+01 -0.74432739742E+01  0.47787275841E+02  0.20000021871E+02 0.  0.
        -12    1    3    3    0    0  0.42021544813E+02  0.79000190848E+01  0.74432739742E+01  0.43400724159E+02  0.00000000000E+00 0.  1.
         11    1    4    4    0    0 -0.27536931893E+02 -0.81302902194E+01  0.23163494698E+01  0.28805376447E+02  0.51100000000E-03 0. -1.
        -11    1    4    4    0    0 -0.31686466540E+01 -0.11648645620E+01  0.76913440509E+00  0.34624845213E+01  0.51100000000E-03 0.  1.
         12    1    4    4    0    0 -0.11315966266E+02  0.13951356966E+01 -0.10528757849E+02  0.15519414873E+02  0.00000000000E+00 0. -1.
</event>
<event>
 8    1  0.8600524E-011  0.9118800E+02  0.7816164E-02  0.1184000E+00
        -11   -1    0    0    0    0  0.00000000000E+00  0.00000000000E+00  0.45593999997E+02  0.45594000000E+02  0.51100000000E-03 0. -1.
         11   -1    0    0    0    0 -0.00000000000E+00 -0.00000000000E+00 -0.45593999997E+02  0.45594000000E+02  0.51100000000E-03 0.  1.
         23    2    1    2    0    0  0.00000000000E+00  0.00000000000E+00  0.00000000000E+00  0.91188000000E+02  0.91188000000E+02 0.  0.
    9900012    2    3    3    0    0  0.20617857352E+02  0.34380260164E+02  0.16628944930E+02  0.47787307146E+02  0.20000164601E+02 0.  0.
        -12    1    3    3    0    0 -0.20617857352E+02 -0.34380260164E+02 -0.16628944930E+02  0.43400692854E+02  0.00000000000E+00 0.  1.
         11    1    4    4    0    0 -0.83649137201E-01  0.14639917087E+02  0.90865436373E+01  0.17230770297E+02  0.51100000000E-03 0. -1.
        -11    1    4    4    0    0  0.48660092356E+01  0.99989624539E+00  0.22683189573E+01  0.54610538851E+01  0.51100000000E-03 0.  1.
         12    1    4    4    0    0  0.15835497253E+02  0.18740446832E+02  0.52740823353E+01  0.25095482964E+02  0.00000000000E+00 0. -1.
</event>
<event>
 8    1  0.8600524E-011  0.9118800E+02  0.7816164E-02  0.1184000E+00
        -11   -1    0    0    0    0  0.00000000000E+00  0.00000000000E+00  0.45593999997E+02  0.45594000000E+02  0.51100000000E-03 0. -1.
         11   -1    0    0    0    0 -0.00000000000E+00 -0.00000000000E+00 -0.45593999997E+02  0.45594000000E+02  0.51100000000E-03 0.  1.
         23    2    1    2    0    0  0.00000000000E+00 -0.22204460493E-15 -0.71054273576E-14  0.91188000000E+02  0.91188000000E+02 0.  0.
    9900012    2    3    3    0    0 -0.22005677208E+02 -0.11267927688E+01  0.37391220444E+02  0.47787275840E+02  0.20000021865E+02 0.  0.
        -12    1    3    3    0    0  0.22005677208E+02  0.11267927688E+01 -0.37391220444E+02  0.43400724160E+02  0.00000000000E+00 0.  1.
         11    1    4    4    0    0  0.12505315202E+00 -0.15746543818E+01  0.10318044251E+02  0.10438257141E+02  0.51100000000E-03 0. -1.
        -11    1    4    4    0    0 -0.61671164428E+01 -0.26143217924E+01  0.16885619729E+02  0.18165686267E+02  0.51100000000E-03 0.  1.
        -12    1    4    4    0    0 -0.15963613917E+02  0.30621834054E+01  0.10187556464E+02  0.19183332432E+02  0.00000000000E+00 0.  1.
</event>
<event>
 8    1  0.8600524E-011  0.9118800E+02  0.7816164E-02  0.1184000E+00
        -11   -1    0    0    0    0  0.00000000000E+00  0.00000000000E+00  0.45593999997E+02  0.45594000000E+02  0.51100000000E-03 0. -1.
         11   -1    0    0    0    0 -0.00000000000E+00 -0.00000000000E+00 -0.45593999997E+02  0.45594000000E+02  0.51100000000E-03 0.  1.
         23    2    1    2    0    0  0.17763568394E-14  0.00000000000E+00  0.00000000000E+00  0.91188000000E+02  0.91188000000E+02 0.  0.
    9900012    2    3    3    0    0 -0.96820291147E+01  0.37486414436E+02  0.19612513152E+02  0.47787266974E+02  0.19999981442E+02 0.  0.
        -12    1    3    3    0    0  0.96820291147E+01 -0.37486414436E+02 -0.19612513152E+02  0.43400733026E+02  0.00000000000E+00 0.  1.
         11    1    4    4    0    0 -0.14729917833E+01 -0.11707719716E+01 -0.62304254904E+00  0.19820681325E+01  0.51100000000E-03 0.  1.
        -11    1    4    4    0    0 -0.78805135741E+01  0.33165651828E+02  0.21307472362E+02  0.40200389726E+02  0.51100000000E-03 0. -1.
         12    1    4    4    0    0 -0.32852375731E+00  0.54915345797E+01 -0.10719166615E+01  0.56048091161E+01  0.00000000000E+00 0. -1.
</event>
<event>
 8    1  0.8600524E-011  0.9118800E+02  0.7816164E-02  0.1184000E+00
        -11   -1    0    0    0    0  0.00000000000E+00  0.00000000000E+00  0.45593999997E+02  0.45594000000E+02  0.51100000000E-03 0. -1.
         11   -1    0    0    0    0 -0.00000000000E+00 -0.00000000000E+00 -0.45593999997E+02  0.45594000000E+02  0.51100000000E-03 0.  1.
         23    2    1    2    0    0 -0.17763568394E-14  0.17763568394E-14 -0.71054273576E-14  0.91188000000E+02  0.91188000000E+02 0.  0.
    9900012    2    3    3    0    0 -0.14417694308E+02  0.94316886242E+01 -0.39834617962E+02  0.47787269042E+02  0.19999990872E+02 0.  0.
         12    1    3    3    0    0  0.14417694308E+02 -0.94316886242E+01  0.39834617962E+02  0.43400730958E+02  0.00000000000E+00 0. -1.
         11    1    4    4    0    0 -0.89680732654E+01  0.51884539771E+01 -0.23468537336E+02  0.25653823062E+02  0.51100000000E-03 0. -1.
        -11    1    4    4    0    0 -0.84366495557E+01  0.66044544729E+01 -0.14077470365E+02  0.17690987726E+02  0.51100000000E-03 0.  1.
         12    1    4    4    0    0  0.29870285136E+01 -0.23612198257E+01 -0.22886102619E+01  0.44424582539E+01  0.00000000000E+00 0. -1.
</event>
<event>
 8    1  0.8600524E-011  0.9118800E+02  0.7816164E-02  0.1184000E+00
        -11   -1    0    0    0    0  0.00000000000E+00  0.00000000000E+00  0.45593999997E+02  0.45594000000E+02  0.51100000000E-03 0. -1.
         11   -1    0    0    0    0 -0.00000000000E+00 -0.00000000000E+00 -0.45593999997E+02  0.45594000000E+02  0.51100000000E-03 0.  1.
         23    2    1    2    0    0  0.00000000000E+00  0.17763568394E-14  0.17763568394E-14  0.91188000000E+02  0.91188000000E+02 0.  0.
    9900012    2    3    3    0    0  0.38641905817E+02 -0.15645216257E+02  0.12068645452E+02  0.47787287104E+02  0.20000073221E+02 0.  0.
         12    1    3    3    0    0 -0.38641905817E+02  0.15645216257E+02 -0.12068645452E+02  0.43400712896E+02  0.00000000000E+00 0. -1.
         11    1    4    4    0    0  0.96882481229E+01 -0.74040546416E+01 -0.30886026051E+01  0.12578618491E+02  0.51100000000E-03 0. -1.
        -11    1    4    4    0    0  0.63001818513E+01 -0.15193789837E+01  0.84430718302E+01  0.10643602118E+02  0.51100000000E-03 0.  1.
        -12    1    4    4    0    0  0.22653475842E+02 -0.67217826315E+01  0.67141762271E+01  0.24565066495E+02  0.00000000000E+00 0.  1.
</event>
<event>
 8    1  0.8600524E-011  0.9118800E+02  0.7816164E-02  0.1184000E+00
        -11   -1    0    0    0    0  0.00000000000E+00  0.00000000000E+00  0.45593999997E+02  0.45594000000E+02  0.51100000000E-03 0. -1.
         11   -1    0    0    0    0 -0.00000000000E+00 -0.00000000000E+00 -0.45593999997E+02  0.45594000000E+02  0.51100000000E-03 0.  1.
         23    2    1    2    0    0 -0.44408920985E-15  0.00000000000E+00 -0.35527136788E-14  0.91188000000E+02  0.91188000000E+02 0.  0.
    9900012    2    3    3    0    0  0.30741441302E+01  0.36676427442E+02 -0.23000270992E+02  0.47787272382E+02  0.20000006099E+02 0.  0.
         12    1    3    3    0    0 -0.30741441302E+01 -0.36676427442E+02  0.23000270992E+02  0.43400727618E+02  0.00000000000E+00 0. -1.
         11    1    4    4    0    0 -0.17366474757E+01  0.54899518695E+01 -0.59250112663E+01  0.82620381717E+01  0.51100000000E-03 0. -1.
        -11    1    4    4    0    0  0.82860550526E+01  0.21862613294E+02 -0.18036045128E+02  0.29528486119E+02  0.51100000000E-03 0.  1.
        -12    1    4    4    0    0 -0.34752634468E+01  0.93238622783E+01  0.96078540164E+00  0.99967480912E+01  0.00000000000E+00 0.  1.
</event>
<event>
 8    1  0.8600524E-011  0.9118800E+02  0.7816164E-02  0.1184000E+00
        -11   -1    0    0    0    0  0.00000000000E+00  0.00000000000E+00  0.45593999997E+02  0.45594000000E+02  0.51100000000E-03 0. -1.
         11   -1    0    0    0    0 -0.00000000000E+00 -0.00000000000E+00 -0.45593999997E+02  0.45594000000E+02  0.51100000000E-03 0.  1.
         23    2    1    2    0    0  0.00000000000E+00  0.00000000000E+00  0.00000000000E+00  0.91188000000E+02  0.91188000000E+02 0.  0.
    9900012    2    3    3    0    0 -0.16151513016E+02 -0.14147446458E+02  0.37717376676E+02  0.47787284369E+02  0.20000060752E+02 0.  0.
        -12    1    3    3    0    0  0.16151513016E+02  0.14147446458E+02 -0.37717376676E+02  0.43400715631E+02  0.00000000000E+00 0.  1.
         11    1    4    4    0    0 -0.17259287420E+02 -0.58082707177E+01  0.31909118431E+02  0.36739772050E+02  0.51100000000E-03 0. -1.
        -11    1    4    4    0    0 -0.31649182475E+00 -0.34931889049E+01  0.21929841424E+00  0.35143460069E+01  0.51100000000E-03 0.  1.
         12    1    4    4    0    0  0.14242662285E+01 -0.48459868356E+01  0.55889598302E+01  0.75331663120E+01  0.00000000000E+00 0. -1.
</event>
<event>
 8    1  0.8600524E-011  0.9118800E+02  0.7816164E-02  0.1184000E+00
        -11   -1    0    0    0    0  0.00000000000E+00  0.00000000000E+00  0.45593999997E+02  0.45594000000E+02  0.51100000000E-03 0.  1.
         11   -1    0    0    0    0 -0.00000000000E+00 -0.00000000000E+00 -0.45593999997E+02  0.45594000000E+02  0.51100000000E-03 0. -1.
         23    2    1    2    0    0  0.00000000000E+00 -0.35527136788E-14  0.35527136788E-14  0.91188000000E+02  0.91188000000E+02 0.  0.
    9900012    2    3    3    0    0  0.32354461168E+02 -0.24057453832E+02 -0.16063964395E+02  0.47787271960E+02  0.20000004173E+02 0.  0.
         12    1    3    3    0    0 -0.32354461168E+02  0.24057453832E+02  0.16063964395E+02  0.43400728040E+02  0.00000000000E+00 0. -1.
         11    1    4    4    0    0  0.12439903351E+02 -0.15822357136E+02 -0.86901458064E+01  0.21922974595E+02  0.51100000000E-03 0. -1.
        -11    1    4    4    0    0  0.16109111842E+02 -0.39509376230E+01 -0.10203278329E+02  0.19473579059E+02  0.51100000000E-03 0.  1.
        -12    1    4    4    0    0  0.38054459745E+01 -0.42841590738E+01  0.28294597408E+01  0.63907183054E+01  0.00000000000E+00 0.  1.
</event>
<event>
 8    1  0.8600524E-011  0.9118800E+02  0.7816164E-02  0.1184000E+00
        -11   -1    0    0    0    0  0.00000000000E+00  0.00000000000E+00  0.45593999997E+02  0.45594000000E+02  0.51100000000E-03 0. -1.
         11   -1    0    0    0    0 -0.00000000000E+00 -0.00000000000E+00 -0.45593999997E+02  0.45594000000E+02  0.51100000000E-03 0.  1.
         23    2    1    2    0    0  0.35527136788E-14  0.00000000000E+00  0.00000000000E+00  0.91188000000E+02  0.91188000000E+02 0.  0.
    9900012    2    3    3    0    0  0.29701872036E+02  0.16060319350E+02  0.27266981959E+02  0.47787269992E+02  0.19999995201E+02 0.  0.
        -12    1    3    3    0    0 -0.29701872036E+02 -0.16060319350E+02 -0.27266981959E+02  0.43400730008E+02  0.00000000000E+00 0.  1.
         11    1    4    4    0    0  0.25313638302E+02  0.99208692960E+01  0.10872760093E+02  0.29281749332E+02  0.51100000000E-03 0. -1.
        -11    1    4    4    0    0  0.12339524006E+01  0.44768932538E+01  0.11863554566E+02  0.12740060398E+02  0.51100000000E-03 0.  1.
        -12    1    4    4    0    0  0.31542813339E+01  0.16625568001E+01  0.45306673000E+01  0.57654602618E+01  0.00000000000E+00 0.  1.
</event>
<event>
 8    1  0.8600524E-011  0.9118800E+02  0.7816164E-02  0.1184000E+00
        -11   -1    0    0    0    0  0.00000000000E+00  0.00000000000E+00  0.45593999997E+02  0.45594000000E+02  0.51100000000E-03 0. -1.
         11   -1    0    0    0    0 -0.00000000000E+00 -0.00000000000E+00 -0.45593999997E+02  0.45594000000E+02  0.51100000000E-03 0.  1.
         23    2    1    2    0    0  0.00000000000E+00 -0.35527136788E-14  0.00000000000E+00  0.91188000000E+02  0.91188000000E+02 0.  0.
    9900012    2    3    3    0    0  0.67792969238E+01 -0.21446857204E+02  0.37117337755E+02  0.47787270597E+02  0.19999997960E+02 0.  0.
        -12    1    3    3    0    0 -0.67792969238E+01  0.21446857204E+02 -0.37117337755E+02  0.43400729403E+02  0.00000000000E+00 0.  1.
         11    1    4    4    0    0  0.60077117008E+01 -0.16991185836E+02  0.32279808420E+02  0.36969974681E+02  0.51100000000E-03 0. -1.
        -11    1    4    4    0    0  0.29347012026E+01  0.49631212163E-01 -0.10293130281E+01  0.31103729643E+01  0.51100000000E-03 0.  1.
        -12    1    4    4    0    0 -0.21631159797E+01 -0.45053025798E+01  0.58668423628E+01  0.77069229519E+01  0.00000000000E+00 0.  1.
</event>
<event>
 8    1  0.8600524E-011  0.9118800E+02  0.7816164E-02  0.1184000E+00
        -11   -1    0    0    0    0  0.00000000000E+00  0.00000000000E+00  0.45593999997E+02  0.45594000000E+02  0.51100000000E-03 0. -1.
         11   -1    0    0    0    0 -0.00000000000E+00 -0.00000000000E+00 -0.45593999997E+02  0.45594000000E+02  0.51100000000E-03 0.  1.
         23    2    1    2    0    0  0.00000000000E+00  0.00000000000E+00  0.00000000000E+00  0.91188000000E+02  0.91188000000E+02 0.  0.
    9900012    2    3    3    0    0  0.38066101028E+02  0.93826421973E+01  0.18616084790E+02  0.47787301446E+02  0.20000138613E+02 0.  0.
        -12    1    3    3    0    0 -0.38066101028E+02 -0.93826421973E+01 -0.18616084790E+02  0.43400698554E+02  0.00000000000E+00 0.  1.
         11    1    4    4    0    0  0.11239954280E+02  0.10940170567E+02  0.12180037777E+02  0.19858933123E+02  0.51100000000E-03 0. -1.
        -11    1    4    4    0    0  0.22319144174E+02  0.16148353720E+00  0.58155192827E+01  0.23064920082E+02  0.51100000000E-03 0.  1.
         12    1    4    4    0    0  0.45070025733E+01 -0.17190119069E+01  0.62052773023E+00  0.48634482413E+01  0.00000000000E+00 0. -1.
</event>
<event>
 8    1  0.8600524E-011  0.9118800E+02  0.7816164E-02  0.1184000E+00
        -11   -1    0    0    0    0  0.00000000000E+00  0.00000000000E+00  0.45593999997E+02  0.45594000000E+02  0.51100000000E-03 0. -1.
         11   -1    0    0    0    0 -0.00000000000E+00 -0.00000000000E+00 -0.45593999997E+02  0.45594000000E+02  0.51100000000E-03 0.  1.
         23    2    1    2    0    0  0.00000000000E+00  0.00000000000E+00  0.00000000000E+00  0.91188000000E+02  0.91188000000E+02 0.  0.
    9900012    2    3    3    0    0 -0.24691000880E+02 -0.19025640304E+02  0.30199382400E+02  0.47787271772E+02  0.20000003316E+02 0.  0.
        -12    1    3    3    0    0  0.24691000880E+02  0.19025640304E+02 -0.30199382400E+02  0.43400728228E+02  0.00000000000E+00 0.  1.
         11    1    4    4    0    0 -0.21669478349E+02 -0.12296828607E+02  0.14393827052E+02  0.28774303522E+02  0.51100000000E-03 0.  1.
        -11    1    4    4    0    0  0.82539717769E+00 -0.47931632532E+01  0.12982558262E+02  0.13863712120E+02  0.51100000000E-03 0. -1.
         12    1    4    4    0    0 -0.38469197084E+01 -0.19356484440E+01  0.28229970857E+01  0.51492561295E+01  0.00000000000E+00 0. -1.
</event>
<event>
 8    1  0.8600524E-011  0.9118800E+02  0.7816164E-02  0.1184000E+00
        -11   -1    0    0    0    0  0.00000000000E+00  0.00000000000E+00  0.45593999997E+02  0.45594000000E+02  0.51100000000E-03 0.  1.
         11   -1    0    0    0    0 -0.00000000000E+00 -0.00000000000E+00 -0.45593999997E+02  0.45594000000E+02  0.51100000000E-03 0. -1.
         23    2    1    2    0    0  0.00000000000E+00  0.00000000000E+00  0.00000000000E+00  0.91188000000E+02  0.91188000000E+02 0.  0.
    9900012    2    3    3    0    0  0.10794935450E+02 -0.41261728384E+02  0.80350912304E+01  0.47787267843E+02  0.19999985405E+02 0.  0.
        -12    1    3    3    0    0 -0.10794935450E+02  0.41261728384E+02 -0.80350912304E+01  0.43400732157E+02  0.00000000000E+00 0.  1.
         11    1    4    4    0    0  0.10217254048E+01 -0.24721079502E+02  0.15142668570E+01  0.24788479157E+02  0.51100000000E-03 0. -1.
        -11    1    4    4    0    0  0.66615794140E+01 -0.17680683547E+01  0.12257035000E+01  0.70003610855E+01  0.51100000000E-03 0.  1.
        -12    1    4    4    0    0  0.31116306316E+01 -0.14772580527E+02  0.52951208734E+01  0.15998427600E+02  0.00000000000E+00 0.  1.
</event>
<event>
 8    1  0.8600524E-011  0.9118800E+02  0.7816164E-02  0.1184000E+00
        -11   -1    0    0    0    0  0.00000000000E+00  0.00000000000E+00  0.45593999997E+02  0.45594000000E+02  0.51100000000E-03 0. -1.
         11   -1    0    0    0    0 -0.00000000000E+00 -0.00000000000E+00 -0.45593999997E+02  0.45594000000E+02  0.51100000000E-03 0.  1.
         23    2    1    2    0    0  0.00000000000E+00  0.35527136788E-14  0.35527136788E-14  0.91188000000E+02  0.91188000000E+02 0.  0.
    9900012    2    3    3    0    0  0.22271043194E+02 -0.20360525309E+02 -0.31194114480E+02  0.47787272656E+02  0.20000007349E+02 0.  0.
         12    1    3    3    0    0 -0.22271043194E+02  0.20360525309E+02  0.31194114480E+02  0.43400727344E+02  0.00000000000E+00 0. -1.
         11    1    4    4    0    0  0.75983848445E+01 -0.37145665017E+01 -0.27448231870E+01  0.88919914041E+01  0.51100000000E-03 0. -1.
        -11    1    4    4    0    0  0.11039419793E+02 -0.16897970192E+02 -0.28873067041E+02  0.35228740917E+02  0.51100000000E-03 0.  1.
        -12    1    4    4    0    0  0.36332385560E+01  0.25201138488E+00  0.42377574854E+00  0.36665403350E+01  0.00000000000E+00 0.  1.
</event>
<event>
 8    1  0.8600524E-011  0.9118800E+02  0.7816164E-02  0.1184000E+00
        -11   -1    0    0    0    0  0.00000000000E+00  0.00000000000E+00  0.45593999997E+02  0.45594000000E+02  0.51100000000E-03 0. -1.
         11   -1    0    0    0    0 -0.00000000000E+00 -0.00000000000E+00 -0.45593999997E+02  0.45594000000E+02  0.51100000000E-03 0.  1.
         23    2    1    2    0    0  0.00000000000E+00  0.00000000000E+00  0.00000000000E+00  0.91188000000E+02  0.91188000000E+02 0.  0.
    9900012    2    3    3    0    0  0.70629090383E+01  0.33770818326E+02  0.26330053206E+02  0.47787256270E+02  0.19999932637E+02 0.  0.
        -12    1    3    3    0    0 -0.70629090383E+01 -0.33770818326E+02 -0.26330053206E+02  0.43400743730E+02  0.00000000000E+00 0.  1.
         11    1    4    4    0    0  0.63393856276E+01  0.19878480165E+02  0.19046057964E+02  0.28250559429E+02  0.51100000000E-03 0. -1.
        -11    1    4    4    0    0  0.21220984917E+01  0.11670553691E+02  0.72443482386E-01  0.11862140354E+02  0.51100000000E-03 0.  1.
         12    1    4    4    0    0 -0.13985750810E+01  0.22217844699E+01  0.72115517594E+01  0.76745564867E+01  0.00000000000E+00 0. -1.
</event>
<event>
 8    1  0.8600524E-011  0.9118800E+02  0.7816164E-02  0.1184000E+00
        -11   -1    0    0    0    0  0.00000000000E+00  0.00000000000E+00  0.45593999997E+02  0.45594000000E+02  0.51100000000E-03 0. -1.
         11   -1    0    0    0    0 -0.00000000000E+00 -0.00000000000E+00 -0.45593999997E+02  0.45594000000E+02  0.51100000000E-03 0.  1.
         23    2    1    2    0    0  0.00000000000E+00  0.00000000000E+00  0.35527136788E-14  0.91188000000E+02  0.91188000000E+02 0.  0.
    9900012    2    3    3    0    0  0.24021339703E+02 -0.20958360078E+02 -0.29450732097E+02  0.47787271442E+02  0.20000001812E+02 0.  0.
         12    1    3    3    0    0 -0.24021339703E+02  0.20958360078E+02  0.29450732097E+02  0.43400728558E+02  0.00000000000E+00 0. -1.
         11    1    4    4    0    0  0.82361971135E+01 -0.25975194000E+01 -0.78971988761E+00  0.86721224442E+01  0.51100000000E-03 0. -1.
        -11    1    4    4    0    0  0.37531850629E+01 -0.11511354558E+02 -0.17755940024E+02  0.21491186293E+02  0.51100000000E-03 0.  1.
         12    1    4    4    0    0  0.12031957527E+02 -0.68494861201E+01 -0.10905072186E+02  0.17623962705E+02  0.00000000000E+00 0. -1.
</event>
<event>
 8    1  0.8600524E-011  0.9118800E+02  0.7816164E-02  0.1184000E+00
        -11   -1    0    0    0    0  0.00000000000E+00  0.00000000000E+00  0.45593999997E+02  0.45594000000E+02  0.51100000000E-03 0.  1.
         11   -1    0    0    0    0 -0.00000000000E+00 -0.00000000000E+00 -0.45593999997E+02  0.45594000000E+02  0.51100000000E-03 0. -1.
         23    2    1    2    0    0  0.35527136788E-14  0.71054273576E-14  0.00000000000E+00  0.91188000000E+02  0.91188000000E+02 0.  0.
    9900012    2    3    3    0    0  0.20614514882E+02  0.33190623140E+02  0.18895710442E+02  0.47787267733E+02  0.19999984901E+02 0.  0.
        -12    1    3    3    0    0 -0.20614514882E+02 -0.33190623140E+02 -0.18895710442E+02  0.43400732267E+02  0.00000000000E+00 0.  1.
         11    1    4    4    0    0  0.15217700069E+02  0.26687039084E+02  0.83411180748E+01  0.31833169830E+02  0.51100000000E-03 0. -1.
        -11    1    4    4    0    0 -0.22666041585E+01  0.10586837760E+01  0.15902671875E+01  0.29643305716E+01  0.51100000000E-03 0.  1.
        -12    1    4    4    0    0  0.76634189714E+01  0.54449002802E+01  0.89643251793E+01  0.12989767331E+02  0.00000000000E+00 0.  1.
</event>
<event>
 8    1  0.8600524E-011  0.9118800E+02  0.7816164E-02  0.1184000E+00
        -11   -1    0    0    0    0  0.00000000000E+00  0.00000000000E+00  0.45593999997E+02  0.45594000000E+02  0.51100000000E-03 0. -1.
         11   -1    0    0    0    0 -0.00000000000E+00 -0.00000000000E+00 -0.45593999997E+02  0.45594000000E+02  0.51100000000E-03 0.  1.
         23    2    1    2    0    0  0.00000000000E+00 -0.17763568394E-14  0.14210854715E-13  0.91188000000E+02  0.91188000000E+02 0.  0.
    9900012    2    3    3    0    0 -0.86200286867E+01 -0.98825887015E+01  0.41372126776E+02  0.47787270421E+02  0.19999997157E+02 0.  0.
        -12    1    3    3    0    0  0.86200286867E+01  0.98825887015E+01 -0.41372126776E+02  0.43400729579E+02  0.00000000000E+00 0.  1.
         11    1    4    4    0    0  0.33998049989E+01 -0.36092025702E+01  0.32798681951E+01  0.59449602910E+01  0.51100000000E-03 0. -1.
        -11    1    4    4    0    0 -0.47383637047E+00 -0.10202242282E+01 -0.49099096880E+00  0.12273755637E+01  0.51100000000E-03 0.  1.
         12    1    4    4    0    0 -0.11545997315E+02 -0.52531619031E+01  0.38583249550E+02  0.40614934566E+02  0.00000000000E+00 0. -1.
</event>
<event>
 8    1  0.8600524E-011  0.9118800E+02  0.7816164E-02  0.1184000E+00
        -11   -1    0    0    0    0  0.00000000000E+00  0.00000000000E+00  0.45593999997E+02  0.45594000000E+02  0.51100000000E-03 0. -1.
         11   -1    0    0    0    0 -0.00000000000E+00 -0.00000000000E+00 -0.45593999997E+02  0.45594000000E+02  0.51100000000E-03 0.  1.
         23    2    1    2    0    0  0.00000000000E+00  0.00000000000E+00  0.00000000000E+00  0.91188000000E+02  0.91188000000E+02 0.  0.
    9900012    2    3    3    0    0  0.38270603633E+02  0.25976143499E+01 -0.20303626186E+02  0.47787263381E+02  0.19999965061E+02 0.  0.
         12    1    3    3    0    0 -0.38270603633E+02 -0.25976143499E+01  0.20303626186E+02  0.43400736619E+02  0.00000000000E+00 0. -1.
         11    1    4    4    0    0  0.71112930086E+01  0.29977521783E+01  0.29698643400E+01  0.82690447354E+01  0.51100000000E-03 0. -1.
        -11    1    4    4    0    0  0.18516974527E+02 -0.45986792790E+00 -0.17973915056E+02  0.25809909857E+02  0.51100000000E-03 0.  1.
         12    1    4    4    0    0  0.12642336098E+02  0.59730099481E-01 -0.52995754702E+01  0.13708308789E+02  0.00000000000E+00 0. -1.
</event>
<event>
 8    1  0.8600524E-011  0.9118800E+02  0.7816164E-02  0.1184000E+00
        -11   -1    0    0    0    0  0.00000000000E+00  0.00000000000E+00  0.45593999997E+02  0.45594000000E+02  0.51100000000E-03 0. -1.
         11   -1    0    0    0    0 -0.00000000000E+00 -0.00000000000E+00 -0.45593999997E+02  0.45594000000E+02  0.51100000000E-03 0.  1.
         23    2    1    2    0    0  0.00000000000E+00  0.00000000000E+00  0.35527136788E-14  0.91188000000E+02  0.91188000000E+02 0.  0.
    9900012    2    3    3    0    0 -0.30989266928E+02 -0.10291216554E+02 -0.28589809182E+02  0.47787297333E+02  0.20000119862E+02 0.  0.
         12    1    3    3    0    0  0.30989266928E+02  0.10291216554E+02  0.28589809182E+02  0.43400702667E+02  0.00000000000E+00 0. -1.
         11    1    4    4    0    0 -0.63343786918E+01  0.35597982723E+01 -0.95657547371E+01  0.12012501034E+02  0.51100000000E-03 0. -1.
        -11    1    4    4    0    0 -0.22755966362E+02 -0.90016449286E+01 -0.18210184491E+02  0.30503679056E+02  0.51100000000E-03 0.  1.
        -12    1    4    4    0    0 -0.18989218742E+01 -0.48493698973E+01 -0.81386995345E+00  0.52711172427E+01  0.00000000000E+00 0.  1.
</event>
<event>
 8    1  0.8600524E-011  0.9118800E+02  0.7816164E-02  0.1184000E+00
        -11   -1    0    0    0    0  0.00000000000E+00  0.00000000000E+00  0.45593999997E+02  0.45594000000E+02  0.51100000000E-03 0. -1.
         11   -1    0    0    0    0 -0.00000000000E+00 -0.00000000000E+00 -0.45593999997E+02  0.45594000000E+02  0.51100000000E-03 0.  1.
         23    2    1    2    0    0 -0.11102230246E-15  0.00000000000E+00  0.00000000000E+00  0.91188000000E+02  0.91188000000E+02 0.  0.
    9900012    2    3    3    0    0  0.92155181959E+00  0.15524678465E+02 -0.40518617721E+02  0.47787270960E+02  0.19999999614E+02 0.  0.
         12    1    3    3    0    0 -0.92155181959E+00 -0.15524678465E+02  0.40518617721E+02  0.43400729040E+02  0.00000000000E+00 0. -1.
         11    1    4    4    0    0 -0.34479740640E+01 -0.51523221482E+00 -0.15229348175E+02  0.15623285041E+02  0.51100000000E-03 0. -1.
        -11    1    4    4    0    0  0.50504131642E+01  0.12599316326E+02 -0.11061152775E+02  0.17509955625E+02  0.51100000000E-03 0.  1.
        -12    1    4    4    0    0 -0.68088728059E+00  0.34405943535E+01 -0.14228116771E+02  0.14654030293E+02  0.00000000000E+00 0.  1.
</event>
<event>
 8    1  0.8600524E-011  0.9118800E+02  0.7816164E-02  0.1184000E+00
        -11   -1    0    0    0    0  0.00000000000E+00  0.00000000000E+00  0.45593999997E+02  0.45594000000E+02  0.51100000000E-03 0. -1.
         11   -1    0    0    0    0 -0.00000000000E+00 -0.00000000000E+00 -0.45593999997E+02  0.45594000000E+02  0.51100000000E-03 0.  1.
         23    2    1    2    0    0  0.00000000000E+00  0.00000000000E+00 -0.71054273576E-14  0.91188000000E+02  0.91188000000E+02 0.  0.
    9900012    2    3    3    0    0  0.16836139309E+02  0.11881932441E+02 -0.38196676187E+02  0.47787285984E+02  0.20000068114E+02 0.  0.
         12    1    3    3    0    0 -0.16836139309E+02 -0.11881932441E+02  0.38196676187E+02  0.43400714016E+02  0.00000000000E+00 0. -1.
         11    1    4    4    0    0  0.13111995070E+02  0.79635990549E+01 -0.14315293822E+02  0.20982634775E+02  0.51100000000E-03 0. -1.
        -11    1    4    4    0    0  0.84029301254E+00  0.34534314991E+01 -0.23604378934E+02  0.23870462639E+02  0.51100000000E-03 0.  1.
         12    1    4    4    0    0  0.28838512268E+01  0.46490188655E+00 -0.27700343057E+00  0.29341885697E+01  0.00000000000E+00 0. -1.
</event>
<event>
 8    1  0.8600524E-011  0.9118800E+02  0.7816164E-02  0.1184000E+00
        -11   -1    0    0    0    0  0.00000000000E+00  0.00000000000E+00  0.45593999997E+02  0.45594000000E+02  0.51100000000E-03 0. -1.
         11   -1    0    0    0    0 -0.00000000000E+00 -0.00000000000E+00 -0.45593999997E+02  0.45594000000E+02  0.51100000000E-03 0.  1.
         23    2    1    2    0    0  0.00000000000E+00  0.88817841970E-15  0.00000000000E+00  0.91188000000E+02  0.91188000000E+02 0.  0.
    9900012    2    3    3    0    0  0.14865323678E+02  0.52437266457E+00 -0.40772176985E+02  0.47787271540E+02  0.20000002259E+02 0.  0.
         12    1    3    3    0    0 -0.14865323678E+02 -0.52437266457E+00  0.40772176985E+02  0.43400728460E+02  0.00000000000E+00 0. -1.
         11    1    4    4    0    0  0.44437648474E+01  0.55895890911E+01 -0.36525061273E+01  0.80206828573E+01  0.51100000000E-03 0. -1.
        -11    1    4    4    0    0  0.37787324881E+01  0.21465159492E+01 -0.91870210210E+01  0.10163055910E+02  0.51100000000E-03 0.  1.
         12    1    4    4    0    0  0.66428263423E+01 -0.72117323757E+01 -0.27932649837E+02  0.29603532772E+02  0.00000000000E+00 0. -1.
</event>
<event>
 8    1  0.8600524E-011  0.9118800E+02  0.7816164E-02  0.1184000E+00
        -11   -1    0    0    0    0  0.00000000000E+00  0.00000000000E+00  0.45593999997E+02  0.45594000000E+02  0.51100000000E-03 0. -1.
         11   -1    0    0    0    0 -0.00000000000E+00 -0.00000000000E+00 -0.45593999997E+02  0.45594000000E+02  0.51100000000E-03 0.  1.
         23    2    1    2    0    0  0.35527136788E-14  0.00000000000E+00  0.00000000000E+00  0.91188000000E+02  0.91188000000E+02 0.  0.
    9900012    2    3    3    0    0  0.28824943430E+02  0.49312889523E+01 -0.32069113731E+02  0.47787273855E+02  0.20000012813E+02 0.  0.
         12    1    3    3    0    0 -0.28824943430E+02 -0.49312889523E+01  0.32069113731E+02  0.43400726145E+02  0.00000000000E+00 0. -1.
         11    1    4    4    0    0  0.98534703975E+01  0.93409788098E+01 -0.89500654110E+01  0.16261870591E+02  0.51100000000E-03 0.  1.
        -11    1    4    4    0    0  0.14027297230E+02 -0.71558020172E+01 -0.16259101851E+02  0.22634684962E+02  0.51100000000E-03 0. -1.
         12    1    4    4    0    0  0.49441758028E+01  0.27461121597E+01 -0.68599464687E+01  0.88907183015E+01  0.00000000000E+00 0. -1.
</event>
<event>
 8    1  0.8600524E-011  0.9118800E+02  0.7816164E-02  0.1184000E+00
        -11   -1    0    0    0    0  0.00000000000E+00  0.00000000000E+00  0.45593999997E+02  0.45594000000E+02  0.51100000000E-03 0. -1.
         11   -1    0    0    0    0 -0.00000000000E+00 -0.00000000000E+00 -0.45593999997E+02  0.45594000000E+02  0.51100000000E-03 0.  1.
         23    2    1    2    0    0  0.35527136788E-14  0.00000000000E+00  0.00000000000E+00  0.91188000000E+02  0.91188000000E+02 0.  0.
    9900012    2    3    3    0    0 -0.17710161560E+02 -0.28353848201E+02  0.27677292412E+02  0.47787273675E+02  0.20000011992E+02 0.  0.
        -12    1    3    3    0    0  0.17710161560E+02  0.28353848201E+02 -0.27677292412E+02  0.43400726325E+02  0.00000000000E+00 0.  1.
         11    1    4    4    0    0 -0.10264158260E+02 -0.20238079961E+02  0.27157030592E+02  0.35389788586E+02  0.51100000000E-03 0. -1.
        -11    1    4    4    0    0 -0.83197768200E+01 -0.74894726620E+01 -0.20147186021E-01  0.11194252689E+02  0.51100000000E-03 0.  1.
         12    1    4    4    0    0  0.87377351973E+00 -0.62629557796E+00  0.54040900618E+00  0.12032324001E+01  0.00000000000E+00 0. -1.
</event>
<event>
 8    1  0.9943703E-011  0.9118800E+02  0.7816164E-02  0.1184000E+00
        -11   -1    0    0    0    0  0.00000000000E+00  0.00000000000E+00  0.45593999997E+02  0.45594000000E+02  0.51100000000E-03 0. -1.
         11   -1    0    0    0    0 -0.00000000000E+00 -0.00000000000E+00 -0.45593999997E+02  0.45594000000E+02  0.51100000000E-03 0.  1.
         23    2    1    2    0    0  0.00000000000E+00  0.00000000000E+00 -0.35527136788E-14  0.91188000000E+02  0.91188000000E+02 0.  0.
    9900012    2    3    3    0    0 -0.49959081590E+01 -0.38203602758E+02  0.19978630875E+02  0.47787308143E+02  0.20000169147E+02 0.  0.
        -12    1    3    3    0    0  0.49959081590E+01  0.38203602758E+02 -0.19978630875E+02  0.43400691857E+02  0.00000000000E+00 0.  1.
         11    1    4    4    0    0  0.21440893368E+01 -0.19780006592E+02  0.15512969393E+02  0.25228911977E+02  0.51100000000E-03 0. -1.
        -11    1    4    4    0    0 -0.84617462913E+01 -0.17547234099E+02  0.59672977733E+01  0.20374376501E+02  0.51100000000E-03 0.  1.
        -12    1    4    4    0    0  0.13217487955E+01 -0.87636206602E+00 -0.15016362906E+01  0.21840196653E+01  0.00000000000E+00 0.  1.
</event>
<event>
 8    1  0.8600524E-011  0.9118800E+02  0.7816164E-02  0.1184000E+00
        -11   -1    0    0    0    0  0.00000000000E+00  0.00000000000E+00  0.45593999997E+02  0.45594000000E+02  0.51100000000E-03 0. -1.
         11   -1    0    0    0    0 -0.00000000000E+00 -0.00000000000E+00 -0.45593999997E+02  0.45594000000E+02  0.51100000000E-03 0.  1.
         23    2    1    2    0    0  0.71054273576E-14  0.17763568394E-14 -0.71054273576E-14  0.91188000000E+02  0.91188000000E+02 0.  0.
    9900012    2    3    3    0    0  0.26131415207E+02  0.10143281769E+02 -0.33134369145E+02  0.47787269080E+02  0.19999991041E+02 0.  0.
         12    1    3    3    0    0 -0.26131415207E+02 -0.10143281769E+02  0.33134369145E+02  0.43400730920E+02  0.00000000000E+00 0. -1.
         11    1    4    4    0    0  0.64750550691E+01 -0.57065215488E+01 -0.69565941065E+01  0.11085347453E+02  0.51100000000E-03 0. -1.
        -11    1    4    4    0    0  0.16732790907E+02  0.10982664638E+02 -0.21131948644E+02  0.29106089875E+02  0.51100000000E-03 0.  1.
         12    1    4    4    0    0  0.29235692309E+01  0.48671386801E+01 -0.50458263950E+01  0.75958317509E+01  0.00000000000E+00 0. -1.
</event>
<event>
 8    1  0.8600524E-011  0.9118800E+02  0.7816164E-02  0.1184000E+00
        -11   -1    0    0    0    0  0.00000000000E+00  0.00000000000E+00  0.45593999997E+02  0.45594000000E+02  0.51100000000E-03 0. -1.
         11   -1    0    0    0    0 -0.00000000000E+00 -0.00000000000E+00 -0.45593999997E+02  0.45594000000E+02  0.51100000000E-03 0.  1.
         23    2    1    2    0    0  0.00000000000E+00  0.00000000000E+00  0.00000000000E+00  0.91188000000E+02  0.91188000000E+02 0.  0.
    9900012    2    3    3    0    0  0.12980905268E+02  0.36166767373E+02  0.20176333189E+02  0.47787269768E+02  0.19999994179E+02 0.  0.
        -12    1    3    3    0    0 -0.12980905268E+02 -0.36166767373E+02 -0.20176333189E+02  0.43400730232E+02  0.00000000000E+00 0.  1.
         11    1    4    4    0    0  0.14305577681E+00  0.12375876370E+01  0.21874532374E+01  0.25173478190E+01  0.51100000000E-03 0. -1.
        -11    1    4    4    0    0 -0.42233833273E+01  0.50506208729E+01  0.31950926538E+00  0.65914963675E+01  0.51100000000E-03 0.  1.
        -12    1    4    4    0    0  0.17061232819E+02  0.29878558863E+02  0.17669370686E+02  0.38678425581E+02  0.00000000000E+00 0.  1.
</event>
<event>
 8    1  0.8600524E-011  0.9118800E+02  0.7816164E-02  0.1184000E+00
        -11   -1    0    0    0    0  0.00000000000E+00  0.00000000000E+00  0.45593999997E+02  0.45594000000E+02  0.51100000000E-03 0. -1.
         11   -1    0    0    0    0 -0.00000000000E+00 -0.00000000000E+00 -0.45593999997E+02  0.45594000000E+02  0.51100000000E-03 0.  1.
         23    2    1    2    0    0  0.00000000000E+00  0.00000000000E+00 -0.35527136788E-14  0.91188000000E+02  0.91188000000E+02 0.  0.
    9900012    2    3    3    0    0 -0.10864965468E+02 -0.35166630347E+02 -0.22997482355E+02  0.47787267756E+02  0.19999985008E+02 0.  0.
         12    1    3    3    0    0  0.10864965468E+02  0.35166630347E+02  0.22997482355E+02  0.43400732244E+02  0.00000000000E+00 0. -1.
         11    1    4    4    0    0  0.39125279453E+01 -0.26033623976E+01 -0.11192397121E+01  0.48309490259E+01  0.51100000000E-03 0. -1.
        -11    1    4    4    0    0 -0.15545741896E+02 -0.31036514003E+02 -0.18903815260E+02  0.39525808331E+02  0.51100000000E-03 0.  1.
        -12    1    4    4    0    0  0.76824848293E+00 -0.15267539467E+01 -0.29744273829E+01  0.34305103995E+01  0.00000000000E+00 0.  1.
</event>
<event>
 8    1  0.8600524E-011  0.9118800E+02  0.7816164E-02  0.1184000E+00
        -11   -1    0    0    0    0  0.00000000000E+00  0.00000000000E+00  0.45593999997E+02  0.45594000000E+02  0.51100000000E-03 0. -1.
         11   -1    0    0    0    0 -0.00000000000E+00 -0.00000000000E+00 -0.45593999997E+02  0.45594000000E+02  0.51100000000E-03 0.  1.
         23    2    1    2    0    0  0.00000000000E+00 -0.44408920985E-15  0.00000000000E+00  0.91188000000E+02  0.91188000000E+02 0.  0.
    9900012    2    3    3    0    0 -0.25278969827E+02  0.21484396862E+01 -0.35213342322E+02  0.47787290488E+02  0.20000088652E+02 0.  0.
         12    1    3    3    0    0  0.25278969827E+02 -0.21484396862E+01  0.35213342322E+02  0.43400709512E+02  0.00000000000E+00 0. -1.
         11    1    4    4    0    0 -0.11776221325E+02  0.72936086085E+01 -0.97299224744E+01  0.16927714165E+02  0.51100000000E-03 0. -1.
        -11    1    4    4    0    0 -0.21436677825E+01 -0.48559106687E+01 -0.43405103497E+01  0.68567638388E+01  0.51100000000E-03 0.  1.
         12    1    4    4    0    0 -0.11359080720E+02 -0.28925825359E+00 -0.21142909498E+02  0.24002812485E+02  0.00000000000E+00 0. -1.
</event>
<event>
 8    1  0.8600524E-011  0.9118800E+02  0.7816164E-02  0.1184000E+00
        -11   -1    0    0    0    0  0.00000000000E+00  0.00000000000E+00  0.45593999997E+02  0.45594000000E+02  0.51100000000E-03 0. -1.
         11   -1    0    0    0    0 -0.00000000000E+00 -0.00000000000E+00 -0.45593999997E+02  0.45594000000E+02  0.51100000000E-03 0.  1.
         23    2    1    2    0    0  0.35527136788E-14  0.44408920985E-15 -0.71054273576E-14  0.91188000000E+02  0.91188000000E+02 0.  0.
    9900012    2    3    3    0    0  0.19297314885E+02  0.33831287412E+01 -0.38727137831E+02  0.47787272743E+02  0.20000007743E+02 0.  0.
         12    1    3    3    0    0 -0.19297314885E+02 -0.33831287412E+01  0.38727137831E+02  0.43400727257E+02  0.00000000000E+00 0. -1.
         11    1    4    4    0    0 -0.78634530065E+00  0.11161331338E+01 -0.17295304798E+02  0.17349111228E+02  0.51100000000E-03 0. -1.
        -11    1    4    4    0    0  0.14886770437E+02 -0.63083456877E+00 -0.18645889887E+02  0.23868035031E+02  0.51100000000E-03 0.  1.
         12    1    4    4    0    0  0.51968897488E+01  0.28978301762E+01 -0.27859431468E+01  0.65701264834E+01  0.00000000000E+00 0. -1.
</event>
<event>
 8    1  0.8600524E-011  0.9118800E+02  0.7816164E-02  0.1184000E+00
        -11   -1    0    0    0    0  0.00000000000E+00  0.00000000000E+00  0.45593999997E+02  0.45594000000E+02  0.51100000000E-03 0. -1.
         11   -1    0    0    0    0 -0.00000000000E+00 -0.00000000000E+00 -0.45593999997E+02  0.45594000000E+02  0.51100000000E-03 0.  1.
         23    2    1    2    0    0 -0.35527136788E-14  0.00000000000E+00  0.00000000000E+00  0.91188000000E+02  0.91188000000E+02 0.  0.
    9900012    2    3    3    0    0 -0.24103124832E+02  0.25518205544E+02  0.25524183296E+02  0.47787269894E+02  0.19999994754E+02 0.  0.
        -12    1    3    3    0    0  0.24103124832E+02 -0.25518205544E+02 -0.25524183296E+02  0.43400730106E+02  0.00000000000E+00 0.  1.
         11    1    4    4    0    0 -0.20115990184E+01 -0.19825733048E+00  0.42326305250E+01  0.46905221460E+01  0.51100000000E-03 0. -1.
        -11    1    4    4    0    0  0.18681465665E+01  0.61733598629E+01  0.49092899754E+01  0.81056444478E+01  0.51100000000E-03 0.  1.
        -12    1    4    4    0    0 -0.23959672380E+02  0.19543103012E+02  0.16382262795E+02  0.34991103300E+02  0.00000000000E+00 0.  1.
</event>
<event>
 8    1  0.8600524E-011  0.9118800E+02  0.7816164E-02  0.1184000E+00
        -11   -1    0    0    0    0  0.00000000000E+00  0.00000000000E+00  0.45593999997E+02  0.45594000000E+02  0.51100000000E-03 0. -1.
         11   -1    0    0    0    0 -0.00000000000E+00 -0.00000000000E+00 -0.45593999997E+02  0.45594000000E+02  0.51100000000E-03 0.  1.
         23    2    1    2    0    0 -0.35527136788E-14 -0.35527136788E-14 -0.71054273576E-14  0.91188000000E+02  0.91188000000E+02 0.  0.
    9900012    2    3    3    0    0 -0.16535772534E+02 -0.25132387297E+02 -0.31281859057E+02  0.47787269930E+02  0.19999994920E+02 0.  0.
         12    1    3    3    0    0  0.16535772534E+02  0.25132387297E+02  0.31281859057E+02  0.43400730070E+02  0.00000000000E+00 0. -1.
         11    1    4    4    0    0  0.52382999045E+00  0.17542633764E+01 -0.63834531268E+00  0.19388973289E+01  0.51100000000E-03 0. -1.
        -11    1    4    4    0    0 -0.64079952779E+01 -0.18085613424E+02 -0.11955895582E+02  0.22607415947E+02  0.51100000000E-03 0.  1.
        -12    1    4    4    0    0 -0.10651607246E+02 -0.88010372495E+01 -0.18687618163E+02  0.23240956654E+02  0.00000000000E+00 0.  1.
</event>
<event>
 8    1  0.8600524E-011  0.9118800E+02  0.7816164E-02  0.1184000E+00
        -11   -1    0    0    0    0  0.00000000000E+00  0.00000000000E+00  0.45593999997E+02  0.45594000000E+02  0.51100000000E-03 0. -1.
         11   -1    0    0    0    0 -0.00000000000E+00 -0.00000000000E+00 -0.45593999997E+02  0.45594000000E+02  0.51100000000E-03 0.  1.
         23    2    1    2    0    0  0.00000000000E+00  0.00000000000E+00  0.35527136788E-14  0.91188000000E+02  0.91188000000E+02 0.  0.
    9900012    2    3    3    0    0  0.96443030780E+01 -0.28464629504E+02 -0.31310955272E+02  0.47787266888E+02  0.19999981048E+02 0.  0.
         12    1    3    3    0    0 -0.96443030780E+01  0.28464629504E+02  0.31310955272E+02  0.43400733112E+02  0.00000000000E+00 0. -1.
         11    1    4    4    0    0  0.90294373521E+01 -0.92188168047E+01 -0.31420288337E+01  0.13281177193E+02  0.51100000000E-03 0. -1.
        -11    1    4    4    0    0 -0.24319876607E+00 -0.11006934735E+02 -0.20233963292E+02  0.23035299622E+02  0.51100000000E-03 0.  1.
        -12    1    4    4    0    0  0.85806449203E+00 -0.82388779637E+01 -0.79349631463E+01  0.11470790073E+02  0.00000000000E+00 0.  1.
</event>
<event>
 8    1  0.8600524E-011  0.9118800E+02  0.7816164E-02  0.1184000E+00
        -11   -1    0    0    0    0  0.00000000000E+00  0.00000000000E+00  0.45593999997E+02  0.45594000000E+02  0.51100000000E-03 0. -1.
         11   -1    0    0    0    0 -0.00000000000E+00 -0.00000000000E+00 -0.45593999997E+02  0.45594000000E+02  0.51100000000E-03 0.  1.
         23    2    1    2    0    0  0.00000000000E+00 -0.35527136788E-14  0.00000000000E+00  0.91188000000E+02  0.91188000000E+02 0.  0.
    9900012    2    3    3    0    0 -0.95320899741E+01  0.18607570255E+02  0.38033153604E+02  0.47787272090E+02  0.20000004766E+02 0.  0.
        -12    1    3    3    0    0  0.95320899741E+01 -0.18607570255E+02 -0.38033153604E+02  0.43400727910E+02  0.00000000000E+00 0.  1.
         11    1    4    4    0    0 -0.47135234525E+01  0.18148648961E+02  0.29712004340E+02  0.35133943198E+02  0.51100000000E-03 0. -1.
        -11    1    4    4    0    0  0.21001083409E+01 -0.43158625524E+00  0.55582207417E+00  0.22148724972E+01  0.51100000000E-03 0.  1.
         12    1    4    4    0    0 -0.69186748626E+01  0.89050754983E+00  0.77653271896E+01  0.10438456395E+02  0.00000000000E+00 0. -1.
</event>
<event>
 8    1  0.8600524E-011  0.9118800E+02  0.7816164E-02  0.1184000E+00
        -11   -1    0    0    0    0  0.00000000000E+00  0.00000000000E+00  0.45593999997E+02  0.45594000000E+02  0.51100000000E-03 0. -1.
         11   -1    0    0    0    0 -0.00000000000E+00 -0.00000000000E+00 -0.45593999997E+02  0.45594000000E+02  0.51100000000E-03 0.  1.
         23    2    1    2    0    0  0.00000000000E+00 -0.35527136788E-14  0.00000000000E+00  0.91188000000E+02  0.91188000000E+02 0.  0.
    9900012    2    3    3    0    0 -0.21442288014E+02 -0.29403205623E+02 -0.23649579915E+02  0.47787275970E+02  0.20000022458E+02 0.  0.
         12    1    3    3    0    0  0.21442288014E+02  0.29403205623E+02  0.23649579915E+02  0.43400724030E+02  0.00000000000E+00 0. -1.
         11    1    4    4    0    0 -0.12721167554E+02 -0.24680422003E+02 -0.10381072832E+02  0.29643178095E+02  0.51100000000E-03 0. -1.
        -11    1    4    4    0    0 -0.70402194855E+01  0.35412024223E-01 -0.57548810094E+01  0.90931072857E+01  0.51100000000E-03 0.  1.
         12    1    4    4    0    0 -0.16809009742E+01 -0.47581956443E+01 -0.75136260734E+01  0.90509905892E+01  0.00000000000E+00 0. -1.
</event>
<event>
 8    1  0.8600524E-011  0.9118800E+02  0.7816164E-02  0.1184000E+00
        -11   -1    0    0    0    0  0.00000000000E+00  0.00000000000E+00  0.45593999997E+02  0.45594000000E+02  0.51100000000E-03 0. -1.
         11   -1    0    0    0    0 -0.00000000000E+00 -0.00000000000E+00 -0.45593999997E+02  0.45594000000E+02  0.51100000000E-03 0.  1.
         23    2    1    2    0    0  0.00000000000E+00  0.17763568394E-14  0.00000000000E+00  0.91188000000E+02  0.91188000000E+02 0.  0.
    9900012    2    3    3    0    0 -0.22522198523E+02  0.80217070727E+01  0.36221900272E+02  0.47787271089E+02  0.20000000203E+02 0.  0.
        -12    1    3    3    0    0  0.22522198523E+02 -0.80217070727E+01 -0.36221900272E+02  0.43400728911E+02  0.00000000000E+00 0.  1.
         11    1    4    4    0    0 -0.36369299774E+01 -0.11566051178E+01  0.87300559493E+01  0.95277947185E+01  0.51100000000E-03 0. -1.
        -11    1    4    4    0    0 -0.19618658908E+02  0.24531541846E+01  0.19224119373E+02  0.27576738544E+02  0.51100000000E-03 0.  1.
        -12    1    4    4    0    0  0.73339036202E+00  0.67251580059E+01  0.82677249495E+01  0.10682737826E+02  0.00000000000E+00 0.  1.
</event>
<event>
 8    1  0.8600524E-011  0.9118800E+02  0.7816164E-02  0.1184000E+00
        -11   -1    0    0    0    0  0.00000000000E+00  0.00000000000E+00  0.45593999997E+02  0.45594000000E+02  0.51100000000E-03 0. -1.
         11   -1    0    0    0    0 -0.00000000000E+00 -0.00000000000E+00 -0.45593999997E+02  0.45594000000E+02  0.51100000000E-03 0.  1.
         23    2    1    2    0    0  0.44408920985E-15 -0.71054273576E-14 -0.88817841970E-15  0.91188000000E+02  0.91188000000E+02 0.  0.
    9900012    2    3    3    0    0 -0.22249189680E+01  0.42667287475E+02  0.76273151490E+01  0.47787267042E+02  0.19999981752E+02 0.  0.
        -12    1    3    3    0    0  0.22249189680E+01 -0.42667287475E+02 -0.76273151490E+01  0.43400732958E+02  0.00000000000E+00 0.  1.
         11    1    4    4    0    0  0.13653592207E+01  0.38997061396E+02  0.95403819515E+00  0.39032617033E+02  0.51100000000E-03 0. -1.
        -11    1    4    4    0    0 -0.18093086230E+01  0.32142038441E+01  0.53124567830E+01  0.64673720612E+01  0.51100000000E-03 0.  1.
         12    1    4    4    0    0 -0.17809695657E+01  0.45602223469E+00  0.13608201709E+01  0.22872779477E+01  0.00000000000E+00 0. -1.
</event>
<event>
 8    1  0.8600524E-011  0.9118800E+02  0.7816164E-02  0.1184000E+00
        -11   -1    0    0    0    0  0.00000000000E+00  0.00000000000E+00  0.45593999997E+02  0.45594000000E+02  0.51100000000E-03 0. -1.
         11   -1    0    0    0    0 -0.00000000000E+00 -0.00000000000E+00 -0.45593999997E+02  0.45594000000E+02  0.51100000000E-03 0.  1.
         23    2    1    2    0    0 -0.35527136788E-14  0.00000000000E+00  0.00000000000E+00  0.91188000000E+02  0.91188000000E+02 0.  0.
    9900012    2    3    3    0    0 -0.14740659621E+02  0.22904792943E+02 -0.33789147716E+02  0.47787273172E+02  0.20000009699E+02 0.  0.
         12    1    3    3    0    0  0.14740659621E+02 -0.22904792943E+02  0.33789147716E+02  0.43400726828E+02  0.00000000000E+00 0. -1.
         11    1    4    4    0    0  0.28760873727E+01  0.43898646715E+01 -0.13386782523E+01  0.54161656302E+01  0.51100000000E-03 0. -1.
        -11    1    4    4    0    0 -0.65549915348E+01  0.67343524867E+01 -0.19556878249E+02  0.21697716575E+02  0.51100000000E-03 0.  1.
         12    1    4    4    0    0 -0.11061755459E+02  0.11780575785E+02 -0.12893591214E+02  0.20673390967E+02  0.00000000000E+00 0. -1.
</event>
<event>
 8    1  0.8600524E-011  0.9118800E+02  0.7816164E-02  0.1184000E+00
        -11   -1    0    0    0    0  0.00000000000E+00  0.00000000000E+00  0.45593999997E+02  0.45594000000E+02  0.51100000000E-03 0. -1.
         11   -1    0    0    0    0 -0.00000000000E+00 -0.00000000000E+00 -0.45593999997E+02  0.45594000000E+02  0.51100000000E-03 0.  1.
         23    2    1    2    0    0  0.00000000000E+00 -0.17763568394E-14  0.00000000000E+00  0.91188000000E+02  0.91188000000E+02 0.  0.
    9900012    2    3    3    0    0  0.40850667932E+02  0.87501105676E+01 -0.11759326438E+02  0.47787271161E+02  0.20000000534E+02 0.  0.
         12    1    3    3    0    0 -0.40850667932E+02 -0.87501105676E+01  0.11759326438E+02  0.43400728839E+02  0.00000000000E+00 0. -1.
         11    1    4    4    0    0  0.20478357729E+02  0.63094698940E+01  0.31953186260E+01  0.21665239602E+02  0.51100000000E-03 0. -1.
        -11    1    4    4    0    0  0.43011246502E+01  0.20297847824E+01 -0.62074283451E+01  0.78199658848E+01  0.51100000000E-03 0.  1.
         12    1    4    4    0    0  0.16071185553E+02  0.41085589108E+00 -0.87472167190E+01  0.18302065675E+02  0.00000000000E+00 0. -1.
</event>
<event>
 8    1  0.8600524E-011  0.9118800E+02  0.7816164E-02  0.1184000E+00
        -11   -1    0    0    0    0  0.00000000000E+00  0.00000000000E+00  0.45593999997E+02  0.45594000000E+02  0.51100000000E-03 0. -1.
         11   -1    0    0    0    0 -0.00000000000E+00 -0.00000000000E+00 -0.45593999997E+02  0.45594000000E+02  0.51100000000E-03 0.  1.
         23    2    1    2    0    0  0.19428902931E-15  0.00000000000E+00  0.00000000000E+00  0.91188000000E+02  0.91188000000E+02 0.  0.
    9900012    2    3    3    0    0 -0.19637711936E+00  0.41224246032E+02  0.13570050847E+02  0.47787270687E+02  0.19999998370E+02 0.  0.
        -12    1    3    3    0    0  0.19637711936E+00 -0.41224246032E+02 -0.13570050847E+02  0.43400729313E+02  0.00000000000E+00 0.  1.
         11    1    4    4    0    0 -0.42010529643E+01  0.17972152512E+02  0.13071628569E+02  0.22616688211E+02  0.51100000000E-03 0. -1.
        -11    1    4    4    0    0  0.14631717096E+01  0.39887671284E+00 -0.14446683359E+01  0.20945264251E+01  0.51100000000E-03 0.  1.
         12    1    4    4    0    0  0.25415041353E+01  0.22853216807E+02  0.19430906130E+01  0.23076056051E+02  0.00000000000E+00 0. -1.
</event>
<event>
 8    1  0.8600524E-011  0.9118800E+02  0.7816164E-02  0.1184000E+00
        -11   -1    0    0    0    0  0.00000000000E+00  0.00000000000E+00  0.45593999997E+02  0.45594000000E+02  0.51100000000E-03 0. -1.
         11   -1    0    0    0    0 -0.00000000000E+00 -0.00000000000E+00 -0.45593999997E+02  0.45594000000E+02  0.51100000000E-03 0.  1.
         23    2    1    2    0    0  0.17763568394E-14  0.00000000000E+00  0.00000000000E+00  0.91188000000E+02  0.91188000000E+02 0.  0.
    9900012    2    3    3    0    0  0.15984469048E+02 -0.20539459186E+02 -0.34731120416E+02  0.47787270055E+02  0.19999995488E+02 0.  0.
         12    1    3    3    0    0 -0.15984469048E+02  0.20539459186E+02  0.34731120416E+02  0.43400729945E+02  0.00000000000E+00 0. -1.
         11    1    4    4    0    0 -0.81327774670E+00 -0.25149959799E+01 -0.11872513985E+02  0.12163190949E+02  0.51100000000E-03 0. -1.
        -11    1    4    4    0    0  0.12920047282E+02 -0.61740636506E+01 -0.86885596767E+01  0.16749261275E+02  0.51100000000E-03 0.  1.
        -12    1    4    4    0    0  0.38776995124E+01 -0.11850399555E+02 -0.14170046755E+02  0.18874817831E+02  0.00000000000E+00 0.  1.
</event>
<event>
 8    1  0.8600524E-011  0.9118800E+02  0.7816164E-02  0.1184000E+00
        -11   -1    0    0    0    0  0.00000000000E+00  0.00000000000E+00  0.45593999997E+02  0.45594000000E+02  0.51100000000E-03 0. -1.
         11   -1    0    0    0    0 -0.00000000000E+00 -0.00000000000E+00 -0.45593999997E+02  0.45594000000E+02  0.51100000000E-03 0.  1.
         23    2    1    2    0    0  0.00000000000E+00  0.00000000000E+00  0.00000000000E+00  0.91188000000E+02  0.91188000000E+02 0.  0.
    9900012    2    3    3    0    0  0.18362416631E+02  0.16468569777E+02 -0.35710396534E+02  0.47787256277E+02  0.19999932671E+02 0.  0.
         12    1    3    3    0    0 -0.18362416631E+02 -0.16468569777E+02  0.35710396534E+02  0.43400743723E+02  0.00000000000E+00 0. -1.
         11    1    4    4    0    0  0.25643907517E+01 -0.58257478227E+00  0.29453402672E+00  0.26461753264E+01  0.51100000000E-03 0. -1.
        -11    1    4    4    0    0  0.52822348231E+01  0.66786990851E+01 -0.25850290936E+02  0.27216623007E+02  0.51100000000E-03 0.  1.
        -12    1    4    4    0    0  0.10515791056E+02  0.10372445474E+02 -0.10154639625E+02  0.17924457944E+02  0.00000000000E+00 0.  1.
</event>
<event>
 8    1  0.8600524E-011  0.9118800E+02  0.7816164E-02  0.1184000E+00
        -11   -1    0    0    0    0  0.00000000000E+00  0.00000000000E+00  0.45593999997E+02  0.45594000000E+02  0.51100000000E-03 0.  1.
         11   -1    0    0    0    0 -0.00000000000E+00 -0.00000000000E+00 -0.45593999997E+02  0.45594000000E+02  0.51100000000E-03 0. -1.
         23    2    1    2    0    0  0.00000000000E+00  0.00000000000E+00  0.00000000000E+00  0.91188000000E+02  0.91188000000E+02 0.  0.
    9900012    2    3    3    0    0 -0.17687946603E+02 -0.21114727255E+02 -0.33539946767E+02  0.47787271996E+02  0.20000004340E+02 0.  0.
         12    1    3    3    0    0  0.17687946603E+02  0.21114727255E+02  0.33539946767E+02  0.43400728004E+02  0.00000000000E+00 0. -1.
         11    1    4    4    0    0 -0.73740189725E+00 -0.13424260911E+02 -0.86998453709E+01  0.16013801931E+02  0.51100000000E-03 0. -1.
        -11    1    4    4    0    0 -0.11063558861E+02 -0.35211655825E+01 -0.10208123646E+02  0.15459842508E+02  0.51100000000E-03 0.  1.
        -12    1    4    4    0    0 -0.58869858449E+01 -0.41693007618E+01 -0.14631977751E+02  0.16313627557E+02  0.00000000000E+00 0.  1.
</event>
<event>
 8    1  0.8600524E-011  0.9118800E+02  0.7816164E-02  0.1184000E+00
        -11   -1    0    0    0    0  0.00000000000E+00  0.00000000000E+00  0.45593999997E+02  0.45594000000E+02  0.51100000000E-03 0. -1.
         11   -1    0    0    0    0 -0.00000000000E+00 -0.00000000000E+00 -0.45593999997E+02  0.45594000000E+02  0.51100000000E-03 0.  1.
         23    2    1    2    0    0  0.35527136788E-14  0.00000000000E+00  0.00000000000E+00  0.91188000000E+02  0.91188000000E+02 0.  0.
    9900012    2    3    3    0    0 -0.11579443817E+02  0.28067426501E+01  0.41733221949E+02  0.47787272613E+02  0.20000007153E+02 0.  0.
        -12    1    3    3    0    0  0.11579443817E+02 -0.28067426501E+01 -0.41733221949E+02  0.43400727387E+02  0.00000000000E+00 0.  1.
         11    1    4    4    0    0 -0.36798925677E+01  0.25238363691E+01  0.26737904861E+02  0.27107691085E+02  0.51100000000E-03 0. -1.
        -11    1    4    4    0    0 -0.97138812117E+01 -0.26251602706E+01  0.78763224143E+01  0.12778396209E+02  0.51100000000E-03 0.  1.
         12    1    4    4    0    0  0.18143299627E+01  0.29080665516E+01  0.71189946739E+01  0.79011853193E+01  0.00000000000E+00 0. -1.
</event>
<event>
 8    1  0.8600524E-011  0.9118800E+02  0.7816164E-02  0.1184000E+00
        -11   -1    0    0    0    0  0.00000000000E+00  0.00000000000E+00  0.45593999997E+02  0.45594000000E+02  0.51100000000E-03 0. -1.
         11   -1    0    0    0    0 -0.00000000000E+00 -0.00000000000E+00 -0.45593999997E+02  0.45594000000E+02  0.51100000000E-03 0.  1.
         23    2    1    2    0    0  0.17763568394E-14  0.00000000000E+00  0.71054273576E-14  0.91188000000E+02  0.91188000000E+02 0.  0.
    9900012    2    3    3    0    0  0.71908360165E+01  0.26211257189E+02  0.33836148803E+02  0.47787273141E+02  0.20000009561E+02 0.  0.
        -12    1    3    3    0    0 -0.71908360165E+01 -0.26211257189E+02 -0.33836148803E+02  0.43400726859E+02  0.00000000000E+00 0.  1.
         11    1    4    4    0    0  0.44883255132E+01  0.24540321770E+02  0.34306275455E+02  0.42418073911E+02  0.51100000000E-03 0. -1.
        -11    1    4    4    0    0  0.88442328900E+00  0.28043523679E+01 -0.10945436847E+01  0.31376142045E+01  0.51100000000E-03 0.  1.
         12    1    4    4    0    0  0.18180872143E+01 -0.11334169483E+01  0.62441703225E+00  0.22315850259E+01  0.00000000000E+00 0. -1.
</event>
<event>
 8    1  0.8600524E-011  0.9118800E+02  0.7816164E-02  0.1184000E+00
        -11   -1    0    0    0    0  0.00000000000E+00  0.00000000000E+00  0.45593999997E+02  0.45594000000E+02  0.51100000000E-03 0. -1.
         11   -1    0    0    0    0 -0.00000000000E+00 -0.00000000000E+00 -0.45593999997E+02  0.45594000000E+02  0.51100000000E-03 0.  1.
         23    2    1    2    0    0  0.35527136788E-14 -0.17763568394E-14  0.00000000000E+00  0.91188000000E+02  0.91188000000E+02 0.  0.
    9900012    2    3    3    0    0  0.23020503264E+02  0.15322688842E+02 -0.33449890117E+02  0.47787268293E+02  0.19999987455E+02 0.  0.
         12    1    3    3    0    0 -0.23020503264E+02 -0.15322688842E+02  0.33449890117E+02  0.43400731707E+02  0.00000000000E+00 0. -1.
         11    1    4    4    0    0  0.65995349172E+01  0.35532284613E+01  0.79221728917E+00  0.75370353665E+01  0.51100000000E-03 0. -1.
        -11    1    4    4    0    0  0.14011964896E+02  0.69955815460E+01 -0.27478725026E+02  0.31628367816E+02  0.51100000000E-03 0.  1.
         12    1    4    4    0    0  0.24090034503E+01  0.47738788352E+01 -0.67633823801E+01  0.86218651101E+01  0.00000000000E+00 0. -1.
</event>
<event>
 8    1  0.8600524E-011  0.9118800E+02  0.7816164E-02  0.1184000E+00
        -11   -1    0    0    0    0  0.00000000000E+00  0.00000000000E+00  0.45593999997E+02  0.45594000000E+02  0.51100000000E-03 0. -1.
         11   -1    0    0    0    0 -0.00000000000E+00 -0.00000000000E+00 -0.45593999997E+02  0.45594000000E+02  0.51100000000E-03 0.  1.
         23    2    1    2    0    0  0.00000000000E+00 -0.88817841970E-15  0.71054273576E-14  0.91188000000E+02  0.91188000000E+02 0.  0.
    9900012    2    3    3    0    0  0.83082412675E+01  0.66938360847E+01 -0.42068858576E+02  0.47787272168E+02  0.20000005123E+02 0.  0.
         12    1    3    3    0    0 -0.83082412675E+01 -0.66938360847E+01  0.42068858576E+02  0.43400727832E+02  0.00000000000E+00 0. -1.
         11    1    4    4    0    0  0.99946958812E+01 -0.37386344797E+01 -0.16966175500E+02  0.20043014865E+02  0.51100000000E-03 0. -1.
        -11    1    4    4    0    0  0.16762658673E+01  0.59471342219E+01 -0.14152525134E+02  0.15442546442E+02  0.51100000000E-03 0.  1.
         12    1    4    4    0    0 -0.33627204809E+01  0.44853363425E+01 -0.10950157942E+02  0.12301710861E+02  0.00000000000E+00 0. -1.
</event>
<event>
 8    1  0.8600524E-011  0.9118800E+02  0.7816164E-02  0.1184000E+00
        -11   -1    0    0    0    0  0.00000000000E+00  0.00000000000E+00  0.45593999997E+02  0.45594000000E+02  0.51100000000E-03 0. -1.
         11   -1    0    0    0    0 -0.00000000000E+00 -0.00000000000E+00 -0.45593999997E+02  0.45594000000E+02  0.51100000000E-03 0.  1.
         23    2    1    2    0    0  0.00000000000E+00  0.00000000000E+00  0.00000000000E+00  0.91188000000E+02  0.91188000000E+02 0.  0.
    9900012    2    3    3    0    0  0.20885122004E+02 -0.11271311356E+02 -0.36337207021E+02  0.47787269650E+02  0.19999993640E+02 0.  0.
         12    1    3    3    0    0 -0.20885122004E+02  0.11271311356E+02  0.36337207021E+02  0.43400730350E+02  0.00000000000E+00 0. -1.
         11    1    4    4    0    0  0.11159359049E+01  0.15388185892E+01  0.19374094230E+01  0.27141906948E+01  0.51100000000E-03 0. -1.
        -11    1    4    4    0    0  0.80235686570E+01 -0.72188069539E+01 -0.17026577039E+02  0.20159195265E+02  0.51100000000E-03 0.  1.
         12    1    4    4    0    0  0.11745617443E+02 -0.55913229916E+01 -0.21248039406E+02  0.24913883690E+02  0.00000000000E+00 0. -1.
</event>
<event>
 8    1  0.8600524E-011  0.9118800E+02  0.7816164E-02  0.1184000E+00
        -11   -1    0    0    0    0  0.00000000000E+00  0.00000000000E+00  0.45593999997E+02  0.45594000000E+02  0.51100000000E-03 0. -1.
         11   -1    0    0    0    0 -0.00000000000E+00 -0.00000000000E+00 -0.45593999997E+02  0.45594000000E+02  0.51100000000E-03 0.  1.
         23    2    1    2    0    0  0.00000000000E+00  0.00000000000E+00  0.00000000000E+00  0.91188000000E+02  0.91188000000E+02 0.  0.
    9900012    2    3    3    0    0  0.16481502343E+02  0.20482687705E+02 -0.34531763679E+02  0.47787272841E+02  0.20000008193E+02 0.  0.
         12    1    3    3    0    0 -0.16481502343E+02 -0.20482687705E+02  0.34531763679E+02  0.43400727159E+02  0.00000000000E+00 0. -1.
         11    1    4    4    0    0 -0.22680892780E+01  0.21491819738E+01 -0.64522333580E+01  0.71689976773E+01  0.51100000000E-03 0. -1.
        -11    1    4    4    0    0  0.14613105780E+02  0.51293075111E+01 -0.15668836053E+02  0.22031002692E+02  0.51100000000E-03 0.  1.
         12    1    4    4    0    0  0.41364858413E+01  0.13204198220E+02 -0.12410694268E+02  0.18587272472E+02  0.00000000000E+00 0. -1.
</event>
<event>
 8    1  0.8600524E-011  0.9118800E+02  0.7816164E-02  0.1184000E+00
        -11   -1    0    0    0    0  0.00000000000E+00  0.00000000000E+00  0.45593999997E+02  0.45594000000E+02  0.51100000000E-03 0. -1.
         11   -1    0    0    0    0 -0.00000000000E+00 -0.00000000000E+00 -0.45593999997E+02  0.45594000000E+02  0.51100000000E-03 0.  1.
         23    2    1    2    0    0  0.35527136788E-14 -0.88817841970E-15  0.00000000000E+00  0.91188000000E+02  0.91188000000E+02 0.  0.
    9900012    2    3    3    0    0  0.17282858928E+02 -0.32235576980E+01 -0.39680408939E+02  0.47787269700E+02  0.19999993871E+02 0.  0.
         12    1    3    3    0    0 -0.17282858928E+02  0.32235576980E+01  0.39680408939E+02  0.43400730300E+02  0.00000000000E+00 0. -1.
         11    1    4    4    0    0  0.12928253231E+01  0.20594612198E+01 -0.18685592728E+01  0.30666417868E+01  0.51100000000E-03 0. -1.
        -11    1    4    4    0    0  0.13568077319E+01 -0.72744301934E+01 -0.55844063378E+01  0.92705909341E+01  0.51100000000E-03 0.  1.
        -12    1    4    4    0    0  0.14633225873E+02  0.19914112757E+01 -0.32227443329E+02  0.35450036979E+02  0.00000000000E+00 0.  1.
</event>
<event>
 8    1  0.8600524E-011  0.9118800E+02  0.7816164E-02  0.1184000E+00
        -11   -1    0    0    0    0  0.00000000000E+00  0.00000000000E+00  0.45593999997E+02  0.45594000000E+02  0.51100000000E-03 0.  1.
         11   -1    0    0    0    0 -0.00000000000E+00 -0.00000000000E+00 -0.45593999997E+02  0.45594000000E+02  0.51100000000E-03 0. -1.
         23    2    1    2    0    0  0.00000000000E+00  0.17763568394E-14 -0.17763568394E-14  0.91188000000E+02  0.91188000000E+02 0.  0.
    9900012    2    3    3    0    0 -0.39975662362E+02 -0.98345051306E+01  0.13742358664E+02  0.47787268508E+02  0.19999988434E+02 0.  0.
         12    1    3    3    0    0  0.39975662362E+02  0.98345051306E+01 -0.13742358664E+02  0.43400731492E+02  0.00000000000E+00 0. -1.
         11    1    4    4    0    0 -0.21351268224E+02 -0.45178734082E+01  0.14019185046E+02  0.25938877858E+02  0.51100000000E-03 0. -1.
        -11    1    4    4    0    0 -0.85108470753E+01 -0.74462666044E+01 -0.16282048289E+01  0.11425080109E+02  0.51100000000E-03 0.  1.
         12    1    4    4    0    0 -0.10113547063E+02  0.21296348820E+01  0.13513784461E+01  0.10423310541E+02  0.00000000000E+00 0. -1.
</event>
<event>
 8    1  0.8600524E-011  0.9118800E+02  0.7816164E-02  0.1184000E+00
        -11   -1    0    0    0    0  0.00000000000E+00  0.00000000000E+00  0.45593999997E+02  0.45594000000E+02  0.51100000000E-03 0. -1.
         11   -1    0    0    0    0 -0.00000000000E+00 -0.00000000000E+00 -0.45593999997E+02  0.45594000000E+02  0.51100000000E-03 0.  1.
         23    2    1    2    0    0  0.17763568394E-14  0.88817841970E-15  0.00000000000E+00  0.91188000000E+02  0.91188000000E+02 0.  0.
    9900012    2    3    3    0    0 -0.15337057402E+02 -0.41510846021E+01 -0.40387702107E+02  0.47787270576E+02  0.19999997863E+02 0.  0.
         12    1    3    3    0    0  0.15337057402E+02  0.41510846021E+01  0.40387702107E+02  0.43400729424E+02  0.00000000000E+00 0. -1.
         11    1    4    4    0    0 -0.12944826542E+02  0.69761834195E+00 -0.24872833244E+02  0.28048405292E+02  0.51100000000E-03 0. -1.
        -11    1    4    4    0    0 -0.55064347884E+01  0.81282974463E+00 -0.55339595298E+01  0.78489632826E+01  0.51100000000E-03 0.  1.
         12    1    4    4    0    0  0.31142039288E+01 -0.56615326887E+01 -0.99809093324E+01  0.11889902001E+02  0.00000000000E+00 0. -1.
</event>
<event>
 8    1  0.8600524E-011  0.9118800E+02  0.7816164E-02  0.1184000E+00
        -11   -1    0    0    0    0  0.00000000000E+00  0.00000000000E+00  0.45593999997E+02  0.45594000000E+02  0.51100000000E-03 0. -1.
         11   -1    0    0    0    0 -0.00000000000E+00 -0.00000000000E+00 -0.45593999997E+02  0.45594000000E+02  0.51100000000E-03 0.  1.
         23    2    1    2    0    0  0.00000000000E+00  0.00000000000E+00 -0.71054273576E-14  0.91188000000E+02  0.91188000000E+02 0.  0.
    9900012    2    3    3    0    0  0.18139671510E+02  0.21572012020E+02  0.33003389834E+02  0.47787272752E+02  0.20000007787E+02 0.  0.
        -12    1    3    3    0    0 -0.18139671510E+02 -0.21572012020E+02 -0.33003389834E+02  0.43400727248E+02  0.00000000000E+00 0.  1.
         11    1    4    4    0    0  0.18155409890E+02  0.22665385188E+02  0.32009302469E+02  0.43219602483E+02  0.51100000000E-03 0. -1.
        -11    1    4    4    0    0 -0.13817115238E+01 -0.22555353802E+01  0.80166224541E+00  0.27639155565E+01  0.51100000000E-03 0.  1.
         12    1    4    4    0    0  0.13659731434E+01  0.11621622126E+01  0.19242511992E+00  0.18037547127E+01  0.00000000000E+00 0. -1.
</event>
<event>
 8    1  0.8600524E-011  0.9118800E+02  0.7816164E-02  0.1184000E+00
        -11   -1    0    0    0    0  0.00000000000E+00  0.00000000000E+00  0.45593999997E+02  0.45594000000E+02  0.51100000000E-03 0. -1.
         11   -1    0    0    0    0 -0.00000000000E+00 -0.00000000000E+00 -0.45593999997E+02  0.45594000000E+02  0.51100000000E-03 0.  1.
         23    2    1    2    0    0  0.35527136788E-14  0.00000000000E+00  0.00000000000E+00  0.91188000000E+02  0.91188000000E+02 0.  0.
    9900012    2    3    3    0    0 -0.13832179511E+02  0.24411481344E+02 -0.33111528755E+02  0.47787274800E+02  0.20000017121E+02 0.  0.
         12    1    3    3    0    0  0.13832179511E+02 -0.24411481344E+02  0.33111528755E+02  0.43400725200E+02  0.00000000000E+00 0. -1.
         11    1    4    4    0    0  0.42385667692E+01  0.96400546310E+01 -0.13864708906E+02  0.17410521383E+02  0.51100000000E-03 0. -1.
        -11    1    4    4    0    0 -0.72250087073E+01  0.54302641789E+01 -0.91416816134E+01  0.12855304853E+02  0.51100000000E-03 0.  1.
         12    1    4    4    0    0 -0.10845737573E+02  0.93411625341E+01 -0.10105138236E+02  0.17521448563E+02  0.00000000000E+00 0. -1.
</event>
<event>
 8    1  0.8600524E-011  0.9118800E+02  0.7816164E-02  0.1184000E+00
        -11   -1    0    0    0    0  0.00000000000E+00  0.00000000000E+00  0.45593999997E+02  0.45594000000E+02  0.51100000000E-03 0. -1.
         11   -1    0    0    0    0 -0.00000000000E+00 -0.00000000000E+00 -0.45593999997E+02  0.45594000000E+02  0.51100000000E-03 0.  1.
         23    2    1    2    0    0  0.00000000000E+00  0.35527136788E-14  0.35527136788E-14  0.91188000000E+02  0.91188000000E+02 0.  0.
    9900012    2    3    3    0    0  0.28851916430E+02 -0.19043608973E+02 -0.26239898060E+02  0.47787258363E+02  0.19999942180E+02 0.  0.
         12    1    3    3    0    0 -0.28851916430E+02  0.19043608973E+02  0.26239898060E+02  0.43400741637E+02  0.00000000000E+00 0. -1.
         11    1    4    4    0    0  0.27658008899E+01  0.18213057772E+01  0.17945100916E+01  0.37665735127E+01  0.51100000000E-03 0. -1.
        -11    1    4    4    0    0  0.24705389498E+02 -0.17425869900E+02 -0.25075978348E+02  0.39278771651E+02  0.51100000000E-03 0.  1.
         12    1    4    4    0    0  0.13807260426E+01 -0.34390448506E+01 -0.29584298036E+01  0.47419131995E+01  0.00000000000E+00 0. -1.
</event>
<event>
 8    1  0.8600524E-011  0.9118800E+02  0.7816164E-02  0.1184000E+00
        -11   -1    0    0    0    0  0.00000000000E+00  0.00000000000E+00  0.45593999997E+02  0.45594000000E+02  0.51100000000E-03 0. -1.
         11   -1    0    0    0    0 -0.00000000000E+00 -0.00000000000E+00 -0.45593999997E+02  0.45594000000E+02  0.51100000000E-03 0.  1.
         23    2    1    2    0    0 -0.35527136788E-14 -0.35527136788E-14  0.00000000000E+00  0.91188000000E+02  0.91188000000E+02 0.  0.
    9900012    2    3    3    0    0 -0.25635117328E+02  0.30560550244E+02 -0.17103127438E+02  0.47787269133E+02  0.19999991287E+02 0.  0.
         12    1    3    3    0    0  0.25635117328E+02 -0.30560550244E+02  0.17103127438E+02  0.43400730867E+02  0.00000000000E+00 0. -1.
         11    1    4    4    0    0 -0.22636335987E+02  0.17274986607E+02 -0.11637087864E+02  0.30761187939E+02  0.51100000000E-03 0.  1.
        -11    1    4    4    0    0  0.96565919172E+00  0.24892514312E+01  0.19808060440E+01  0.33245245085E+01  0.51100000000E-03 0. -1.
         12    1    4    4    0    0 -0.39644405327E+01  0.10796312205E+02 -0.74468456178E+01  0.13701556686E+02  0.00000000000E+00 0. -1.
</event>
<event>
 8    1  0.8600524E-011  0.9118800E+02  0.7816164E-02  0.1184000E+00
        -11   -1    0    0    0    0  0.00000000000E+00  0.00000000000E+00  0.45593999997E+02  0.45594000000E+02  0.51100000000E-03 0. -1.
         11   -1    0    0    0    0 -0.00000000000E+00 -0.00000000000E+00 -0.45593999997E+02  0.45594000000E+02  0.51100000000E-03 0.  1.
         23    2    1    2    0    0  0.00000000000E+00  0.22204460493E-15  0.00000000000E+00  0.91188000000E+02  0.91188000000E+02 0.  0.
    9900012    2    3    3    0    0  0.27152506842E+02 -0.86752628038E+00  0.33846892142E+02  0.47787270313E+02  0.19999996667E+02 0.  0.
        -12    1    3    3    0    0 -0.27152506842E+02  0.86752628038E+00 -0.33846892142E+02  0.43400729687E+02  0.00000000000E+00 0.  1.
         11    1    4    4    0    0  0.11991782920E+02 -0.27264593870E+01  0.27981903565E+02  0.30565067737E+02  0.51100000000E-03 0. -1.
        -11    1    4    4    0    0  0.13214472071E+02  0.10347726849E+01  0.68157847231E+01  0.14904628418E+02  0.51100000000E-03 0.  1.
         12    1    4    4    0    0  0.19462518510E+01  0.82416042168E+00 -0.95079614596E+00  0.23175741583E+01  0.00000000000E+00 0. -1.
</event>
<event>
 8    1  0.8600524E-011  0.9118800E+02  0.7816164E-02  0.1184000E+00
        -11   -1    0    0    0    0  0.00000000000E+00  0.00000000000E+00  0.45593999997E+02  0.45594000000E+02  0.51100000000E-03 0. -1.
         11   -1    0    0    0    0 -0.00000000000E+00 -0.00000000000E+00 -0.45593999997E+02  0.45594000000E+02  0.51100000000E-03 0.  1.
         23    2    1    2    0    0 -0.35527136788E-14  0.00000000000E+00  0.35527136788E-14  0.91188000000E+02  0.91188000000E+02 0.  0.
    9900012    2    3    3    0    0 -0.17625130321E+02 -0.33692784624E+02  0.20923071673E+02  0.47787264030E+02  0.19999968018E+02 0.  0.
        -12    1    3    3    0    0  0.17625130321E+02  0.33692784624E+02 -0.20923071673E+02  0.43400735970E+02  0.00000000000E+00 0.  1.
         11    1    4    4    0    0 -0.62689799792E+01 -0.70361994334E+01  0.45704221722E+01  0.10473632204E+02  0.51100000000E-03 0. -1.
        -11    1    4    4    0    0 -0.60492903154E+01 -0.14015115794E+02 -0.88258250927E+00  0.15290400132E+02  0.51100000000E-03 0.  1.
        -12    1    4    4    0    0 -0.53068600259E+01 -0.12641469396E+02  0.17235232010E+02  0.22023231694E+02  0.00000000000E+00 0.  1.
</event>
<event>
 8    1  0.8600524E-011  0.9118800E+02  0.7816164E-02  0.1184000E+00
        -11   -1    0    0    0    0  0.00000000000E+00  0.00000000000E+00  0.45593999997E+02  0.45594000000E+02  0.51100000000E-03 0. -1.
         11   -1    0    0    0    0 -0.00000000000E+00 -0.00000000000E+00 -0.45593999997E+02  0.45594000000E+02  0.51100000000E-03 0.  1.
         23    2    1    2    0    0  0.00000000000E+00 -0.88817841970E-15  0.00000000000E+00  0.91188000000E+02  0.91188000000E+02 0.  0.
    9900012    2    3    3    0    0  0.35467393765E+02 -0.61115261223E+01 -0.24255642051E+02  0.47787274852E+02  0.20000017362E+02 0.  0.
         12    1    3    3    0    0 -0.35467393765E+02  0.61115261223E+01  0.24255642051E+02  0.43400725148E+02  0.00000000000E+00 0. -1.
         11    1    4    4    0    0  0.24369260761E+02 -0.95633291915E+01 -0.18574649644E+02  0.32098843358E+02  0.51100000000E-03 0.  1.
        -11    1    4    4    0    0  0.10397067572E+02  0.25124817041E+01 -0.78195116130E+01  0.13249767566E+02  0.51100000000E-03 0. -1.
         12    1    4    4    0    0  0.70106543220E+00  0.93932136507E+00  0.21385192055E+01  0.24386639292E+01  0.00000000000E+00 0. -1.
</event>
<event>
 8    1  0.8600524E-011  0.9118800E+02  0.7816164E-02  0.1184000E+00
        -11   -1    0    0    0    0  0.00000000000E+00  0.00000000000E+00  0.45593999997E+02  0.45594000000E+02  0.51100000000E-03 0. -1.
         11   -1    0    0    0    0 -0.00000000000E+00 -0.00000000000E+00 -0.45593999997E+02  0.45594000000E+02  0.51100000000E-03 0.  1.
         23    2    1    2    0    0  0.44408920985E-15  0.00000000000E+00  0.71054273576E-14  0.91188000000E+02  0.91188000000E+02 0.  0.
    9900012    2    3    3    0    0  0.68659375765E+00 -0.10321226196E+02  0.42150019798E+02  0.47787270857E+02  0.19999999146E+02 0.  0.
        -12    1    3    3    0    0 -0.68659375765E+00  0.10321226196E+02 -0.42150019798E+02  0.43400729143E+02  0.00000000000E+00 0.  1.
         11    1    4    4    0    0  0.77344424467E+01 -0.79167745764E+01  0.28413236520E+02  0.30492768478E+02  0.51100000000E-03 0. -1.
        -11    1    4    4    0    0 -0.78628774490E+01  0.86879824720E-01  0.10778462566E+02  0.13341950585E+02  0.51100000000E-03 0.  1.
        -12    1    4    4    0    0  0.81502875986E+00 -0.24913314443E+01  0.29583207122E+01  0.39525517936E+01  0.00000000000E+00 0.  1.
</event>
<event>
 8    1  0.8600524E-011  0.9118800E+02  0.7816164E-02  0.1184000E+00
        -11   -1    0    0    0    0  0.00000000000E+00  0.00000000000E+00  0.45593999997E+02  0.45594000000E+02  0.51100000000E-03 0. -1.
         11   -1    0    0    0    0 -0.00000000000E+00 -0.00000000000E+00 -0.45593999997E+02  0.45594000000E+02  0.51100000000E-03 0.  1.
         23    2    1    2    0    0  0.00000000000E+00  0.00000000000E+00  0.71054273576E-14  0.91188000000E+02  0.91188000000E+02 0.  0.
    9900012    2    3    3    0    0 -0.16502690064E+02  0.20179940350E+02  0.34699487844E+02  0.47787271567E+02  0.20000002383E+02 0.  0.
        -12    1    3    3    0    0  0.16502690064E+02 -0.20179940350E+02 -0.34699487844E+02  0.43400728433E+02  0.00000000000E+00 0.  1.
         11    1    4    4    0    0 -0.13359820371E+02  0.66239881557E+01  0.20833830742E+02  0.25620509813E+02  0.51100000000E-03 0. -1.
        -11    1    4    4    0    0  0.11521425881E+01  0.86343834445E+01  0.12897000641E+02  0.15563182059E+02  0.51100000000E-03 0.  1.
         12    1    4    4    0    0 -0.42950122804E+01  0.49215687498E+01  0.96865646138E+00  0.66035796950E+01  0.00000000000E+00 0. -1.
</event>
<event>
 8    1  0.8600524E-011  0.9118800E+02  0.7816164E-02  0.1184000E+00
        -11   -1    0    0    0    0  0.00000000000E+00  0.00000000000E+00  0.45593999997E+02  0.45594000000E+02  0.51100000000E-03 0. -1.
         11   -1    0    0    0    0 -0.00000000000E+00 -0.00000000000E+00 -0.45593999997E+02  0.45594000000E+02  0.51100000000E-03 0.  1.
         23    2    1    2    0    0  0.00000000000E+00  0.00000000000E+00  0.00000000000E+00  0.91188000000E+02  0.91188000000E+02 0.  0.
    9900012    2    3    3    0    0  0.86278556613E+01 -0.27878163490E+02  0.32124628282E+02  0.47787266882E+02  0.19999981024E+02 0.  0.
        -12    1    3    3    0    0 -0.86278556613E+01  0.27878163490E+02 -0.32124628282E+02  0.43400733118E+02  0.00000000000E+00 0.  1.
         11    1    4    4    0    0  0.57237636515E+01 -0.12868477933E+02  0.74352682464E+01  0.15926154866E+02  0.51100000000E-03 0. -1.
        -11    1    4    4    0    0  0.23865813482E+01 -0.53048492516E+01  0.20444439206E+02  0.21255876618E+02  0.51100000000E-03 0.  1.
        -12    1    4    4    0    0  0.51751066153E+00 -0.97048363054E+01  0.42449208296E+01  0.10605235398E+02  0.00000000000E+00 0.  1.
</event>
<event>
 8    1  0.8600524E-011  0.9118800E+02  0.7816164E-02  0.1184000E+00
        -11   -1    0    0    0    0  0.00000000000E+00  0.00000000000E+00  0.45593999997E+02  0.45594000000E+02  0.51100000000E-03 0.  1.
         11   -1    0    0    0    0 -0.00000000000E+00 -0.00000000000E+00 -0.45593999997E+02  0.45594000000E+02  0.51100000000E-03 0. -1.
         23    2    1    2    0    0 -0.17763568394E-14  0.00000000000E+00  0.00000000000E+00  0.91188000000E+02  0.91188000000E+02 0.  0.
    9900012    2    3    3    0    0  0.14418150615E+02 -0.39747456819E+02 -0.97917886704E+01  0.47787279774E+02  0.20000039803E+02 0.  0.
         12    1    3    3    0    0 -0.14418150615E+02  0.39747456819E+02  0.97917886704E+01  0.43400720226E+02  0.00000000000E+00 0. -1.
         11    1    4    4    0    0  0.14438956538E+02 -0.15213083889E+02 -0.10024451469E+02  0.23246742026E+02  0.51100000000E-03 0. -1.
        -11    1    4    4    0    0  0.10035976908E+00 -0.17271550623E+02 -0.32338615275E-01  0.17271872483E+02  0.51100000000E-03 0.  1.
         12    1    4    4    0    0 -0.12116569240E+00 -0.72628223072E+01  0.26500141393E+00  0.72686652654E+01  0.00000000000E+00 0. -1.
</event>
<event>
 8    1  0.8600524E-011  0.9118800E+02  0.7816164E-02  0.1184000E+00
        -11   -1    0    0    0    0  0.00000000000E+00  0.00000000000E+00  0.45593999997E+02  0.45594000000E+02  0.51100000000E-03 0. -1.
         11   -1    0    0    0    0 -0.00000000000E+00 -0.00000000000E+00 -0.45593999997E+02  0.45594000000E+02  0.51100000000E-03 0.  1.
         23    2    1    2    0    0  0.00000000000E+00  0.88817841970E-15  0.00000000000E+00  0.91188000000E+02  0.91188000000E+02 0.  0.
    9900012    2    3    3    0    0  0.29530082901E+02 -0.76865227442E+01  0.30862838044E+02  0.47787271893E+02  0.20000003870E+02 0.  0.
        -12    1    3    3    0    0 -0.29530082901E+02  0.76865227442E+01 -0.30862838044E+02  0.43400728107E+02  0.00000000000E+00 0.  1.
         11    1    4    4    0    0  0.95089025790E+01 -0.31796640063E-01  0.17254899440E+01  0.96642410510E+01  0.51100000000E-03 0. -1.
        -11    1    4    4    0    0  0.11429381181E+02 -0.60050023650E+01  0.78550413642E+01  0.15112659683E+02  0.51100000000E-03 0.  1.
         12    1    4    4    0    0  0.85917991408E+01 -0.16497237391E+01  0.21282306736E+02  0.23010371160E+02  0.00000000000E+00 0. -1.
</event>
<event>
 8    1  0.8600524E-011  0.9118800E+02  0.7816164E-02  0.1184000E+00
        -11   -1    0    0    0    0  0.00000000000E+00  0.00000000000E+00  0.45593999997E+02  0.45594000000E+02  0.51100000000E-03 0. -1.
         11   -1    0    0    0    0 -0.00000000000E+00 -0.00000000000E+00 -0.45593999997E+02  0.45594000000E+02  0.51100000000E-03 0.  1.
         23    2    1    2    0    0  0.17763568394E-14  0.35527136788E-14  0.00000000000E+00  0.91188000000E+02  0.91188000000E+02 0.  0.
    9900012    2    3    3    0    0 -0.15319523955E+02 -0.17942505209E+02 -0.36428038602E+02  0.47787270700E+02  0.19999998430E+02 0.  0.
         12    1    3    3    0    0  0.15319523955E+02  0.17942505209E+02  0.36428038602E+02  0.43400729300E+02  0.00000000000E+00 0. -1.
         11    1    4    4    0    0 -0.70539766937E+01 -0.90813892975E+01 -0.35157664828E+01  0.12024592841E+02  0.51100000000E-03 0. -1.
        -11    1    4    4    0    0 -0.39280485628E+01 -0.34894156584E+01 -0.23555402805E+02  0.24134261719E+02  0.51100000000E-03 0.  1.
        -12    1    4    4    0    0 -0.43374986986E+01 -0.53717002531E+01 -0.93568693144E+01  0.11628416140E+02  0.00000000000E+00 0.  1.
</event>
<event>
 8    1  0.8600524E-011  0.9118800E+02  0.7816164E-02  0.1184000E+00
        -11   -1    0    0    0    0  0.00000000000E+00  0.00000000000E+00  0.45593999997E+02  0.45594000000E+02  0.51100000000E-03 0. -1.
         11   -1    0    0    0    0 -0.00000000000E+00 -0.00000000000E+00 -0.45593999997E+02  0.45594000000E+02  0.51100000000E-03 0.  1.
         23    2    1    2    0    0  0.00000000000E+00  0.00000000000E+00  0.00000000000E+00  0.91188000000E+02  0.91188000000E+02 0.  0.
    9900012    2    3    3    0    0  0.13773459621E+02  0.24087029534E+02 -0.33372594127E+02  0.47787271660E+02  0.20000002806E+02 0.  0.
         12    1    3    3    0    0 -0.13773459621E+02 -0.24087029534E+02  0.33372594127E+02  0.43400728340E+02  0.00000000000E+00 0. -1.
         11    1    4    4    0    0  0.32468843493E+01  0.85079029608E+01 -0.44349135570E+01  0.10128925377E+02  0.51100000000E-03 0. -1.
        -11    1    4    4    0    0  0.29551862142E+01  0.16215242376E+02 -0.20486369146E+02  0.26293697571E+02  0.51100000000E-03 0.  1.
        -12    1    4    4    0    0  0.75713890577E+01 -0.63611580361E+00 -0.84513114240E+01  0.11364648713E+02  0.00000000000E+00 0.  1.
</event>
<event>
 8    1  0.8600524E-011  0.9118800E+02  0.7816164E-02  0.1184000E+00
        -11   -1    0    0    0    0  0.00000000000E+00  0.00000000000E+00  0.45593999997E+02  0.45594000000E+02  0.51100000000E-03 0. -1.
         11   -1    0    0    0    0 -0.00000000000E+00 -0.00000000000E+00 -0.45593999997E+02  0.45594000000E+02  0.51100000000E-03 0.  1.
         23    2    1    2    0    0  0.00000000000E+00  0.71054273576E-14  0.00000000000E+00  0.91188000000E+02  0.91188000000E+02 0.  0.
    9900012    2    3    3    0    0  0.25150903894E+02  0.32791432392E+02  0.13258127825E+02  0.47787263158E+02  0.19999964043E+02 0.  0.
        -12    1    3    3    0    0 -0.25150903894E+02 -0.32791432392E+02 -0.13258127825E+02  0.43400736842E+02  0.00000000000E+00 0.  1.
         11    1    4    4    0    0  0.18260761282E+02  0.10384066249E+02  0.51748267789E+01  0.21634765238E+02  0.51100000000E-03 0.  1.
        -11    1    4    4    0    0  0.16320606844E+01  0.17817657904E+02  0.57641471194E+01  0.18797817627E+02  0.51100000000E-03 0. -1.
        -12    1    4    4    0    0  0.52580819275E+01  0.45897082383E+01  0.23191539272E+01  0.73546802927E+01  0.00000000000E+00 0.  1.
</event>
<event>
 8    1  0.8600524E-011  0.9118800E+02  0.7816164E-02  0.1184000E+00
        -11   -1    0    0    0    0  0.00000000000E+00  0.00000000000E+00  0.45593999997E+02  0.45594000000E+02  0.51100000000E-03 0. -1.
         11   -1    0    0    0    0 -0.00000000000E+00 -0.00000000000E+00 -0.45593999997E+02  0.45594000000E+02  0.51100000000E-03 0.  1.
         23    2    1    2    0    0  0.35527136788E-14 -0.88817841970E-15  0.00000000000E+00  0.91188000000E+02  0.91188000000E+02 0.  0.
    9900012    2    3    3    0    0 -0.17713277783E+02 -0.57765977321E+01 -0.39198146121E+02  0.47787263249E+02  0.19999964459E+02 0.  0.
         12    1    3    3    0    0  0.17713277783E+02  0.57765977321E+01  0.39198146121E+02  0.43400736751E+02  0.00000000000E+00 0. -1.
         11    1    4    4    0    0 -0.29226600178E+01 -0.85078276844E+01 -0.81614004090E+01  0.12146338147E+02  0.51100000000E-03 0. -1.
        -11    1    4    4    0    0 -0.14407919512E+01  0.37388252522E+01 -0.54632804688E+01  0.67751110290E+01  0.51100000000E-03 0.  1.
         12    1    4    4    0    0 -0.13349825814E+02 -0.10075952999E+01 -0.25573465243E+02  0.28865814073E+02  0.00000000000E+00 0. -1.
</event>
<event>
 8    1  0.8600524E-011  0.9118800E+02  0.7816164E-02  0.1184000E+00
        -11   -1    0    0    0    0  0.00000000000E+00  0.00000000000E+00  0.45593999997E+02  0.45594000000E+02  0.51100000000E-03 0. -1.
         11   -1    0    0    0    0 -0.00000000000E+00 -0.00000000000E+00 -0.45593999997E+02  0.45594000000E+02  0.51100000000E-03 0.  1.
         23    2    1    2    0    0  0.17763568394E-14 -0.13322676296E-14 -0.71054273576E-14  0.91188000000E+02  0.91188000000E+02 0.  0.
    9900012    2    3    3    0    0 -0.13601983602E+02 -0.29440894798E+01  0.41108896476E+02  0.47787274312E+02  0.20000014900E+02 0.  0.
        -12    1    3    3    0    0  0.13601983602E+02  0.29440894798E+01 -0.41108896476E+02  0.43400725688E+02  0.00000000000E+00 0.  1.
         11    1    4    4    0    0 -0.76783061845E+01 -0.95491943497E+01  0.14567137142E+02  0.19035361393E+02  0.51100000000E-03 0. -1.
        -11    1    4    4    0    0 -0.73297195570E+01  0.54809238264E+01  0.20558801673E+02  0.22503991674E+02  0.51100000000E-03 0.  1.
         12    1    4    4    0    0  0.14060421398E+01  0.11241810435E+01  0.59829576605E+01  0.62479212451E+01  0.00000000000E+00 0. -1.
</event>
<event>
 8    1  0.8600524E-011  0.9118800E+02  0.7816164E-02  0.1184000E+00
        -11   -1    0    0    0    0  0.00000000000E+00  0.00000000000E+00  0.45593999997E+02  0.45594000000E+02  0.51100000000E-03 0. -1.
         11   -1    0    0    0    0 -0.00000000000E+00 -0.00000000000E+00 -0.45593999997E+02  0.45594000000E+02  0.51100000000E-03 0.  1.
         23    2    1    2    0    0  0.35527136788E-14  0.00000000000E+00 -0.35527136788E-14  0.91188000000E+02  0.91188000000E+02 0.  0.
    9900012    2    3    3    0    0  0.30534282174E+02 -0.26576810812E+01 -0.30728112199E+02  0.47787279546E+02  0.20000038760E+02 0.  0.
         12    1    3    3    0    0 -0.30534282174E+02  0.26576810812E+01  0.30728112199E+02  0.43400720454E+02  0.00000000000E+00 0. -1.
         11    1    4    4    0    0 -0.19128773272E+01 -0.44390918451E+00 -0.56445296013E+01  0.59763592357E+01  0.51100000000E-03 0. -1.
        -11    1    4    4    0    0  0.11726830487E+02 -0.29951558132E+01 -0.13212487023E+02  0.17918128396E+02  0.51100000000E-03 0.  1.
         12    1    4    4    0    0  0.20720329015E+02  0.78138391644E+00 -0.11871095575E+02  0.23892791914E+02  0.00000000000E+00 0. -1.
</event>
<event>
 8    1  0.8600524E-011  0.9118800E+02  0.7816164E-02  0.1184000E+00
        -11   -1    0    0    0    0  0.00000000000E+00  0.00000000000E+00  0.45593999997E+02  0.45594000000E+02  0.51100000000E-03 0.  1.
         11   -1    0    0    0    0 -0.00000000000E+00 -0.00000000000E+00 -0.45593999997E+02  0.45594000000E+02  0.51100000000E-03 0. -1.
         23    2    1    2    0    0  0.00000000000E+00  0.00000000000E+00 -0.88817841970E-15  0.91188000000E+02  0.91188000000E+02 0.  0.
    9900012    2    3    3    0    0 -0.13684038984E+02  0.40539588898E+02 -0.72740421985E+01  0.47787275572E+02  0.20000020645E+02 0.  0.
         12    1    3    3    0    0  0.13684038984E+02 -0.40539588898E+02  0.72740421985E+01  0.43400724428E+02  0.00000000000E+00 0. -1.
         11    1    4    4    0    0  0.11115109248E+00  0.75707723659E+01 -0.71534436881E+01  0.10416367200E+02  0.51100000000E-03 0. -1.
        -11    1    4    4    0    0 -0.14685265130E+02  0.24486648171E+02 -0.20517804739E+01  0.28626259867E+02  0.51100000000E-03 0.  1.
        -12    1    4    4    0    0  0.89007505443E+00  0.84821683609E+01  0.19311819635E+01  0.87446485053E+01  0.00000000000E+00 0.  1.
</event>
<event>
 8    1  0.8600524E-011  0.9118800E+02  0.7816164E-02  0.1184000E+00
        -11   -1    0    0    0    0  0.00000000000E+00  0.00000000000E+00  0.45593999997E+02  0.45594000000E+02  0.51100000000E-03 0. -1.
         11   -1    0    0    0    0 -0.00000000000E+00 -0.00000000000E+00 -0.45593999997E+02  0.45594000000E+02  0.51100000000E-03 0.  1.
         23    2    1    2    0    0  0.35527136788E-14 -0.35527136788E-14  0.71054273576E-14  0.91188000000E+02  0.91188000000E+02 0.  0.
    9900012    2    3    3    0    0 -0.27401443182E+02  0.27617960394E+02 -0.19236230804E+02  0.47787269588E+02  0.19999993359E+02 0.  0.
         12    1    3    3    0    0  0.27401443182E+02 -0.27617960394E+02  0.19236230804E+02  0.43400730412E+02  0.00000000000E+00 0. -1.
         11    1    4    4    0    0  0.22125609791E+01  0.24660839721E+01  0.16187336054E+01  0.36874510153E+01  0.51100000000E-03 0. -1.
        -11    1    4    4    0    0 -0.23739907825E+02  0.19897022210E+02 -0.16594619469E+02  0.35140519518E+02  0.51100000000E-03 0.  1.
         12    1    4    4    0    0 -0.58740963355E+01  0.52548542119E+01 -0.42603449398E+01  0.89592990548E+01  0.00000000000E+00 0. -1.
</event>
<event>
 8    1  0.8600524E-011  0.9118800E+02  0.7816164E-02  0.1184000E+00
        -11   -1    0    0    0    0  0.00000000000E+00  0.00000000000E+00  0.45593999997E+02  0.45594000000E+02  0.51100000000E-03 0. -1.
         11   -1    0    0    0    0 -0.00000000000E+00 -0.00000000000E+00 -0.45593999997E+02  0.45594000000E+02  0.51100000000E-03 0.  1.
         23    2    1    2    0    0  0.17763568394E-14  0.17763568394E-14  0.00000000000E+00  0.91188000000E+02  0.91188000000E+02 0.  0.
    9900012    2    3    3    0    0 -0.11744998206E+02 -0.11851424602E+02  0.40065258319E+02  0.47787237655E+02  0.19999847763E+02 0.  0.
        -12    1    3    3    0    0  0.11744998206E+02  0.11851424602E+02 -0.40065258319E+02  0.43400762345E+02  0.00000000000E+00 0.  1.
         11    1    4    4    0    0 -0.14252601202E+02 -0.13935539133E+02  0.39270295776E+02  0.44039664197E+02  0.51100000000E-03 0. -1.
        -11    1    4    4    0    0  0.19226354195E+01  0.17117674639E+01  0.13056284411E+01  0.28864061901E+01  0.51100000000E-03 0.  1.
         12    1    4    4    0    0  0.58496757641E+00  0.37234706659E+00 -0.51066589842E+00  0.86116726787E+00  0.00000000000E+00 0. -1.
</event>
<event>
 8    1  0.8600524E-011  0.9118800E+02  0.7816164E-02  0.1184000E+00
        -11   -1    0    0    0    0  0.00000000000E+00  0.00000000000E+00  0.45593999997E+02  0.45594000000E+02  0.51100000000E-03 0.  1.
         11   -1    0    0    0    0 -0.00000000000E+00 -0.00000000000E+00 -0.45593999997E+02  0.45594000000E+02  0.51100000000E-03 0. -1.
         23    2    1    2    0    0  0.00000000000E+00  0.00000000000E+00  0.00000000000E+00  0.91188000000E+02  0.91188000000E+02 0.  0.
    9900012    2    3    3    0    0  0.28910609530E+02  0.30260550314E+02 -0.11493435785E+02  0.47787270573E+02  0.19999997850E+02 0.  0.
         12    1    3    3    0    0 -0.28910609530E+02 -0.30260550314E+02  0.11493435785E+02  0.43400729427E+02  0.00000000000E+00 0. -1.
         11    1    4    4    0    0  0.18409182654E+02  0.28615729197E+02 -0.92887726954E+01  0.35270940757E+02  0.51100000000E-03 0. -1.
        -11    1    4    4    0    0  0.35755559126E+01 -0.22835520308E+01 -0.15882956014E+01  0.45301096168E+01  0.51100000000E-03 0.  1.
         12    1    4    4    0    0  0.69258709631E+01  0.39283731481E+01 -0.61636748840E+00  0.79862201991E+01  0.00000000000E+00 0. -1.
</event>
<event>
 8    1  0.8600524E-011  0.9118800E+02  0.7816164E-02  0.1184000E+00
        -11   -1    0    0    0    0  0.00000000000E+00  0.00000000000E+00  0.45593999997E+02  0.45594000000E+02  0.51100000000E-03 0. -1.
         11   -1    0    0    0    0 -0.00000000000E+00 -0.00000000000E+00 -0.45593999997E+02  0.45594000000E+02  0.51100000000E-03 0.  1.
         23    2    1    2    0    0  0.00000000000E+00  0.00000000000E+00  0.00000000000E+00  0.91188000000E+02  0.91188000000E+02 0.  0.
    9900012    2    3    3    0    0  0.32118151997E+02  0.16283108718E+02  0.24226177634E+02  0.47787274200E+02  0.20000014385E+02 0.  0.
        -12    1    3    3    0    0 -0.32118151997E+02 -0.16283108718E+02 -0.24226177634E+02  0.43400725800E+02  0.00000000000E+00 0.  1.
         11    1    4    4    0    0  0.45080323329E+01  0.93055909467E+01  0.80212809024E+01  0.13086532236E+02  0.51100000000E-03 0. -1.
        -11    1    4    4    0    0  0.20631502650E+01 -0.24283146344E+00 -0.16958740940E+01  0.26817056773E+01  0.51100000000E-03 0.  1.
         12    1    4    4    0    0  0.25546969399E+02  0.72203492353E+01  0.17900770825E+02  0.32019036286E+02  0.00000000000E+00 0. -1.
</event>
<event>
 8    1  0.8600524E-011  0.9118800E+02  0.7816164E-02  0.1184000E+00
        -11   -1    0    0    0    0  0.00000000000E+00  0.00000000000E+00  0.45593999997E+02  0.45594000000E+02  0.51100000000E-03 0. -1.
         11   -1    0    0    0    0 -0.00000000000E+00 -0.00000000000E+00 -0.45593999997E+02  0.45594000000E+02  0.51100000000E-03 0.  1.
         23    2    1    2    0    0 -0.17763568394E-14  0.17763568394E-14  0.00000000000E+00  0.91188000000E+02  0.91188000000E+02 0.  0.
    9900012    2    3    3    0    0  0.70419801605E+01  0.11279731545E+02  0.41313461931E+02  0.47787263082E+02  0.19999963695E+02 0.  0.
        -12    1    3    3    0    0 -0.70419801605E+01 -0.11279731545E+02 -0.41313461931E+02  0.43400736918E+02  0.00000000000E+00 0.  1.
         11    1    4    4    0    0  0.11349842649E+02  0.96601690289E+01  0.28731169234E+02  0.32366925706E+02  0.51100000000E-03 0. -1.
        -11    1    4    4    0    0 -0.43925767170E+01  0.13638131297E+01  0.23143791817E+01  0.51488899507E+01  0.51100000000E-03 0.  1.
         12    1    4    4    0    0  0.84714228285E-01  0.25574938642E+00  0.10267913516E+02  0.10271447425E+02  0.00000000000E+00 0. -1.
</event>
<event>
 8    1  0.8600524E-011  0.9118800E+02  0.7816164E-02  0.1184000E+00
        -11   -1    0    0    0    0  0.00000000000E+00  0.00000000000E+00  0.45593999997E+02  0.45594000000E+02  0.51100000000E-03 0. -1.
         11   -1    0    0    0    0 -0.00000000000E+00 -0.00000000000E+00 -0.45593999997E+02  0.45594000000E+02  0.51100000000E-03 0.  1.
         23    2    1    2    0    0  0.00000000000E+00  0.00000000000E+00  0.00000000000E+00  0.91188000000E+02  0.91188000000E+02 0.  0.
    9900012    2    3    3    0    0 -0.21259822492E+02 -0.13197167262E+02 -0.35460929983E+02  0.47787276142E+02  0.20000023243E+02 0.  0.
         12    1    3    3    0    0  0.21259822492E+02  0.13197167262E+02  0.35460929983E+02  0.43400723858E+02  0.00000000000E+00 0. -1.
         11    1    4    4    0    0 -0.12820258024E+02 -0.11328373823E+02 -0.81985497704E+01  0.18971222624E+02  0.51100000000E-03 0. -1.
        -11    1    4    4    0    0 -0.13629955453E+01 -0.40729246711E+00 -0.10024382871E+02  0.10124815861E+02  0.51100000000E-03 0.  1.
         12    1    4    4    0    0 -0.70765689234E+01 -0.14615009720E+01 -0.17237997341E+02  0.18691237657E+02  0.00000000000E+00 0. -1.
</event>
<event>
 8    1  0.8600524E-011  0.9118800E+02  0.7816164E-02  0.1184000E+00
        -11   -1    0    0    0    0  0.00000000000E+00  0.00000000000E+00  0.45593999997E+02  0.45594000000E+02  0.51100000000E-03 0. -1.
         11   -1    0    0    0    0 -0.00000000000E+00 -0.00000000000E+00 -0.45593999997E+02  0.45594000000E+02  0.51100000000E-03 0.  1.
         23    2    1    2    0    0  0.00000000000E+00 -0.35527136788E-14  0.00000000000E+00  0.91188000000E+02  0.91188000000E+02 0.  0.
    9900012    2    3    3    0    0 -0.40791721679E+01 -0.22683636871E+02  0.36775486533E+02  0.47787269165E+02  0.19999991430E+02 0.  0.
        -12    1    3    3    0    0  0.40791721679E+01  0.22683636871E+02 -0.36775486533E+02  0.43400730835E+02  0.00000000000E+00 0.  1.
         11    1    4    4    0    0 -0.38588612644E+01 -0.11336603123E+02  0.63138882025E+01  0.13537893674E+02  0.51100000000E-03 0. -1.
        -11    1    4    4    0    0  0.44721216107E+01 -0.14533330188E+01  0.88179577358E+01  0.99934192074E+01  0.51100000000E-03 0.  1.
        -12    1    4    4    0    0 -0.46924325142E+01 -0.98937007294E+01  0.21643640595E+02  0.24255956283E+02  0.00000000000E+00 0.  1.
</event>
<event>
 8    1  0.8600524E-011  0.9118800E+02  0.7816164E-02  0.1184000E+00
        -11   -1    0    0    0    0  0.00000000000E+00  0.00000000000E+00  0.45593999997E+02  0.45594000000E+02  0.51100000000E-03 0. -1.
         11   -1    0    0    0    0 -0.00000000000E+00 -0.00000000000E+00 -0.45593999997E+02  0.45594000000E+02  0.51100000000E-03 0.  1.
         23    2    1    2    0    0  0.00000000000E+00  0.00000000000E+00  0.00000000000E+00  0.91188000000E+02  0.91188000000E+02 0.  0.
    9900012    2    3    3    0    0 -0.28539140534E+01 -0.17691678284E+02  0.39528256507E+02  0.47787269955E+02  0.19999995034E+02 0.  0.
        -12    1    3    3    0    0  0.28539140534E+01  0.17691678284E+02 -0.39528256507E+02  0.43400730045E+02  0.00000000000E+00 0.  1.
         11    1    4    4    0    0  0.26394905463E+01 -0.84876143254E+01  0.10103906926E+02  0.13457170680E+02  0.51100000000E-03 0. -1.
        -11    1    4    4    0    0  0.21584462430E+01 -0.40994758360E+00  0.17561396697E+02  0.17698293743E+02  0.51100000000E-03 0.  1.
        -12    1    4    4    0    0 -0.76518508427E+01 -0.87941163750E+01  0.11862952884E+02  0.16631805532E+02  0.00000000000E+00 0.  1.
</event>
<event>
 8    1  0.8600524E-011  0.9118800E+02  0.7816164E-02  0.1184000E+00
        -11   -1    0    0    0    0  0.00000000000E+00  0.00000000000E+00  0.45593999997E+02  0.45594000000E+02  0.51100000000E-03 0. -1.
         11   -1    0    0    0    0 -0.00000000000E+00 -0.00000000000E+00 -0.45593999997E+02  0.45594000000E+02  0.51100000000E-03 0.  1.
         23    2    1    2    0    0  0.00000000000E+00  0.00000000000E+00  0.00000000000E+00  0.91188000000E+02  0.91188000000E+02 0.  0.
    9900012    2    3    3    0    0 -0.38624952864E+02 -0.53247461324E+01  0.19062608691E+02  0.47787274715E+02  0.20000016738E+02 0.  0.
        -12    1    3    3    0    0  0.38624952864E+02  0.53247461324E+01 -0.19062608691E+02  0.43400725285E+02  0.00000000000E+00 0.  1.
         11    1    4    4    0    0 -0.35231742618E+02 -0.10081819707E+02  0.19809777479E+02  0.41657485048E+02  0.51100000000E-03 0. -1.
        -11    1    4    4    0    0 -0.32097939521E+01  0.33364870725E+01 -0.79034142767E+00  0.46967609087E+01  0.51100000000E-03 0.  1.
         12    1    4    4    0    0 -0.18341629435E+00  0.14205865023E+01  0.43172639914E-01  0.14330287591E+01  0.00000000000E+00 0. -1.
</event>
<event>
 8    1  0.8600524E-011  0.9118800E+02  0.7816164E-02  0.1184000E+00
        -11   -1    0    0    0    0  0.00000000000E+00  0.00000000000E+00  0.45593999997E+02  0.45594000000E+02  0.51100000000E-03 0. -1.
         11   -1    0    0    0    0 -0.00000000000E+00 -0.00000000000E+00 -0.45593999997E+02  0.45594000000E+02  0.51100000000E-03 0.  1.
         23    2    1    2    0    0  0.00000000000E+00  0.00000000000E+00 -0.35527136788E-14  0.91188000000E+02  0.91188000000E+02 0.  0.
    9900012    2    3    3    0    0  0.33991133784E+02  0.11762358649E+02 -0.24287299545E+02  0.47787272171E+02  0.20000005134E+02 0.  0.
         12    1    3    3    0    0 -0.33991133784E+02 -0.11762358649E+02  0.24287299545E+02  0.43400727829E+02  0.00000000000E+00 0. -1.
         11    1    4    4    0    0  0.22822016868E+01 -0.42291974272E+01 -0.45358925426E+01  0.66082430976E+01  0.51100000000E-03 0. -1.
        -11    1    4    4    0    0  0.27721515678E+02  0.12722647665E+02 -0.14339525073E+02  0.33704156638E+02  0.51100000000E-03 0.  1.
         12    1    4    4    0    0  0.39874164195E+01  0.32689084109E+01 -0.54118819291E+01  0.74748724348E+01  0.00000000000E+00 0. -1.
</event>
<event>
 8    1  0.8600524E-011  0.9118800E+02  0.7816164E-02  0.1184000E+00
        -11   -1    0    0    0    0  0.00000000000E+00  0.00000000000E+00  0.45593999997E+02  0.45594000000E+02  0.51100000000E-03 0. -1.
         11   -1    0    0    0    0 -0.00000000000E+00 -0.00000000000E+00 -0.45593999997E+02  0.45594000000E+02  0.51100000000E-03 0.  1.
         23    2    1    2    0    0  0.00000000000E+00  0.55511151231E-16  0.00000000000E+00  0.91188000000E+02  0.91188000000E+02 0.  0.
    9900012    2    3    3    0    0 -0.18731169700E+02  0.48575124798E+00  0.39147554358E+02  0.47787266310E+02  0.19999978412E+02 0.  0.
        -12    1    3    3    0    0  0.18731169700E+02 -0.48575124798E+00 -0.39147554358E+02  0.43400733690E+02  0.00000000000E+00 0.  1.
         11    1    4    4    0    0 -0.14436102424E+02 -0.39354250743E+01  0.15017285732E+02  0.21199233352E+02  0.51100000000E-03 0. -1.
        -11    1    4    4    0    0  0.29734826143E+01  0.13142812078E+01  0.75288054908E+01  0.82007223054E+01  0.51100000000E-03 0.  1.
        -12    1    4    4    0    0 -0.72685498909E+01  0.31068951145E+01  0.16601463135E+02  0.18387310652E+02  0.00000000000E+00 0.  1.
</event>
<event>
 8    1  0.8600524E-011  0.9118800E+02  0.7816164E-02  0.1184000E+00
        -11   -1    0    0    0    0  0.00000000000E+00  0.00000000000E+00  0.45593999997E+02  0.45594000000E+02  0.51100000000E-03 0. -1.
         11   -1    0    0    0    0 -0.00000000000E+00 -0.00000000000E+00 -0.45593999997E+02  0.45594000000E+02  0.51100000000E-03 0.  1.
         23    2    1    2    0    0  0.00000000000E+00  0.00000000000E+00  0.35527136788E-14  0.91188000000E+02  0.91188000000E+02 0.  0.
    9900012    2    3    3    0    0 -0.22559561525E+02 -0.26117052019E+02  0.26317090533E+02  0.47787268710E+02  0.19999989357E+02 0.  0.
        -12    1    3    3    0    0  0.22559561525E+02  0.26117052019E+02 -0.26317090533E+02  0.43400731290E+02  0.00000000000E+00 0.  1.
         11    1    4    4    0    0 -0.83544450142E+01 -0.18533950026E+02  0.52923238243E+01  0.21007445032E+02  0.51100000000E-03 0. -1.
        -11    1    4    4    0    0 -0.52036091391E+01 -0.97303626832E+00  0.83524453597E+01  0.98887659189E+01  0.51100000000E-03 0.  1.
        -12    1    4    4    0    0 -0.90015073717E+01 -0.66100657252E+01  0.12672321349E+02  0.16891057759E+02  0.00000000000E+00 0.  1.
</event>
<event>
 8    1  0.8600524E-011  0.9118800E+02  0.7816164E-02  0.1184000E+00
        -11   -1    0    0    0    0  0.00000000000E+00  0.00000000000E+00  0.45593999997E+02  0.45594000000E+02  0.51100000000E-03 0. -1.
         11   -1    0    0    0    0 -0.00000000000E+00 -0.00000000000E+00 -0.45593999997E+02  0.45594000000E+02  0.51100000000E-03 0.  1.
         23    2    1    2    0    0  0.00000000000E+00  0.00000000000E+00  0.00000000000E+00  0.91188000000E+02  0.91188000000E+02 0.  0.
    9900012    2    3    3    0    0  0.27399020969E+02  0.12336797997E+02 -0.31316453336E+02  0.47787272075E+02  0.20000004698E+02 0.  0.
         12    1    3    3    0    0 -0.27399020969E+02 -0.12336797997E+02  0.31316453336E+02  0.43400727925E+02  0.00000000000E+00 0. -1.
         11    1    4    4    0    0  0.14674390099E+02  0.90069821646E+01 -0.29205010327E+02  0.33902744446E+02  0.51100000000E-03 0. -1.
        -11    1    4    4    0    0  0.12085237755E+02  0.33681206659E+01 -0.28919794852E+01  0.12874810834E+02  0.51100000000E-03 0.  1.
         12    1    4    4    0    0  0.63939311551E+00 -0.38304833259E-01  0.78053647591E+00  0.10097167953E+01  0.00000000000E+00 0. -1.
</event>
<event>
 8    1  0.8600524E-011  0.9118800E+02  0.7816164E-02  0.1184000E+00
        -11   -1    0    0    0    0  0.00000000000E+00  0.00000000000E+00  0.45593999997E+02  0.45594000000E+02  0.51100000000E-03 0. -1.
         11   -1    0    0    0    0 -0.00000000000E+00 -0.00000000000E+00 -0.45593999997E+02  0.45594000000E+02  0.51100000000E-03 0.  1.
         23    2    1    2    0    0 -0.17763568394E-14  0.71054273576E-14  0.44408920985E-15  0.91188000000E+02  0.91188000000E+02 0.  0.
    9900012    2    3    3    0    0 -0.14668511104E+02  0.40683456611E+02  0.36489083579E+01  0.47787269683E+02  0.19999993792E+02 0.  0.
        -12    1    3    3    0    0  0.14668511104E+02 -0.40683456611E+02 -0.36489083579E+01  0.43400730317E+02  0.00000000000E+00 0.  1.
         11    1    4    4    0    0 -0.22655979163E+01  0.46588657581E+01  0.30737607559E+01  0.60237836544E+01  0.51100000000E-03 0. -1.
        -11    1    4    4    0    0  0.15923892514E+01  0.75507104801E+01  0.57411827964E+01  0.96182177375E+01  0.51100000000E-03 0.  1.
        -12    1    4    4    0    0 -0.13995302439E+02  0.28473880373E+02 -0.51660351944E+01  0.32145268291E+02  0.00000000000E+00 0.  1.
</event>
<event>
 8    1  0.8600524E-011  0.9118800E+02  0.7816164E-02  0.1184000E+00
        -11   -1    0    0    0    0  0.00000000000E+00  0.00000000000E+00  0.45593999997E+02  0.45594000000E+02  0.51100000000E-03 0. -1.
         11   -1    0    0    0    0 -0.00000000000E+00 -0.00000000000E+00 -0.45593999997E+02  0.45594000000E+02  0.51100000000E-03 0.  1.
         23    2    1    2    0    0  0.35527136788E-14  0.35527136788E-14  0.00000000000E+00  0.91188000000E+02  0.91188000000E+02 0.  0.
    9900012    2    3    3    0    0 -0.20883038833E+02 -0.25042305625E+02 -0.28642714035E+02  0.47787269025E+02  0.19999990791E+02 0.  0.
         12    1    3    3    0    0  0.20883038833E+02  0.25042305625E+02  0.28642714035E+02  0.43400730975E+02  0.00000000000E+00 0. -1.
         11    1    4    4    0    0 -0.54495200180E+00 -0.71946238050E+00 -0.10930921576E+02  0.10968119509E+02  0.51100000000E-03 0. -1.
        -11    1    4    4    0    0 -0.10799634815E+02 -0.13057710566E+02 -0.12890226625E+02  0.21290698910E+02  0.51100000000E-03 0.  1.
         12    1    4    4    0    0 -0.95384520156E+01 -0.11265132679E+02 -0.48215658340E+01  0.15528450606E+02  0.00000000000E+00 0. -1.
</event>
<event>
 8    1  0.8600524E-011  0.9118800E+02  0.7816164E-02  0.1184000E+00
        -11   -1    0    0    0    0  0.00000000000E+00  0.00000000000E+00  0.45593999997E+02  0.45594000000E+02  0.51100000000E-03 0. -1.
         11   -1    0    0    0    0 -0.00000000000E+00 -0.00000000000E+00 -0.45593999997E+02  0.45594000000E+02  0.51100000000E-03 0.  1.
         23    2    1    2    0    0  0.00000000000E+00  0.88817841970E-15  0.00000000000E+00  0.91188000000E+02  0.91188000000E+02 0.  0.
    9900012    2    3    3    0    0  0.50455897829E+01  0.24031038379E+01 -0.43039401717E+02  0.47787274379E+02  0.20000015202E+02 0.  0.
         12    1    3    3    0    0 -0.50455897829E+01 -0.24031038379E+01  0.43039401717E+02  0.43400725621E+02  0.00000000000E+00 0. -1.
         11    1    4    4    0    0 -0.38825168568E+01 -0.22898240542E+01 -0.14921228743E+02  0.15587183799E+02  0.51100000000E-03 0. -1.
        -11    1    4    4    0    0 -0.27253658047E+01  0.88486339298E+00 -0.93773977982E+01  0.98054164481E+01  0.51100000000E-03 0.  1.
         12    1    4    4    0    0  0.11653472444E+02  0.38080644991E+01 -0.18740775176E+02  0.22394674131E+02  0.00000000000E+00 0. -1.
</event>
<event>
 8    1  0.8600524E-011  0.9118800E+02  0.7816164E-02  0.1184000E+00
        -11   -1    0    0    0    0  0.00000000000E+00  0.00000000000E+00  0.45593999997E+02  0.45594000000E+02  0.51100000000E-03 0. -1.
         11   -1    0    0    0    0 -0.00000000000E+00 -0.00000000000E+00 -0.45593999997E+02  0.45594000000E+02  0.51100000000E-03 0.  1.
         23    2    1    2    0    0  0.00000000000E+00  0.00000000000E+00  0.00000000000E+00  0.91188000000E+02  0.91188000000E+02 0.  0.
    9900012    2    3    3    0    0 -0.95383972651E+01 -0.36434174995E+02 -0.21568335188E+02  0.47787271749E+02  0.20000003210E+02 0.  0.
         12    1    3    3    0    0  0.95383972651E+01  0.36434174995E+02  0.21568335188E+02  0.43400728251E+02  0.00000000000E+00 0. -1.
         11    1    4    4    0    0 -0.18356683028E-03  0.10333307887E+01 -0.30487214282E+00  0.10773670856E+01  0.51100000000E-03 0. -1.
        -11    1    4    4    0    0 -0.26591554513E+01 -0.31638731944E+02 -0.20199039259E+02  0.37630860394E+02  0.51100000000E-03 0.  1.
        -12    1    4    4    0    0 -0.68790582470E+01 -0.58287738405E+01 -0.10644237861E+01  0.90790442694E+01  0.00000000000E+00 0.  1.
</event>
<event>
 8    1  0.8600524E-011  0.9118800E+02  0.7816164E-02  0.1184000E+00
        -11   -1    0    0    0    0  0.00000000000E+00  0.00000000000E+00  0.45593999997E+02  0.45594000000E+02  0.51100000000E-03 0. -1.
         11   -1    0    0    0    0 -0.00000000000E+00 -0.00000000000E+00 -0.45593999997E+02  0.45594000000E+02  0.51100000000E-03 0.  1.
         23    2    1    2    0    0  0.00000000000E+00  0.00000000000E+00  0.71054273576E-14  0.91188000000E+02  0.91188000000E+02 0.  0.
    9900012    2    3    3    0    0  0.37300899592E+01  0.10277745743E+01  0.43227923874E+02  0.47787270811E+02  0.19999998938E+02 0.  0.
        -12    1    3    3    0    0 -0.37300899592E+01 -0.10277745743E+01 -0.43227923874E+02  0.43400729189E+02  0.00000000000E+00 0.  1.
         11    1    4    4    0    0 -0.22945333901E+01  0.60063511127E+00 -0.58602921664E+00  0.24431693595E+01  0.51100000000E-03 0. -1.
        -11    1    4    4    0    0  0.76189913220E+00  0.65814846384E+00 -0.19117783023E+00  0.10247921311E+01  0.51100000000E-03 0.  1.
         12    1    4    4    0    0  0.52627242171E+01 -0.23100900077E+00  0.44005130920E+02  0.44319309321E+02  0.00000000000E+00 0. -1.
</event>
<event>
 8    1  0.8600524E-011  0.9118800E+02  0.7816164E-02  0.1184000E+00
        -11   -1    0    0    0    0  0.00000000000E+00  0.00000000000E+00  0.45593999997E+02  0.45594000000E+02  0.51100000000E-03 0. -1.
         11   -1    0    0    0    0 -0.00000000000E+00 -0.00000000000E+00 -0.45593999997E+02  0.45594000000E+02  0.51100000000E-03 0.  1.
         23    2    1    2    0    0  0.00000000000E+00  0.00000000000E+00  0.00000000000E+00  0.91188000000E+02  0.91188000000E+02 0.  0.
    9900012    2    3    3    0    0 -0.23082937582E+02 -0.27542587254E+01 -0.36649902635E+02  0.47787270609E+02  0.19999998013E+02 0.  0.
         12    1    3    3    0    0  0.23082937582E+02  0.27542587254E+01  0.36649902635E+02  0.43400729391E+02  0.00000000000E+00 0. -1.
         11    1    4    4    0    0 -0.23177782057E+01  0.13174605154E+01 -0.59149178018E+01  0.64879928239E+01  0.51100000000E-03 0. -1.
        -11    1    4    4    0    0 -0.18537057605E+02 -0.98157114300E+01 -0.26617840243E+02  0.33889233025E+02  0.51100000000E-03 0.  1.
        -12    1    4    4    0    0 -0.22281017715E+01  0.57439921891E+01 -0.41171445900E+01  0.74100447602E+01  0.00000000000E+00 0.  1.
</event>
<event>
 8    1  0.8600524E-011  0.9118800E+02  0.7816164E-02  0.1184000E+00
        -11   -1    0    0    0    0  0.00000000000E+00  0.00000000000E+00  0.45593999997E+02  0.45594000000E+02  0.51100000000E-03 0. -1.
         11   -1    0    0    0    0 -0.00000000000E+00 -0.00000000000E+00 -0.45593999997E+02  0.45594000000E+02  0.51100000000E-03 0.  1.
         23    2    1    2    0    0  0.88817841970E-15 -0.35527136788E-14  0.00000000000E+00  0.91188000000E+02  0.91188000000E+02 0.  0.
    9900012    2    3    3    0    0  0.73044111099E+01 -0.30695602089E+02  0.29800151071E+02  0.47787269440E+02  0.19999992683E+02 0.  0.
        -12    1    3    3    0    0 -0.73044111099E+01  0.30695602089E+02 -0.29800151071E+02  0.43400730560E+02  0.00000000000E+00 0.  1.
         11    1    4    4    0    0 -0.26571567555E+01 -0.14781081736E+02  0.20427840679E+02  0.25354240954E+02  0.51100000000E-03 0. -1.
        -11    1    4    4    0    0  0.10793924766E+01 -0.59339244443E+00  0.36024424249E+01  0.38072029624E+01  0.51100000000E-03 0.  1.
         12    1    4    4    0    0  0.88821753888E+01 -0.15321127909E+02  0.57698679676E+01  0.18625825523E+02  0.00000000000E+00 0. -1.
</event>
<event>
 8    1  0.8600524E-011  0.9118800E+02  0.7816164E-02  0.1184000E+00
        -11   -1    0    0    0    0  0.00000000000E+00  0.00000000000E+00  0.45593999997E+02  0.45594000000E+02  0.51100000000E-03 0. -1.
         11   -1    0    0    0    0 -0.00000000000E+00 -0.00000000000E+00 -0.45593999997E+02  0.45594000000E+02  0.51100000000E-03 0.  1.
         23    2    1    2    0    0  0.35527136788E-14  0.17763568394E-14  0.71054273576E-14  0.91188000000E+02  0.91188000000E+02 0.  0.
    9900012    2    3    3    0    0  0.23778331940E+02  0.62033017812E+01  0.35773363363E+02  0.47787267873E+02  0.19999985542E+02 0.  0.
        -12    1    3    3    0    0 -0.23778331940E+02 -0.62033017812E+01 -0.35773363363E+02  0.43400732127E+02  0.00000000000E+00 0.  1.
         11    1    4    4    0    0  0.77787078083E+01  0.90324800888E+01  0.10481381186E+02  0.15873038258E+02  0.51100000000E-03 0. -1.
        -11    1    4    4    0    0  0.96125771924E+01 -0.43633026162E+01  0.75031076344E+01  0.12951319409E+02  0.51100000000E-03 0.  1.
         12    1    4    4    0    0  0.63870469395E+01  0.15341243086E+01  0.17788874543E+02  0.18962910206E+02  0.00000000000E+00 0. -1.
</event>
<event>
 8    1  0.8600524E-011  0.9118800E+02  0.7816164E-02  0.1184000E+00
        -11   -1    0    0    0    0  0.00000000000E+00  0.00000000000E+00  0.45593999997E+02  0.45594000000E+02  0.51100000000E-03 0. -1.
         11   -1    0    0    0    0 -0.00000000000E+00 -0.00000000000E+00 -0.45593999997E+02  0.45594000000E+02  0.51100000000E-03 0.  1.
         23    2    1    2    0    0  0.88817841970E-15 -0.15820678101E-14  0.00000000000E+00  0.91188000000E+02  0.91188000000E+02 0.  0.
    9900012    2    3    3    0    0 -0.56398274511E+01  0.18947312100E+00  0.43032313350E+02  0.47787267910E+02  0.19999985708E+02 0.  0.
        -12    1    3    3    0    0  0.56398274511E+01 -0.18947312100E+00 -0.43032313350E+02  0.43400732090E+02  0.00000000000E+00 0.  1.
         11    1    4    4    0    0  0.14164073943E+01 -0.83170359940E+01  0.22211587846E+02  0.23759922823E+02  0.51100000000E-03 0. -1.
        -11    1    4    4    0    0 -0.39146531224E+01  0.67534718242E+01  0.10403579379E+02  0.13006473577E+02  0.51100000000E-03 0.  1.
         12    1    4    4    0    0 -0.31415817230E+01  0.17530372908E+01  0.10417146124E+02  0.11020871510E+02  0.00000000000E+00 0. -1.
</event>
<event>
 8    1  0.8600524E-011  0.9118800E+02  0.7816164E-02  0.1184000E+00
        -11   -1    0    0    0    0  0.00000000000E+00  0.00000000000E+00  0.45593999997E+02  0.45594000000E+02  0.51100000000E-03 0. -1.
         11   -1    0    0    0    0 -0.00000000000E+00 -0.00000000000E+00 -0.45593999997E+02  0.45594000000E+02  0.51100000000E-03 0.  1.
         23    2    1    2    0    0  0.00000000000E+00  0.00000000000E+00  0.00000000000E+00  0.91188000000E+02  0.91188000000E+02 0.  0.
    9900012    2    3    3    0    0 -0.24107836445E+02 -0.28828774938E+02  0.21710330592E+02  0.47787256955E+02  0.19999935759E+02 0.  0.
        -12    1    3    3    0    0  0.24107836445E+02  0.28828774938E+02 -0.21710330592E+02  0.43400743045E+02  0.00000000000E+00 0.  1.
         11    1    4    4    0    0 -0.13146436714E+02 -0.12208828622E+02  0.18940300364E+02  0.26088680931E+02  0.51100000000E-03 0. -1.
        -11    1    4    4    0    0 -0.21459504365E+01 -0.22498015547E+01  0.36773431158E+01  0.48155542738E+01  0.51100000000E-03 0.  1.
         12    1    4    4    0    0 -0.88154492945E+01 -0.14370144761E+02 -0.90731288773E+00  0.16883021750E+02  0.00000000000E+00 0. -1.
</event>
<event>
 8    1  0.8600524E-011  0.9118800E+02  0.7816164E-02  0.1184000E+00
        -11   -1    0    0    0    0  0.00000000000E+00  0.00000000000E+00  0.45593999997E+02  0.45594000000E+02  0.51100000000E-03 0. -1.
         11   -1    0    0    0    0 -0.00000000000E+00 -0.00000000000E+00 -0.45593999997E+02  0.45594000000E+02  0.51100000000E-03 0.  1.
         23    2    1    2    0    0  0.00000000000E+00  0.00000000000E+00  0.00000000000E+00  0.91188000000E+02  0.91188000000E+02 0.  0.
    9900012    2    3    3    0    0  0.22680359224E+02  0.35864831255E+02 -0.91070625023E+01  0.47787269558E+02  0.19999993221E+02 0.  0.
         12    1    3    3    0    0 -0.22680359224E+02 -0.35864831255E+02  0.91070625023E+01  0.43400730442E+02  0.00000000000E+00 0. -1.
         11    1    4    4    0    0 -0.18442026934E+01 -0.91134860018E+00 -0.17743371862E+01  0.27165994473E+01  0.51100000000E-03 0. -1.
        -11    1    4    4    0    0  0.22096303773E+02  0.33659705358E+02 -0.52521481523E+01  0.40605510288E+02  0.51100000000E-03 0.  1.
        -12    1    4    4    0    0  0.24282581447E+01  0.31164744970E+01 -0.20805771638E+01  0.44651598227E+01  0.00000000000E+00 0.  1.
</event>
<event>
 8    1  0.8600524E-011  0.9118800E+02  0.7816164E-02  0.1184000E+00
        -11   -1    0    0    0    0  0.00000000000E+00  0.00000000000E+00  0.45593999997E+02  0.45594000000E+02  0.51100000000E-03 0. -1.
         11   -1    0    0    0    0 -0.00000000000E+00 -0.00000000000E+00 -0.45593999997E+02  0.45594000000E+02  0.51100000000E-03 0.  1.
         23    2    1    2    0    0  0.35527136788E-14  0.44408920985E-15  0.71054273576E-14  0.91188000000E+02  0.91188000000E+02 0.  0.
    9900012    2    3    3    0    0  0.74972663840E+01  0.25720543311E+01  0.42670819404E+02  0.47787270798E+02  0.19999998874E+02 0.  0.
        -12    1    3    3    0    0 -0.74972663840E+01 -0.25720543311E+01 -0.42670819404E+02  0.43400729202E+02  0.00000000000E+00 0.  1.
         11    1    4    4    0    0  0.88742746100E+01 -0.20004319063E+01  0.27745699463E+02  0.29198943758E+02  0.51100000000E-03 0. -1.
        -11    1    4    4    0    0 -0.36753863957E+01  0.67484910523E+01  0.87211219070E+01  0.11623620960E+02  0.51100000000E-03 0.  1.
        -12    1    4    4    0    0  0.22983781697E+01 -0.21760048149E+01  0.62039980339E+01  0.69647060793E+01  0.00000000000E+00 0.  1.
</event>
<event>
 8    1  0.8600524E-011  0.9118800E+02  0.7816164E-02  0.1184000E+00
        -11   -1    0    0    0    0  0.00000000000E+00  0.00000000000E+00  0.45593999997E+02  0.45594000000E+02  0.51100000000E-03 0. -1.
         11   -1    0    0    0    0 -0.00000000000E+00 -0.00000000000E+00 -0.45593999997E+02  0.45594000000E+02  0.51100000000E-03 0.  1.
         23    2    1    2    0    0  0.00000000000E+00  0.35527136788E-14  0.00000000000E+00  0.91188000000E+02  0.91188000000E+02 0.  0.
    9900012    2    3    3    0    0 -0.32489314451E+02  0.16505103340E+02 -0.23572212548E+02  0.47787271962E+02  0.20000004185E+02 0.  0.
         12    1    3    3    0    0  0.32489314451E+02 -0.16505103340E+02  0.23572212548E+02  0.43400728038E+02  0.00000000000E+00 0. -1.
         11    1    4    4    0    0 -0.56278344623E+01  0.20912290778E+01 -0.76891015648E+00  0.60528491539E+01  0.51100000000E-03 0. -1.
        -11    1    4    4    0    0 -0.21692713945E+02  0.49968732810E+01 -0.84594063149E+01  0.23813948357E+02  0.51100000000E-03 0.  1.
        -12    1    4    4    0    0 -0.51687660437E+01  0.94170009811E+01 -0.14343896077E+02  0.17920474451E+02  0.00000000000E+00 0.  1.
</event>
<event>
 8    1  0.8600524E-011  0.9118800E+02  0.7816164E-02  0.1184000E+00
        -11   -1    0    0    0    0  0.00000000000E+00  0.00000000000E+00  0.45593999997E+02  0.45594000000E+02  0.51100000000E-03 0. -1.
         11   -1    0    0    0    0 -0.00000000000E+00 -0.00000000000E+00 -0.45593999997E+02  0.45594000000E+02  0.51100000000E-03 0.  1.
         23    2    1    2    0    0  0.35527136788E-14 -0.17763568394E-14 -0.71054273576E-14  0.91188000000E+02  0.91188000000E+02 0.  0.
    9900012    2    3    3    0    0 -0.18129248409E+02  0.73110908594E+01  0.38749213081E+02  0.47787271759E+02  0.20000003259E+02 0.  0.
        -12    1    3    3    0    0  0.18129248409E+02 -0.73110908594E+01 -0.38749213081E+02  0.43400728241E+02  0.00000000000E+00 0.  1.
         11    1    4    4    0    0  0.20524809703E+01 -0.19505438702E+01  0.24194742837E+01  0.37244000314E+01  0.51100000000E-03 0.  1.
        -11    1    4    4    0    0 -0.17199617851E+02  0.62503011569E+01  0.35206339789E+02  0.39678451084E+02  0.51100000000E-03 0. -1.
         12    1    4    4    0    0 -0.29821115284E+01  0.30113335727E+01  0.11233990078E+01  0.43844206441E+01  0.00000000000E+00 0. -1.
</event>
<event>
 8    1  0.8600524E-011  0.9118800E+02  0.7816164E-02  0.1184000E+00
        -11   -1    0    0    0    0  0.00000000000E+00  0.00000000000E+00  0.45593999997E+02  0.45594000000E+02  0.51100000000E-03 0. -1.
         11   -1    0    0    0    0 -0.00000000000E+00 -0.00000000000E+00 -0.45593999997E+02  0.45594000000E+02  0.51100000000E-03 0.  1.
         23    2    1    2    0    0  0.00000000000E+00  0.00000000000E+00  0.35527136788E-14  0.91188000000E+02  0.91188000000E+02 0.  0.
    9900012    2    3    3    0    0  0.21562924616E+02  0.20007673296E+02 -0.31911695568E+02  0.47787273938E+02  0.20000013191E+02 0.  0.
         12    1    3    3    0    0 -0.21562924616E+02 -0.20007673296E+02  0.31911695568E+02  0.43400726062E+02  0.00000000000E+00 0. -1.
         11    1    4    4    0    0  0.78373084100E-01 -0.21107232209E+00 -0.54188678540E+01  0.54235433939E+01  0.51100000000E-03 0. -1.
        -11    1    4    4    0    0  0.12318246010E+02  0.20265907471E+02 -0.17088902087E+02  0.29231434539E+02  0.51100000000E-03 0.  1.
        -12    1    4    4    0    0  0.91663055219E+01 -0.47161853159E-01 -0.94039256273E+01  0.13132296005E+02  0.00000000000E+00 0.  1.
</event>
<event>
 8    1  0.8600524E-011  0.9118800E+02  0.7816164E-02  0.1184000E+00
        -11   -1    0    0    0    0  0.00000000000E+00  0.00000000000E+00  0.45593999997E+02  0.45594000000E+02  0.51100000000E-03 0. -1.
         11   -1    0    0    0    0 -0.00000000000E+00 -0.00000000000E+00 -0.45593999997E+02  0.45594000000E+02  0.51100000000E-03 0.  1.
         23    2    1    2    0    0  0.00000000000E+00 -0.44408920985E-15  0.00000000000E+00  0.91188000000E+02  0.91188000000E+02 0.  0.
    9900012    2    3    3    0    0 -0.17258625195E+02 -0.32981166344E+01 -0.39684838167E+02  0.47787261558E+02  0.19999956749E+02 0.  0.
         12    1    3    3    0    0  0.17258625195E+02  0.32981166344E+01  0.39684838167E+02  0.43400738442E+02  0.00000000000E+00 0. -1.
         11    1    4    4    0    0  0.20127214550E+01 -0.21085846825E+01 -0.70264210248E-02  0.29150002831E+01  0.51100000000E-03 0. -1.
        -11    1    4    4    0    0 -0.43724073840E+01  0.32052770587E+01 -0.10529576504E+02  0.11843298906E+02  0.51100000000E-03 0.  1.
         12    1    4    4    0    0 -0.14898939265E+02 -0.43948090107E+01 -0.29148235242E+02  0.33028962369E+02  0.00000000000E+00 0. -1.
</event>
<event>
 8    1  0.8600524E-011  0.9118800E+02  0.7816164E-02  0.1184000E+00
        -11   -1    0    0    0    0  0.00000000000E+00  0.00000000000E+00  0.45593999997E+02  0.45594000000E+02  0.51100000000E-03 0. -1.
         11   -1    0    0    0    0 -0.00000000000E+00 -0.00000000000E+00 -0.45593999997E+02  0.45594000000E+02  0.51100000000E-03 0.  1.
         23    2    1    2    0    0 -0.71054273576E-14  0.00000000000E+00  0.00000000000E+00  0.91188000000E+02  0.91188000000E+02 0.  0.
    9900012    2    3    3    0    0  0.17448432865E+02 -0.26582501403E+02 -0.29538892899E+02  0.47787269776E+02  0.19999994219E+02 0.  0.
         12    1    3    3    0    0 -0.17448432865E+02  0.26582501403E+02  0.29538892899E+02  0.43400730224E+02  0.00000000000E+00 0. -1.
         11    1    4    4    0    0 -0.16015900145E+01 -0.18782283581E+01 -0.10176826033E+02  0.10471896710E+02  0.51100000000E-03 0. -1.
        -11    1    4    4    0    0  0.12677750201E+02 -0.11001117316E+02 -0.10356146061E+02  0.19723075163E+02  0.51100000000E-03 0.  1.
         12    1    4    4    0    0  0.63722726778E+01 -0.13703155728E+02 -0.90059208046E+01  0.17592297904E+02  0.00000000000E+00 0. -1.
</event>
<event>
 8    1  0.8600524E-011  0.9118800E+02  0.7816164E-02  0.1184000E+00
        -11   -1    0    0    0    0  0.00000000000E+00  0.00000000000E+00  0.45593999997E+02  0.45594000000E+02  0.51100000000E-03 0. -1.
         11   -1    0    0    0    0 -0.00000000000E+00 -0.00000000000E+00 -0.45593999997E+02  0.45594000000E+02  0.51100000000E-03 0.  1.
         23    2    1    2    0    0  0.00000000000E+00  0.00000000000E+00  0.00000000000E+00  0.91188000000E+02  0.91188000000E+02 0.  0.
    9900012    2    3    3    0    0  0.33421829642E+02  0.13208971907E+02  0.24333666107E+02  0.47787274872E+02  0.20000017449E+02 0.  0.
        -12    1    3    3    0    0 -0.33421829642E+02 -0.13208971907E+02 -0.24333666107E+02  0.43400725128E+02  0.00000000000E+00 0.  1.
         11    1    4    4    0    0  0.22941459203E+02  0.13323213590E+02  0.15292743439E+02  0.30621668356E+02  0.51100000000E-03 0. -1.
        -11    1    4    4    0    0  0.51021978823E+01 -0.39525005928E+01  0.83041698205E+01  0.10517315286E+02  0.51100000000E-03 0.  1.
        -12    1    4    4    0    0  0.53781725570E+01  0.38382589105E+01  0.73675284698E+00  0.66482912296E+01  0.00000000000E+00 0.  1.
</event>
<event>
 8    1  0.8600524E-011  0.9118800E+02  0.7816164E-02  0.1184000E+00
        -11   -1    0    0    0    0  0.00000000000E+00  0.00000000000E+00  0.45593999997E+02  0.45594000000E+02  0.51100000000E-03 0. -1.
         11   -1    0    0    0    0 -0.00000000000E+00 -0.00000000000E+00 -0.45593999997E+02  0.45594000000E+02  0.51100000000E-03 0.  1.
         23    2    1    2    0    0  0.00000000000E+00  0.00000000000E+00  0.00000000000E+00  0.91188000000E+02  0.91188000000E+02 0.  0.
    9900012    2    3    3    0    0 -0.20084025194E+02  0.36681574264E+02 -0.11606741099E+02  0.47787281142E+02  0.20000046038E+02 0.  0.
         12    1    3    3    0    0  0.20084025194E+02 -0.36681574264E+02  0.11606741099E+02  0.43400718858E+02  0.00000000000E+00 0. -1.
         11    1    4    4    0    0 -0.67622375744E+01  0.19550237687E+01  0.79993982228E+00  0.70844815568E+01  0.51100000000E-03 0. -1.
        -11    1    4    4    0    0 -0.58450550243E+01  0.27872309000E+02 -0.10671577266E+02  0.30412379697E+02  0.51100000000E-03 0.  1.
        -12    1    4    4    0    0 -0.74767325954E+01  0.68542414954E+01 -0.17351036551E+01  0.10290419888E+02  0.00000000000E+00 0.  1.
</event>
<event>
 8    1  0.8600524E-011  0.9118800E+02  0.7816164E-02  0.1184000E+00
        -11   -1    0    0    0    0  0.00000000000E+00  0.00000000000E+00  0.45593999997E+02  0.45594000000E+02  0.51100000000E-03 0. -1.
         11   -1    0    0    0    0 -0.00000000000E+00 -0.00000000000E+00 -0.45593999997E+02  0.45594000000E+02  0.51100000000E-03 0.  1.
         23    2    1    2    0    0 -0.88817841970E-15 -0.88817841970E-15  0.00000000000E+00  0.91188000000E+02  0.91188000000E+02 0.  0.
    9900012    2    3    3    0    0 -0.52647849285E+01 -0.49315911539E+01  0.42797016790E+02  0.47787271921E+02  0.20000003999E+02 0.  0.
        -12    1    3    3    0    0  0.52647849285E+01  0.49315911539E+01 -0.42797016790E+02  0.43400728079E+02  0.00000000000E+00 0.  1.
         11    1    4    4    0    0  0.28165010045E+01 -0.85087579159E+01  0.15311557395E+02  0.17741911659E+02  0.51100000000E-03 0. -1.
        -11    1    4    4    0    0 -0.19082936819E+01 -0.89936408529E+00  0.74238655650E+00  0.22364209341E+01  0.51100000000E-03 0.  1.
         12    1    4    4    0    0 -0.61729922511E+01  0.44765308474E+01  0.26743072838E+02  0.27808939329E+02  0.00000000000E+00 0. -1.
</event>
<event>
 8    1  0.8600524E-011  0.9118800E+02  0.7816164E-02  0.1184000E+00
        -11   -1    0    0    0    0  0.00000000000E+00  0.00000000000E+00  0.45593999997E+02  0.45594000000E+02  0.51100000000E-03 0. -1.
         11   -1    0    0    0    0 -0.00000000000E+00 -0.00000000000E+00 -0.45593999997E+02  0.45594000000E+02  0.51100000000E-03 0.  1.
         23    2    1    2    0    0  0.00000000000E+00 -0.35527136788E-14  0.00000000000E+00  0.91188000000E+02  0.91188000000E+02 0.  0.
    9900012    2    3    3    0    0  0.16034275726E+02  0.21524424843E+02 -0.34106077791E+02  0.47787269532E+02  0.19999993104E+02 0.  0.
         12    1    3    3    0    0 -0.16034275726E+02 -0.21524424843E+02  0.34106077791E+02  0.43400730468E+02  0.00000000000E+00 0. -1.
         11    1    4    4    0    0  0.45443823403E+01  0.10248733571E+02 -0.13138328650E+02  0.17271468688E+02  0.51100000000E-03 0. -1.
        -11    1    4    4    0    0  0.11572751705E+02  0.27490053081E+01 -0.17822261337E+02  0.21427053265E+02  0.51100000000E-03 0.  1.
        -12    1    4    4    0    0 -0.82858319409E-01  0.85266859633E+01 -0.31454878039E+01  0.90887475784E+01  0.00000000000E+00 0.  1.
</event>
<event>
 8    1  0.8600524E-011  0.9118800E+02  0.7816164E-02  0.1184000E+00
        -11   -1    0    0    0    0  0.00000000000E+00  0.00000000000E+00  0.45593999997E+02  0.45594000000E+02  0.51100000000E-03 0. -1.
         11   -1    0    0    0    0 -0.00000000000E+00 -0.00000000000E+00 -0.45593999997E+02  0.45594000000E+02  0.51100000000E-03 0.  1.
         23    2    1    2    0    0  0.88817841970E-15  0.00000000000E+00  0.00000000000E+00  0.91188000000E+02  0.91188000000E+02 0.  0.
    9900012    2    3    3    0    0  0.36123113492E+01 -0.13773392167E+02  0.40998394393E+02  0.47787268810E+02  0.19999989811E+02 0.  0.
        -12    1    3    3    0    0 -0.36123113492E+01  0.13773392167E+02 -0.40998394393E+02  0.43400731190E+02  0.00000000000E+00 0.  1.
         11    1    4    4    0    0  0.70256528123E+00 -0.13916867743E+02  0.34086713704E+02  0.36824948841E+02  0.51100000000E-03 0. -1.
        -11    1    4    4    0    0 -0.14849020984E+01  0.17187989865E+01 -0.38122703760E+00  0.23031583778E+01  0.51100000000E-03 0.  1.
        -12    1    4    4    0    0  0.43946481665E+01 -0.15753234105E+01  0.72929077260E+01  0.86591615908E+01  0.00000000000E+00 0.  1.
</event>
<event>
 8    1  0.8600524E-011  0.9118800E+02  0.7816164E-02  0.1184000E+00
        -11   -1    0    0    0    0  0.00000000000E+00  0.00000000000E+00  0.45593999997E+02  0.45594000000E+02  0.51100000000E-03 0. -1.
         11   -1    0    0    0    0 -0.00000000000E+00 -0.00000000000E+00 -0.45593999997E+02  0.45594000000E+02  0.51100000000E-03 0.  1.
         23    2    1    2    0    0  0.00000000000E+00  0.00000000000E+00 -0.35527136788E-14  0.91188000000E+02  0.91188000000E+02 0.  0.
    9900012    2    3    3    0    0  0.41445263246E+02  0.99888254002E+01  0.81324503131E+01  0.47787271590E+02  0.20000002489E+02 0.  0.
        -12    1    3    3    0    0 -0.41445263246E+02 -0.99888254002E+01 -0.81324503131E+01  0.43400728410E+02  0.00000000000E+00 0.  1.
         11    1    4    4    0    0  0.27457429115E+01  0.31501791750E+00  0.97218569582E+00  0.29297586441E+01  0.51100000000E-03 0. -1.
        -11    1    4    4    0    0  0.18997673233E+02  0.92692425334E+01  0.12347236676E+02  0.24480292057E+02  0.51100000000E-03 0.  1.
        -12    1    4    4    0    0  0.19701847102E+02  0.40456494924E+00 -0.51869720591E+01  0.20377220889E+02  0.00000000000E+00 0.  1.
</event>
<event>
 8    1  0.8600524E-011  0.9118800E+02  0.7816164E-02  0.1184000E+00
        -11   -1    0    0    0    0  0.00000000000E+00  0.00000000000E+00  0.45593999997E+02  0.45594000000E+02  0.51100000000E-03 0.  1.
         11   -1    0    0    0    0 -0.00000000000E+00 -0.00000000000E+00 -0.45593999997E+02  0.45594000000E+02  0.51100000000E-03 0. -1.
         23    2    1    2    0    0  0.35527136788E-14  0.00000000000E+00  0.88817841970E-15  0.91188000000E+02  0.91188000000E+02 0.  0.
    9900012    2    3    3    0    0  0.30896821006E+02 -0.29532340647E+02  0.75399123590E+01  0.47787274537E+02  0.20000015924E+02 0.  0.
        -12    1    3    3    0    0 -0.30896821006E+02  0.29532340647E+02 -0.75399123590E+01  0.43400725463E+02  0.00000000000E+00 0.  1.
         11    1    4    4    0    0  0.17708308550E+02 -0.25392791268E+02  0.36101239140E+01  0.31167467575E+02  0.51100000000E-03 0.  1.
        -11    1    4    4    0    0  0.92200515075E+01 -0.19443966428E+00 -0.84910895834E+00  0.92611091598E+01  0.51100000000E-03 0. -1.
        -12    1    4    4    0    0  0.39684609483E+01 -0.39451097147E+01  0.47788974033E+01  0.73586978026E+01  0.00000000000E+00 0.  1.
</event>
<event>
 8    1  0.8600524E-011  0.9118800E+02  0.7816164E-02  0.1184000E+00
        -11   -1    0    0    0    0  0.00000000000E+00  0.00000000000E+00  0.45593999997E+02  0.45594000000E+02  0.51100000000E-03 0.  1.
         11   -1    0    0    0    0 -0.00000000000E+00 -0.00000000000E+00 -0.45593999997E+02  0.45594000000E+02  0.51100000000E-03 0. -1.
         23    2    1    2    0    0 -0.35527136788E-14  0.00000000000E+00  0.00000000000E+00  0.91188000000E+02  0.91188000000E+02 0.  0.
    9900012    2    3    3    0    0  0.24454716362E+02  0.31707155965E+02  0.16740568359E+02  0.47787268200E+02  0.19999987032E+02 0.  0.
        -12    1    3    3    0    0 -0.24454716362E+02 -0.31707155965E+02 -0.16740568359E+02  0.43400731800E+02  0.00000000000E+00 0.  1.
         11    1    4    4    0    0  0.18861760945E+02  0.25380716191E+02  0.16227550181E+02  0.35542652763E+02  0.51100000000E-03 0. -1.
        -11    1    4    4    0    0 -0.36019970466E+00  0.39721192242E+01  0.33820643596E+01  0.52293244833E+01  0.51100000000E-03 0.  1.
         12    1    4    4    0    0  0.59531551226E+01  0.23543205500E+01 -0.28690461824E+01  0.70152909536E+01  0.00000000000E+00 0. -1.
</event>
<event>
 8    1  0.8600524E-011  0.9118800E+02  0.7816164E-02  0.1184000E+00
        -11   -1    0    0    0    0  0.00000000000E+00  0.00000000000E+00  0.45593999997E+02  0.45594000000E+02  0.51100000000E-03 0. -1.
         11   -1    0    0    0    0 -0.00000000000E+00 -0.00000000000E+00 -0.45593999997E+02  0.45594000000E+02  0.51100000000E-03 0.  1.
         23    2    1    2    0    0  0.17763568394E-14  0.00000000000E+00  0.71054273576E-14  0.91188000000E+02  0.91188000000E+02 0.  0.
    9900012    2    3    3    0    0 -0.64730513826E+01 -0.11963982461E+02 -0.41213902790E+02  0.47787273581E+02  0.20000011563E+02 0.  0.
         12    1    3    3    0    0  0.64730513826E+01  0.11963982461E+02  0.41213902790E+02  0.43400726419E+02  0.00000000000E+00 0. -1.
         11    1    4    4    0    0  0.62795632553E+00  0.16699647069E+01  0.13131810863E+01  0.22153004527E+01  0.51100000000E-03 0. -1.
        -11    1    4    4    0    0 -0.58226855891E+01 -0.60820822471E+01 -0.17902507127E+02  0.19783709299E+02  0.51100000000E-03 0.  1.
         12    1    4    4    0    0 -0.12783221191E+01 -0.75518649206E+01 -0.24624576749E+02  0.25788263829E+02  0.00000000000E+00 0. -1.
</event>
<event>
 8    1  0.8600524E-011  0.9118800E+02  0.7816164E-02  0.1184000E+00
        -11   -1    0    0    0    0  0.00000000000E+00  0.00000000000E+00  0.45593999997E+02  0.45594000000E+02  0.51100000000E-03 0. -1.
         11   -1    0    0    0    0 -0.00000000000E+00 -0.00000000000E+00 -0.45593999997E+02  0.45594000000E+02  0.51100000000E-03 0.  1.
         23    2    1    2    0    0  0.00000000000E+00  0.35527136788E-14  0.00000000000E+00  0.91188000000E+02  0.91188000000E+02 0.  0.
    9900012    2    3    3    0    0  0.36666648796E+01  0.25176133240E+02 -0.35161635500E+02  0.47787277341E+02  0.20000028710E+02 0.  0.
         12    1    3    3    0    0 -0.36666648796E+01 -0.25176133240E+02  0.35161635500E+02  0.43400722659E+02  0.00000000000E+00 0. -1.
         11    1    4    4    0    0  0.67406911376E+01  0.78800349816E+01 -0.20520792702E+02  0.22992059536E+02  0.51100000000E-03 0. -1.
        -11    1    4    4    0    0  0.26111281182E+01  0.60565842047E+01 -0.85668469851E+01  0.10811617354E+02  0.51100000000E-03 0.  1.
         12    1    4    4    0    0 -0.56851543762E+01  0.11239514054E+02 -0.60739958126E+01  0.13983600451E+02  0.00000000000E+00 0. -1.
</event>
<event>
 8    1  0.8600524E-011  0.9118800E+02  0.7816164E-02  0.1184000E+00
        -11   -1    0    0    0    0  0.00000000000E+00  0.00000000000E+00  0.45593999997E+02  0.45594000000E+02  0.51100000000E-03 0. -1.
         11   -1    0    0    0    0 -0.00000000000E+00 -0.00000000000E+00 -0.45593999997E+02  0.45594000000E+02  0.51100000000E-03 0.  1.
         23    2    1    2    0    0 -0.22204460493E-15  0.35527136788E-14  0.00000000000E+00  0.91188000000E+02  0.91188000000E+02 0.  0.
    9900012    2    3    3    0    0 -0.18836707583E+01  0.24745336493E+02  0.35605391307E+02  0.47787265170E+02  0.19999973217E+02 0.  0.
        -12    1    3    3    0    0  0.18836707583E+01 -0.24745336493E+02 -0.35605391307E+02  0.43400734830E+02  0.00000000000E+00 0.  1.
         11    1    4    4    0    0 -0.73486717456E-01 -0.27814289581E+01  0.10397568163E+01  0.29703268919E+01  0.51100000000E-03 0. -1.
        -11    1    4    4    0    0 -0.12624042725E+01  0.17883772050E+02  0.16668086869E+02  0.24479544265E+02  0.51100000000E-03 0.  1.
         12    1    4    4    0    0 -0.54777976841E+00  0.96429934013E+01  0.17897547621E+02  0.20337394013E+02  0.00000000000E+00 0. -1.
</event>
<event>
 8    1  0.8600524E-011  0.9118800E+02  0.7816164E-02  0.1184000E+00
        -11   -1    0    0    0    0  0.00000000000E+00  0.00000000000E+00  0.45593999997E+02  0.45594000000E+02  0.51100000000E-03 0. -1.
         11   -1    0    0    0    0 -0.00000000000E+00 -0.00000000000E+00 -0.45593999997E+02  0.45594000000E+02  0.51100000000E-03 0.  1.
         23    2    1    2    0    0  0.00000000000E+00  0.00000000000E+00  0.00000000000E+00  0.91188000000E+02  0.91188000000E+02 0.  0.
    9900012    2    3    3    0    0  0.13487368596E+02  0.33789812115E+02 -0.23663530941E+02  0.47787271768E+02  0.20000003299E+02 0.  0.
         12    1    3    3    0    0 -0.13487368596E+02 -0.33789812115E+02  0.23663530941E+02  0.43400728232E+02  0.00000000000E+00 0. -1.
         11    1    4    4    0    0  0.80095598417E+01  0.31436189248E+02 -0.20894922045E+02  0.38587365949E+02  0.51100000000E-03 0. -1.
        -11    1    4    4    0    0  0.58287085091E+01 -0.32567311930E+00 -0.88142582224E+00  0.59039662606E+01  0.51100000000E-03 0.  1.
        -12    1    4    4    0    0 -0.35089975449E+00  0.26792959865E+01 -0.18871830738E+01  0.32959395587E+01  0.00000000000E+00 0.  1.
</event>
<event>
 8    1  0.8600524E-011  0.9118800E+02  0.7816164E-02  0.1184000E+00
        -11   -1    0    0    0    0  0.00000000000E+00  0.00000000000E+00  0.45593999997E+02  0.45594000000E+02  0.51100000000E-03 0. -1.
         11   -1    0    0    0    0 -0.00000000000E+00 -0.00000000000E+00 -0.45593999997E+02  0.45594000000E+02  0.51100000000E-03 0.  1.
         23    2    1    2    0    0  0.00000000000E+00  0.00000000000E+00 -0.35527136788E-14  0.91188000000E+02  0.91188000000E+02 0.  0.
    9900012    2    3    3    0    0 -0.22778509611E+02 -0.28743238578E+02 -0.23207516829E+02  0.47787273032E+02  0.20000009060E+02 0.  0.
         12    1    3    3    0    0  0.22778509611E+02  0.28743238578E+02  0.23207516829E+02  0.43400726968E+02  0.00000000000E+00 0. -1.
         11    1    4    4    0    0 -0.46166425717E+01 -0.19290136864E+01  0.19375022331E+01  0.53654820474E+01  0.51100000000E-03 0. -1.
        -11    1    4    4    0    0 -0.12296578855E+02 -0.17465515615E+02 -0.22598122210E+02  0.31095421124E+02  0.51100000000E-03 0.  1.
         12    1    4    4    0    0 -0.58652881848E+01 -0.93487092767E+01 -0.25468968514E+01  0.11326369860E+02  0.00000000000E+00 0. -1.
</event>
<event>
 8    1  0.8600524E-011  0.9118800E+02  0.7816164E-02  0.1184000E+00
        -11   -1    0    0    0    0  0.00000000000E+00  0.00000000000E+00  0.45593999997E+02  0.45594000000E+02  0.51100000000E-03 0.  1.
         11   -1    0    0    0    0 -0.00000000000E+00 -0.00000000000E+00 -0.45593999997E+02  0.45594000000E+02  0.51100000000E-03 0. -1.
         23    2    1    2    0    0  0.00000000000E+00  0.00000000000E+00  0.00000000000E+00  0.91188000000E+02  0.91188000000E+02 0.  0.
    9900012    2    3    3    0    0  0.14916500402E+02  0.33421762981E+02  0.23326103768E+02  0.47787270260E+02  0.19999996423E+02 0.  0.
        -12    1    3    3    0    0 -0.14916500402E+02 -0.33421762981E+02 -0.23326103768E+02  0.43400729740E+02  0.00000000000E+00 0.  1.
         11    1    4    4    0    0  0.98768184145E+01  0.99425329432E+01  0.33161744961E+01  0.14401476205E+02  0.51100000000E-03 0. -1.
        -11    1    4    4    0    0  0.38420323188E+01  0.24478319803E+02  0.17169496835E+02  0.30145330891E+02  0.51100000000E-03 0.  1.
         12    1    4    4    0    0  0.11976496684E+01 -0.99908976547E+00  0.28404324372E+01  0.32404631641E+01  0.00000000000E+00 0. -1.
</event>
<event>
 8    1  0.8600524E-011  0.9118800E+02  0.7816164E-02  0.1184000E+00
        -11   -1    0    0    0    0  0.00000000000E+00  0.00000000000E+00  0.45593999997E+02  0.45594000000E+02  0.51100000000E-03 0.  1.
         11   -1    0    0    0    0 -0.00000000000E+00 -0.00000000000E+00 -0.45593999997E+02  0.45594000000E+02  0.51100000000E-03 0. -1.
         23    2    1    2    0    0  0.00000000000E+00  0.00000000000E+00  0.22204460493E-15  0.91188000000E+02  0.91188000000E+02 0.  0.
    9900012    2    3    3    0    0  0.97617753511E+01  0.42248937415E+02  0.18325391374E+01  0.47787272237E+02  0.20000005435E+02 0.  0.
        -12    1    3    3    0    0 -0.97617753511E+01 -0.42248937415E+02 -0.18325391374E+01  0.43400727763E+02  0.00000000000E+00 0.  1.
         11    1    4    4    0    0  0.61098757715E+01  0.38486746495E+02 -0.11163348261E+01  0.38984694964E+02  0.51100000000E-03 0. -1.
        -11    1    4    4    0    0  0.67707008426E+00  0.23127763992E+01  0.45330397291E+01  0.51337908039E+01  0.51100000000E-03 0.  1.
        -12    1    4    4    0    0  0.29748294954E+01  0.14494145206E+01 -0.15841657657E+01  0.36687864686E+01  0.00000000000E+00 0.  1.
</event>
<event>
 8    1  0.8600524E-011  0.9118800E+02  0.7816164E-02  0.1184000E+00
        -11   -1    0    0    0    0  0.00000000000E+00  0.00000000000E+00  0.45593999997E+02  0.45594000000E+02  0.51100000000E-03 0. -1.
         11   -1    0    0    0    0 -0.00000000000E+00 -0.00000000000E+00 -0.45593999997E+02  0.45594000000E+02  0.51100000000E-03 0.  1.
         23    2    1    2    0    0  0.17763568394E-14  0.00000000000E+00  0.00000000000E+00  0.91188000000E+02  0.91188000000E+02 0.  0.
    9900012    2    3    3    0    0 -0.13395679921E+02 -0.24721120765E+02  0.33061237707E+02  0.47787268541E+02  0.19999988586E+02 0.  0.
        -12    1    3    3    0    0  0.13395679921E+02  0.24721120765E+02 -0.33061237707E+02  0.43400731459E+02  0.00000000000E+00 0.  1.
         11    1    4    4    0    0 -0.70871387004E+01 -0.23830295375E+02  0.31398907646E+02  0.40049992687E+02  0.51100000000E-03 0. -1.
        -11    1    4    4    0    0 -0.58584300622E+01 -0.15934011237E+01  0.22513554280E+00  0.60754272449E+01  0.51100000000E-03 0.  1.
         12    1    4    4    0    0 -0.45011115889E+00  0.70257573315E+00  0.14371945184E+01  0.16618486092E+01  0.00000000000E+00 0. -1.
</event>
<event>
 8    1  0.8600524E-011  0.9118800E+02  0.7816164E-02  0.1184000E+00
        -11   -1    0    0    0    0  0.00000000000E+00  0.00000000000E+00  0.45593999997E+02  0.45594000000E+02  0.51100000000E-03 0. -1.
         11   -1    0    0    0    0 -0.00000000000E+00 -0.00000000000E+00 -0.45593999997E+02  0.45594000000E+02  0.51100000000E-03 0.  1.
         23    2    1    2    0    0  0.00000000000E+00  0.00000000000E+00  0.00000000000E+00  0.91188000000E+02  0.91188000000E+02 0.  0.
    9900012    2    3    3    0    0 -0.59329267149E+01 -0.38281502691E+02 -0.19569109398E+02  0.47787272929E+02  0.20000008591E+02 0.  0.
         12    1    3    3    0    0  0.59329267149E+01  0.38281502691E+02  0.19569109398E+02  0.43400727071E+02  0.00000000000E+00 0. -1.
         11    1    4    4    0    0 -0.63238182209E+01 -0.92717115640E+01 -0.50199552617E+01  0.12294521679E+02  0.51100000000E-03 0. -1.
        -11    1    4    4    0    0  0.67335615728E+01 -0.16285138831E+02 -0.11217877944E+02  0.20889887123E+02  0.51100000000E-03 0.  1.
        -12    1    4    4    0    0 -0.63426700668E+01 -0.12724652296E+02 -0.33312761918E+01  0.14602864127E+02  0.00000000000E+00 0.  1.
</event>
<event>
 8    1  0.8600524E-011  0.9118800E+02  0.7816164E-02  0.1184000E+00
        -11   -1    0    0    0    0  0.00000000000E+00  0.00000000000E+00  0.45593999997E+02  0.45594000000E+02  0.51100000000E-03 0. -1.
         11   -1    0    0    0    0 -0.00000000000E+00 -0.00000000000E+00 -0.45593999997E+02  0.45594000000E+02  0.51100000000E-03 0.  1.
         23    2    1    2    0    0  0.00000000000E+00  0.00000000000E+00 -0.71054273576E-14  0.91188000000E+02  0.91188000000E+02 0.  0.
    9900012    2    3    3    0    0  0.76987622285E+01  0.27311166283E+02  0.32839791797E+02  0.47787278015E+02  0.20000031780E+02 0.  0.
        -12    1    3    3    0    0 -0.76987622285E+01 -0.27311166283E+02 -0.32839791797E+02  0.43400721985E+02  0.00000000000E+00 0.  1.
         11    1    4    4    0    0  0.11190140189E+02  0.16950161232E+02  0.13190295732E+02  0.24217991349E+02  0.51100000000E-03 0. -1.
        -11    1    4    4    0    0 -0.16929151019E+01  0.41620435361E+00  0.34166362969E+00  0.17764914588E+01  0.51100000000E-03 0.  1.
         12    1    4    4    0    0 -0.17984628587E+01  0.99448006978E+01  0.19307832435E+02  0.21792795207E+02  0.00000000000E+00 0. -1.
</event>
<event>
 8    1  0.8600524E-011  0.9118800E+02  0.7816164E-02  0.1184000E+00
        -11   -1    0    0    0    0  0.00000000000E+00  0.00000000000E+00  0.45593999997E+02  0.45594000000E+02  0.51100000000E-03 0. -1.
         11   -1    0    0    0    0 -0.00000000000E+00 -0.00000000000E+00 -0.45593999997E+02  0.45594000000E+02  0.51100000000E-03 0.  1.
         23    2    1    2    0    0  0.00000000000E+00  0.00000000000E+00  0.00000000000E+00  0.91188000000E+02  0.91188000000E+02 0.  0.
    9900012    2    3    3    0    0 -0.15948244953E+02 -0.18047398747E+02  0.36104958212E+02  0.47787272747E+02  0.20000007763E+02 0.  0.
        -12    1    3    3    0    0  0.15948244953E+02  0.18047398747E+02 -0.36104958212E+02  0.43400727253E+02  0.00000000000E+00 0.  1.
         11    1    4    4    0    0 -0.17031970139E+02 -0.98366994510E+01  0.32537531249E+02  0.38020252537E+02  0.51100000000E-03 0. -1.
        -11    1    4    4    0    0  0.20477516553E+01 -0.32484623910E+01  0.25529422506E+01  0.46112155820E+01  0.51100000000E-03 0.  1.
         12    1    4    4    0    0 -0.96402646969E+00 -0.49622369052E+01  0.10144847117E+01  0.51558046285E+01  0.00000000000E+00 0. -1.
</event>
<event>
 8    1  0.8600524E-011  0.9118800E+02  0.7816164E-02  0.1184000E+00
        -11   -1    0    0    0    0  0.00000000000E+00  0.00000000000E+00  0.45593999997E+02  0.45594000000E+02  0.51100000000E-03 0. -1.
         11   -1    0    0    0    0 -0.00000000000E+00 -0.00000000000E+00 -0.45593999997E+02  0.45594000000E+02  0.51100000000E-03 0.  1.
         23    2    1    2    0    0 -0.22204460493E-15  0.00000000000E+00  0.00000000000E+00  0.91188000000E+02  0.91188000000E+02 0.  0.
    9900012    2    3    3    0    0  0.17762322067E+01  0.29339905233E+02  0.31931777687E+02  0.47787268829E+02  0.19999989898E+02 0.  0.
        -12    1    3    3    0    0 -0.17762322067E+01 -0.29339905233E+02 -0.31931777687E+02  0.43400731171E+02  0.00000000000E+00 0.  1.
         11    1    4    4    0    0 -0.64029314269E+01  0.49138578292E+01  0.48193938506E+01  0.94005365257E+01  0.51100000000E-03 0. -1.
        -11    1    4    4    0    0  0.97056197636E+01  0.21035337194E+02  0.21202266751E+02  0.31404149113E+02  0.51100000000E-03 0.  1.
         12    1    4    4    0    0 -0.15264561300E+01  0.33907102098E+01  0.59101170854E+01  0.69825831901E+01  0.00000000000E+00 0. -1.
</event>
<event>
 8    1  0.8600524E-011  0.9118800E+02  0.7816164E-02  0.1184000E+00
        -11   -1    0    0    0    0  0.00000000000E+00  0.00000000000E+00  0.45593999997E+02  0.45594000000E+02  0.51100000000E-03 0. -1.
         11   -1    0    0    0    0 -0.00000000000E+00 -0.00000000000E+00 -0.45593999997E+02  0.45594000000E+02  0.51100000000E-03 0.  1.
         23    2    1    2    0    0  0.00000000000E+00  0.00000000000E+00  0.00000000000E+00  0.91188000000E+02  0.91188000000E+02 0.  0.
    9900012    2    3    3    0    0 -0.84561826314E+01  0.16202830229E+02 -0.39364765342E+02  0.47787268640E+02  0.19999989039E+02 0.  0.
         12    1    3    3    0    0  0.84561826314E+01 -0.16202830229E+02  0.39364765342E+02  0.43400731360E+02  0.00000000000E+00 0. -1.
         11    1    4    4    0    0 -0.74173599506E+01  0.33103196549E+01 -0.47653795296E+01  0.94172335203E+01  0.51100000000E-03 0. -1.
        -11    1    4    4    0    0  0.23664098912E+01  0.11536764877E+02 -0.19065434664E+02  0.22409543476E+02  0.51100000000E-03 0.  1.
        -12    1    4    4    0    0 -0.34052325719E+01  0.13557456978E+01 -0.15533951148E+02  0.15960491644E+02  0.00000000000E+00 0.  1.
</event>
<event>
 8    1  0.8600524E-011  0.9118800E+02  0.7816164E-02  0.1184000E+00
        -11   -1    0    0    0    0  0.00000000000E+00  0.00000000000E+00  0.45593999997E+02  0.45594000000E+02  0.51100000000E-03 0. -1.
         11   -1    0    0    0    0 -0.00000000000E+00 -0.00000000000E+00 -0.45593999997E+02  0.45594000000E+02  0.51100000000E-03 0.  1.
         23    2    1    2    0    0  0.35527136788E-14  0.00000000000E+00  0.00000000000E+00  0.91188000000E+02  0.91188000000E+02 0.  0.
    9900012    2    3    3    0    0 -0.29593246527E+02 -0.28144641257E+02 -0.14688350048E+02  0.47787208548E+02  0.19999715054E+02 0.  0.
         12    1    3    3    0    0  0.29593246527E+02  0.28144641257E+02  0.14688350048E+02  0.43400791452E+02  0.00000000000E+00 0. -1.
         11    1    4    4    0    0  0.93068830797E+00  0.80305464340E+00  0.37611937616E+00  0.12855129455E+01  0.51100000000E-03 0. -1.
        -11    1    4    4    0    0 -0.21987058939E+02 -0.20705342752E+02 -0.43492454644E+01  0.30513241644E+02  0.51100000000E-03 0.  1.
        -12    1    4    4    0    0 -0.85368758959E+01 -0.82423531483E+01 -0.10715223959E+02  0.15988453959E+02  0.00000000000E+00 0.  1.
</event>
<event>
 8    1  0.8600524E-011  0.9118800E+02  0.7816164E-02  0.1184000E+00
        -11   -1    0    0    0    0  0.00000000000E+00  0.00000000000E+00  0.45593999997E+02  0.45594000000E+02  0.51100000000E-03 0. -1.
         11   -1    0    0    0    0 -0.00000000000E+00 -0.00000000000E+00 -0.45593999997E+02  0.45594000000E+02  0.51100000000E-03 0.  1.
         23    2    1    2    0    0  0.18873791419E-14  0.00000000000E+00  0.00000000000E+00  0.91188000000E+02  0.91188000000E+02 0.  0.
    9900012    2    3    3    0    0 -0.84418745360E+00  0.29868754946E+02  0.31476451540E+02  0.47787283692E+02  0.20000057666E+02 0.  0.
        -12    1    3    3    0    0  0.84418745360E+00 -0.29868754946E+02 -0.31476451540E+02  0.43400716308E+02  0.00000000000E+00 0.  1.
         11    1    4    4    0    0 -0.81575736725E+01  0.15550145613E+02  0.24110587961E+02  0.29827394940E+02  0.51100000000E-03 0. -1.
        -11    1    4    4    0    0  0.57666561664E+01  0.80365705493E+01  0.40306264939E+01  0.10681139440E+02  0.51100000000E-03 0.  1.
         12    1    4    4    0    0  0.15467300526E+01  0.62820387846E+01  0.33352370844E+01  0.72787493126E+01  0.00000000000E+00 0. -1.
</event>
<event>
 8    1  0.8600524E-011  0.9118800E+02  0.7816164E-02  0.1184000E+00
        -11   -1    0    0    0    0  0.00000000000E+00  0.00000000000E+00  0.45593999997E+02  0.45594000000E+02  0.51100000000E-03 0. -1.
         11   -1    0    0    0    0 -0.00000000000E+00 -0.00000000000E+00 -0.45593999997E+02  0.45594000000E+02  0.51100000000E-03 0.  1.
         23    2    1    2    0    0  0.00000000000E+00  0.00000000000E+00  0.00000000000E+00  0.91188000000E+02  0.91188000000E+02 0.  0.
    9900012    2    3    3    0    0 -0.16060935469E+02  0.82608127459E+01  0.39464316069E+02  0.47787229061E+02  0.19999808578E+02 0.  0.
        -12    1    3    3    0    0  0.16060935469E+02 -0.82608127459E+01 -0.39464316069E+02  0.43400770939E+02  0.00000000000E+00 0.  1.
         11    1    4    4    0    0 -0.23316414691E+01 -0.37898509237E+01  0.80364079667E+00  0.45216546480E+01  0.51100000000E-03 0. -1.
        -11    1    4    4    0    0 -0.80618461557E+01  0.47226284029E+01  0.25610594320E+02  0.27261678675E+02  0.51100000000E-03 0.  1.
        -12    1    4    4    0    0 -0.56674478443E+01  0.73280352667E+01  0.13050080952E+02  0.16003895738E+02  0.00000000000E+00 0.  1.
</event>
<event>
 8    1  0.8600524E-011  0.9118800E+02  0.7816164E-02  0.1184000E+00
        -11   -1    0    0    0    0  0.00000000000E+00  0.00000000000E+00  0.45593999997E+02  0.45594000000E+02  0.51100000000E-03 0. -1.
         11   -1    0    0    0    0 -0.00000000000E+00 -0.00000000000E+00 -0.45593999997E+02  0.45594000000E+02  0.51100000000E-03 0.  1.
         23    2    1    2    0    0 -0.71054273576E-14  0.00000000000E+00  0.00000000000E+00  0.91188000000E+02  0.91188000000E+02 0.  0.
    9900012    2    3    3    0    0 -0.38948299354E+02  0.13483187724E+02 -0.13596206600E+02  0.47787271807E+02  0.20000003476E+02 0.  0.
         12    1    3    3    0    0  0.38948299354E+02 -0.13483187724E+02  0.13596206600E+02  0.43400728193E+02  0.00000000000E+00 0. -1.
         11    1    4    4    0    0 -0.18802326996E+02  0.12292364527E+02 -0.59296358499E+01  0.23233387779E+02  0.51100000000E-03 0.  1.
        -11    1    4    4    0    0 -0.39256079310E+01 -0.30123090828E+01 -0.59070149473E+01  0.77056621706E+01  0.51100000000E-03 0. -1.
         12    1    4    4    0    0 -0.16220364428E+02  0.42031322799E+01 -0.17595558025E+01  0.16848221857E+02  0.00000000000E+00 0. -1.
</event>
<event>
 8    1  0.8600524E-011  0.9118800E+02  0.7816164E-02  0.1184000E+00
        -11   -1    0    0    0    0  0.00000000000E+00  0.00000000000E+00  0.45593999997E+02  0.45594000000E+02  0.51100000000E-03 0. -1.
         11   -1    0    0    0    0 -0.00000000000E+00 -0.00000000000E+00 -0.45593999997E+02  0.45594000000E+02  0.51100000000E-03 0.  1.
         23    2    1    2    0    0  0.35527136788E-14  0.00000000000E+00  0.00000000000E+00  0.91188000000E+02  0.91188000000E+02 0.  0.
    9900012    2    3    3    0    0 -0.19727955232E+02  0.29649490789E+01 -0.38544000077E+02  0.47787273248E+02  0.20000010047E+02 0.  0.
         12    1    3    3    0    0  0.19727955232E+02 -0.29649490789E+01  0.38544000077E+02  0.43400726752E+02  0.00000000000E+00 0. -1.
         11    1    4    4    0    0 -0.18722225877E+01  0.72011113906E+01 -0.63839699223E+01  0.98038918245E+01  0.51100000000E-03 0. -1.
        -11    1    4    4    0    0 -0.16726919453E+02 -0.19552518963E+01 -0.23193721193E+02  0.28662894958E+02  0.51100000000E-03 0.  1.
        -12    1    4    4    0    0 -0.11288131908E+01 -0.22809104155E+01 -0.89663089619E+01  0.93204864650E+01  0.00000000000E+00 0.  1.
</event>
<event>
 8    1  0.8600524E-011  0.9118800E+02  0.7816164E-02  0.1184000E+00
        -11   -1    0    0    0    0  0.00000000000E+00  0.00000000000E+00  0.45593999997E+02  0.45594000000E+02  0.51100000000E-03 0. -1.
         11   -1    0    0    0    0 -0.00000000000E+00 -0.00000000000E+00 -0.45593999997E+02  0.45594000000E+02  0.51100000000E-03 0.  1.
         23    2    1    2    0    0  0.00000000000E+00  0.88817841970E-15  0.00000000000E+00  0.91188000000E+02  0.91188000000E+02 0.  0.
    9900012    2    3    3    0    0 -0.16736307729E+02  0.79351195364E+01  0.39249907188E+02  0.47787247326E+02  0.19999891856E+02 0.  0.
        -12    1    3    3    0    0  0.16736307729E+02 -0.79351195364E+01 -0.39249907188E+02  0.43400752674E+02  0.00000000000E+00 0.  1.
         11    1    4    4    0    0 -0.16300659885E+02  0.53116162761E+01  0.25181175186E+02  0.30463361012E+02  0.51100000000E-03 0.  1.
        -11    1    4    4    0    0 -0.19992619323E+01 -0.23200350249E+01  0.93251868437E+00  0.32014375129E+01  0.51100000000E-03 0. -1.
         12    1    4    4    0    0  0.15636140887E+01  0.49435382853E+01  0.13136213318E+02  0.14122448800E+02  0.00000000000E+00 0. -1.
</event>
<event>
 8    1  0.8600524E-011  0.9118800E+02  0.7816164E-02  0.1184000E+00
        -11   -1    0    0    0    0  0.00000000000E+00  0.00000000000E+00  0.45593999997E+02  0.45594000000E+02  0.51100000000E-03 0. -1.
         11   -1    0    0    0    0 -0.00000000000E+00 -0.00000000000E+00 -0.45593999997E+02  0.45594000000E+02  0.51100000000E-03 0.  1.
         23    2    1    2    0    0  0.00000000000E+00  0.00000000000E+00  0.35527136788E-14  0.91188000000E+02  0.91188000000E+02 0.  0.
    9900012    2    3    3    0    0  0.33064118402E+02 -0.97824404497E+01 -0.26356992465E+02  0.47787272832E+02  0.20000008152E+02 0.  0.
         12    1    3    3    0    0 -0.33064118402E+02  0.97824404497E+01  0.26356992465E+02  0.43400727168E+02  0.00000000000E+00 0. -1.
         11    1    4    4    0    0 -0.11142564730E+01 -0.41425379141E+01 -0.47174589198E+01  0.63762533497E+01  0.51100000000E-03 0. -1.
        -11    1    4    4    0    0  0.19328436725E+02 -0.11719246763E+01 -0.15210731831E+02  0.24623733201E+02  0.51100000000E-03 0.  1.
         12    1    4    4    0    0  0.14849938150E+02 -0.44679778592E+01 -0.64288017148E+01  0.16787286281E+02  0.00000000000E+00 0. -1.
</event>
<event>
 8    1  0.8600524E-011  0.9118800E+02  0.7816164E-02  0.1184000E+00
        -11   -1    0    0    0    0  0.00000000000E+00  0.00000000000E+00  0.45593999997E+02  0.45594000000E+02  0.51100000000E-03 0. -1.
         11   -1    0    0    0    0 -0.00000000000E+00 -0.00000000000E+00 -0.45593999997E+02  0.45594000000E+02  0.51100000000E-03 0.  1.
         23    2    1    2    0    0  0.35527136788E-14  0.00000000000E+00  0.00000000000E+00  0.91188000000E+02  0.91188000000E+02 0.  0.
    9900012    2    3    3    0    0  0.18832320686E+02 -0.14219773987E+02  0.36424783737E+02  0.47787272530E+02  0.20000006771E+02 0.  0.
        -12    1    3    3    0    0 -0.18832320686E+02  0.14219773987E+02 -0.36424783737E+02  0.43400727470E+02  0.00000000000E+00 0.  1.
         11    1    4    4    0    0  0.11483531196E+02 -0.45072564647E+01  0.28876357363E+02  0.31401128393E+02  0.51100000000E-03 0. -1.
        -11    1    4    4    0    0  0.76314586433E+01 -0.88608705107E+01  0.34526674456E+01  0.12193239930E+02  0.51100000000E-03 0.  1.
        -12    1    4    4    0    0 -0.28266915354E+00 -0.85164701175E+00  0.40957589287E+01  0.41929042065E+01  0.00000000000E+00 0.  1.
</event>
<event>
 8    1  0.8600524E-011  0.9118800E+02  0.7816164E-02  0.1184000E+00
        -11   -1    0    0    0    0  0.00000000000E+00  0.00000000000E+00  0.45593999997E+02  0.45594000000E+02  0.51100000000E-03 0. -1.
         11   -1    0    0    0    0 -0.00000000000E+00 -0.00000000000E+00 -0.45593999997E+02  0.45594000000E+02  0.51100000000E-03 0.  1.
         23    2    1    2    0    0  0.00000000000E+00  0.00000000000E+00  0.00000000000E+00  0.91188000000E+02  0.91188000000E+02 0.  0.
    9900012    2    3    3    0    0 -0.24558740670E+02  0.96610929007E+01 -0.34455112826E+02  0.47787271214E+02  0.20000000772E+02 0.  0.
         12    1    3    3    0    0  0.24558740670E+02 -0.96610929007E+01  0.34455112826E+02  0.43400728786E+02  0.00000000000E+00 0. -1.
         11    1    4    4    0    0 -0.79926491294E+01  0.13253866292E+02 -0.18102136892E+02  0.23816691041E+02  0.51100000000E-03 0. -1.
        -11    1    4    4    0    0 -0.85354569646E+01 -0.36435276628E+01 -0.10618551826E+02  0.14102587088E+02  0.51100000000E-03 0.  1.
         12    1    4    4    0    0 -0.80306345760E+01  0.50754271062E-01 -0.57344241077E+01  0.98679930855E+01  0.00000000000E+00 0. -1.
</event>
<event>
 8    1  0.8600524E-011  0.9118800E+02  0.7816164E-02  0.1184000E+00
        -11   -1    0    0    0    0  0.00000000000E+00  0.00000000000E+00  0.45593999997E+02  0.45594000000E+02  0.51100000000E-03 0. -1.
         11   -1    0    0    0    0 -0.00000000000E+00 -0.00000000000E+00 -0.45593999997E+02  0.45594000000E+02  0.51100000000E-03 0.  1.
         23    2    1    2    0    0  0.00000000000E+00 -0.88817841970E-15  0.35527136788E-14  0.91188000000E+02  0.91188000000E+02 0.  0.
    9900012    2    3    3    0    0  0.37634293200E+02  0.69730710040E+01 -0.20461168161E+02  0.47787272513E+02  0.20000006694E+02 0.  0.
         12    1    3    3    0    0 -0.37634293200E+02 -0.69730710040E+01  0.20461168161E+02  0.43400727487E+02  0.00000000000E+00 0. -1.
         11    1    4    4    0    0  0.15769943668E+02  0.10676709396E+02 -0.14410503967E+02  0.23881915159E+02  0.51100000000E-03 0. -1.
        -11    1    4    4    0    0  0.13952930313E+02 -0.21919334716E+01 -0.51779789437E+00  0.14133539952E+02  0.51100000000E-03 0.  1.
        -12    1    4    4    0    0  0.79114192197E+01 -0.15117049208E+01 -0.55328662992E+01  0.97718174012E+01  0.00000000000E+00 0.  1.
</event>
<event>
 8    1  0.8600524E-011  0.9118800E+02  0.7816164E-02  0.1184000E+00
        -11   -1    0    0    0    0  0.00000000000E+00  0.00000000000E+00  0.45593999997E+02  0.45594000000E+02  0.51100000000E-03 0. -1.
         11   -1    0    0    0    0 -0.00000000000E+00 -0.00000000000E+00 -0.45593999997E+02  0.45594000000E+02  0.51100000000E-03 0.  1.
         23    2    1    2    0    0 -0.17763568394E-14  0.71054273576E-14 -0.35527136788E-14  0.91188000000E+02  0.91188000000E+02 0.  0.
    9900012    2    3    3    0    0  0.10920570174E+02 -0.35918051718E+02  0.21777466799E+02  0.47787270141E+02  0.19999995879E+02 0.  0.
        -12    1    3    3    0    0 -0.10920570174E+02  0.35918051718E+02 -0.21777466799E+02  0.43400729859E+02  0.00000000000E+00 0.  1.
         11    1    4    4    0    0 -0.14064044869E+00 -0.20505289704E+02  0.66313551075E+01  0.21551370174E+02  0.51100000000E-03 0. -1.
        -11    1    4    4    0    0  0.11399103323E+02 -0.12895768335E+02  0.86540835412E+01  0.19264827010E+02  0.51100000000E-03 0.  1.
        -12    1    4    4    0    0 -0.33789269999E+00 -0.25169936795E+01  0.64920281505E+01  0.69710729566E+01  0.00000000000E+00 0.  1.
</event>
<event>
 8    1  0.8600524E-011  0.9118800E+02  0.7816164E-02  0.1184000E+00
        -11   -1    0    0    0    0  0.00000000000E+00  0.00000000000E+00  0.45593999997E+02  0.45594000000E+02  0.51100000000E-03 0. -1.
         11   -1    0    0    0    0 -0.00000000000E+00 -0.00000000000E+00 -0.45593999997E+02  0.45594000000E+02  0.51100000000E-03 0.  1.
         23    2    1    2    0    0  0.00000000000E+00  0.17763568394E-14  0.00000000000E+00  0.91188000000E+02  0.91188000000E+02 0.  0.
    9900012    2    3    3    0    0  0.21727153017E+02 -0.98095287926E+01 -0.36267440008E+02  0.47787271457E+02  0.20000001881E+02 0.  0.
         12    1    3    3    0    0 -0.21727153017E+02  0.98095287926E+01  0.36267440008E+02  0.43400728543E+02  0.00000000000E+00 0. -1.
         11    1    4    4    0    0  0.56085368798E+01  0.79462474109E+00 -0.11713467541E+02  0.13011242697E+02  0.51100000000E-03 0. -1.
        -11    1    4    4    0    0  0.18630100704E+01 -0.21396625314E+01 -0.15751480540E+02  0.16004939917E+02  0.51100000000E-03 0.  1.
         12    1    4    4    0    0  0.14255606067E+02 -0.84644910022E+01 -0.88024919264E+01  0.18771088843E+02  0.00000000000E+00 0. -1.
</event>
<event>
 8    1  0.8600524E-011  0.9118800E+02  0.7816164E-02  0.1184000E+00
        -11   -1    0    0    0    0  0.00000000000E+00  0.00000000000E+00  0.45593999997E+02  0.45594000000E+02  0.51100000000E-03 0. -1.
         11   -1    0    0    0    0 -0.00000000000E+00 -0.00000000000E+00 -0.45593999997E+02  0.45594000000E+02  0.51100000000E-03 0.  1.
         23    2    1    2    0    0  0.00000000000E+00  0.71054273576E-14  0.35527136788E-14  0.91188000000E+02  0.91188000000E+02 0.  0.
    9900012    2    3    3    0    0 -0.14587038330E+02 -0.27948037677E+02 -0.29828617019E+02  0.47787298502E+02  0.20000125190E+02 0.  0.
         12    1    3    3    0    0  0.14587038330E+02  0.27948037677E+02  0.29828617019E+02  0.43400701498E+02  0.00000000000E+00 0. -1.
         11    1    4    4    0    0  0.21388087092E+01 -0.15975209252E+01 -0.10930539805E+02  0.11251812143E+02  0.51100000000E-03 0. -1.
        -11    1    4    4    0    0 -0.10622135384E+01 -0.23609427625E+01 -0.11467377606E+01  0.28314936132E+01  0.51100000000E-03 0.  1.
         12    1    4    4    0    0 -0.15663633501E+02 -0.23989573989E+02 -0.17751339454E+02  0.33703992746E+02  0.00000000000E+00 0. -1.
</event>
<event>
 8    1  0.8600524E-011  0.9118800E+02  0.7816164E-02  0.1184000E+00
        -11   -1    0    0    0    0  0.00000000000E+00  0.00000000000E+00  0.45593999997E+02  0.45594000000E+02  0.51100000000E-03 0. -1.
         11   -1    0    0    0    0 -0.00000000000E+00 -0.00000000000E+00 -0.45593999997E+02  0.45594000000E+02  0.51100000000E-03 0.  1.
         23    2    1    2    0    0 -0.17763568394E-14  0.00000000000E+00  0.00000000000E+00  0.91188000000E+02  0.91188000000E+02 0.  0.
    9900012    2    3    3    0    0 -0.11193368761E+02  0.32443776003E+02  0.26565639291E+02  0.47787270784E+02  0.19999998813E+02 0.  0.
        -12    1    3    3    0    0  0.11193368761E+02 -0.32443776003E+02 -0.26565639291E+02  0.43400729216E+02  0.00000000000E+00 0.  1.
         11    1    4    4    0    0 -0.87695437576E+01  0.22307514312E+02  0.89685965949E+01  0.25592299968E+02  0.51100000000E-03 0. -1.
        -11    1    4    4    0    0 -0.51379606178E+01  0.77637009651E+01  0.15332885455E+02  0.17937978387E+02  0.51100000000E-03 0.  1.
        -12    1    4    4    0    0  0.27141356141E+01  0.23725607257E+01  0.22641572411E+01  0.42569924290E+01  0.00000000000E+00 0.  1.
</event>
<event>
 8    1  0.8600524E-011  0.9118800E+02  0.7816164E-02  0.1184000E+00
        -11   -1    0    0    0    0  0.00000000000E+00  0.00000000000E+00  0.45593999997E+02  0.45594000000E+02  0.51100000000E-03 0. -1.
         11   -1    0    0    0    0 -0.00000000000E+00 -0.00000000000E+00 -0.45593999997E+02  0.45594000000E+02  0.51100000000E-03 0.  1.
         23    2    1    2    0    0  0.00000000000E+00  0.00000000000E+00  0.00000000000E+00  0.91188000000E+02  0.91188000000E+02 0.  0.
    9900012    2    3    3    0    0  0.27611444956E+02  0.93977722645E+01  0.32138950328E+02  0.47787284058E+02  0.20000059336E+02 0.  0.
        -12    1    3    3    0    0 -0.27611444956E+02 -0.93977722645E+01 -0.32138950328E+02  0.43400715942E+02  0.00000000000E+00 0.  1.
         11    1    4    4    0    0  0.99274627678E+01  0.80782200399E+01  0.20263431053E+02  0.23967035576E+02  0.51100000000E-03 0. -1.
        -11    1    4    4    0    0  0.12304235442E+02 -0.12842652117E+01  0.23763469147E+01  0.12597244614E+02  0.51100000000E-03 0.  1.
        -12    1    4    4    0    0  0.53797467457E+01  0.26038174363E+01  0.94991723603E+01  0.11223003868E+02  0.00000000000E+00 0.  1.
</event>
<event>
 8    1  0.8600524E-011  0.9118800E+02  0.7816164E-02  0.1184000E+00
        -11   -1    0    0    0    0  0.00000000000E+00  0.00000000000E+00  0.45593999997E+02  0.45594000000E+02  0.51100000000E-03 0. -1.
         11   -1    0    0    0    0 -0.00000000000E+00 -0.00000000000E+00 -0.45593999997E+02  0.45594000000E+02  0.51100000000E-03 0.  1.
         23    2    1    2    0    0 -0.17763568394E-14  0.00000000000E+00 -0.35527136788E-14  0.91188000000E+02  0.91188000000E+02 0.  0.
    9900012    2    3    3    0    0  0.10108751585E+02  0.28708239253E+02 -0.30939831365E+02  0.47787273917E+02  0.20000013099E+02 0.  0.
         12    1    3    3    0    0 -0.10108751585E+02 -0.28708239253E+02  0.30939831365E+02  0.43400726083E+02  0.00000000000E+00 0. -1.
         11    1    4    4    0    0  0.87421766297E+01  0.19828098119E+02 -0.99331996651E+01  0.23837944187E+02  0.51100000000E-03 0. -1.
        -11    1    4    4    0    0 -0.21448813551E+01  0.36621579935E+00 -0.54889235753E+01  0.59044823919E+01  0.51100000000E-03 0.  1.
        -12    1    4    4    0    0  0.35114563100E+01  0.85139253347E+01 -0.15517708124E+02  0.18044847338E+02  0.00000000000E+00 0.  1.
</event>
<event>
 8    1  0.8600524E-011  0.9118800E+02  0.7816164E-02  0.1184000E+00
        -11   -1    0    0    0    0  0.00000000000E+00  0.00000000000E+00  0.45593999997E+02  0.45594000000E+02  0.51100000000E-03 0. -1.
         11   -1    0    0    0    0 -0.00000000000E+00 -0.00000000000E+00 -0.45593999997E+02  0.45594000000E+02  0.51100000000E-03 0.  1.
         23    2    1    2    0    0  0.71054273576E-14 -0.35527136788E-14  0.35527136788E-14  0.91188000000E+02  0.91188000000E+02 0.  0.
    9900012    2    3    3    0    0 -0.33459196800E+02  0.15342199761E+02 -0.22993962745E+02  0.47787271127E+02  0.20000000376E+02 0.  0.
         12    1    3    3    0    0  0.33459196800E+02 -0.15342199761E+02  0.22993962745E+02  0.43400728873E+02  0.00000000000E+00 0. -1.
         11    1    4    4    0    0 -0.26465786688E+02  0.21240394560E+01 -0.13150200927E+02  0.29628992445E+02  0.51100000000E-03 0. -1.
        -11    1    4    4    0    0 -0.68896293344E+01  0.10680797974E+02 -0.84327674131E+01  0.15253130965E+02  0.51100000000E-03 0.  1.
        -12    1    4    4    0    0 -0.10378077790E+00  0.25373623310E+01 -0.14109944051E+01  0.29051477174E+01  0.00000000000E+00 0.  1.
</event>
<event>
 8    1  0.8600524E-011  0.9118800E+02  0.7816164E-02  0.1184000E+00
        -11   -1    0    0    0    0  0.00000000000E+00  0.00000000000E+00  0.45593999997E+02  0.45594000000E+02  0.51100000000E-03 0. -1.
         11   -1    0    0    0    0 -0.00000000000E+00 -0.00000000000E+00 -0.45593999997E+02  0.45594000000E+02  0.51100000000E-03 0.  1.
         23    2    1    2    0    0  0.00000000000E+00  0.17763568394E-14  0.71054273576E-14  0.91188000000E+02  0.91188000000E+02 0.  0.
    9900012    2    3    3    0    0  0.27330948476E+02  0.80337052641E+01  0.32742968914E+02  0.47787272147E+02  0.20000005026E+02 0.  0.
        -12    1    3    3    0    0 -0.27330948476E+02 -0.80337052641E+01 -0.32742968914E+02  0.43400727853E+02  0.00000000000E+00 0.  1.
         11    1    4    4    0    0  0.25204692328E+01  0.27625503739E+01  0.11977888662E+02  0.12548078211E+02  0.51100000000E-03 0. -1.
        -11    1    4    4    0    0  0.14782892493E+02 -0.43307461365E+00  0.48130758395E+01  0.15552722057E+02  0.51100000000E-03 0.  1.
         12    1    4    4    0    0  0.10027586750E+02  0.57042295038E+01  0.15952004412E+02  0.19686471879E+02  0.00000000000E+00 0. -1.
</event>
<event>
 8    1  0.8600524E-011  0.9118800E+02  0.7816164E-02  0.1184000E+00
        -11   -1    0    0    0    0  0.00000000000E+00  0.00000000000E+00  0.45593999997E+02  0.45594000000E+02  0.51100000000E-03 0. -1.
         11   -1    0    0    0    0 -0.00000000000E+00 -0.00000000000E+00 -0.45593999997E+02  0.45594000000E+02  0.51100000000E-03 0.  1.
         23    2    1    2    0    0 -0.35527136788E-14 -0.17763568394E-14  0.00000000000E+00  0.91188000000E+02  0.91188000000E+02 0.  0.
    9900012    2    3    3    0    0 -0.16287953454E+02 -0.74701717351E+01 -0.39528756684E+02  0.47787268457E+02  0.19999988204E+02 0.  0.
         12    1    3    3    0    0  0.16287953454E+02  0.74701717351E+01  0.39528756684E+02  0.43400731543E+02  0.00000000000E+00 0. -1.
         11    1    4    4    0    0 -0.54603025583E+01  0.33124871234E+01 -0.19967300848E+01  0.66913680412E+01  0.51100000000E-03 0. -1.
        -11    1    4    4    0    0 -0.33646016226E+01 -0.80535681404E+00 -0.38135795263E+01  0.51490322141E+01  0.51100000000E-03 0.  1.
         12    1    4    4    0    0 -0.74630492730E+01 -0.99773020445E+01 -0.33718447073E+02  0.35946868202E+02  0.00000000000E+00 0. -1.
</event>
<event>
 8    1  0.8600524E-011  0.9118800E+02  0.7816164E-02  0.1184000E+00
        -11   -1    0    0    0    0  0.00000000000E+00  0.00000000000E+00  0.45593999997E+02  0.45594000000E+02  0.51100000000E-03 0. -1.
         11   -1    0    0    0    0 -0.00000000000E+00 -0.00000000000E+00 -0.45593999997E+02  0.45594000000E+02  0.51100000000E-03 0.  1.
         23    2    1    2    0    0  0.00000000000E+00  0.00000000000E+00  0.00000000000E+00  0.91188000000E+02  0.91188000000E+02 0.  0.
    9900012    2    3    3    0    0 -0.91690084759E+01 -0.21455946216E+02  0.36595016966E+02  0.47787267159E+02  0.19999982283E+02 0.  0.
        -12    1    3    3    0    0  0.91690084759E+01  0.21455946216E+02 -0.36595016966E+02  0.43400732841E+02  0.00000000000E+00 0.  1.
         11    1    4    4    0    0 -0.49688743149E+01  0.26554674061E+00  0.90554961767E+01  0.10332581396E+02  0.51100000000E-03 0. -1.
        -11    1    4    4    0    0 -0.65956339239E+01 -0.21031332141E+02  0.27085848630E+02  0.34920803467E+02  0.51100000000E-03 0.  1.
        -12    1    4    4    0    0  0.23954997629E+01 -0.69016081482E+00  0.45367215918E+00  0.25338822964E+01  0.00000000000E+00 0.  1.
</event>
<event>
 8    1  0.8600524E-011  0.9118800E+02  0.7816164E-02  0.1184000E+00
        -11   -1    0    0    0    0  0.00000000000E+00  0.00000000000E+00  0.45593999997E+02  0.45594000000E+02  0.51100000000E-03 0. -1.
         11   -1    0    0    0    0 -0.00000000000E+00 -0.00000000000E+00 -0.45593999997E+02  0.45594000000E+02  0.51100000000E-03 0.  1.
         23    2    1    2    0    0 -0.35527136788E-14  0.00000000000E+00  0.00000000000E+00  0.91188000000E+02  0.91188000000E+02 0.  0.
    9900012    2    3    3    0    0  0.23216660464E+02 -0.32998888774E+02 -0.15990086975E+02  0.47787275756E+02  0.20000021480E+02 0.  0.
         12    1    3    3    0    0 -0.23216660464E+02  0.32998888774E+02  0.15990086975E+02  0.43400724244E+02  0.00000000000E+00 0. -1.
         11    1    4    4    0    0  0.12203975846E+02 -0.12639140940E+02  0.15244045788E+01  0.17635439312E+02  0.51100000000E-03 0. -1.
        -11    1    4    4    0    0  0.36847022945E+01 -0.96395653067E+01 -0.12553988330E+02  0.16251180682E+02  0.51100000000E-03 0.  1.
        -12    1    4    4    0    0  0.73279823233E+01 -0.10720182528E+02 -0.49605032237E+01  0.13900655761E+02  0.00000000000E+00 0.  1.
</event>
<event>
 8    1  0.8600524E-011  0.9118800E+02  0.7816164E-02  0.1184000E+00
        -11   -1    0    0    0    0  0.00000000000E+00  0.00000000000E+00  0.45593999997E+02  0.45594000000E+02  0.51100000000E-03 0. -1.
         11   -1    0    0    0    0 -0.00000000000E+00 -0.00000000000E+00 -0.45593999997E+02  0.45594000000E+02  0.51100000000E-03 0.  1.
         23    2    1    2    0    0  0.88817841970E-15  0.00000000000E+00  0.00000000000E+00  0.91188000000E+02  0.91188000000E+02 0.  0.
    9900012    2    3    3    0    0 -0.48039473165E+01 -0.32501815992E+02  0.28358018103E+02  0.47787272548E+02  0.20000006858E+02 0.  0.
        -12    1    3    3    0    0  0.48039473165E+01  0.32501815992E+02 -0.28358018103E+02  0.43400727452E+02  0.00000000000E+00 0.  1.
         11    1    4    4    0    0 -0.35077236386E+01 -0.51325653006E+01 -0.12040658089E+01  0.63322291828E+01  0.51100000000E-03 0. -1.
        -11    1    4    4    0    0 -0.89809066382E+00 -0.23540070386E+02  0.29300954690E+02  0.37596375179E+02  0.51100000000E-03 0.  1.
        -12    1    4    4    0    0 -0.39813301404E+00 -0.38291803047E+01  0.26112922274E+00  0.38586681865E+01  0.00000000000E+00 0.  1.
</event>
<event>
 8    1  0.8600524E-011  0.9118800E+02  0.7816164E-02  0.1184000E+00
        -11   -1    0    0    0    0  0.00000000000E+00  0.00000000000E+00  0.45593999997E+02  0.45594000000E+02  0.51100000000E-03 0. -1.
         11   -1    0    0    0    0 -0.00000000000E+00 -0.00000000000E+00 -0.45593999997E+02  0.45594000000E+02  0.51100000000E-03 0.  1.
         23    2    1    2    0    0  0.00000000000E+00  0.00000000000E+00  0.00000000000E+00  0.91188000000E+02  0.91188000000E+02 0.  0.
    9900012    2    3    3    0    0 -0.31301342142E+02 -0.10685676854E+02  0.28100987774E+02  0.47787271624E+02  0.20000002642E+02 0.  0.
        -12    1    3    3    0    0  0.31301342142E+02  0.10685676854E+02 -0.28100987774E+02  0.43400728376E+02  0.00000000000E+00 0.  1.
         11    1    4    4    0    0 -0.24649802377E+02 -0.70052791484E+01  0.19416933510E+02  0.32151267477E+02  0.51100000000E-03 0. -1.
        -11    1    4    4    0    0 -0.14628867600E+01 -0.65236326255E+01  0.65130243599E+01  0.93336652436E+01  0.51100000000E-03 0.  1.
         12    1    4    4    0    0 -0.51886530045E+01  0.28432349195E+01  0.21710299046E+01  0.63023389035E+01  0.00000000000E+00 0. -1.
</event>
<event>
 8    1  0.8600524E-011  0.9118800E+02  0.7816164E-02  0.1184000E+00
        -11   -1    0    0    0    0  0.00000000000E+00  0.00000000000E+00  0.45593999997E+02  0.45594000000E+02  0.51100000000E-03 0. -1.
         11   -1    0    0    0    0 -0.00000000000E+00 -0.00000000000E+00 -0.45593999997E+02  0.45594000000E+02  0.51100000000E-03 0.  1.
         23    2    1    2    0    0  0.33306690739E-15  0.35527136788E-14  0.00000000000E+00  0.91188000000E+02  0.91188000000E+02 0.  0.
    9900012    2    3    3    0    0 -0.41976734657E+00 -0.30873728284E+02  0.30500175852E+02  0.47787262336E+02  0.19999960297E+02 0.  0.
        -12    1    3    3    0    0  0.41976734657E+00  0.30873728284E+02 -0.30500175852E+02  0.43400737664E+02  0.00000000000E+00 0.  1.
         11    1    4    4    0    0  0.30698252304E+01 -0.11999821619E+02  0.13449237853E+02  0.18283914924E+02  0.51100000000E-03 0. -1.
        -11    1    4    4    0    0 -0.49911690292E+00  0.22234595171E+01  0.37389032340E+01  0.43786170832E+01  0.51100000000E-03 0.  1.
        -12    1    4    4    0    0 -0.29904756741E+01 -0.21097366182E+02  0.13312034764E+02  0.25124730330E+02  0.00000000000E+00 0.  1.
</event>
<event>
 8    1  0.8600524E-011  0.9118800E+02  0.7816164E-02  0.1184000E+00
        -11   -1    0    0    0    0  0.00000000000E+00  0.00000000000E+00  0.45593999997E+02  0.45594000000E+02  0.51100000000E-03 0. -1.
         11   -1    0    0    0    0 -0.00000000000E+00 -0.00000000000E+00 -0.45593999997E+02  0.45594000000E+02  0.51100000000E-03 0.  1.
         23    2    1    2    0    0 -0.17763568394E-14  0.00000000000E+00 -0.71054273576E-14  0.91188000000E+02  0.91188000000E+02 0.  0.
    9900012    2    3    3    0    0 -0.94426291832E+01 -0.19954132833E+02  0.37367005298E+02  0.47787265583E+02  0.19999975097E+02 0.  0.
        -12    1    3    3    0    0  0.94426291832E+01  0.19954132833E+02 -0.37367005298E+02  0.43400734417E+02  0.00000000000E+00 0.  1.
         11    1    4    4    0    0 -0.13041564882E+02 -0.46127086133E+01  0.19608856487E+02  0.23997223763E+02  0.51100000000E-03 0. -1.
        -11    1    4    4    0    0  0.29180908397E+01 -0.13113483860E+02  0.15859667533E+02  0.20784796549E+02  0.51100000000E-03 0.  1.
         12    1    4    4    0    0  0.68084485915E+00 -0.22279403606E+01  0.18984812781E+01  0.30052452705E+01  0.00000000000E+00 0. -1.
</event>
<event>
 8    1  0.8600524E-011  0.9118800E+02  0.7816164E-02  0.1184000E+00
        -11   -1    0    0    0    0  0.00000000000E+00  0.00000000000E+00  0.45593999997E+02  0.45594000000E+02  0.51100000000E-03 0.  1.
         11   -1    0    0    0    0 -0.00000000000E+00 -0.00000000000E+00 -0.45593999997E+02  0.45594000000E+02  0.51100000000E-03 0. -1.
         23    2    1    2    0    0  0.00000000000E+00  0.11102230246E-14  0.00000000000E+00  0.91188000000E+02  0.91188000000E+02 0.  0.
    9900012    2    3    3    0    0  0.42450162292E+02 -0.13234629023E+01  0.89361632846E+01  0.47787275963E+02  0.20000022426E+02 0.  0.
        -12    1    3    3    0    0 -0.42450162292E+02  0.13234629023E+01 -0.89361632846E+01  0.43400724037E+02  0.00000000000E+00 0.  1.
         11    1    4    4    0    0  0.55884458394E+01 -0.24782800170E+01  0.27127505147E+01  0.66881697316E+01  0.51100000000E-03 0.  1.
        -11    1    4    4    0    0  0.29241026613E+02 -0.59950918892E+01  0.68692078566E+01  0.30629475689E+02  0.51100000000E-03 0. -1.
        -12    1    4    4    0    0  0.76206898393E+01  0.71499090039E+01 -0.64579508672E+00  0.10469630542E+02  0.00000000000E+00 0.  1.
</event>
<event>
 8    1  0.8600524E-011  0.9118800E+02  0.7816164E-02  0.1184000E+00
        -11   -1    0    0    0    0  0.00000000000E+00  0.00000000000E+00  0.45593999997E+02  0.45594000000E+02  0.51100000000E-03 0. -1.
         11   -1    0    0    0    0 -0.00000000000E+00 -0.00000000000E+00 -0.45593999997E+02  0.45594000000E+02  0.51100000000E-03 0.  1.
         23    2    1    2    0    0  0.00000000000E+00  0.00000000000E+00 -0.71054273576E-14  0.91188000000E+02  0.91188000000E+02 0.  0.
    9900012    2    3    3    0    0  0.19683221617E+02  0.26241180306E+02 -0.28418213576E+02  0.47787267058E+02  0.19999981823E+02 0.  0.
         12    1    3    3    0    0 -0.19683221617E+02 -0.26241180306E+02  0.28418213576E+02  0.43400732942E+02  0.00000000000E+00 0. -1.
         11    1    4    4    0    0  0.45389362304E+01  0.46233706813E+01 -0.13215513388E+01  0.66124123255E+01  0.51100000000E-03 0. -1.
        -11    1    4    4    0    0  0.27955205251E+01 -0.25001683866E+01 -0.47560858071E+01  0.60569075800E+01  0.51100000000E-03 0.  1.
        -12    1    4    4    0    0  0.12348764861E+02  0.24117978012E+02 -0.22340576430E+02  0.35117947152E+02  0.00000000000E+00 0.  1.
</event>
<event>
 8    1  0.8600524E-011  0.9118800E+02  0.7816164E-02  0.1184000E+00
        -11   -1    0    0    0    0  0.00000000000E+00  0.00000000000E+00  0.45593999997E+02  0.45594000000E+02  0.51100000000E-03 0. -1.
         11   -1    0    0    0    0 -0.00000000000E+00 -0.00000000000E+00 -0.45593999997E+02  0.45594000000E+02  0.51100000000E-03 0.  1.
         23    2    1    2    0    0  0.00000000000E+00  0.00000000000E+00  0.00000000000E+00  0.91188000000E+02  0.91188000000E+02 0.  0.
    9900012    2    3    3    0    0 -0.18356868993E+01  0.21487361408E+02 -0.37663600933E+02  0.47787270952E+02  0.19999999578E+02 0.  0.
         12    1    3    3    0    0  0.18356868993E+01 -0.21487361408E+02  0.37663600933E+02  0.43400729048E+02  0.00000000000E+00 0. -1.
         11    1    4    4    0    0 -0.13901256873E+00 -0.34660443527E+00 -0.46264381003E+01  0.46414856335E+01  0.51100000000E-03 0.  1.
        -11    1    4    4    0    0 -0.26741721217E+01 -0.16139476011E+01 -0.71834559564E+00  0.32050029722E+01  0.51100000000E-03 0. -1.
        -12    1    4    4    0    0  0.97749779118E+00  0.23447913444E+02 -0.32318817237E+02  0.39940782346E+02  0.00000000000E+00 0.  1.
</event>
<event>
 8    1  0.8600524E-011  0.9118800E+02  0.7816164E-02  0.1184000E+00
        -11   -1    0    0    0    0  0.00000000000E+00  0.00000000000E+00  0.45593999997E+02  0.45594000000E+02  0.51100000000E-03 0. -1.
         11   -1    0    0    0    0 -0.00000000000E+00 -0.00000000000E+00 -0.45593999997E+02  0.45594000000E+02  0.51100000000E-03 0.  1.
         23    2    1    2    0    0  0.17763568394E-14 -0.88817841970E-15  0.00000000000E+00  0.91188000000E+02  0.91188000000E+02 0.  0.
    9900012    2    3    3    0    0  0.13445869495E+02  0.59894037828E+01 -0.40828406129E+02  0.47787272919E+02  0.20000008545E+02 0.  0.
         12    1    3    3    0    0 -0.13445869495E+02 -0.59894037828E+01  0.40828406129E+02  0.43400727081E+02  0.00000000000E+00 0. -1.
         11    1    4    4    0    0 -0.63380120207E+00  0.77091599619E+01 -0.12513644773E+02  0.14711361495E+02  0.51100000000E-03 0. -1.
        -11    1    4    4    0    0  0.12801353288E+02 -0.30338564318E+01 -0.16418200623E+02  0.21038922092E+02  0.51100000000E-03 0.  1.
        -12    1    4    4    0    0  0.12783174095E+01  0.13141002527E+01 -0.11896560733E+02  0.12036989331E+02  0.00000000000E+00 0.  1.
</event>
<event>
 8    1  0.8600524E-011  0.9118800E+02  0.7816164E-02  0.1184000E+00
        -11   -1    0    0    0    0  0.00000000000E+00  0.00000000000E+00  0.45593999997E+02  0.45594000000E+02  0.51100000000E-03 0. -1.
         11   -1    0    0    0    0 -0.00000000000E+00 -0.00000000000E+00 -0.45593999997E+02  0.45594000000E+02  0.51100000000E-03 0.  1.
         23    2    1    2    0    0  0.00000000000E+00 -0.17763568394E-14  0.71054273576E-14  0.91188000000E+02  0.91188000000E+02 0.  0.
    9900012    2    3    3    0    0  0.24077565604E+01  0.14178010323E+02 -0.40948870103E+02  0.47787271537E+02  0.20000002247E+02 0.  0.
         12    1    3    3    0    0 -0.24077565604E+01 -0.14178010323E+02  0.40948870103E+02  0.43400728463E+02  0.00000000000E+00 0. -1.
         11    1    4    4    0    0 -0.50370765106E+01  0.87048889917E+01 -0.80795907206E+01  0.12900659619E+02  0.51100000000E-03 0.  1.
        -11    1    4    4    0    0  0.43683366860E+01 -0.10335789695E+01 -0.13124176520E+02  0.13870640233E+02  0.51100000000E-03 0. -1.
         12    1    4    4    0    0  0.30764963850E+01  0.65067003011E+01 -0.19745102862E+02  0.21015971685E+02  0.00000000000E+00 0. -1.
</event>
<event>
 8    1  0.8600524E-011  0.9118800E+02  0.7816164E-02  0.1184000E+00
        -11   -1    0    0    0    0  0.00000000000E+00  0.00000000000E+00  0.45593999997E+02  0.45594000000E+02  0.51100000000E-03 0. -1.
         11   -1    0    0    0    0 -0.00000000000E+00 -0.00000000000E+00 -0.45593999997E+02  0.45594000000E+02  0.51100000000E-03 0.  1.
         23    2    1    2    0    0  0.00000000000E+00  0.00000000000E+00 -0.88817841970E-15  0.91188000000E+02  0.91188000000E+02 0.  0.
    9900012    2    3    3    0    0 -0.37095047011E+02  0.21740460850E+02  0.59103937787E+01  0.47787275290E+02  0.20000019357E+02 0.  0.
        -12    1    3    3    0    0  0.37095047011E+02 -0.21740460850E+02 -0.59103937787E+01  0.43400724710E+02  0.00000000000E+00 0.  1.
         11    1    4    4    0    0 -0.11083199670E+02  0.12364567547E+02 -0.30279174038E+01  0.16878629376E+02  0.51100000000E-03 0. -1.
        -11    1    4    4    0    0 -0.26427773109E+02  0.79599226537E+01  0.70034119299E+01  0.28475170572E+02  0.51100000000E-03 0.  1.
        -12    1    4    4    0    0  0.41592576811E+00  0.14159706496E+01  0.19348992527E+01  0.24334753426E+01  0.00000000000E+00 0.  1.
</event>
<event>
 8    1  0.8600524E-011  0.9118800E+02  0.7816164E-02  0.1184000E+00
        -11   -1    0    0    0    0  0.00000000000E+00  0.00000000000E+00  0.45593999997E+02  0.45594000000E+02  0.51100000000E-03 0.  1.
         11   -1    0    0    0    0 -0.00000000000E+00 -0.00000000000E+00 -0.45593999997E+02  0.45594000000E+02  0.51100000000E-03 0. -1.
         23    2    1    2    0    0 -0.71054273576E-14  0.88817841970E-15  0.88817841970E-15  0.91188000000E+02  0.91188000000E+02 0.  0.
    9900012    2    3    3    0    0  0.42906524252E+02 -0.62783759090E+01 -0.17986814836E+01  0.47787273249E+02  0.20000010053E+02 0.  0.
        -12    1    3    3    0    0 -0.42906524252E+02  0.62783759090E+01  0.17986814836E+01  0.43400726751E+02  0.00000000000E+00 0.  1.
         11    1    4    4    0    0  0.31032136587E+02 -0.42556538982E+01  0.70703667581E+01  0.32110655204E+02  0.51100000000E-03 0. -1.
        -11    1    4    4    0    0  0.78751011286E+01  0.67590938294E+00 -0.68017638576E+01  0.10427754462E+02  0.51100000000E-03 0.  1.
         12    1    4    4    0    0  0.39992865356E+01 -0.26986313937E+01 -0.20672843841E+01  0.52488635835E+01  0.00000000000E+00 0. -1.
</event>
<event>
 8    1  0.8600524E-011  0.9118800E+02  0.7816164E-02  0.1184000E+00
        -11   -1    0    0    0    0  0.00000000000E+00  0.00000000000E+00  0.45593999997E+02  0.45594000000E+02  0.51100000000E-03 0. -1.
         11   -1    0    0    0    0 -0.00000000000E+00 -0.00000000000E+00 -0.45593999997E+02  0.45594000000E+02  0.51100000000E-03 0.  1.
         23    2    1    2    0    0  0.00000000000E+00  0.22204460493E-15  0.71054273576E-14  0.91188000000E+02  0.91188000000E+02 0.  0.
    9900012    2    3    3    0    0 -0.30620936803E+01 -0.94378563798E+00 -0.43282286083E+02  0.47787269158E+02  0.19999991399E+02 0.  0.
         12    1    3    3    0    0  0.30620936803E+01  0.94378563798E+00  0.43282286083E+02  0.43400730842E+02  0.00000000000E+00 0. -1.
         11    1    4    4    0    0  0.12132914449E+01 -0.76254258297E+01 -0.25459132136E+02  0.26604259144E+02  0.51100000000E-03 0. -1.
        -11    1    4    4    0    0 -0.31641911967E+00  0.67603922689E+01 -0.14544818799E+02  0.16042280974E+02  0.51100000000E-03 0.  1.
         12    1    4    4    0    0 -0.39589660056E+01 -0.78752077184E-01 -0.32783351486E+01  0.51407290407E+01  0.00000000000E+00 0. -1.
</event>
<event>
 8    1  0.8600524E-011  0.9118800E+02  0.7816164E-02  0.1184000E+00
        -11   -1    0    0    0    0  0.00000000000E+00  0.00000000000E+00  0.45593999997E+02  0.45594000000E+02  0.51100000000E-03 0. -1.
         11   -1    0    0    0    0 -0.00000000000E+00 -0.00000000000E+00 -0.45593999997E+02  0.45594000000E+02  0.51100000000E-03 0.  1.
         23    2    1    2    0    0  0.00000000000E+00  0.00000000000E+00  0.00000000000E+00  0.91188000000E+02  0.91188000000E+02 0.  0.
    9900012    2    3    3    0    0 -0.34923383080E+02  0.11074020655E+02 -0.23266850106E+02  0.47787274971E+02  0.20000017903E+02 0.  0.
         12    1    3    3    0    0  0.34923383080E+02 -0.11074020655E+02  0.23266850106E+02  0.43400725029E+02  0.00000000000E+00 0. -1.
         11    1    4    4    0    0 -0.21771039902E+02 -0.13519657976E+01 -0.14919016751E+02  0.26426937981E+02  0.51100000000E-03 0. -1.
        -11    1    4    4    0    0  0.10989396532E+00  0.37922578575E+01 -0.21825256736E+01  0.43768384615E+01  0.51100000000E-03 0.  1.
         12    1    4    4    0    0 -0.13262237143E+02  0.86337285950E+01 -0.61653076809E+01  0.16983498529E+02  0.00000000000E+00 0. -1.
</event>
<event>
 8    1  0.8600524E-011  0.9118800E+02  0.7816164E-02  0.1184000E+00
        -11   -1    0    0    0    0  0.00000000000E+00  0.00000000000E+00  0.45593999997E+02  0.45594000000E+02  0.51100000000E-03 0. -1.
         11   -1    0    0    0    0 -0.00000000000E+00 -0.00000000000E+00 -0.45593999997E+02  0.45594000000E+02  0.51100000000E-03 0.  1.
         23    2    1    2    0    0  0.00000000000E+00 -0.71054273576E-14  0.00000000000E+00  0.91188000000E+02  0.91188000000E+02 0.  0.
    9900012    2    3    3    0    0  0.22133629205E+02  0.36186670984E+02 -0.91788621909E+01  0.47787260262E+02  0.19999950840E+02 0.  0.
         12    1    3    3    0    0 -0.22133629205E+02 -0.36186670984E+02  0.91788621909E+01  0.43400739738E+02  0.00000000000E+00 0. -1.
         11    1    4    4    0    0  0.51662910658E+01 -0.91626342586E+00  0.14382187403E+01  0.54404572830E+01  0.51100000000E-03 0. -1.
        -11    1    4    4    0    0  0.83794123477E+01  0.22483463984E+02 -0.71939902558E+01  0.25049435125E+02  0.51100000000E-03 0.  1.
         12    1    4    4    0    0  0.85879257915E+01  0.14619470425E+02 -0.34230906753E+01  0.17297367854E+02  0.00000000000E+00 0. -1.
</event>
<event>
 8    1  0.8600524E-011  0.9118800E+02  0.7816164E-02  0.1184000E+00
        -11   -1    0    0    0    0  0.00000000000E+00  0.00000000000E+00  0.45593999997E+02  0.45594000000E+02  0.51100000000E-03 0.  1.
         11   -1    0    0    0    0 -0.00000000000E+00 -0.00000000000E+00 -0.45593999997E+02  0.45594000000E+02  0.51100000000E-03 0. -1.
         23    2    1    2    0    0  0.00000000000E+00  0.35527136788E-14  0.17763568394E-14  0.91188000000E+02  0.91188000000E+02 0.  0.
    9900012    2    3    3    0    0 -0.38190863169E+02  0.16702514824E+02  0.12087480072E+02  0.47787271832E+02  0.20000003591E+02 0.  0.
        -12    1    3    3    0    0  0.38190863169E+02 -0.16702514824E+02 -0.12087480072E+02  0.43400728168E+02  0.00000000000E+00 0.  1.
         11    1    4    4    0    0 -0.23271899265E+02  0.29032100158E+01  0.10795213840E+02  0.25817563128E+02  0.51100000000E-03 0. -1.
        -11    1    4    4    0    0 -0.62045173672E+00  0.18790076461E+01 -0.22752289316E+01  0.30153436030E+01  0.51100000000E-03 0.  1.
         12    1    4    4    0    0 -0.14298512168E+02  0.11920297162E+02  0.35674951643E+01  0.18954365101E+02  0.00000000000E+00 0. -1.
</event>
<event>
 8    1  0.8600524E-011  0.9118800E+02  0.7816164E-02  0.1184000E+00
        -11   -1    0    0    0    0  0.00000000000E+00  0.00000000000E+00  0.45593999997E+02  0.45594000000E+02  0.51100000000E-03 0. -1.
         11   -1    0    0    0    0 -0.00000000000E+00 -0.00000000000E+00 -0.45593999997E+02  0.45594000000E+02  0.51100000000E-03 0.  1.
         23    2    1    2    0    0 -0.35527136788E-14  0.00000000000E+00  0.00000000000E+00  0.91188000000E+02  0.91188000000E+02 0.  0.
    9900012    2    3    3    0    0 -0.16413755216E+02 -0.58687641411E+01 -0.39746315856E+02  0.47787269857E+02  0.19999994584E+02 0.  0.
         12    1    3    3    0    0  0.16413755216E+02  0.58687641411E+01  0.39746315856E+02  0.43400730143E+02  0.00000000000E+00 0. -1.
         11    1    4    4    0    0 -0.13792211027E+01 -0.94491854306E+01 -0.87087352566E+01  0.12924063842E+02  0.51100000000E-03 0. -1.
        -11    1    4    4    0    0 -0.11326675336E+02  0.17074016722E+01 -0.19694251492E+02  0.22783159060E+02  0.51100000000E-03 0.  1.
         12    1    4    4    0    0 -0.37078587772E+01  0.18730196173E+01 -0.11343329107E+02  0.12080046955E+02  0.00000000000E+00 0. -1.
</event>
<event>
 8    1  0.8600524E-011  0.9118800E+02  0.7816164E-02  0.1184000E+00
        -11   -1    0    0    0    0  0.00000000000E+00  0.00000000000E+00  0.45593999997E+02  0.45594000000E+02  0.51100000000E-03 0. -1.
         11   -1    0    0    0    0 -0.00000000000E+00 -0.00000000000E+00 -0.45593999997E+02  0.45594000000E+02  0.51100000000E-03 0.  1.
         23    2    1    2    0    0  0.88817841970E-15  0.00000000000E+00 -0.71054273576E-14  0.91188000000E+02  0.91188000000E+02 0.  0.
    9900012    2    3    3    0    0  0.38222970898E+01 -0.14107880920E+02 -0.40865373297E+02  0.47787297312E+02  0.20000119763E+02 0.  0.
         12    1    3    3    0    0 -0.38222970898E+01  0.14107880920E+02  0.40865373297E+02  0.43400702688E+02  0.00000000000E+00 0. -1.
         11    1    4    4    0    0 -0.40311569495E+01 -0.60933778540E+01 -0.29327438101E+02  0.30223800321E+02  0.51100000000E-03 0. -1.
        -11    1    4    4    0    0  0.29218564499E+01 -0.76269590356E+01 -0.83390542799E+01  0.11672513688E+02  0.51100000000E-03 0.  1.
         12    1    4    4    0    0  0.49315975893E+01 -0.38754403082E+00 -0.31988809160E+01  0.58909833028E+01  0.00000000000E+00 0. -1.
</event>
<event>
 8    1  0.8600524E-011  0.9118800E+02  0.7816164E-02  0.1184000E+00
        -11   -1    0    0    0    0  0.00000000000E+00  0.00000000000E+00  0.45593999997E+02  0.45594000000E+02  0.51100000000E-03 0. -1.
         11   -1    0    0    0    0 -0.00000000000E+00 -0.00000000000E+00 -0.45593999997E+02  0.45594000000E+02  0.51100000000E-03 0.  1.
         23    2    1    2    0    0  0.00000000000E+00  0.00000000000E+00  0.00000000000E+00  0.91188000000E+02  0.91188000000E+02 0.  0.
    9900012    2    3    3    0    0  0.57404346318E+01 -0.21380382143E+02  0.37330281743E+02  0.47787271142E+02  0.20000000447E+02 0.  0.
        -12    1    3    3    0    0 -0.57404346318E+01  0.21380382143E+02 -0.37330281743E+02  0.43400728858E+02  0.00000000000E+00 0.  1.
         11    1    4    4    0    0 -0.42051952719E+01 -0.14979660736E+02  0.19403547120E+02  0.24871098572E+02  0.51100000000E-03 0. -1.
        -11    1    4    4    0    0  0.80972172863E+01 -0.68461667426E+01  0.18130898181E+02  0.21003913825E+02  0.51100000000E-03 0.  1.
         12    1    4    4    0    0  0.18484126174E+01  0.44544533604E+00 -0.20416355857E+00  0.19122587457E+01  0.00000000000E+00 0. -1.
</event>
<event>
 8    1  0.8600524E-011  0.9118800E+02  0.7816164E-02  0.1184000E+00
        -11   -1    0    0    0    0  0.00000000000E+00  0.00000000000E+00  0.45593999997E+02  0.45594000000E+02  0.51100000000E-03 0. -1.
         11   -1    0    0    0    0 -0.00000000000E+00 -0.00000000000E+00 -0.45593999997E+02  0.45594000000E+02  0.51100000000E-03 0.  1.
         23    2    1    2    0    0  0.00000000000E+00  0.00000000000E+00  0.71054273576E-14  0.91188000000E+02  0.91188000000E+02 0.  0.
    9900012    2    3    3    0    0 -0.57720460464E+01  0.33924235436E+02  0.26447179330E+02  0.47787267748E+02  0.19999984972E+02 0.  0.
        -12    1    3    3    0    0  0.57720460464E+01 -0.33924235436E+02 -0.26447179330E+02  0.43400732252E+02  0.00000000000E+00 0.  1.
         11    1    4    4    0    0 -0.36829779021E+01  0.23017041258E+02  0.10366222011E+02  0.25510920672E+02  0.51100000000E-03 0. -1.
        -11    1    4    4    0    0  0.20942623265E+01 -0.13266035532E+01  0.28422555739E+01  0.37715021793E+01  0.51100000000E-03 0.  1.
        -12    1    4    4    0    0 -0.41833304708E+01  0.12233797731E+02  0.13238701746E+02  0.18504844897E+02  0.00000000000E+00 0.  1.
</event>
<event>
 8    1  0.8600524E-011  0.9118800E+02  0.7816164E-02  0.1184000E+00
        -11   -1    0    0    0    0  0.00000000000E+00  0.00000000000E+00  0.45593999997E+02  0.45594000000E+02  0.51100000000E-03 0. -1.
         11   -1    0    0    0    0 -0.00000000000E+00 -0.00000000000E+00 -0.45593999997E+02  0.45594000000E+02  0.51100000000E-03 0.  1.
         23    2    1    2    0    0 -0.35527136788E-14  0.88817841970E-15  0.00000000000E+00  0.91188000000E+02  0.91188000000E+02 0.  0.
    9900012    2    3    3    0    0 -0.23798210638E+02  0.54571717517E+01  0.35881577696E+02  0.47787272229E+02  0.20000005400E+02 0.  0.
        -12    1    3    3    0    0  0.23798210638E+02 -0.54571717517E+01 -0.35881577696E+02  0.43400727771E+02  0.00000000000E+00 0.  1.
         11    1    4    4    0    0 -0.10679015584E+02  0.74657851439E+00  0.25191847947E+01  0.10997501790E+02  0.51100000000E-03 0. -1.
        -11    1    4    4    0    0 -0.13581957344E+02  0.39508604167E+01  0.32843415490E+02  0.35759877022E+02  0.51100000000E-03 0.  1.
        -12    1    4    4    0    0  0.46276229081E+00  0.75973282056E+00  0.51897741188E+00  0.10298934170E+01  0.00000000000E+00 0.  1.
</event>
<event>
 8    1  0.8600524E-011  0.9118800E+02  0.7816164E-02  0.1184000E+00
        -11   -1    0    0    0    0  0.00000000000E+00  0.00000000000E+00  0.45593999997E+02  0.45594000000E+02  0.51100000000E-03 0.  1.
         11   -1    0    0    0    0 -0.00000000000E+00 -0.00000000000E+00 -0.45593999997E+02  0.45594000000E+02  0.51100000000E-03 0. -1.
         23    2    1    2    0    0 -0.55511151231E-16 -0.71054273576E-14 -0.35527136788E-14  0.91188000000E+02  0.91188000000E+02 0.  0.
    9900012    2    3    3    0    0 -0.30787609237E+00 -0.36160467741E+02 -0.23998932145E+02  0.47787274672E+02  0.20000016537E+02 0.  0.
         12    1    3    3    0    0  0.30787609237E+00  0.36160467741E+02  0.23998932145E+02  0.43400725328E+02  0.00000000000E+00 0. -1.
         11    1    4    4    0    0  0.29805630715E+01 -0.95735413333E+01  0.89846519702E+00  0.10066960309E+02  0.51100000000E-03 0. -1.
        -11    1    4    4    0    0  0.20771087574E+01 -0.13724347572E+02 -0.16016805103E+02  0.21194578152E+02  0.51100000000E-03 0.  1.
        -12    1    4    4    0    0 -0.53655479213E+01 -0.12862578836E+02 -0.88805922391E+01  0.16525736211E+02  0.00000000000E+00 0.  1.
</event>
<event>
 8    1  0.8600524E-011  0.9118800E+02  0.7816164E-02  0.1184000E+00
        -11   -1    0    0    0    0  0.00000000000E+00  0.00000000000E+00  0.45593999997E+02  0.45594000000E+02  0.51100000000E-03 0. -1.
         11   -1    0    0    0    0 -0.00000000000E+00 -0.00000000000E+00 -0.45593999997E+02  0.45594000000E+02  0.51100000000E-03 0.  1.
         23    2    1    2    0    0  0.00000000000E+00  0.00000000000E+00  0.00000000000E+00  0.91188000000E+02  0.91188000000E+02 0.  0.
    9900012    2    3    3    0    0 -0.16388401631E+01 -0.20804967409E+02  0.38053788817E+02  0.47787270636E+02  0.19999998138E+02 0.  0.
        -12    1    3    3    0    0  0.16388401631E+01  0.20804967409E+02 -0.38053788817E+02  0.43400729364E+02  0.00000000000E+00 0.  1.
         11    1    4    4    0    0  0.22857801864E+01  0.22713646369E+01  0.67221700230E+01  0.74546266475E+01  0.51100000000E-03 0. -1.
        -11    1    4    4    0    0 -0.22836825054E+01 -0.13611020527E+02  0.10332622165E+02  0.17240596470E+02  0.51100000000E-03 0.  1.
         12    1    4    4    0    0 -0.16409378442E+01 -0.94653115189E+01  0.20998996629E+02  0.23092047518E+02  0.00000000000E+00 0. -1.
</event>
<event>
 8    1  0.8600524E-011  0.9118800E+02  0.7816164E-02  0.1184000E+00
        -11   -1    0    0    0    0  0.00000000000E+00  0.00000000000E+00  0.45593999997E+02  0.45594000000E+02  0.51100000000E-03 0. -1.
         11   -1    0    0    0    0 -0.00000000000E+00 -0.00000000000E+00 -0.45593999997E+02  0.45594000000E+02  0.51100000000E-03 0.  1.
         23    2    1    2    0    0  0.17763568394E-14 -0.71054273576E-14 -0.35527136788E-14  0.91188000000E+02  0.91188000000E+02 0.  0.
    9900012    2    3    3    0    0  0.12107302806E+02 -0.35113212956E+02 -0.22452152649E+02  0.47787266551E+02  0.19999979511E+02 0.  0.
         12    1    3    3    0    0 -0.12107302806E+02  0.35113212956E+02  0.22452152649E+02  0.43400733449E+02  0.00000000000E+00 0. -1.
         11    1    4    4    0    0  0.10677382018E+02 -0.16204656651E+02 -0.47815408885E+01  0.19986508386E+02  0.51100000000E-03 0. -1.
        -11    1    4    4    0    0  0.45151933278E+00 -0.15435393519E+01 -0.74624236793E+01  0.76337507734E+01  0.51100000000E-03 0.  1.
        -12    1    4    4    0    0  0.97840145482E+00 -0.17365016954E+02 -0.10208188082E+02  0.20167007391E+02  0.00000000000E+00 0.  1.
</event>
<event>
 8    1  0.8600524E-011  0.9118800E+02  0.7816164E-02  0.1184000E+00
        -11   -1    0    0    0    0  0.00000000000E+00  0.00000000000E+00  0.45593999997E+02  0.45594000000E+02  0.51100000000E-03 0. -1.
         11   -1    0    0    0    0 -0.00000000000E+00 -0.00000000000E+00 -0.45593999997E+02  0.45594000000E+02  0.51100000000E-03 0.  1.
         23    2    1    2    0    0  0.17763568394E-14  0.00000000000E+00  0.00000000000E+00  0.91188000000E+02  0.91188000000E+02 0.  0.
    9900012    2    3    3    0    0  0.84589888647E+01 -0.40455626988E+02  0.13244284802E+02  0.47787270426E+02  0.19999997181E+02 0.  0.
        -12    1    3    3    0    0 -0.84589888647E+01  0.40455626988E+02 -0.13244284802E+02  0.43400729574E+02  0.00000000000E+00 0.  1.
         11    1    4    4    0    0 -0.48130402291E+01 -0.16977486483E+02  0.10429619971E+02  0.20498228619E+02  0.51100000000E-03 0. -1.
        -11    1    4    4    0    0  0.62398420692E+01 -0.10774132610E+02  0.28318038778E+01  0.12768581598E+02  0.51100000000E-03 0.  1.
         12    1    4    4    0    0  0.70321870246E+01 -0.12704007895E+02 -0.17139046745E-01  0.14520460209E+02  0.00000000000E+00 0. -1.
</event>
<event>
 8    1  0.8600524E-011  0.9118800E+02  0.7816164E-02  0.1184000E+00
        -11   -1    0    0    0    0  0.00000000000E+00  0.00000000000E+00  0.45593999997E+02  0.45594000000E+02  0.51100000000E-03 0. -1.
         11   -1    0    0    0    0 -0.00000000000E+00 -0.00000000000E+00 -0.45593999997E+02  0.45594000000E+02  0.51100000000E-03 0.  1.
         23    2    1    2    0    0  0.22204460493E-15  0.88817841970E-15  0.00000000000E+00  0.91188000000E+02  0.91188000000E+02 0.  0.
    9900012    2    3    3    0    0  0.16127334575E+01  0.43778509001E+01 -0.43149235317E+02  0.47787274244E+02  0.20000014588E+02 0.  0.
         12    1    3    3    0    0 -0.16127334575E+01 -0.43778509001E+01  0.43149235317E+02  0.43400725756E+02  0.00000000000E+00 0. -1.
         11    1    4    4    0    0  0.18866112549E+01 -0.40517693811E+01 -0.18275917832E+01  0.48286881378E+01  0.51100000000E-03 0.  1.
        -11    1    4    4    0    0 -0.26968306691E+01  0.61156567040E+01 -0.14964313968E+02  0.16389168538E+02  0.51100000000E-03 0. -1.
         12    1    4    4    0    0  0.24229528716E+01  0.23139635771E+01 -0.26357329566E+02  0.26569417568E+02  0.00000000000E+00 0. -1.
</event>
<event>
 8    1  0.8600524E-011  0.9118800E+02  0.7816164E-02  0.1184000E+00
        -11   -1    0    0    0    0  0.00000000000E+00  0.00000000000E+00  0.45593999997E+02  0.45594000000E+02  0.51100000000E-03 0. -1.
         11   -1    0    0    0    0 -0.00000000000E+00 -0.00000000000E+00 -0.45593999997E+02  0.45594000000E+02  0.51100000000E-03 0.  1.
         23    2    1    2    0    0 -0.17763568394E-14  0.00000000000E+00 -0.35527136788E-14  0.91188000000E+02  0.91188000000E+02 0.  0.
    9900012    2    3    3    0    0 -0.14845869545E+02  0.30653008795E+02 -0.26900120989E+02  0.47787270744E+02  0.19999998628E+02 0.  0.
         12    1    3    3    0    0  0.14845869545E+02 -0.30653008795E+02  0.26900120989E+02  0.43400729256E+02  0.00000000000E+00 0. -1.
         11    1    4    4    0    0 -0.41662077914E+01  0.15470080860E+01  0.18055499963E+01  0.47969294793E+01  0.51100000000E-03 0. -1.
        -11    1    4    4    0    0 -0.10108702294E+02  0.29022708561E+02 -0.26095711300E+02  0.40317361308E+02  0.51100000000E-03 0.  1.
        -12    1    4    4    0    0 -0.57095945992E+00  0.83292147615E-01 -0.26099596860E+01  0.26729799567E+01  0.00000000000E+00 0.  1.
</event>
<event>
 8    1  0.8600524E-011  0.9118800E+02  0.7816164E-02  0.1184000E+00
        -11   -1    0    0    0    0  0.00000000000E+00  0.00000000000E+00  0.45593999997E+02  0.45594000000E+02  0.51100000000E-03 0. -1.
         11   -1    0    0    0    0 -0.00000000000E+00 -0.00000000000E+00 -0.45593999997E+02  0.45594000000E+02  0.51100000000E-03 0.  1.
         23    2    1    2    0    0 -0.17763568394E-14  0.00000000000E+00  0.00000000000E+00  0.91188000000E+02  0.91188000000E+02 0.  0.
    9900012    2    3    3    0    0 -0.14784881236E+02 -0.16204705248E+02 -0.37449140817E+02  0.47787270360E+02  0.19999996880E+02 0.  0.
         12    1    3    3    0    0  0.14784881236E+02  0.16204705248E+02  0.37449140817E+02  0.43400729640E+02  0.00000000000E+00 0. -1.
         11    1    4    4    0    0 -0.11383261525E+02 -0.91300990092E+01 -0.31798303642E+02  0.34986704126E+02  0.51100000000E-03 0. -1.
        -11    1    4    4    0    0 -0.62173456855E+01 -0.45611233453E+01 -0.38437471727E+01  0.86158938093E+01  0.51100000000E-03 0.  1.
         12    1    4    4    0    0  0.28157259748E+01 -0.25134828940E+01 -0.18070900027E+01  0.41846724246E+01  0.00000000000E+00 0. -1.
</event>
<event>
 8    1  0.8600524E-011  0.9118800E+02  0.7816164E-02  0.1184000E+00
        -11   -1    0    0    0    0  0.00000000000E+00  0.00000000000E+00  0.45593999997E+02  0.45594000000E+02  0.51100000000E-03 0.  1.
         11   -1    0    0    0    0 -0.00000000000E+00 -0.00000000000E+00 -0.45593999997E+02  0.45594000000E+02  0.51100000000E-03 0. -1.
         23    2    1    2    0    0  0.71054273576E-14  0.88817841970E-15  0.00000000000E+00  0.91188000000E+02  0.91188000000E+02 0.  0.
    9900012    2    3    3    0    0 -0.42688402827E+02  0.65122317770E+01  0.43490737408E+01  0.47787270271E+02  0.19999996473E+02 0.  0.
        -12    1    3    3    0    0  0.42688402827E+02 -0.65122317770E+01 -0.43490737408E+01  0.43400729729E+02  0.00000000000E+00 0.  1.
         11    1    4    4    0    0 -0.18699132593E+02  0.12410421878E+02  0.97582367500E+00  0.22463934718E+02  0.51100000000E-03 0. -1.
        -11    1    4    4    0    0 -0.23721455645E+02 -0.61117119090E+01  0.37860007454E+01  0.24786978078E+02  0.51100000000E-03 0.  1.
         12    1    4    4    0    0 -0.26781458902E+00  0.21352180852E+00 -0.41275067959E+00  0.53635747436E+00  0.00000000000E+00 0. -1.
</event>
<event>
 8    1  0.8600524E-011  0.9118800E+02  0.7816164E-02  0.1184000E+00
        -11   -1    0    0    0    0  0.00000000000E+00  0.00000000000E+00  0.45593999997E+02  0.45594000000E+02  0.51100000000E-03 0. -1.
         11   -1    0    0    0    0 -0.00000000000E+00 -0.00000000000E+00 -0.45593999997E+02  0.45594000000E+02  0.51100000000E-03 0.  1.
         23    2    1    2    0    0  0.17763568394E-14  0.00000000000E+00  0.00000000000E+00  0.91188000000E+02  0.91188000000E+02 0.  0.
    9900012    2    3    3    0    0 -0.10165494329E+02 -0.79698587942E+01 -0.41433890406E+02  0.47787271914E+02  0.20000003966E+02 0.  0.
         12    1    3    3    0    0  0.10165494329E+02  0.79698587942E+01  0.41433890406E+02  0.43400728086E+02  0.00000000000E+00 0. -1.
         11    1    4    4    0    0  0.18204587427E+01  0.13781382523E+01 -0.21415320020E-01  0.22833733715E+01  0.51100000000E-03 0. -1.
        -11    1    4    4    0    0 -0.12056024161E+02 -0.38615929159E+01 -0.22559488922E+02  0.25868710039E+02  0.51100000000E-03 0.  1.
        -12    1    4    4    0    0  0.70071089910E-01 -0.54864041306E+01 -0.18852986165E+02  0.19635188504E+02  0.00000000000E+00 0.  1.
</event>
<event>
 8    1  0.8600524E-011  0.9118800E+02  0.7816164E-02  0.1184000E+00
        -11   -1    0    0    0    0  0.00000000000E+00  0.00000000000E+00  0.45593999997E+02  0.45594000000E+02  0.51100000000E-03 0. -1.
         11   -1    0    0    0    0 -0.00000000000E+00 -0.00000000000E+00 -0.45593999997E+02  0.45594000000E+02  0.51100000000E-03 0.  1.
         23    2    1    2    0    0  0.00000000000E+00  0.00000000000E+00  0.44408920985E-15  0.91188000000E+02  0.91188000000E+02 0.  0.
    9900012    2    3    3    0    0  0.30924340343E+02  0.30232876340E+02 -0.36444468895E+01  0.47787266935E+02  0.19999981264E+02 0.  0.
         12    1    3    3    0    0 -0.30924340343E+02 -0.30232876340E+02  0.36444468895E+01  0.43400733065E+02  0.00000000000E+00 0. -1.
         11    1    4    4    0    0 -0.63518017423E+00  0.15034936340E+01  0.64034632921E+00  0.17532799672E+01  0.51100000000E-03 0. -1.
        -11    1    4    4    0    0  0.17819166845E+02  0.24378723383E+02 -0.78223768951E+01  0.31193499986E+02  0.51100000000E-03 0.  1.
        -12    1    4    4    0    0  0.13740353673E+02  0.43506593227E+01  0.35375836764E+01  0.14840486982E+02  0.00000000000E+00 0.  1.
</event>
<event>
 8    1  0.8600524E-011  0.9118800E+02  0.7816164E-02  0.1184000E+00
        -11   -1    0    0    0    0  0.00000000000E+00  0.00000000000E+00  0.45593999997E+02  0.45594000000E+02  0.51100000000E-03 0. -1.
         11   -1    0    0    0    0 -0.00000000000E+00 -0.00000000000E+00 -0.45593999997E+02  0.45594000000E+02  0.51100000000E-03 0.  1.
         23    2    1    2    0    0 -0.17763568394E-14  0.00000000000E+00  0.00000000000E+00  0.91188000000E+02  0.91188000000E+02 0.  0.
    9900012    2    3    3    0    0  0.15605023613E+02  0.12189463696E+02 -0.38620257906E+02  0.47787261436E+02  0.19999956192E+02 0.  0.
         12    1    3    3    0    0 -0.15605023613E+02 -0.12189463696E+02  0.38620257906E+02  0.43400738564E+02  0.00000000000E+00 0. -1.
         11    1    4    4    0    0 -0.14693738664E+01  0.96579093682E+01 -0.94764911652E+01  0.13610222555E+02  0.51100000000E-03 0.  1.
        -11    1    4    4    0    0  0.14399919877E+02  0.32088182263E+01 -0.26635467416E+02  0.30448355155E+02  0.51100000000E-03 0. -1.
         12    1    4    4    0    0  0.26744776023E+01 -0.67726389841E+00 -0.25082993245E+01  0.37286837268E+01  0.00000000000E+00 0. -1.
</event>
<event>
 8    1  0.8600524E-011  0.9118800E+02  0.7816164E-02  0.1184000E+00
        -11   -1    0    0    0    0  0.00000000000E+00  0.00000000000E+00  0.45593999997E+02  0.45594000000E+02  0.51100000000E-03 0. -1.
         11   -1    0    0    0    0 -0.00000000000E+00 -0.00000000000E+00 -0.45593999997E+02  0.45594000000E+02  0.51100000000E-03 0.  1.
         23    2    1    2    0    0  0.00000000000E+00  0.00000000000E+00  0.71054273576E-14  0.91188000000E+02  0.91188000000E+02 0.  0.
    9900012    2    3    3    0    0 -0.22525461991E+02  0.16871337352E+02  0.33039140044E+02  0.47787271472E+02  0.20000001948E+02 0.  0.
        -12    1    3    3    0    0  0.22525461991E+02 -0.16871337352E+02 -0.33039140044E+02  0.43400728528E+02  0.00000000000E+00 0.  1.
         11    1    4    4    0    0 -0.17000150623E+02  0.12843594283E+02  0.19005500620E+02  0.28551218702E+02  0.51100000000E-03 0. -1.
        -11    1    4    4    0    0  0.13129144165E+01 -0.30463210991E+01  0.35345892437E+01  0.48473846440E+01  0.51100000000E-03 0.  1.
        -12    1    4    4    0    0 -0.68382257849E+01  0.70740641675E+01  0.10499050180E+02  0.14388668125E+02  0.00000000000E+00 0.  1.
</event>
<event>
 8    1  0.8600524E-011  0.9118800E+02  0.7816164E-02  0.1184000E+00
        -11   -1    0    0    0    0  0.00000000000E+00  0.00000000000E+00  0.45593999997E+02  0.45594000000E+02  0.51100000000E-03 0. -1.
         11   -1    0    0    0    0 -0.00000000000E+00 -0.00000000000E+00 -0.45593999997E+02  0.45594000000E+02  0.51100000000E-03 0.  1.
         23    2    1    2    0    0  0.88817841970E-15  0.00000000000E+00  0.00000000000E+00  0.91188000000E+02  0.91188000000E+02 0.  0.
    9900012    2    3    3    0    0 -0.50892985549E+01 -0.70056232426E+01  0.42528141743E+02  0.47787279304E+02  0.20000037658E+02 0.  0.
        -12    1    3    3    0    0  0.50892985549E+01  0.70056232426E+01 -0.42528141743E+02  0.43400720696E+02  0.00000000000E+00 0.  1.
         11    1    4    4    0    0 -0.84794602757E+01 -0.79340106708E+01  0.29552789761E+02  0.31752435415E+02  0.51100000000E-03 0. -1.
        -11    1    4    4    0    0  0.22493391998E+01 -0.26423259117E+01  0.11911743217E+01  0.36688294571E+01  0.51100000000E-03 0.  1.
         12    1    4    4    0    0  0.11408225210E+01  0.35707133399E+01  0.11784177661E+02  0.12366014432E+02  0.00000000000E+00 0. -1.
</event>
<event>
 8    1  0.8600524E-011  0.9118800E+02  0.7816164E-02  0.1184000E+00
        -11   -1    0    0    0    0  0.00000000000E+00  0.00000000000E+00  0.45593999997E+02  0.45594000000E+02  0.51100000000E-03 0. -1.
         11   -1    0    0    0    0 -0.00000000000E+00 -0.00000000000E+00 -0.45593999997E+02  0.45594000000E+02  0.51100000000E-03 0.  1.
         23    2    1    2    0    0  0.00000000000E+00 -0.66613381478E-15  0.00000000000E+00  0.91188000000E+02  0.91188000000E+02 0.  0.
    9900012    2    3    3    0    0  0.11408274209E+02  0.55961345523E+00  0.41870767838E+02  0.47787273198E+02  0.20000009817E+02 0.  0.
        -12    1    3    3    0    0 -0.11408274209E+02 -0.55961345523E+00 -0.41870767838E+02  0.43400726802E+02  0.00000000000E+00 0.  1.
         11    1    4    4    0    0  0.54672396683E+01  0.52555224610E+01  0.11751540062E+02  0.13986061633E+02  0.51100000000E-03 0. -1.
        -11    1    4    4    0    0  0.72803447136E+01 -0.47890897524E+01  0.86107365503E+01  0.12250860541E+02  0.51100000000E-03 0.  1.
        -12    1    4    4    0    0 -0.13393101730E+01  0.93180746667E-01  0.21508491226E+02  0.21550351023E+02  0.00000000000E+00 0.  1.
</event>
<event>
 8    1  0.8600524E-011  0.9118800E+02  0.7816164E-02  0.1184000E+00
        -11   -1    0    0    0    0  0.00000000000E+00  0.00000000000E+00  0.45593999997E+02  0.45594000000E+02  0.51100000000E-03 0. -1.
         11   -1    0    0    0    0 -0.00000000000E+00 -0.00000000000E+00 -0.45593999997E+02  0.45594000000E+02  0.51100000000E-03 0.  1.
         23    2    1    2    0    0 -0.35527136788E-14  0.00000000000E+00 -0.71054273576E-14  0.91188000000E+02  0.91188000000E+02 0.  0.
    9900012    2    3    3    0    0 -0.17927752480E+02  0.10413050729E+02 -0.38128562522E+02  0.47787271729E+02  0.20000003122E+02 0.  0.
         12    1    3    3    0    0  0.17927752480E+02 -0.10413050729E+02  0.38128562522E+02  0.43400728271E+02  0.00000000000E+00 0. -1.
         11    1    4    4    0    0 -0.14310557210E+02  0.12494607990E+01 -0.25464391241E+02  0.29236764894E+02  0.51100000000E-03 0. -1.
        -11    1    4    4    0    0 -0.59223987057E+01  0.55114574802E+01 -0.11530178450E+02  0.14085310978E+02  0.51100000000E-03 0.  1.
         12    1    4    4    0    0  0.23052034351E+01  0.36521324493E+01 -0.11339928305E+01  0.44651958573E+01  0.00000000000E+00 0. -1.
</event>
<event>
 8    1  0.8600524E-011  0.9118800E+02  0.7816164E-02  0.1184000E+00
        -11   -1    0    0    0    0  0.00000000000E+00  0.00000000000E+00  0.45593999997E+02  0.45594000000E+02  0.51100000000E-03 0. -1.
         11   -1    0    0    0    0 -0.00000000000E+00 -0.00000000000E+00 -0.45593999997E+02  0.45594000000E+02  0.51100000000E-03 0.  1.
         23    2    1    2    0    0 -0.35527136788E-14  0.00000000000E+00  0.00000000000E+00  0.91188000000E+02  0.91188000000E+02 0.  0.
    9900012    2    3    3    0    0 -0.29843865476E+02 -0.64844883158E+00 -0.31504707017E+02  0.47787270090E+02  0.19999995648E+02 0.  0.
         12    1    3    3    0    0  0.29843865476E+02  0.64844883158E+00  0.31504707017E+02  0.43400729910E+02  0.00000000000E+00 0. -1.
         11    1    4    4    0    0 -0.54850102464E+01  0.72701003993E+00  0.23413194599E+01  0.60079662180E+01  0.51100000000E-03 0. -1.
        -11    1    4    4    0    0 -0.22488012605E+02 -0.68134291146E+00 -0.31039414410E+02  0.38335625550E+02  0.51100000000E-03 0.  1.
         12    1    4    4    0    0 -0.18708426247E+01 -0.69411596005E+00 -0.28066120672E+01  0.34436783223E+01  0.00000000000E+00 0. -1.
</event>
<event>
 8    1  0.8600524E-011  0.9118800E+02  0.7816164E-02  0.1184000E+00
        -11   -1    0    0    0    0  0.00000000000E+00  0.00000000000E+00  0.45593999997E+02  0.45594000000E+02  0.51100000000E-03 0. -1.
         11   -1    0    0    0    0 -0.00000000000E+00 -0.00000000000E+00 -0.45593999997E+02  0.45594000000E+02  0.51100000000E-03 0.  1.
         23    2    1    2    0    0  0.35527136788E-14  0.00000000000E+00 -0.35527136788E-14  0.91188000000E+02  0.91188000000E+02 0.  0.
    9900012    2    3    3    0    0 -0.24224343689E+02  0.25491490750E+02  0.25435971337E+02  0.47787267683E+02  0.19999984674E+02 0.  0.
        -12    1    3    3    0    0  0.24224343689E+02 -0.25491490750E+02 -0.25435971337E+02  0.43400732317E+02  0.00000000000E+00 0.  1.
         11    1    4    4    0    0 -0.16865114763E+02  0.14480824073E+02  0.21638199901E+02  0.31021574058E+02  0.51100000000E-03 0. -1.
        -11    1    4    4    0    0  0.13993046500E+01  0.61418838189E+01  0.11836839854E+01  0.64095162366E+01  0.51100000000E-03 0.  1.
        -12    1    4    4    0    0 -0.87585335753E+01  0.48687828572E+01  0.26140874508E+01  0.10356177388E+02  0.00000000000E+00 0.  1.
</event>
<event>
 8    1  0.8600524E-011  0.9118800E+02  0.7816164E-02  0.1184000E+00
        -11   -1    0    0    0    0  0.00000000000E+00  0.00000000000E+00  0.45593999997E+02  0.45594000000E+02  0.51100000000E-03 0.  1.
         11   -1    0    0    0    0 -0.00000000000E+00 -0.00000000000E+00 -0.45593999997E+02  0.45594000000E+02  0.51100000000E-03 0. -1.
         23    2    1    2    0    0 -0.88817841970E-15  0.00000000000E+00  0.00000000000E+00  0.91188000000E+02  0.91188000000E+02 0.  0.
    9900012    2    3    3    0    0 -0.73672963196E+01  0.41268943331E+02 -0.11234789293E+02  0.47787271560E+02  0.20000002349E+02 0.  0.
        -12    1    3    3    0    0  0.73672963196E+01 -0.41268943331E+02  0.11234789293E+02  0.43400728440E+02  0.00000000000E+00 0.  1.
         11    1    4    4    0    0 -0.89446766756E+01  0.18042898987E+02 -0.11789195981E+02  0.23335350583E+02  0.51100000000E-03 0. -1.
        -11    1    4    4    0    0  0.33256812713E+01  0.45584392178E+01 -0.55469623709E+00  0.56698511618E+01  0.51100000000E-03 0.  1.
         12    1    4    4    0    0 -0.17483009153E+01  0.18667605126E+02  0.11091029251E+01  0.18782069815E+02  0.00000000000E+00 0. -1.
</event>
<event>
 8    1  0.8600524E-011  0.9118800E+02  0.7816164E-02  0.1184000E+00
        -11   -1    0    0    0    0  0.00000000000E+00  0.00000000000E+00  0.45593999997E+02  0.45594000000E+02  0.51100000000E-03 0. -1.
         11   -1    0    0    0    0 -0.00000000000E+00 -0.00000000000E+00 -0.45593999997E+02  0.45594000000E+02  0.51100000000E-03 0.  1.
         23    2    1    2    0    0  0.00000000000E+00  0.00000000000E+00  0.00000000000E+00  0.91188000000E+02  0.91188000000E+02 0.  0.
    9900012    2    3    3    0    0 -0.16671815974E+02 -0.19011449727E+02  0.35273768434E+02  0.47787269498E+02  0.19999992948E+02 0.  0.
        -12    1    3    3    0    0  0.16671815974E+02  0.19011449727E+02 -0.35273768434E+02  0.43400730502E+02  0.00000000000E+00 0.  1.
         11    1    4    4    0    0 -0.46575696745E+01 -0.39261250838E+01  0.10486399259E+02  0.12127323823E+02  0.51100000000E-03 0. -1.
        -11    1    4    4    0    0 -0.57570392386E+01 -0.17870046047E+02  0.18656166998E+02  0.26467614434E+02  0.51100000000E-03 0.  1.
        -12    1    4    4    0    0 -0.62572070611E+01  0.27847214032E+01  0.61312021770E+01  0.91923312405E+01  0.00000000000E+00 0.  1.
</event>
<event>
 8    1  0.8600524E-011  0.9118800E+02  0.7816164E-02  0.1184000E+00
        -11   -1    0    0    0    0  0.00000000000E+00  0.00000000000E+00  0.45593999997E+02  0.45594000000E+02  0.51100000000E-03 0. -1.
         11   -1    0    0    0    0 -0.00000000000E+00 -0.00000000000E+00 -0.45593999997E+02  0.45594000000E+02  0.51100000000E-03 0.  1.
         23    2    1    2    0    0  0.00000000000E+00  0.00000000000E+00  0.35527136788E-14  0.91188000000E+02  0.91188000000E+02 0.  0.
    9900012    2    3    3    0    0  0.25290472235E+02  0.18493816558E+02  0.30033216407E+02  0.47787270461E+02  0.19999997339E+02 0.  0.
        -12    1    3    3    0    0 -0.25290472235E+02 -0.18493816558E+02 -0.30033216407E+02  0.43400729539E+02  0.00000000000E+00 0.  1.
         11    1    4    4    0    0  0.51889254224E+01  0.10332526265E+01  0.13301897364E+02  0.14315482241E+02  0.51100000000E-03 0. -1.
        -11    1    4    4    0    0  0.18445638259E+02  0.95347712131E+01  0.13422802132E+02  0.24724988376E+02  0.51100000000E-03 0.  1.
        -12    1    4    4    0    0  0.16559085533E+01  0.79257927189E+01  0.33085169111E+01  0.87467998440E+01  0.00000000000E+00 0.  1.
</event>
<event>
 8    1  0.8600524E-011  0.9118800E+02  0.7816164E-02  0.1184000E+00
        -11   -1    0    0    0    0  0.00000000000E+00  0.00000000000E+00  0.45593999997E+02  0.45594000000E+02  0.51100000000E-03 0. -1.
         11   -1    0    0    0    0 -0.00000000000E+00 -0.00000000000E+00 -0.45593999997E+02  0.45594000000E+02  0.51100000000E-03 0.  1.
         23    2    1    2    0    0  0.88817841970E-15  0.00000000000E+00  0.00000000000E+00  0.91188000000E+02  0.91188000000E+02 0.  0.
    9900012    2    3    3    0    0  0.66586935406E+01  0.10263514663E+02  0.41640670088E+02  0.47787270303E+02  0.19999996618E+02 0.  0.
        -12    1    3    3    0    0 -0.66586935406E+01 -0.10263514663E+02 -0.41640670088E+02  0.43400729697E+02  0.00000000000E+00 0.  1.
         11    1    4    4    0    0  0.11480128345E+02  0.71162917045E+01  0.27680649579E+02  0.30800216166E+02  0.51100000000E-03 0. -1.
        -11    1    4    4    0    0  0.16666651621E+01 -0.36544782425E+00  0.55159353244E+01  0.57738087637E+01  0.51100000000E-03 0.  1.
         12    1    4    4    0    0 -0.64880999670E+01  0.35126707827E+01  0.84440851840E+01  0.11213245373E+02  0.00000000000E+00 0. -1.
</event>
<event>
 8    1  0.8600524E-011  0.9118800E+02  0.7816164E-02  0.1184000E+00
        -11   -1    0    0    0    0  0.00000000000E+00  0.00000000000E+00  0.45593999997E+02  0.45594000000E+02  0.51100000000E-03 0. -1.
         11   -1    0    0    0    0 -0.00000000000E+00 -0.00000000000E+00 -0.45593999997E+02  0.45594000000E+02  0.51100000000E-03 0.  1.
         23    2    1    2    0    0  0.00000000000E+00 -0.17763568394E-14  0.71054273576E-14  0.91188000000E+02  0.91188000000E+02 0.  0.
    9900012    2    3    3    0    0  0.25670860863E+02 -0.93536503161E+01  0.33721501673E+02  0.47787267900E+02  0.19999985665E+02 0.  0.
        -12    1    3    3    0    0 -0.25670860863E+02  0.93536503161E+01 -0.33721501673E+02  0.43400732100E+02  0.00000000000E+00 0.  1.
         11    1    4    4    0    0  0.89191985397E+01 -0.15507431055E+01  0.10246178161E+02  0.13672639611E+02  0.51100000000E-03 0. -1.
        -11    1    4    4    0    0  0.15815259775E+02 -0.11836696350E+02  0.15430323849E+02  0.25066406137E+02  0.51100000000E-03 0.  1.
        -12    1    4    4    0    0  0.93640254861E+00  0.40337891397E+01  0.80449996623E+01  0.90482221526E+01  0.00000000000E+00 0.  1.
</event>
<event>
 8    1  0.8600524E-011  0.9118800E+02  0.7816164E-02  0.1184000E+00
        -11   -1    0    0    0    0  0.00000000000E+00  0.00000000000E+00  0.45593999997E+02  0.45594000000E+02  0.51100000000E-03 0. -1.
         11   -1    0    0    0    0 -0.00000000000E+00 -0.00000000000E+00 -0.45593999997E+02  0.45594000000E+02  0.51100000000E-03 0.  1.
         23    2    1    2    0    0  0.35527136788E-14 -0.88817841970E-15  0.00000000000E+00  0.91188000000E+02  0.91188000000E+02 0.  0.
    9900012    2    3    3    0    0  0.17897494952E+02 -0.42022866003E+01  0.39314678243E+02  0.47787268859E+02  0.19999990036E+02 0.  0.
        -12    1    3    3    0    0 -0.17897494952E+02  0.42022866003E+01 -0.39314678243E+02  0.43400731141E+02  0.00000000000E+00 0.  1.
         11    1    4    4    0    0  0.16865133147E+02  0.19382604690E+00  0.38197395508E+02  0.41755374606E+02  0.51100000000E-03 0. -1.
        -11    1    4    4    0    0 -0.16953422366E+00 -0.36304736900E+01  0.21944451310E+01  0.42455471686E+01  0.51100000000E-03 0.  1.
         12    1    4    4    0    0  0.12018960288E+01 -0.76563895722E+00 -0.10771623968E+01  0.17863470844E+01  0.00000000000E+00 0. -1.
</event>
<event>
 8    1  0.8600524E-011  0.9118800E+02  0.7816164E-02  0.1184000E+00
        -11   -1    0    0    0    0  0.00000000000E+00  0.00000000000E+00  0.45593999997E+02  0.45594000000E+02  0.51100000000E-03 0. -1.
         11   -1    0    0    0    0 -0.00000000000E+00 -0.00000000000E+00 -0.45593999997E+02  0.45594000000E+02  0.51100000000E-03 0.  1.
         23    2    1    2    0    0  0.17763568394E-14  0.00000000000E+00  0.35527136788E-14  0.91188000000E+02  0.91188000000E+02 0.  0.
    9900012    2    3    3    0    0  0.15186233546E+02  0.28421235039E+02  0.29072924556E+02  0.47787271519E+02  0.20000002165E+02 0.  0.
        -12    1    3    3    0    0 -0.15186233546E+02 -0.28421235039E+02 -0.29072924556E+02  0.43400728481E+02  0.00000000000E+00 0.  1.
         11    1    4    4    0    0  0.58014892500E+01  0.16466992325E+02  0.21958002077E+02  0.28053038503E+02  0.51100000000E-03 0. -1.
        -11    1    4    4    0    0  0.10612614795E+02  0.57691337719E+01  0.51283769387E+01  0.13122909264E+02  0.51100000000E-03 0.  1.
        -12    1    4    4    0    0 -0.12278704992E+01  0.61851089416E+01  0.19865455402E+01  0.66113237529E+01  0.00000000000E+00 0.  1.
</event>
<event>
 8    1  0.8600524E-011  0.9118800E+02  0.7816164E-02  0.1184000E+00
        -11   -1    0    0    0    0  0.00000000000E+00  0.00000000000E+00  0.45593999997E+02  0.45594000000E+02  0.51100000000E-03 0. -1.
         11   -1    0    0    0    0 -0.00000000000E+00 -0.00000000000E+00 -0.45593999997E+02  0.45594000000E+02  0.51100000000E-03 0.  1.
         23    2    1    2    0    0  0.35527136788E-14  0.00000000000E+00  0.00000000000E+00  0.91188000000E+02  0.91188000000E+02 0.  0.
    9900012    2    3    3    0    0  0.19873809069E+02  0.88662128608E+01  0.37550550569E+02  0.47787287270E+02  0.20000073980E+02 0.  0.
        -12    1    3    3    0    0 -0.19873809069E+02 -0.88662128608E+01 -0.37550550569E+02  0.43400712730E+02  0.00000000000E+00 0.  1.
         11    1    4    4    0    0  0.59526282703E+01  0.13342826014E+01  0.13623990974E+02  0.14927398424E+02  0.51100000000E-03 0. -1.
        -11    1    4    4    0    0  0.76003183060E+01  0.12107341956E+02  0.12305087595E+02  0.18861806610E+02  0.51100000000E-03 0.  1.
        -12    1    4    4    0    0  0.63208624931E+01 -0.45754116970E+01  0.11621472000E+02  0.13998082237E+02  0.00000000000E+00 0.  1.
</event>
<event>
 8    1  0.8600524E-011  0.9118800E+02  0.7816164E-02  0.1184000E+00
        -11   -1    0    0    0    0  0.00000000000E+00  0.00000000000E+00  0.45593999997E+02  0.45594000000E+02  0.51100000000E-03 0. -1.
         11   -1    0    0    0    0 -0.00000000000E+00 -0.00000000000E+00 -0.45593999997E+02  0.45594000000E+02  0.51100000000E-03 0.  1.
         23    2    1    2    0    0  0.17763568394E-14  0.00000000000E+00  0.00000000000E+00  0.91188000000E+02  0.91188000000E+02 0.  0.
    9900012    2    3    3    0    0  0.15057566131E+02 -0.10890397753E+02  0.39221063461E+02  0.47787275581E+02  0.20000020686E+02 0.  0.
        -12    1    3    3    0    0 -0.15057566131E+02  0.10890397753E+02 -0.39221063461E+02  0.43400724419E+02  0.00000000000E+00 0.  1.
         11    1    4    4    0    0  0.10184825052E+02 -0.87799571857E+01  0.18931252951E+02  0.23220909717E+02  0.51100000000E-03 0. -1.
        -11    1    4    4    0    0 -0.22669991495E+01  0.59500215441E+00  0.15224367827E+02  0.15403723209E+02  0.51100000000E-03 0.  1.
        -12    1    4    4    0    0  0.71397402288E+01 -0.27054427219E+01  0.50654426835E+01  0.91626426557E+01  0.00000000000E+00 0.  1.
</event>
<event>
 8    1  0.8600524E-011  0.9118800E+02  0.7816164E-02  0.1184000E+00
        -11   -1    0    0    0    0  0.00000000000E+00  0.00000000000E+00  0.45593999997E+02  0.45594000000E+02  0.51100000000E-03 0. -1.
         11   -1    0    0    0    0 -0.00000000000E+00 -0.00000000000E+00 -0.45593999997E+02  0.45594000000E+02  0.51100000000E-03 0.  1.
         23    2    1    2    0    0 -0.35527136788E-14  0.00000000000E+00  0.00000000000E+00  0.91188000000E+02  0.91188000000E+02 0.  0.
    9900012    2    3    3    0    0  0.24143888111E+02  0.16113725704E+02  0.32265213419E+02  0.47787268599E+02  0.19999988849E+02 0.  0.
        -12    1    3    3    0    0 -0.24143888111E+02 -0.16113725704E+02 -0.32265213419E+02  0.43400731401E+02  0.00000000000E+00 0.  1.
         11    1    4    4    0    0  0.16608582382E+02  0.66997488822E+01  0.26165970078E+02  0.31707879687E+02  0.51100000000E-03 0. -1.
        -11    1    4    4    0    0  0.19859654081E+01  0.38195762312E+00 -0.19189506644E+01  0.27878884737E+01  0.51100000000E-03 0.  1.
         12    1    4    4    0    0  0.55493403206E+01  0.90320191982E+01  0.80181940055E+01  0.13291500438E+02  0.00000000000E+00 0. -1.
</event>
<event>
 8    1  0.8600524E-011  0.9118800E+02  0.7816164E-02  0.1184000E+00
        -11   -1    0    0    0    0  0.00000000000E+00  0.00000000000E+00  0.45593999997E+02  0.45594000000E+02  0.51100000000E-03 0. -1.
         11   -1    0    0    0    0 -0.00000000000E+00 -0.00000000000E+00 -0.45593999997E+02  0.45594000000E+02  0.51100000000E-03 0.  1.
         23    2    1    2    0    0  0.00000000000E+00 -0.35527136788E-14  0.00000000000E+00  0.91188000000E+02  0.91188000000E+02 0.  0.
    9900012    2    3    3    0    0  0.20929005621E+02  0.25649455581E+02 -0.28066092837E+02  0.47787269419E+02  0.19999992587E+02 0.  0.
         12    1    3    3    0    0 -0.20929005621E+02 -0.25649455581E+02  0.28066092837E+02  0.43400730581E+02  0.00000000000E+00 0. -1.
         11    1    4    4    0    0 -0.13084558039E+01 -0.26802811152E+00 -0.36545770817E+01  0.38909933908E+01  0.51100000000E-03 0. -1.
        -11    1    4    4    0    0  0.23921833022E+02  0.24178122467E+02 -0.23328489064E+02  0.41243837157E+02  0.51100000000E-03 0.  1.
        -12    1    4    4    0    0 -0.16843715973E+01  0.17393612254E+01 -0.10830266910E+01  0.26524388708E+01  0.00000000000E+00 0.  1.
</event>
<event>
 8    1  0.8600524E-011  0.9118800E+02  0.7816164E-02  0.1184000E+00
        -11   -1    0    0    0    0  0.00000000000E+00  0.00000000000E+00  0.45593999997E+02  0.45594000000E+02  0.51100000000E-03 0. -1.
         11   -1    0    0    0    0 -0.00000000000E+00 -0.00000000000E+00 -0.45593999997E+02  0.45594000000E+02  0.51100000000E-03 0.  1.
         23    2    1    2    0    0  0.00000000000E+00 -0.17763568394E-14  0.00000000000E+00  0.91188000000E+02  0.91188000000E+02 0.  0.
    9900012    2    3    3    0    0 -0.90675571885E+01  0.15351750405E+02 -0.39569266356E+02  0.47787266437E+02  0.19999978992E+02 0.  0.
         12    1    3    3    0    0  0.90675571885E+01 -0.15351750405E+02  0.39569266356E+02  0.43400733563E+02  0.00000000000E+00 0. -1.
         11    1    4    4    0    0  0.25984273497E+01  0.67877561335E-01 -0.79144301822E+00  0.27171334835E+01  0.51100000000E-03 0. -1.
        -11    1    4    4    0    0 -0.10905759893E+02  0.17281957686E+02 -0.37087369842E+02  0.42344712331E+02  0.51100000000E-03 0.  1.
        -12    1    4    4    0    0 -0.76022464484E+00 -0.19980848424E+01 -0.16904534956E+01  0.27254206224E+01  0.00000000000E+00 0.  1.
</event>
<event>
 8    1  0.8600524E-011  0.9118800E+02  0.7816164E-02  0.1184000E+00
        -11   -1    0    0    0    0  0.00000000000E+00  0.00000000000E+00  0.45593999997E+02  0.45594000000E+02  0.51100000000E-03 0. -1.
         11   -1    0    0    0    0 -0.00000000000E+00 -0.00000000000E+00 -0.45593999997E+02  0.45594000000E+02  0.51100000000E-03 0.  1.
         23    2    1    2    0    0  0.00000000000E+00 -0.44408920985E-15  0.00000000000E+00  0.91188000000E+02  0.91188000000E+02 0.  0.
    9900012    2    3    3    0    0 -0.28592928805E+02  0.26098077275E+01 -0.32546220573E+02  0.47787272499E+02  0.20000006631E+02 0.  0.
         12    1    3    3    0    0  0.28592928805E+02 -0.26098077275E+01  0.32546220573E+02  0.43400727501E+02  0.00000000000E+00 0. -1.
         11    1    4    4    0    0 -0.61934421871E+01 -0.54551162545E+01 -0.96464773025E+01  0.12695335525E+02  0.51100000000E-03 0. -1.
        -11    1    4    4    0    0 -0.22445119620E+02  0.69834020551E+01 -0.23968025715E+02  0.33571082139E+02  0.51100000000E-03 0.  1.
        -12    1    4    4    0    0  0.45633001442E-01  0.10815219270E+01  0.10682824448E+01  0.15208548357E+01  0.00000000000E+00 0.  1.
</event>
<event>
 8    1  0.8600524E-011  0.9118800E+02  0.7816164E-02  0.1184000E+00
        -11   -1    0    0    0    0  0.00000000000E+00  0.00000000000E+00  0.45593999997E+02  0.45594000000E+02  0.51100000000E-03 0. -1.
         11   -1    0    0    0    0 -0.00000000000E+00 -0.00000000000E+00 -0.45593999997E+02  0.45594000000E+02  0.51100000000E-03 0.  1.
         23    2    1    2    0    0  0.00000000000E+00 -0.71054273576E-14  0.00000000000E+00  0.91188000000E+02  0.91188000000E+02 0.  0.
    9900012    2    3    3    0    0  0.49208021873E+01  0.42759152752E+02  0.55734939636E+01  0.47787271053E+02  0.20000000037E+02 0.  0.
        -12    1    3    3    0    0 -0.49208021873E+01 -0.42759152752E+02 -0.55734939636E+01  0.43400728947E+02  0.00000000000E+00 0.  1.
         11    1    4    4    0    0  0.15722962904E+01  0.22987797719E+02  0.77935738707E+01  0.24323872092E+02  0.51100000000E-03 0. -1.
        -11    1    4    4    0    0  0.77327237207E+01  0.12114688050E+02 -0.28477207188E-01  0.14372247351E+02  0.51100000000E-03 0.  1.
        -12    1    4    4    0    0 -0.43842178239E+01  0.76566669825E+01 -0.21916026999E+01  0.90911516104E+01  0.00000000000E+00 0.  1.
</event>
<event>
 8    1  0.8600524E-011  0.9118800E+02  0.7816164E-02  0.1184000E+00
        -11   -1    0    0    0    0  0.00000000000E+00  0.00000000000E+00  0.45593999997E+02  0.45594000000E+02  0.51100000000E-03 0.  1.
         11   -1    0    0    0    0 -0.00000000000E+00 -0.00000000000E+00 -0.45593999997E+02  0.45594000000E+02  0.51100000000E-03 0. -1.
         23    2    1    2    0    0  0.35527136788E-14  0.00000000000E+00  0.00000000000E+00  0.91188000000E+02  0.91188000000E+02 0.  0.
    9900012    2    3    3    0    0  0.20428036734E+02 -0.33754394571E+02  0.18081975632E+02  0.47787289402E+02  0.20000083699E+02 0.  0.
         12    1    3    3    0    0 -0.20428036734E+02  0.33754394571E+02 -0.18081975632E+02  0.43400710598E+02  0.00000000000E+00 0. -1.
         11    1    4    4    0    0  0.33278146369E+01 -0.35899909644E+00 -0.19262266067E+01  0.38618104317E+01  0.51100000000E-03 0. -1.
        -11    1    4    4    0    0  0.14279683728E+02 -0.31468317191E+02  0.20912519873E+02  0.40391804143E+02  0.51100000000E-03 0.  1.
        -12    1    4    4    0    0  0.28205383693E+01 -0.19270782832E+01 -0.90431763410E+00  0.35336748274E+01  0.00000000000E+00 0.  1.
</event>
<event>
 8    1  0.8600524E-011  0.9118800E+02  0.7816164E-02  0.1184000E+00
        -11   -1    0    0    0    0  0.00000000000E+00  0.00000000000E+00  0.45593999997E+02  0.45594000000E+02  0.51100000000E-03 0. -1.
         11   -1    0    0    0    0 -0.00000000000E+00 -0.00000000000E+00 -0.45593999997E+02  0.45594000000E+02  0.51100000000E-03 0.  1.
         23    2    1    2    0    0  0.00000000000E+00  0.00000000000E+00  0.00000000000E+00  0.91188000000E+02  0.91188000000E+02 0.  0.
    9900012    2    3    3    0    0 -0.12670950236E+02  0.19961186234E+02 -0.36395385741E+02  0.47787239189E+02  0.19999854757E+02 0.  0.
         12    1    3    3    0    0  0.12670950236E+02 -0.19961186234E+02  0.36395385741E+02  0.43400760811E+02  0.00000000000E+00 0. -1.
         11    1    4    4    0    0  0.18806446567E+01 -0.24298567095E+01 -0.39651114782E+01  0.50162871976E+01  0.51100000000E-03 0. -1.
        -11    1    4    4    0    0 -0.10755401258E+02  0.94887436748E+01 -0.18487485092E+02  0.23398761036E+02  0.51100000000E-03 0.  1.
        -12    1    4    4    0    0 -0.37961936349E+01  0.12902299268E+02 -0.13942789171E+02  0.19372190955E+02  0.00000000000E+00 0.  1.
</event>
<event>
 8    1  0.8600524E-011  0.9118800E+02  0.7816164E-02  0.1184000E+00
        -11   -1    0    0    0    0  0.00000000000E+00  0.00000000000E+00  0.45593999997E+02  0.45594000000E+02  0.51100000000E-03 0. -1.
         11   -1    0    0    0    0 -0.00000000000E+00 -0.00000000000E+00 -0.45593999997E+02  0.45594000000E+02  0.51100000000E-03 0.  1.
         23    2    1    2    0    0  0.00000000000E+00  0.17763568394E-14  0.00000000000E+00  0.91188000000E+02  0.91188000000E+02 0.  0.
    9900012    2    3    3    0    0 -0.29125173182E+02 -0.12592875441E+02 -0.29610264352E+02  0.47787262912E+02  0.19999962922E+02 0.  0.
         12    1    3    3    0    0  0.29125173182E+02  0.12592875441E+02  0.29610264352E+02  0.43400737088E+02  0.00000000000E+00 0. -1.
         11    1    4    4    0    0 -0.56575325190E+01 -0.12068176401E+01 -0.16096348024E+02  0.17104283177E+02  0.51100000000E-03 0. -1.
        -11    1    4    4    0    0 -0.78326304958E+01 -0.28341591700E+01 -0.90734843246E+01  0.12317088809E+02  0.51100000000E-03 0.  1.
         12    1    4    4    0    0 -0.15635010167E+02 -0.85518986307E+01 -0.44404320029E+01  0.18365890926E+02  0.00000000000E+00 0. -1.
</event>
<event>
 8    1  0.8600524E-011  0.9118800E+02  0.7816164E-02  0.1184000E+00
        -11   -1    0    0    0    0  0.00000000000E+00  0.00000000000E+00  0.45593999997E+02  0.45594000000E+02  0.51100000000E-03 0. -1.
         11   -1    0    0    0    0 -0.00000000000E+00 -0.00000000000E+00 -0.45593999997E+02  0.45594000000E+02  0.51100000000E-03 0.  1.
         23    2    1    2    0    0  0.00000000000E+00  0.00000000000E+00  0.00000000000E+00  0.91188000000E+02  0.91188000000E+02 0.  0.
    9900012    2    3    3    0    0 -0.10764618406E+02 -0.55689737797E+01  0.41674125321E+02  0.47787271899E+02  0.20000003897E+02 0.  0.
        -12    1    3    3    0    0  0.10764618406E+02  0.55689737797E+01 -0.41674125321E+02  0.43400728101E+02  0.00000000000E+00 0.  1.
         11    1    4    4    0    0 -0.29822288815E+01  0.23959504660E+01  0.97163498697E+01  0.10442304477E+02  0.51100000000E-03 0. -1.
        -11    1    4    4    0    0 -0.25247778832E+01  0.55891202250E+00 -0.10950538300E+01  0.28082074639E+01  0.51100000000E-03 0.  1.
        -12    1    4    4    0    0 -0.52576116410E+01 -0.85238362682E+01  0.33052829282E+02  0.34536759958E+02  0.00000000000E+00 0.  1.
</event>
<event>
 8    1  0.8600524E-011  0.9118800E+02  0.7816164E-02  0.1184000E+00
        -11   -1    0    0    0    0  0.00000000000E+00  0.00000000000E+00  0.45593999997E+02  0.45594000000E+02  0.51100000000E-03 0. -1.
         11   -1    0    0    0    0 -0.00000000000E+00 -0.00000000000E+00 -0.45593999997E+02  0.45594000000E+02  0.51100000000E-03 0.  1.
         23    2    1    2    0    0  0.00000000000E+00  0.00000000000E+00 -0.17763568394E-14  0.91188000000E+02  0.91188000000E+02 0.  0.
    9900012    2    3    3    0    0  0.40181497845E+02 -0.43443544865E+01 -0.15817613225E+02  0.47787273357E+02  0.20000010545E+02 0.  0.
         12    1    3    3    0    0 -0.40181497845E+02  0.43443544865E+01  0.15817613225E+02  0.43400726643E+02  0.00000000000E+00 0. -1.
         11    1    4    4    0    0 -0.63615563993E+00 -0.34025341427E+01  0.65763109746E+00  0.35234090753E+01  0.51100000000E-03 0. -1.
        -11    1    4    4    0    0  0.38541193035E+02 -0.22473696245E-01 -0.16146889365E+02  0.41786913047E+02  0.51100000000E-03 0.  1.
         12    1    4    4    0    0  0.22764604506E+01 -0.91934664759E+00 -0.32835495704E+00  0.24769512347E+01  0.00000000000E+00 0. -1.
</event>
<event>
 8    1  0.8600524E-011  0.9118800E+02  0.7816164E-02  0.1184000E+00
        -11   -1    0    0    0    0  0.00000000000E+00  0.00000000000E+00  0.45593999997E+02  0.45594000000E+02  0.51100000000E-03 0. -1.
         11   -1    0    0    0    0 -0.00000000000E+00 -0.00000000000E+00 -0.45593999997E+02  0.45594000000E+02  0.51100000000E-03 0.  1.
         23    2    1    2    0    0  0.00000000000E+00 -0.22204460493E-15  0.00000000000E+00  0.91188000000E+02  0.91188000000E+02 0.  0.
    9900012    2    3    3    0    0 -0.10857732631E+02 -0.46362324871E+00  0.42018067275E+02  0.47787270952E+02  0.19999999578E+02 0.  0.
        -12    1    3    3    0    0  0.10857732631E+02  0.46362324871E+00 -0.42018067275E+02  0.43400729048E+02  0.00000000000E+00 0.  1.
         11    1    4    4    0    0  0.73853780505E+00  0.43102532545E+01  0.89247595989E+01  0.99385640495E+01  0.51100000000E-03 0. -1.
        -11    1    4    4    0    0 -0.87193539386E+01 -0.70776485236E+01  0.32134529384E+02  0.34040391019E+02  0.51100000000E-03 0.  1.
        -12    1    4    4    0    0 -0.28769164976E+01  0.23037720204E+01  0.95877829189E+00  0.38083158836E+01  0.00000000000E+00 0.  1.
</event>
<event>
 8    1  0.8600524E-011  0.9118800E+02  0.7816164E-02  0.1184000E+00
        -11   -1    0    0    0    0  0.00000000000E+00  0.00000000000E+00  0.45593999997E+02  0.45594000000E+02  0.51100000000E-03 0. -1.
         11   -1    0    0    0    0 -0.00000000000E+00 -0.00000000000E+00 -0.45593999997E+02  0.45594000000E+02  0.51100000000E-03 0.  1.
         23    2    1    2    0    0  0.17763568394E-14  0.00000000000E+00  0.71054273576E-14  0.91188000000E+02  0.91188000000E+02 0.  0.
    9900012    2    3    3    0    0 -0.10302566218E+02 -0.33113096100E+01 -0.42029937945E+02  0.47787270448E+02  0.19999997282E+02 0.  0.
         12    1    3    3    0    0  0.10302566218E+02  0.33113096100E+01  0.42029937945E+02  0.43400729552E+02  0.00000000000E+00 0. -1.
         11    1    4    4    0    0 -0.11396671745E+02  0.16357614596E+01 -0.34771290562E+02  0.36627892241E+02  0.51100000000E-03 0. -1.
        -11    1    4    4    0    0 -0.44583360668E+00 -0.43483039523E+01 -0.81748546152E+01  0.92701004907E+01  0.51100000000E-03 0.  1.
         12    1    4    4    0    0  0.15399391341E+01 -0.59876711727E+00  0.91620723259E+00  0.18892777166E+01  0.00000000000E+00 0. -1.
</event>
<event>
 8    1  0.8857466E-011  0.9118800E+02  0.7816164E-02  0.1184000E+00
        -11   -1    0    0    0    0  0.00000000000E+00  0.00000000000E+00  0.45593999997E+02  0.45594000000E+02  0.51100000000E-03 0. -1.
         11   -1    0    0    0    0 -0.00000000000E+00 -0.00000000000E+00 -0.45593999997E+02  0.45594000000E+02  0.51100000000E-03 0.  1.
         23    2    1    2    0    0  0.00000000000E+00  0.17763568394E-14  0.00000000000E+00  0.91188000000E+02  0.91188000000E+02 0.  0.
    9900012    2    3    3    0    0 -0.11464929786E+02  0.10813209458E+02  0.40438263874E+02  0.47787270756E+02  0.19999998685E+02 0.  0.
        -12    1    3    3    0    0  0.11464929786E+02 -0.10813209458E+02 -0.40438263874E+02  0.43400729244E+02  0.00000000000E+00 0.  1.
         11    1    4    4    0    0 -0.37893194627E+01  0.56708352317E+01  0.88122294737E+01  0.11143280611E+02  0.51100000000E-03 0.  1.
        -11    1    4    4    0    0 -0.11178274168E+02 -0.66925755705E-01  0.13887827937E+02  0.17827788912E+02  0.51100000000E-03 0. -1.
        -12    1    4    4    0    0  0.35026638447E+01  0.52092999820E+01  0.17738206463E+02  0.18816201233E+02  0.00000000000E+00 0.  1.
</event>
<event>
 8    1  0.8600524E-011  0.9118800E+02  0.7816164E-02  0.1184000E+00
        -11   -1    0    0    0    0  0.00000000000E+00  0.00000000000E+00  0.45593999997E+02  0.45594000000E+02  0.51100000000E-03 0.  1.
         11   -1    0    0    0    0 -0.00000000000E+00 -0.00000000000E+00 -0.45593999997E+02  0.45594000000E+02  0.51100000000E-03 0. -1.
         23    2    1    2    0    0  0.71054273576E-14  0.17763568394E-14  0.00000000000E+00  0.91188000000E+02  0.91188000000E+02 0.  0.
    9900012    2    3    3    0    0  0.39246787045E+02  0.14989439945E+02  0.10891717152E+02  0.47787272982E+02  0.20000008832E+02 0.  0.
         12    1    3    3    0    0 -0.39246787045E+02 -0.14989439945E+02 -0.10891717152E+02  0.43400727018E+02  0.00000000000E+00 0. -1.
         11    1    4    4    0    0  0.20678675821E+02  0.31784092359E+01 -0.12083284046E+01  0.20956382722E+02  0.51100000000E-03 0. -1.
        -11    1    4    4    0    0  0.33327267662E+00  0.39869534419E+01  0.11278329653E+01  0.41567867258E+01  0.51100000000E-03 0.  1.
         12    1    4    4    0    0  0.18234838547E+02  0.78240772673E+01  0.10972212592E+02  0.22674103534E+02  0.00000000000E+00 0. -1.
</event>
<event>
 8    1  0.8600524E-011  0.9118800E+02  0.7816164E-02  0.1184000E+00
        -11   -1    0    0    0    0  0.00000000000E+00  0.00000000000E+00  0.45593999997E+02  0.45594000000E+02  0.51100000000E-03 0. -1.
         11   -1    0    0    0    0 -0.00000000000E+00 -0.00000000000E+00 -0.45593999997E+02  0.45594000000E+02  0.51100000000E-03 0.  1.
         23    2    1    2    0    0  0.00000000000E+00  0.00000000000E+00  0.00000000000E+00  0.91188000000E+02  0.91188000000E+02 0.  0.
    9900012    2    3    3    0    0 -0.20856509645E+02 -0.33085131181E+02 -0.18814977943E+02  0.47787270803E+02  0.19999998900E+02 0.  0.
         12    1    3    3    0    0  0.20856509645E+02  0.33085131181E+02  0.18814977943E+02  0.43400729197E+02  0.00000000000E+00 0. -1.
         11    1    4    4    0    0 -0.16574064886E+02 -0.10266969793E+02 -0.67054569640E+01  0.20617309450E+02  0.51100000000E-03 0. -1.
        -11    1    4    4    0    0 -0.58105510620E+01 -0.15434503519E+02 -0.63119218084E+01  0.17658617151E+02  0.51100000000E-03 0.  1.
         12    1    4    4    0    0  0.15281063030E+01 -0.73836578684E+01 -0.57975991704E+01  0.95113442022E+01  0.00000000000E+00 0. -1.
</event>
<event>
 8    1  0.8600524E-011  0.9118800E+02  0.7816164E-02  0.1184000E+00
        -11   -1    0    0    0    0  0.00000000000E+00  0.00000000000E+00  0.45593999997E+02  0.45594000000E+02  0.51100000000E-03 0. -1.
         11   -1    0    0    0    0 -0.00000000000E+00 -0.00000000000E+00 -0.45593999997E+02  0.45594000000E+02  0.51100000000E-03 0.  1.
         23    2    1    2    0    0 -0.13322676296E-14  0.00000000000E+00  0.00000000000E+00  0.91188000000E+02  0.91188000000E+02 0.  0.
    9900012    2    3    3    0    0 -0.25182755952E+01  0.28602763960E+02 -0.32544790695E+02  0.47787271671E+02  0.20000002856E+02 0.  0.
         12    1    3    3    0    0  0.25182755952E+01 -0.28602763960E+02  0.32544790695E+02  0.43400728329E+02  0.00000000000E+00 0. -1.
         11    1    4    4    0    0 -0.76464102247E+01  0.10931564501E+02 -0.72737369076E+01  0.15194536539E+02  0.51100000000E-03 0. -1.
        -11    1    4    4    0    0  0.24008191259E+01  0.15672175365E+02 -0.24403496048E+02  0.29101746215E+02  0.51100000000E-03 0.  1.
         12    1    4    4    0    0  0.27273155036E+01  0.19990240938E+01 -0.86755773891E+00  0.34909889164E+01  0.00000000000E+00 0. -1.
</event>
<event>
 8    1  0.8600524E-011  0.9118800E+02  0.7816164E-02  0.1184000E+00
        -11   -1    0    0    0    0  0.00000000000E+00  0.00000000000E+00  0.45593999997E+02  0.45594000000E+02  0.51100000000E-03 0. -1.
         11   -1    0    0    0    0 -0.00000000000E+00 -0.00000000000E+00 -0.45593999997E+02  0.45594000000E+02  0.51100000000E-03 0.  1.
         23    2    1    2    0    0  0.44408920985E-15  0.00000000000E+00  0.35527136788E-14  0.91188000000E+02  0.91188000000E+02 0.  0.
    9900012    2    3    3    0    0 -0.27293726658E+01 -0.30616882889E+02 -0.30639518761E+02  0.47787273014E+02  0.20000008980E+02 0.  0.
         12    1    3    3    0    0  0.27293726658E+01  0.30616882889E+02  0.30639518761E+02  0.43400726986E+02  0.00000000000E+00 0. -1.
         11    1    4    4    0    0 -0.27566662854E+01 -0.18348057657E+02 -0.74068091101E+01  0.19977768901E+02  0.51100000000E-03 0. -1.
        -11    1    4    4    0    0  0.29136188306E+01 -0.11693914634E+02 -0.16243388189E+02  0.20225836800E+02  0.51100000000E-03 0.  1.
         12    1    4    4    0    0 -0.28863252109E+01 -0.57491059894E+00 -0.69893214621E+01  0.75836673134E+01  0.00000000000E+00 0. -1.
</event>
<event>
 8    1  0.8600524E-011  0.9118800E+02  0.7816164E-02  0.1184000E+00
        -11   -1    0    0    0    0  0.00000000000E+00  0.00000000000E+00  0.45593999997E+02  0.45594000000E+02  0.51100000000E-03 0. -1.
         11   -1    0    0    0    0 -0.00000000000E+00 -0.00000000000E+00 -0.45593999997E+02  0.45594000000E+02  0.51100000000E-03 0.  1.
         23    2    1    2    0    0  0.44408920985E-15  0.00000000000E+00  0.00000000000E+00  0.91188000000E+02  0.91188000000E+02 0.  0.
    9900012    2    3    3    0    0  0.31307473700E+01 -0.27668329565E+02 -0.33290916799E+02  0.47787272110E+02  0.20000004860E+02 0.  0.
         12    1    3    3    0    0 -0.31307473700E+01  0.27668329565E+02  0.33290916799E+02  0.43400727890E+02  0.00000000000E+00 0. -1.
         11    1    4    4    0    0  0.74650146391E+01 -0.91203992346E+01 -0.66477826161E+01  0.13531486974E+02  0.51100000000E-03 0. -1.
        -11    1    4    4    0    0 -0.36665535947E+00 -0.16826671222E+02 -0.23517685388E+02  0.28919765332E+02  0.51100000000E-03 0.  1.
         12    1    4    4    0    0 -0.39676119097E+01 -0.17212591088E+01 -0.31254487946E+01  0.53360198045E+01  0.00000000000E+00 0. -1.
</event>
<event>
 8    1  0.8600524E-011  0.9118800E+02  0.7816164E-02  0.1184000E+00
        -11   -1    0    0    0    0  0.00000000000E+00  0.00000000000E+00  0.45593999997E+02  0.45594000000E+02  0.51100000000E-03 0. -1.
         11   -1    0    0    0    0 -0.00000000000E+00 -0.00000000000E+00 -0.45593999997E+02  0.45594000000E+02  0.51100000000E-03 0.  1.
         23    2    1    2    0    0  0.35527136788E-14 -0.17763568394E-14  0.00000000000E+00  0.91188000000E+02  0.91188000000E+02 0.  0.
    9900012    2    3    3    0    0  0.26053751509E+02 -0.14249809928E+02  0.31650722789E+02  0.47787270700E+02  0.19999998430E+02 0.  0.
        -12    1    3    3    0    0 -0.26053751509E+02  0.14249809928E+02 -0.31650722789E+02  0.43400729300E+02  0.00000000000E+00 0.  1.
         11    1    4    4    0    0  0.51360190008E+01 -0.13184169641E+02  0.97153002816E+01  0.17163568397E+02  0.51100000000E-03 0. -1.
        -11    1    4    4    0    0  0.12751320097E+02  0.11519863480E+01  0.11708128711E+02  0.17349452871E+02  0.51100000000E-03 0.  1.
         12    1    4    4    0    0  0.81664124115E+01 -0.22176266346E+01  0.10227293797E+02  0.13274249432E+02  0.00000000000E+00 0. -1.
</event>
<event>
 8    1  0.8600524E-011  0.9118800E+02  0.7816164E-02  0.1184000E+00
        -11   -1    0    0    0    0  0.00000000000E+00  0.00000000000E+00  0.45593999997E+02  0.45594000000E+02  0.51100000000E-03 0. -1.
         11   -1    0    0    0    0 -0.00000000000E+00 -0.00000000000E+00 -0.45593999997E+02  0.45594000000E+02  0.51100000000E-03 0.  1.
         23    2    1    2    0    0  0.88817841970E-15 -0.44408920985E-15  0.71054273576E-14  0.91188000000E+02  0.91188000000E+02 0.  0.
    9900012    2    3    3    0    0  0.68002269707E+01 -0.27699296326E+01  0.42775085083E+02  0.47787268429E+02  0.19999988075E+02 0.  0.
        -12    1    3    3    0    0 -0.68002269707E+01  0.27699296326E+01 -0.42775085083E+02  0.43400731571E+02  0.00000000000E+00 0.  1.
         11    1    4    4    0    0  0.46371556969E+01 -0.20438953012E+01  0.25751697622E+01  0.56843839178E+01  0.51100000000E-03 0. -1.
        -11    1    4    4    0    0  0.52286070268E+01 -0.25631288527E+01  0.36489569482E+02  0.36951273891E+02  0.51100000000E-03 0.  1.
        -12    1    4    4    0    0 -0.30655357530E+01  0.18370945213E+01  0.37103458390E+01  0.51516106198E+01  0.00000000000E+00 0.  1.
</event>
<event>
 8    1  0.8600524E-011  0.9118800E+02  0.7816164E-02  0.1184000E+00
        -11   -1    0    0    0    0  0.00000000000E+00  0.00000000000E+00  0.45593999997E+02  0.45594000000E+02  0.51100000000E-03 0.  1.
         11   -1    0    0    0    0 -0.00000000000E+00 -0.00000000000E+00 -0.45593999997E+02  0.45594000000E+02  0.51100000000E-03 0. -1.
         23    2    1    2    0    0  0.00000000000E+00  0.00000000000E+00  0.00000000000E+00  0.91188000000E+02  0.91188000000E+02 0.  0.
    9900012    2    3    3    0    0 -0.12409941057E+02 -0.31276120226E+02  0.27412059267E+02  0.47787270436E+02  0.19999997225E+02 0.  0.
        -12    1    3    3    0    0  0.12409941057E+02  0.31276120226E+02 -0.27412059267E+02  0.43400729564E+02  0.00000000000E+00 0.  1.
         11    1    4    4    0    0  0.89494699251E+00 -0.12883641915E+02  0.18125896330E+02  0.22256173911E+02  0.51100000000E-03 0.  1.
        -11    1    4    4    0    0 -0.10156771409E+02 -0.17919326158E+02  0.81346210186E+01  0.22145751619E+02  0.51100000000E-03 0. -1.
        -12    1    4    4    0    0 -0.31481166407E+01 -0.47315215369E+00  0.11515419184E+01  0.33853449062E+01  0.00000000000E+00 0.  1.
</event>
<event>
 8    1  0.8600524E-011  0.9118800E+02  0.7816164E-02  0.1184000E+00
        -11   -1    0    0    0    0  0.00000000000E+00  0.00000000000E+00  0.45593999997E+02  0.45594000000E+02  0.51100000000E-03 0. -1.
         11   -1    0    0    0    0 -0.00000000000E+00 -0.00000000000E+00 -0.45593999997E+02  0.45594000000E+02  0.51100000000E-03 0.  1.
         23    2    1    2    0    0 -0.17763568394E-14 -0.44408920985E-15 -0.71054273576E-14  0.91188000000E+02  0.91188000000E+02 0.  0.
    9900012    2    3    3    0    0 -0.82397560120E+01 -0.21938723203E+01 -0.42554866746E+02  0.47787270298E+02  0.19999996595E+02 0.  0.
         12    1    3    3    0    0  0.82397560120E+01  0.21938723203E+01  0.42554866746E+02  0.43400729702E+02  0.00000000000E+00 0. -1.
         11    1    4    4    0    0  0.30783321974E+01  0.10500306860E+01 -0.60831644963E+00  0.33088884422E+01  0.51100000000E-03 0. -1.
        -11    1    4    4    0    0 -0.10073377302E+02 -0.54510246752E+01 -0.38704050504E+02  0.40363227398E+02  0.51100000000E-03 0.  1.
        -12    1    4    4    0    0 -0.12447109075E+01  0.22071216689E+01 -0.32424997923E+01  0.41151544573E+01  0.00000000000E+00 0.  1.
</event>
<event>
 8    1  0.8600524E-011  0.9118800E+02  0.7816164E-02  0.1184000E+00
        -11   -1    0    0    0    0  0.00000000000E+00  0.00000000000E+00  0.45593999997E+02  0.45594000000E+02  0.51100000000E-03 0. -1.
         11   -1    0    0    0    0 -0.00000000000E+00 -0.00000000000E+00 -0.45593999997E+02  0.45594000000E+02  0.51100000000E-03 0.  1.
         23    2    1    2    0    0  0.35527136788E-14 -0.88817841970E-15  0.00000000000E+00  0.91188000000E+02  0.91188000000E+02 0.  0.
    9900012    2    3    3    0    0  0.28229332780E+02 -0.51956915852E+01  0.32553581124E+02  0.47787238667E+02  0.19999852378E+02 0.  0.
        -12    1    3    3    0    0 -0.28229332780E+02  0.51956915852E+01 -0.32553581124E+02  0.43400761333E+02  0.00000000000E+00 0.  1.
         11    1    4    4    0    0  0.25964724701E+02 -0.32586351505E+01  0.19734570481E+02  0.32775583964E+02  0.51100000000E-03 0. -1.
        -11    1    4    4    0    0 -0.15599665966E+01 -0.18795225991E+01  0.99087910597E+01  0.10205402565E+02  0.51100000000E-03 0.  1.
        -12    1    4    4    0    0  0.38245746762E+01 -0.57533835555E-01  0.29102195828E+01  0.48062521383E+01  0.00000000000E+00 0.  1.
</event>
<event>
 8    1  0.8600524E-011  0.9118800E+02  0.7816164E-02  0.1184000E+00
        -11   -1    0    0    0    0  0.00000000000E+00  0.00000000000E+00  0.45593999997E+02  0.45594000000E+02  0.51100000000E-03 0. -1.
         11   -1    0    0    0    0 -0.00000000000E+00 -0.00000000000E+00 -0.45593999997E+02  0.45594000000E+02  0.51100000000E-03 0.  1.
         23    2    1    2    0    0  0.00000000000E+00 -0.35527136788E-14  0.00000000000E+00  0.91188000000E+02  0.91188000000E+02 0.  0.
    9900012    2    3    3    0    0 -0.23709548296E+02 -0.27676406533E+02  0.23568977509E+02  0.47787275814E+02  0.20000021748E+02 0.  0.
        -12    1    3    3    0    0  0.23709548296E+02  0.27676406533E+02 -0.23568977509E+02  0.43400724186E+02  0.00000000000E+00 0.  1.
         11    1    4    4    0    0 -0.61434088023E+01  0.92455303687E+00 -0.26353368340E-01  0.62126455549E+01  0.51100000000E-03 0. -1.
        -11    1    4    4    0    0 -0.28620914348E+01 -0.10538518310E+02  0.68871880210E+01  0.12910665926E+02  0.51100000000E-03 0.  1.
         12    1    4    4    0    0 -0.14704048059E+02 -0.18062441260E+02  0.16708142856E+02  0.28663964333E+02  0.00000000000E+00 0. -1.
</event>
<event>
 8    1  0.8600524E-011  0.9118800E+02  0.7816164E-02  0.1184000E+00
        -11   -1    0    0    0    0  0.00000000000E+00  0.00000000000E+00  0.45593999997E+02  0.45594000000E+02  0.51100000000E-03 0. -1.
         11   -1    0    0    0    0 -0.00000000000E+00 -0.00000000000E+00 -0.45593999997E+02  0.45594000000E+02  0.51100000000E-03 0.  1.
         23    2    1    2    0    0 -0.11102230246E-14  0.00000000000E+00  0.00000000000E+00  0.91188000000E+02  0.91188000000E+02 0.  0.
    9900012    2    3    3    0    0 -0.82117385262E+00 -0.27417588558E+02  0.33633690207E+02  0.47787267221E+02  0.19999982567E+02 0.  0.
        -12    1    3    3    0    0  0.82117385262E+00  0.27417588558E+02 -0.33633690207E+02  0.43400732779E+02  0.00000000000E+00 0.  1.
         11    1    4    4    0    0  0.70062543883E+01 -0.41107635546E+01  0.11024598718E+02  0.13694077359E+02  0.51100000000E-03 0.  1.
        -11    1    4    4    0    0 -0.50578607206E+01 -0.73965054507E+01  0.11084050270E+02  0.14252944208E+02  0.51100000000E-03 0. -1.
         12    1    4    4    0    0 -0.27695675204E+01 -0.15910319553E+02  0.11525041219E+02  0.19840245654E+02  0.00000000000E+00 0. -1.
</event>
<event>
 8    1  0.8600524E-011  0.9118800E+02  0.7816164E-02  0.1184000E+00
        -11   -1    0    0    0    0  0.00000000000E+00  0.00000000000E+00  0.45593999997E+02  0.45594000000E+02  0.51100000000E-03 0. -1.
         11   -1    0    0    0    0 -0.00000000000E+00 -0.00000000000E+00 -0.45593999997E+02  0.45594000000E+02  0.51100000000E-03 0.  1.
         23    2    1    2    0    0  0.00000000000E+00  0.00000000000E+00  0.00000000000E+00  0.91188000000E+02  0.91188000000E+02 0.  0.
    9900012    2    3    3    0    0  0.86756513954E+01  0.16320969489E+02  0.39268082134E+02  0.47787271358E+02  0.20000001430E+02 0.  0.
        -12    1    3    3    0    0 -0.86756513954E+01 -0.16320969489E+02 -0.39268082134E+02  0.43400728642E+02  0.00000000000E+00 0.  1.
         11    1    4    4    0    0  0.68000466930E+01  0.54456020587E+01  0.14744295060E+02  0.17125695720E+02  0.51100000000E-03 0. -1.
        -11    1    4    4    0    0 -0.24400982893E+01  0.46610085005E+01  0.28433403886E+00  0.52687689274E+01  0.51100000000E-03 0.  1.
        -12    1    4    4    0    0  0.43157029918E+01  0.62143589296E+01  0.24239453035E+02  0.25392806710E+02  0.00000000000E+00 0.  1.
</event>
<event>
 8    1  0.8600524E-011  0.9118800E+02  0.7816164E-02  0.1184000E+00
        -11   -1    0    0    0    0  0.00000000000E+00  0.00000000000E+00  0.45593999997E+02  0.45594000000E+02  0.51100000000E-03 0. -1.
         11   -1    0    0    0    0 -0.00000000000E+00 -0.00000000000E+00 -0.45593999997E+02  0.45594000000E+02  0.51100000000E-03 0.  1.
         23    2    1    2    0    0 -0.88817841970E-15  0.00000000000E+00  0.00000000000E+00  0.91188000000E+02  0.91188000000E+02 0.  0.
    9900012    2    3    3    0    0  0.46970544837E+01  0.30039835727E+02  0.30970455787E+02  0.47787272092E+02  0.20000004774E+02 0.  0.
        -12    1    3    3    0    0 -0.46970544837E+01 -0.30039835727E+02 -0.30970455787E+02  0.43400727908E+02  0.00000000000E+00 0.  1.
         11    1    4    4    0    0  0.54615647004E+01  0.17343505874E+02  0.23704177600E+02  0.29874971480E+02  0.51100000000E-03 0. -1.
        -11    1    4    4    0    0  0.66103199351E-01  0.53522702781E+01 -0.22979824211E+01  0.58251086025E+01  0.51100000000E-03 0.  1.
        -12    1    4    4    0    0 -0.83061341613E+00  0.73440595756E+01  0.95642606079E+01  0.12087192009E+02  0.00000000000E+00 0.  1.
</event>
<event>
 8    1  0.8600524E-011  0.9118800E+02  0.7816164E-02  0.1184000E+00
        -11   -1    0    0    0    0  0.00000000000E+00  0.00000000000E+00  0.45593999997E+02  0.45594000000E+02  0.51100000000E-03 0. -1.
         11   -1    0    0    0    0 -0.00000000000E+00 -0.00000000000E+00 -0.45593999997E+02  0.45594000000E+02  0.51100000000E-03 0.  1.
         23    2    1    2    0    0  0.00000000000E+00  0.00000000000E+00  0.00000000000E+00  0.91188000000E+02  0.91188000000E+02 0.  0.
    9900012    2    3    3    0    0 -0.22329633099E+02  0.25919671525E+01  0.37125365089E+02  0.47787267967E+02  0.19999985967E+02 0.  0.
        -12    1    3    3    0    0  0.22329633099E+02 -0.25919671525E+01 -0.37125365089E+02  0.43400732033E+02  0.00000000000E+00 0.  1.
         11    1    4    4    0    0 -0.36496662020E+01  0.16699030367E+01  0.20019144379E+01  0.44851199778E+01  0.51100000000E-03 0. -1.
        -11    1    4    4    0    0 -0.69594901459E+01  0.85924366482E+01  0.18620262834E+02  0.21655915102E+02  0.51100000000E-03 0.  1.
         12    1    4    4    0    0 -0.11720476751E+02 -0.76703725324E+01  0.16503187817E+02  0.21646232886E+02  0.00000000000E+00 0. -1.
</event>
<event>
 8    1  0.8600524E-011  0.9118800E+02  0.7816164E-02  0.1184000E+00
        -11   -1    0    0    0    0  0.00000000000E+00  0.00000000000E+00  0.45593999997E+02  0.45594000000E+02  0.51100000000E-03 0. -1.
         11   -1    0    0    0    0 -0.00000000000E+00 -0.00000000000E+00 -0.45593999997E+02  0.45594000000E+02  0.51100000000E-03 0.  1.
         23    2    1    2    0    0  0.00000000000E+00  0.17763568394E-14 -0.71054273576E-14  0.91188000000E+02  0.91188000000E+02 0.  0.
    9900012    2    3    3    0    0 -0.24030249750E+01 -0.11471546798E+02  0.41788187756E+02  0.47787267853E+02  0.19999985448E+02 0.  0.
        -12    1    3    3    0    0  0.24030249750E+01  0.11471546798E+02 -0.41788187756E+02  0.43400732147E+02  0.00000000000E+00 0.  1.
         11    1    4    4    0    0  0.71354678067E+00 -0.17830846273E+01 -0.11825127633E+01  0.22554104932E+01  0.51100000000E-03 0. -1.
        -11    1    4    4    0    0 -0.11859703872E+01 -0.56217996038E+01  0.60715410893E+01  0.83591128719E+01  0.51100000000E-03 0.  1.
         12    1    4    4    0    0 -0.19306013685E+01 -0.40666625667E+01  0.36899159430E+02  0.37172744488E+02  0.00000000000E+00 0. -1.
</event>
<event>
 8    1  0.8600524E-011  0.9118800E+02  0.7816164E-02  0.1184000E+00
        -11   -1    0    0    0    0  0.00000000000E+00  0.00000000000E+00  0.45593999997E+02  0.45594000000E+02  0.51100000000E-03 0. -1.
         11   -1    0    0    0    0 -0.00000000000E+00 -0.00000000000E+00 -0.45593999997E+02  0.45594000000E+02  0.51100000000E-03 0.  1.
         23    2    1    2    0    0  0.00000000000E+00  0.88817841970E-15  0.00000000000E+00  0.91188000000E+02  0.91188000000E+02 0.  0.
    9900012    2    3    3    0    0 -0.36597449248E+02 -0.26845909886E+01  0.23174190705E+02  0.47787269188E+02  0.19999991534E+02 0.  0.
        -12    1    3    3    0    0  0.36597449248E+02  0.26845909886E+01 -0.23174190705E+02  0.43400730812E+02  0.00000000000E+00 0.  1.
         11    1    4    4    0    0 -0.15295618274E+02  0.88342693391E+00  0.18767912324E+02  0.24227482634E+02  0.51100000000E-03 0. -1.
        -11    1    4    4    0    0 -0.18662265779E+02 -0.48263330041E+01  0.60524623106E+01  0.20204107368E+02  0.51100000000E-03 0.  1.
         12    1    4    4    0    0 -0.26395651953E+01  0.12583150816E+01 -0.16461839299E+01  0.33556791854E+01  0.00000000000E+00 0. -1.
</event>
<event>
 8    1  0.8600524E-011  0.9118800E+02  0.7816164E-02  0.1184000E+00
        -11   -1    0    0    0    0  0.00000000000E+00  0.00000000000E+00  0.45593999997E+02  0.45594000000E+02  0.51100000000E-03 0.  1.
         11   -1    0    0    0    0 -0.00000000000E+00 -0.00000000000E+00 -0.45593999997E+02  0.45594000000E+02  0.51100000000E-03 0. -1.
         23    2    1    2    0    0  0.00000000000E+00  0.00000000000E+00  0.00000000000E+00  0.91188000000E+02  0.91188000000E+02 0.  0.
    9900012    2    3    3    0    0  0.49466286483E+01  0.42945814554E+02 -0.38485382195E+01  0.47787269948E+02  0.19999994999E+02 0.  0.
         12    1    3    3    0    0 -0.49466286483E+01 -0.42945814554E+02  0.38485382195E+01  0.43400730052E+02  0.00000000000E+00 0. -1.
         11    1    4    4    0    0  0.11157895677E+02  0.19068477863E+02 -0.16923664900E+01  0.22157833571E+02  0.51100000000E-03 0. -1.
        -11    1    4    4    0    0 -0.29112420520E+01  0.18084867909E+02 -0.39222840865E+01  0.18732914623E+02  0.51100000000E-03 0.  1.
         12    1    4    4    0    0 -0.33000249771E+01  0.57924687825E+01  0.17661123571E+01  0.68965217540E+01  0.00000000000E+00 0. -1.
</event>
<event>
 8    1  0.8600524E-011  0.9118800E+02  0.7816164E-02  0.1184000E+00
        -11   -1    0    0    0    0  0.00000000000E+00  0.00000000000E+00  0.45593999997E+02  0.45594000000E+02  0.51100000000E-03 0. -1.
         11   -1    0    0    0    0 -0.00000000000E+00 -0.00000000000E+00 -0.45593999997E+02  0.45594000000E+02  0.51100000000E-03 0.  1.
         23    2    1    2    0    0  0.00000000000E+00  0.00000000000E+00  0.00000000000E+00  0.91188000000E+02  0.91188000000E+02 0.  0.
    9900012    2    3    3    0    0  0.15218995070E+02 -0.34623744661E+02 -0.21288505184E+02  0.47787286201E+02  0.20000069106E+02 0.  0.
         12    1    3    3    0    0 -0.15218995070E+02  0.34623744661E+02  0.21288505184E+02  0.43400713799E+02  0.00000000000E+00 0. -1.
         11    1    4    4    0    0  0.12015450169E+02 -0.13361781914E+02 -0.11364973024E+01  0.18005551506E+02  0.51100000000E-03 0. -1.
        -11    1    4    4    0    0  0.22615883663E+01 -0.16914647147E+02 -0.13405879966E+02  0.21701098773E+02  0.51100000000E-03 0.  1.
         12    1    4    4    0    0  0.94195653449E+00 -0.43473156004E+01 -0.67461279162E+01  0.80806359220E+01  0.00000000000E+00 0. -1.
</event>
<event>
 8    1  0.8600524E-011  0.9118800E+02  0.7816164E-02  0.1184000E+00
        -11   -1    0    0    0    0  0.00000000000E+00  0.00000000000E+00  0.45593999997E+02  0.45594000000E+02  0.51100000000E-03 0. -1.
         11   -1    0    0    0    0 -0.00000000000E+00 -0.00000000000E+00 -0.45593999997E+02  0.45594000000E+02  0.51100000000E-03 0.  1.
         23    2    1    2    0    0  0.00000000000E+00  0.00000000000E+00  0.00000000000E+00  0.91188000000E+02  0.91188000000E+02 0.  0.
    9900012    2    3    3    0    0  0.89307682664E+01  0.35824893415E+02 -0.22813189515E+02  0.47787271598E+02  0.20000002522E+02 0.  0.
         12    1    3    3    0    0 -0.89307682664E+01 -0.35824893415E+02  0.22813189515E+02  0.43400728402E+02  0.00000000000E+00 0. -1.
         11    1    4    4    0    0  0.74183571628E+01  0.26978919981E+02 -0.73507434856E+01  0.28929700592E+02  0.51100000000E-03 0. -1.
        -11    1    4    4    0    0  0.94607770710E+00  0.97112190977E+01 -0.13842375817E+02  0.16935589978E+02  0.51100000000E-03 0.  1.
         12    1    4    4    0    0  0.56633339651E+00 -0.86524566351E+00 -0.16200702130E+01  0.19219810273E+01  0.00000000000E+00 0. -1.
</event>
<event>
 8    1  0.8600524E-011  0.9118800E+02  0.7816164E-02  0.1184000E+00
        -11   -1    0    0    0    0  0.00000000000E+00  0.00000000000E+00  0.45593999997E+02  0.45594000000E+02  0.51100000000E-03 0. -1.
         11   -1    0    0    0    0 -0.00000000000E+00 -0.00000000000E+00 -0.45593999997E+02  0.45594000000E+02  0.51100000000E-03 0.  1.
         23    2    1    2    0    0  0.00000000000E+00  0.00000000000E+00  0.35527136788E-14  0.91188000000E+02  0.91188000000E+02 0.  0.
    9900012    2    3    3    0    0 -0.35591391416E+02  0.16182657590E+02  0.18841310005E+02  0.47787302859E+02  0.20000145055E+02 0.  0.
        -12    1    3    3    0    0  0.35591391416E+02 -0.16182657590E+02 -0.18841310005E+02  0.43400697141E+02  0.00000000000E+00 0.  1.
         11    1    4    4    0    0 -0.23692067959E+02  0.12683545753E+02  0.96297872407E+01  0.28546790005E+02  0.51100000000E-03 0. -1.
        -11    1    4    4    0    0 -0.21832986565E+00  0.16583194842E+01 -0.22291157538E+01  0.27868707804E+01  0.51100000000E-03 0.  1.
         12    1    4    4    0    0 -0.11680993592E+02  0.18407923522E+01  0.11440638518E+02  0.16453642073E+02  0.00000000000E+00 0. -1.
</event>
<event>
 8    1  0.8600524E-011  0.9118800E+02  0.7816164E-02  0.1184000E+00
        -11   -1    0    0    0    0  0.00000000000E+00  0.00000000000E+00  0.45593999997E+02  0.45594000000E+02  0.51100000000E-03 0. -1.
         11   -1    0    0    0    0 -0.00000000000E+00 -0.00000000000E+00 -0.45593999997E+02  0.45594000000E+02  0.51100000000E-03 0.  1.
         23    2    1    2    0    0 -0.44408920985E-15  0.00000000000E+00  0.00000000000E+00  0.91188000000E+02  0.91188000000E+02 0.  0.
    9900012    2    3    3    0    0 -0.23569849928E+01 -0.21981488573E+02  0.37348117423E+02  0.47787273126E+02  0.20000009489E+02 0.  0.
        -12    1    3    3    0    0  0.23569849928E+01  0.21981488573E+02 -0.37348117423E+02  0.43400726874E+02  0.00000000000E+00 0.  1.
         11    1    4    4    0    0 -0.70603017324E+01 -0.57396698977E+01  0.17574636763E+02  0.19790389807E+02  0.51100000000E-03 0. -1.
        -11    1    4    4    0    0  0.15705289908E+01 -0.14934311599E+02  0.11073450582E+02  0.18658015229E+02  0.51100000000E-03 0.  1.
        -12    1    4    4    0    0  0.31327877487E+01 -0.13075070770E+01  0.87000300786E+01  0.93388680901E+01  0.00000000000E+00 0.  1.
</event>
<event>
 8    1  0.8600524E-011  0.9118800E+02  0.7816164E-02  0.1184000E+00
        -11   -1    0    0    0    0  0.00000000000E+00  0.00000000000E+00  0.45593999997E+02  0.45594000000E+02  0.51100000000E-03 0. -1.
         11   -1    0    0    0    0 -0.00000000000E+00 -0.00000000000E+00 -0.45593999997E+02  0.45594000000E+02  0.51100000000E-03 0.  1.
         23    2    1    2    0    0  0.00000000000E+00  0.88817841970E-15  0.35527136788E-14  0.91188000000E+02  0.91188000000E+02 0.  0.
    9900012    2    3    3    0    0  0.33853789857E+02 -0.25207175869E+01  0.27040527503E+02  0.47787271521E+02  0.20000002175E+02 0.  0.
        -12    1    3    3    0    0 -0.33853789857E+02  0.25207175869E+01 -0.27040527503E+02  0.43400728479E+02  0.00000000000E+00 0.  1.
         11    1    4    4    0    0  0.34398298373E+01 -0.65626911330E+01  0.69130589007E+01  0.10133692705E+02  0.51100000000E-03 0. -1.
        -11    1    4    4    0    0  0.22449332876E+02  0.56213016933E+01  0.17832104601E+02  0.29215672747E+02  0.51100000000E-03 0.  1.
         12    1    4    4    0    0  0.79646271438E+01 -0.15793281472E+01  0.22953640012E+01  0.84379060692E+01  0.00000000000E+00 0. -1.
</event>
<event>
 8    1  0.8600524E-011  0.9118800E+02  0.7816164E-02  0.1184000E+00
        -11   -1    0    0    0    0  0.00000000000E+00  0.00000000000E+00  0.45593999997E+02  0.45594000000E+02  0.51100000000E-03 0. -1.
         11   -1    0    0    0    0 -0.00000000000E+00 -0.00000000000E+00 -0.45593999997E+02  0.45594000000E+02  0.51100000000E-03 0.  1.
         23    2    1    2    0    0  0.00000000000E+00  0.00000000000E+00  0.00000000000E+00  0.91188000000E+02  0.91188000000E+02 0.  0.
    9900012    2    3    3    0    0 -0.85038755281E+01  0.26664570176E+02  0.33170888652E+02  0.47787273558E+02  0.20000011463E+02 0.  0.
        -12    1    3    3    0    0  0.85038755281E+01 -0.26664570176E+02 -0.33170888652E+02  0.43400726442E+02  0.00000000000E+00 0.  1.
         11    1    4    4    0    0 -0.37840318319E+01  0.23207395371E+02  0.18863742543E+02  0.30145362493E+02  0.51100000000E-03 0.  1.
        -11    1    4    4    0    0 -0.12631257445E+01  0.55670863477E+01  0.11077964837E+02  0.12462312877E+02  0.51100000000E-03 0. -1.
         12    1    4    4    0    0 -0.34567179517E+01 -0.21099115425E+01  0.32291812721E+01  0.51795981893E+01  0.00000000000E+00 0. -1.
</event>
<event>
 8    1  0.8600524E-011  0.9118800E+02  0.7816164E-02  0.1184000E+00
        -11   -1    0    0    0    0  0.00000000000E+00  0.00000000000E+00  0.45593999997E+02  0.45594000000E+02  0.51100000000E-03 0. -1.
         11   -1    0    0    0    0 -0.00000000000E+00 -0.00000000000E+00 -0.45593999997E+02  0.45594000000E+02  0.51100000000E-03 0.  1.
         23    2    1    2    0    0  0.88817841970E-15 -0.35527136788E-14  0.00000000000E+00  0.91188000000E+02  0.91188000000E+02 0.  0.
    9900012    2    3    3    0    0  0.36257309611E+01 -0.21192880424E+02 -0.37700650596E+02  0.47787272344E+02  0.20000005925E+02 0.  0.
         12    1    3    3    0    0 -0.36257309611E+01  0.21192880424E+02  0.37700650596E+02  0.43400727656E+02  0.00000000000E+00 0. -1.
         11    1    4    4    0    0  0.73655379975E+01 -0.23303430147E+01 -0.73373157858E+01  0.10654475668E+02  0.51100000000E-03 0. -1.
        -11    1    4    4    0    0 -0.16331239718E+01 -0.18809598642E+02 -0.24695975127E+02  0.31086319864E+02  0.51100000000E-03 0.  1.
        -12    1    4    4    0    0 -0.21066830646E+01 -0.52938767626E-01 -0.56673596838E+01  0.60464768116E+01  0.00000000000E+00 0.  1.
</event>
<event>
 8    1  0.8600524E-011  0.9118800E+02  0.7816164E-02  0.1184000E+00
        -11   -1    0    0    0    0  0.00000000000E+00  0.00000000000E+00  0.45593999997E+02  0.45594000000E+02  0.51100000000E-03 0. -1.
         11   -1    0    0    0    0 -0.00000000000E+00 -0.00000000000E+00 -0.45593999997E+02  0.45594000000E+02  0.51100000000E-03 0.  1.
         23    2    1    2    0    0  0.00000000000E+00  0.00000000000E+00  0.13322676296E-14  0.91188000000E+02  0.91188000000E+02 0.  0.
    9900012    2    3    3    0    0 -0.42612804505E+02  0.78241237850E+01 -0.25603568527E+01  0.47787269038E+02  0.19999990853E+02 0.  0.
         12    1    3    3    0    0  0.42612804505E+02 -0.78241237850E+01  0.25603568527E+01  0.43400730962E+02  0.00000000000E+00 0. -1.
         11    1    4    4    0    0 -0.45634174562E+01 -0.12057782388E+01  0.23562496334E+01  0.52754708450E+01  0.51100000000E-03 0. -1.
        -11    1    4    4    0    0 -0.10997654978E+02  0.35411537552E+01 -0.89513001006E+01  0.14615538262E+02  0.51100000000E-03 0.  1.
        -12    1    4    4    0    0 -0.27051732071E+02  0.54887482686E+01  0.40346936145E+01  0.27896259931E+02  0.00000000000E+00 0.  1.
</event>
<event>
 8    1  0.8600524E-011  0.9118800E+02  0.7816164E-02  0.1184000E+00
        -11   -1    0    0    0    0  0.00000000000E+00  0.00000000000E+00  0.45593999997E+02  0.45594000000E+02  0.51100000000E-03 0. -1.
         11   -1    0    0    0    0 -0.00000000000E+00 -0.00000000000E+00 -0.45593999997E+02  0.45594000000E+02  0.51100000000E-03 0.  1.
         23    2    1    2    0    0  0.00000000000E+00  0.00000000000E+00  0.35527136788E-14  0.91188000000E+02  0.91188000000E+02 0.  0.
    9900012    2    3    3    0    0 -0.13900281910E+02 -0.28412283932E+02 -0.29717798648E+02  0.47787271067E+02  0.20000000103E+02 0.  0.
         12    1    3    3    0    0  0.13900281910E+02  0.28412283932E+02  0.29717798648E+02  0.43400728933E+02  0.00000000000E+00 0. -1.
         11    1    4    4    0    0 -0.10117964395E+01 -0.13295769455E+02 -0.74253592007E+01  0.15262279546E+02  0.51100000000E-03 0. -1.
        -11    1    4    4    0    0 -0.50070070241E+01 -0.10138385750E+02 -0.39996863940E+01  0.11993934986E+02  0.51100000000E-03 0.  1.
         12    1    4    4    0    0 -0.78814784460E+01 -0.49781287278E+01 -0.18292753054E+02  0.20531056534E+02  0.00000000000E+00 0. -1.
</event>
<event>
 8    1  0.8600524E-011  0.9118800E+02  0.7816164E-02  0.1184000E+00
        -11   -1    0    0    0    0  0.00000000000E+00  0.00000000000E+00  0.45593999997E+02  0.45594000000E+02  0.51100000000E-03 0. -1.
         11   -1    0    0    0    0 -0.00000000000E+00 -0.00000000000E+00 -0.45593999997E+02  0.45594000000E+02  0.51100000000E-03 0.  1.
         23    2    1    2    0    0  0.00000000000E+00  0.00000000000E+00  0.35527136788E-14  0.91188000000E+02  0.91188000000E+02 0.  0.
    9900012    2    3    3    0    0  0.32618541292E+02 -0.21962097322E+02 -0.18366337739E+02  0.47787247509E+02  0.19999892694E+02 0.  0.
         12    1    3    3    0    0 -0.32618541292E+02  0.21962097322E+02  0.18366337739E+02  0.43400752491E+02  0.00000000000E+00 0. -1.
         11    1    4    4    0    0  0.21227281806E+02 -0.67878947920E+01 -0.23537556648E+01  0.22410113221E+02  0.51100000000E-03 0. -1.
        -11    1    4    4    0    0  0.14246043872E+01 -0.23061253994E+01 -0.25487694255E+00  0.27226227309E+01  0.51100000000E-03 0.  1.
         12    1    4    4    0    0  0.99666550991E+01 -0.12868077130E+02 -0.15757705132E+02  0.22654511558E+02  0.00000000000E+00 0. -1.
</event>
<event>
 8    1  0.8600524E-011  0.9118800E+02  0.7816164E-02  0.1184000E+00
        -11   -1    0    0    0    0  0.00000000000E+00  0.00000000000E+00  0.45593999997E+02  0.45594000000E+02  0.51100000000E-03 0. -1.
         11   -1    0    0    0    0 -0.00000000000E+00 -0.00000000000E+00 -0.45593999997E+02  0.45594000000E+02  0.51100000000E-03 0.  1.
         23    2    1    2    0    0  0.00000000000E+00  0.00000000000E+00  0.35527136788E-14  0.91188000000E+02  0.91188000000E+02 0.  0.
    9900012    2    3    3    0    0 -0.18298569689E+01 -0.32947568763E+02  0.28191000988E+02  0.47787271888E+02  0.20000003848E+02 0.  0.
        -12    1    3    3    0    0  0.18298569689E+01  0.32947568763E+02 -0.28191000988E+02  0.43400728112E+02  0.00000000000E+00 0.  1.
         11    1    4    4    0    0  0.34160803660E+01 -0.28797031790E+02  0.19577568819E+02  0.34988853170E+02  0.51100000000E-03 0. -1.
        -11    1    4    4    0    0  0.75696204802E+00  0.47782586030E+00  0.36019892337E+01  0.37115543638E+01  0.51100000000E-03 0.  1.
         12    1    4    4    0    0 -0.60028993829E+01 -0.46283628329E+01  0.50114429351E+01  0.90868643551E+01  0.00000000000E+00 0. -1.
</event>
<event>
 8    1  0.8600524E-011  0.9118800E+02  0.7816164E-02  0.1184000E+00
        -11   -1    0    0    0    0  0.00000000000E+00  0.00000000000E+00  0.45593999997E+02  0.45594000000E+02  0.51100000000E-03 0. -1.
         11   -1    0    0    0    0 -0.00000000000E+00 -0.00000000000E+00 -0.45593999997E+02  0.45594000000E+02  0.51100000000E-03 0.  1.
         23    2    1    2    0    0  0.00000000000E+00  0.00000000000E+00  0.00000000000E+00  0.91188000000E+02  0.91188000000E+02 0.  0.
    9900012    2    3    3    0    0 -0.12445452037E+02 -0.22876405785E+02  0.34718928764E+02  0.47787271521E+02  0.20000002172E+02 0.  0.
        -12    1    3    3    0    0  0.12445452037E+02  0.22876405785E+02 -0.34718928764E+02  0.43400728479E+02  0.00000000000E+00 0.  1.
         11    1    4    4    0    0 -0.94264539664E+01 -0.66567228006E+01  0.16273947735E+02  0.19950222253E+02  0.51100000000E-03 0. -1.
        -11    1    4    4    0    0 -0.40493835043E+01 -0.17924557614E+02  0.14465090573E+02  0.23386451590E+02  0.51100000000E-03 0.  1.
        -12    1    4    4    0    0  0.10303854336E+01  0.17048746301E+01  0.39798904556E+01  0.44505976772E+01  0.00000000000E+00 0.  1.
</event>
<event>
 8    1  0.8600524E-011  0.9118800E+02  0.7816164E-02  0.1184000E+00
        -11   -1    0    0    0    0  0.00000000000E+00  0.00000000000E+00  0.45593999997E+02  0.45594000000E+02  0.51100000000E-03 0. -1.
         11   -1    0    0    0    0 -0.00000000000E+00 -0.00000000000E+00 -0.45593999997E+02  0.45594000000E+02  0.51100000000E-03 0.  1.
         23    2    1    2    0    0 -0.22204460493E-15  0.00000000000E+00  0.00000000000E+00  0.91188000000E+02  0.91188000000E+02 0.  0.
    9900012    2    3    3    0    0  0.10482807614E+01 -0.34812724123E+02  0.25895918042E+02  0.47787271612E+02  0.20000002586E+02 0.  0.
        -12    1    3    3    0    0 -0.10482807614E+01  0.34812724123E+02 -0.25895918042E+02  0.43400728388E+02  0.00000000000E+00 0.  1.
         11    1    4    4    0    0 -0.37191988275E+01 -0.95047301094E+01  0.12737298559E+02  0.16322104926E+02  0.51100000000E-03 0. -1.
        -11    1    4    4    0    0  0.16005138778E+01 -0.12317117560E+02  0.13157271358E+02  0.18093833743E+02  0.51100000000E-03 0.  1.
        -12    1    4    4    0    0  0.31669657111E+01 -0.12990876454E+02  0.13481246286E-02  0.13371332943E+02  0.00000000000E+00 0.  1.
</event>
<event>
 8    1  0.8600524E-011  0.9118800E+02  0.7816164E-02  0.1184000E+00
        -11   -1    0    0    0    0  0.00000000000E+00  0.00000000000E+00  0.45593999997E+02  0.45594000000E+02  0.51100000000E-03 0. -1.
         11   -1    0    0    0    0 -0.00000000000E+00 -0.00000000000E+00 -0.45593999997E+02  0.45594000000E+02  0.51100000000E-03 0.  1.
         23    2    1    2    0    0  0.00000000000E+00 -0.71054273576E-14  0.00000000000E+00  0.91188000000E+02  0.91188000000E+02 0.  0.
    9900012    2    3    3    0    0 -0.19859887113E+02  0.38275385540E+02  0.49196546717E+01  0.47787271245E+02  0.20000000914E+02 0.  0.
        -12    1    3    3    0    0  0.19859887113E+02 -0.38275385540E+02 -0.49196546717E+01  0.43400728755E+02  0.00000000000E+00 0.  1.
         11    1    4    4    0    0 -0.10651838002E+02  0.33558919827E+02  0.39413380704E+01  0.35428758076E+02  0.51100000000E-03 0. -1.
        -11    1    4    4    0    0 -0.57581692045E+01  0.52997021176E+00  0.30669835179E+01  0.65455151954E+01  0.51100000000E-03 0.  1.
        -12    1    4    4    0    0 -0.34498799062E+01  0.41864955015E+01 -0.20886669165E+01  0.58129979735E+01  0.00000000000E+00 0.  1.
</event>
<event>
 8    1  0.8600524E-011  0.9118800E+02  0.7816164E-02  0.1184000E+00
        -11   -1    0    0    0    0  0.00000000000E+00  0.00000000000E+00  0.45593999997E+02  0.45594000000E+02  0.51100000000E-03 0. -1.
         11   -1    0    0    0    0 -0.00000000000E+00 -0.00000000000E+00 -0.45593999997E+02  0.45594000000E+02  0.51100000000E-03 0.  1.
         23    2    1    2    0    0  0.00000000000E+00  0.00000000000E+00  0.17763568394E-14  0.91188000000E+02  0.91188000000E+02 0.  0.
    9900012    2    3    3    0    0 -0.58548808480E+01  0.41634449071E+02  0.10766429943E+02  0.47787274281E+02  0.20000014758E+02 0.  0.
        -12    1    3    3    0    0  0.58548808480E+01 -0.41634449071E+02 -0.10766429943E+02  0.43400725719E+02  0.00000000000E+00 0.  1.
         11    1    4    4    0    0 -0.50744144220E+01  0.32846527285E+01 -0.17990357398E+01  0.63067547223E+01  0.51100000000E-03 0. -1.
        -11    1    4    4    0    0 -0.32713997426E+01  0.21790487999E+02  0.11095320137E+02  0.24670499645E+02  0.51100000000E-03 0.  1.
         12    1    4    4    0    0  0.24909333165E+01  0.16559308343E+02  0.14701455461E+01  0.16810019914E+02  0.00000000000E+00 0. -1.
</event>
<event>
 8    1  0.8600524E-011  0.9118800E+02  0.7816164E-02  0.1184000E+00
        -11   -1    0    0    0    0  0.00000000000E+00  0.00000000000E+00  0.45593999997E+02  0.45594000000E+02  0.51100000000E-03 0. -1.
         11   -1    0    0    0    0 -0.00000000000E+00 -0.00000000000E+00 -0.45593999997E+02  0.45594000000E+02  0.51100000000E-03 0.  1.
         23    2    1    2    0    0 -0.35527136788E-14  0.17763568394E-14  0.00000000000E+00  0.91188000000E+02  0.91188000000E+02 0.  0.
    9900012    2    3    3    0    0  0.16043965995E+02 -0.15742685358E+02  0.37126579805E+02  0.47787263656E+02  0.19999966315E+02 0.  0.
        -12    1    3    3    0    0 -0.16043965995E+02  0.15742685358E+02 -0.37126579805E+02  0.43400736344E+02  0.00000000000E+00 0.  1.
         11    1    4    4    0    0  0.11742007242E+02 -0.13988719682E+02  0.20847714857E+02  0.27716172669E+02  0.51100000000E-03 0. -1.
        -11    1    4    4    0    0  0.22989864824E+01  0.12739268476E+01 -0.69064930277E+00  0.27175770789E+01  0.51100000000E-03 0.  1.
        -12    1    4    4    0    0  0.20029722706E+01 -0.30278925244E+01  0.16969514251E+02  0.17353513908E+02  0.00000000000E+00 0.  1.
</event>
<event>
 8    1  0.8600524E-011  0.9118800E+02  0.7816164E-02  0.1184000E+00
        -11   -1    0    0    0    0  0.00000000000E+00  0.00000000000E+00  0.45593999997E+02  0.45594000000E+02  0.51100000000E-03 0. -1.
         11   -1    0    0    0    0 -0.00000000000E+00 -0.00000000000E+00 -0.45593999997E+02  0.45594000000E+02  0.51100000000E-03 0.  1.
         23    2    1    2    0    0  0.00000000000E+00  0.00000000000E+00  0.00000000000E+00  0.91188000000E+02  0.91188000000E+02 0.  0.
    9900012    2    3    3    0    0 -0.17764392919E+02 -0.14026681069E+02 -0.37031087141E+02  0.47787275899E+02  0.20000022136E+02 0.  0.
         12    1    3    3    0    0  0.17764392919E+02  0.14026681069E+02  0.37031087141E+02  0.43400724101E+02  0.00000000000E+00 0. -1.
         11    1    4    4    0    0  0.18865157562E+01  0.23440495940E+01 -0.52599022132E+01  0.60597097085E+01  0.51100000000E-03 0. -1.
        -11    1    4    4    0    0 -0.51202081828E+01 -0.54037313193E+01 -0.15977443390E+02  0.17626557847E+02  0.51100000000E-03 0.  1.
         12    1    4    4    0    0 -0.14530700492E+02 -0.10966999344E+02 -0.15793741538E+02  0.24101008344E+02  0.00000000000E+00 0. -1.
</event>
<event>
 8    1  0.8600524E-011  0.9118800E+02  0.7816164E-02  0.1184000E+00
        -11   -1    0    0    0    0  0.00000000000E+00  0.00000000000E+00  0.45593999997E+02  0.45594000000E+02  0.51100000000E-03 0. -1.
         11   -1    0    0    0    0 -0.00000000000E+00 -0.00000000000E+00 -0.45593999997E+02  0.45594000000E+02  0.51100000000E-03 0.  1.
         23    2    1    2    0    0  0.00000000000E+00  0.00000000000E+00  0.26645352591E-14  0.91188000000E+02  0.91188000000E+02 0.  0.
    9900012    2    3    3    0    0 -0.17844725945E+02 -0.39181455095E+02  0.54774967092E+01  0.47787266854E+02  0.19999980893E+02 0.  0.
        -12    1    3    3    0    0  0.17844725945E+02  0.39181455095E+02 -0.54774967092E+01  0.43400733146E+02  0.00000000000E+00 0.  1.
         11    1    4    4    0    0 -0.81930747748E+01 -0.20638314050E+02 -0.46653707262E+01  0.22689913296E+02  0.51100000000E-03 0. -1.
        -11    1    4    4    0    0  0.68216334104E+00  0.70012292233E+00  0.10594194098E+01  0.14414883549E+01  0.51100000000E-03 0.  1.
         12    1    4    4    0    0 -0.10333814511E+02 -0.19243263967E+02  0.90834480256E+01  0.23655865203E+02  0.00000000000E+00 0. -1.
</event>
<event>
 8    1  0.8600524E-011  0.9118800E+02  0.7816164E-02  0.1184000E+00
        -11   -1    0    0    0    0  0.00000000000E+00  0.00000000000E+00  0.45593999997E+02  0.45594000000E+02  0.51100000000E-03 0. -1.
         11   -1    0    0    0    0 -0.00000000000E+00 -0.00000000000E+00 -0.45593999997E+02  0.45594000000E+02  0.51100000000E-03 0.  1.
         23    2    1    2    0    0  0.00000000000E+00  0.35527136788E-14  0.35527136788E-14  0.91188000000E+02  0.91188000000E+02 0.  0.
    9900012    2    3    3    0    0  0.25081780397E+02 -0.25489180307E+02 -0.24593262954E+02  0.47787278770E+02  0.20000035223E+02 0.  0.
         12    1    3    3    0    0 -0.25081780397E+02  0.25489180307E+02  0.24593262954E+02  0.43400721230E+02  0.00000000000E+00 0. -1.
         11    1    4    4    0    0  0.79599960806E-01  0.34077963506E+00 -0.50079522353E+01  0.50201646154E+01  0.51100000000E-03 0. -1.
        -11    1    4    4    0    0  0.21192189202E+02 -0.14598598852E+02 -0.16295346083E+02  0.30459255996E+02  0.51100000000E-03 0.  1.
        -12    1    4    4    0    0  0.38099912339E+01 -0.11231361090E+02 -0.32899646353E+01  0.12307858158E+02  0.00000000000E+00 0.  1.
</event>
<event>
 8    1  0.8600524E-011  0.9118800E+02  0.7816164E-02  0.1184000E+00
        -11   -1    0    0    0    0  0.00000000000E+00  0.00000000000E+00  0.45593999997E+02  0.45594000000E+02  0.51100000000E-03 0. -1.
         11   -1    0    0    0    0 -0.00000000000E+00 -0.00000000000E+00 -0.45593999997E+02  0.45594000000E+02  0.51100000000E-03 0.  1.
         23    2    1    2    0    0  0.00000000000E+00  0.00000000000E+00  0.35527136788E-14  0.91188000000E+02  0.91188000000E+02 0.  0.
    9900012    2    3    3    0    0 -0.26158493286E+02 -0.26237333141E+02 -0.22604375661E+02  0.47787283182E+02  0.20000055338E+02 0.  0.
         12    1    3    3    0    0  0.26158493286E+02  0.26237333141E+02  0.22604375661E+02  0.43400716818E+02  0.00000000000E+00 0. -1.
         11    1    4    4    0    0 -0.18260943321E+02 -0.22113100598E+02 -0.85908276430E+01  0.29937494700E+02  0.51100000000E-03 0. -1.
        -11    1    4    4    0    0 -0.52976524564E+01 -0.45262805090E+01 -0.13466929916E+02  0.15162801140E+02  0.51100000000E-03 0.  1.
         12    1    4    4    0    0 -0.25998975093E+01  0.40204796672E+00 -0.54661810186E+00  0.26869873419E+01  0.00000000000E+00 0. -1.
</event>
<event>
 8    1  0.8600524E-011  0.9118800E+02  0.7816164E-02  0.1184000E+00
        -11   -1    0    0    0    0  0.00000000000E+00  0.00000000000E+00  0.45593999997E+02  0.45594000000E+02  0.51100000000E-03 0.  1.
         11   -1    0    0    0    0 -0.00000000000E+00 -0.00000000000E+00 -0.45593999997E+02  0.45594000000E+02  0.51100000000E-03 0. -1.
         23    2    1    2    0    0  0.00000000000E+00 -0.22204460493E-15 -0.17763568394E-14  0.91188000000E+02  0.91188000000E+02 0.  0.
    9900012    2    3    3    0    0 -0.42972865541E+02  0.18197255734E+01  0.58004247486E+01  0.47787268425E+02  0.19999988057E+02 0.  0.
        -12    1    3    3    0    0  0.42972865541E+02 -0.18197255734E+01 -0.58004247486E+01  0.43400731575E+02  0.00000000000E+00 0.  1.
         11    1    4    4    0    0 -0.10338762784E+02  0.26935573417E+01  0.83504358366E+01  0.13560053318E+02  0.51100000000E-03 0.  1.
        -11    1    4    4    0    0 -0.17978118841E+02 -0.53957985913E+01 -0.76509791003E+00  0.18785972815E+02  0.51100000000E-03 0. -1.
         12    1    4    4    0    0 -0.14655983916E+02  0.45219668231E+01 -0.17849131780E+01  0.15441242293E+02  0.00000000000E+00 0. -1.
</event>
<event>
 8    1  0.8600524E-011  0.9118800E+02  0.7816164E-02  0.1184000E+00
        -11   -1    0    0    0    0  0.00000000000E+00  0.00000000000E+00  0.45593999997E+02  0.45594000000E+02  0.51100000000E-03 0. -1.
         11   -1    0    0    0    0 -0.00000000000E+00 -0.00000000000E+00 -0.45593999997E+02  0.45594000000E+02  0.51100000000E-03 0.  1.
         23    2    1    2    0    0  0.35527136788E-14  0.00000000000E+00  0.00000000000E+00  0.91188000000E+02  0.91188000000E+02 0.  0.
    9900012    2    3    3    0    0 -0.24001123786E+02  0.17765663663E+02 -0.31495255111E+02  0.47787264489E+02  0.19999970113E+02 0.  0.
         12    1    3    3    0    0  0.24001123786E+02 -0.17765663663E+02  0.31495255111E+02  0.43400735511E+02  0.00000000000E+00 0. -1.
         11    1    4    4    0    0 -0.98119883214E+01  0.26864796612E+01 -0.11362985806E+01  0.10236379365E+02  0.51100000000E-03 0. -1.
        -11    1    4    4    0    0 -0.13027662030E+02  0.14256737245E+02 -0.30521589617E+02  0.36118443597E+02  0.51100000000E-03 0.  1.
        -12    1    4    4    0    0 -0.11614734349E+01  0.82244675633E+00  0.16263308709E+00  0.14324415269E+01  0.00000000000E+00 0.  1.
</event>
<event>
 8    1  0.8600524E-011  0.9118800E+02  0.7816164E-02  0.1184000E+00
        -11   -1    0    0    0    0  0.00000000000E+00  0.00000000000E+00  0.45593999997E+02  0.45594000000E+02  0.51100000000E-03 0. -1.
         11   -1    0    0    0    0 -0.00000000000E+00 -0.00000000000E+00 -0.45593999997E+02  0.45594000000E+02  0.51100000000E-03 0.  1.
         23    2    1    2    0    0  0.00000000000E+00  0.00000000000E+00  0.00000000000E+00  0.91188000000E+02  0.91188000000E+02 0.  0.
    9900012    2    3    3    0    0  0.42623904080E+01 -0.23509187384E+02  0.36232213672E+02  0.47787272229E+02  0.20000005402E+02 0.  0.
        -12    1    3    3    0    0 -0.42623904080E+01  0.23509187384E+02 -0.36232213672E+02  0.43400727771E+02  0.00000000000E+00 0.  1.
         11    1    4    4    0    0 -0.14147353268E+01 -0.10520893350E+02  0.21972298035E+02  0.24402306328E+02  0.51100000000E-03 0. -1.
        -11    1    4    4    0    0  0.47991781483E+01 -0.14766484337E+01 -0.20735335185E-01  0.50212579810E+01  0.51100000000E-03 0.  1.
        -12    1    4    4    0    0  0.87794758642E+00 -0.11511645600E+02  0.14280650972E+02  0.18363707920E+02  0.00000000000E+00 0.  1.
</event>
<event>
 8    1  0.8600524E-011  0.9118800E+02  0.7816164E-02  0.1184000E+00
        -11   -1    0    0    0    0  0.00000000000E+00  0.00000000000E+00  0.45593999997E+02  0.45594000000E+02  0.51100000000E-03 0. -1.
         11   -1    0    0    0    0 -0.00000000000E+00 -0.00000000000E+00 -0.45593999997E+02  0.45594000000E+02  0.51100000000E-03 0.  1.
         23    2    1    2    0    0  0.00000000000E+00  0.35527136788E-14  0.00000000000E+00  0.91188000000E+02  0.91188000000E+02 0.  0.
    9900012    2    3    3    0    0 -0.49259130983E+01 -0.28600919415E+02 -0.32269891723E+02  0.47787272782E+02  0.20000007922E+02 0.  0.
         12    1    3    3    0    0  0.49259130983E+01  0.28600919415E+02  0.32269891723E+02  0.43400727218E+02  0.00000000000E+00 0. -1.
         11    1    4    4    0    0  0.54724880760E+01 -0.81891475573E+01 -0.49969227110E+01  0.11044433000E+02  0.51100000000E-03 0. -1.
        -11    1    4    4    0    0 -0.91804006908E+01 -0.20984724796E+02 -0.26930766938E+02  0.35353990435E+02  0.51100000000E-03 0.  1.
         12    1    4    4    0    0 -0.12180004836E+01  0.57295293798E+00 -0.34220207467E+00  0.13888493464E+01  0.00000000000E+00 0. -1.
</event>
<event>
 8    1  0.8600524E-011  0.9118800E+02  0.7816164E-02  0.1184000E+00
        -11   -1    0    0    0    0  0.00000000000E+00  0.00000000000E+00  0.45593999997E+02  0.45594000000E+02  0.51100000000E-03 0. -1.
         11   -1    0    0    0    0 -0.00000000000E+00 -0.00000000000E+00 -0.45593999997E+02  0.45594000000E+02  0.51100000000E-03 0.  1.
         23    2    1    2    0    0  0.00000000000E+00  0.17763568394E-14  0.00000000000E+00  0.91188000000E+02  0.91188000000E+02 0.  0.
    9900012    2    3    3    0    0 -0.53921916938E+01  0.13473576057E+02  0.40902450200E+02  0.47787269414E+02  0.19999992565E+02 0.  0.
        -12    1    3    3    0    0  0.53921916938E+01 -0.13473576057E+02 -0.40902450200E+02  0.43400730586E+02  0.00000000000E+00 0.  1.
         11    1    4    4    0    0 -0.27211768781E+00 -0.29990536842E+01  0.13910805696E+02  0.14233020987E+02  0.51100000000E-03 0.  1.
        -11    1    4    4    0    0 -0.53857463425E+01  0.59701758279E+01  0.58410763424E+01  0.99381807279E+01  0.51100000000E-03 0. -1.
         12    1    4    4    0    0  0.26567233652E+00  0.10502453914E+02  0.21150568162E+02  0.23616067699E+02  0.00000000000E+00 0. -1.
</event>
<event>
 8    1  0.8600524E-011  0.9118800E+02  0.7816164E-02  0.1184000E+00
        -11   -1    0    0    0    0  0.00000000000E+00  0.00000000000E+00  0.45593999997E+02  0.45594000000E+02  0.51100000000E-03 0. -1.
         11   -1    0    0    0    0 -0.00000000000E+00 -0.00000000000E+00 -0.45593999997E+02  0.45594000000E+02  0.51100000000E-03 0.  1.
         23    2    1    2    0    0 -0.35527136788E-14  0.17763568394E-14  0.00000000000E+00  0.91188000000E+02  0.91188000000E+02 0.  0.
    9900012    2    3    3    0    0  0.29729571316E+02 -0.10101720163E+02  0.29962160209E+02  0.47787271835E+02  0.20000003603E+02 0.  0.
        -12    1    3    3    0    0 -0.29729571316E+02  0.10101720163E+02 -0.29962160209E+02  0.43400728165E+02  0.00000000000E+00 0.  1.
         11    1    4    4    0    0  0.21175452478E+02 -0.14258557981E+02  0.20750234635E+02  0.32898001475E+02  0.51100000000E-03 0. -1.
        -11    1    4    4    0    0  0.28447318319E+01  0.48596183353E+01  0.62725911885E+01  0.84293410205E+01  0.51100000000E-03 0.  1.
         12    1    4    4    0    0  0.57093870061E+01 -0.70278051657E+00  0.29393343855E+01  0.64599293394E+01  0.00000000000E+00 0. -1.
</event>
<event>
 8    1  0.8600524E-011  0.9118800E+02  0.7816164E-02  0.1184000E+00
        -11   -1    0    0    0    0  0.00000000000E+00  0.00000000000E+00  0.45593999997E+02  0.45594000000E+02  0.51100000000E-03 0. -1.
         11   -1    0    0    0    0 -0.00000000000E+00 -0.00000000000E+00 -0.45593999997E+02  0.45594000000E+02  0.51100000000E-03 0.  1.
         23    2    1    2    0    0  0.00000000000E+00  0.00000000000E+00  0.00000000000E+00  0.91188000000E+02  0.91188000000E+02 0.  0.
    9900012    2    3    3    0    0  0.13897855707E+02  0.11728669568E+02  0.39406992428E+02  0.47787272641E+02  0.20000007280E+02 0.  0.
        -12    1    3    3    0    0 -0.13897855707E+02 -0.11728669568E+02 -0.39406992428E+02  0.43400727359E+02  0.00000000000E+00 0.  1.
         11    1    4    4    0    0  0.39032049396E+01  0.85410282518E+01  0.32480621495E+02  0.33810870225E+02  0.51100000000E-03 0. -1.
        -11    1    4    4    0    0  0.31437692910E+01 -0.18386026947E+01  0.20177018099E+01  0.41635160716E+01  0.51100000000E-03 0.  1.
         12    1    4    4    0    0  0.68508814762E+01  0.50262440107E+01  0.49086691225E+01  0.98128863445E+01  0.00000000000E+00 0. -1.
</event>
<event>
 8    1  0.8600524E-011  0.9118800E+02  0.7816164E-02  0.1184000E+00
        -11   -1    0    0    0    0  0.00000000000E+00  0.00000000000E+00  0.45593999997E+02  0.45594000000E+02  0.51100000000E-03 0. -1.
         11   -1    0    0    0    0 -0.00000000000E+00 -0.00000000000E+00 -0.45593999997E+02  0.45594000000E+02  0.51100000000E-03 0.  1.
         23    2    1    2    0    0 -0.44408920985E-15  0.00000000000E+00 -0.71054273576E-14  0.91188000000E+02  0.91188000000E+02 0.  0.
    9900012    2    3    3    0    0 -0.34353068060E+01 -0.20217964490E+02 -0.38249913214E+02  0.47787270953E+02  0.19999999581E+02 0.  0.
         12    1    3    3    0    0  0.34353068060E+01  0.20217964490E+02  0.38249913214E+02  0.43400729047E+02  0.00000000000E+00 0. -1.
         11    1    4    4    0    0  0.43531510763E+01  0.11582919818E+01 -0.71972471631E+01  0.84906967674E+01  0.51100000000E-03 0. -1.
        -11    1    4    4    0    0 -0.68555730655E+01 -0.21772468796E+02 -0.30626359157E+02  0.38197030710E+02  0.51100000000E-03 0.  1.
        -12    1    4    4    0    0 -0.93288481676E+00  0.39621232454E+00 -0.42630689361E+00  0.10995434757E+01  0.00000000000E+00 0.  1.
</event>
<event>
 8    1  0.8600524E-011  0.9118800E+02  0.7816164E-02  0.1184000E+00
        -11   -1    0    0    0    0  0.00000000000E+00  0.00000000000E+00  0.45593999997E+02  0.45594000000E+02  0.51100000000E-03 0.  1.
         11   -1    0    0    0    0 -0.00000000000E+00 -0.00000000000E+00 -0.45593999997E+02  0.45594000000E+02  0.51100000000E-03 0. -1.
         23    2    1    2    0    0  0.88817841970E-15  0.00000000000E+00 -0.17763568394E-14  0.91188000000E+02  0.91188000000E+02 0.  0.
    9900012    2    3    3    0    0  0.49089668728E+01  0.42512942456E+02  0.72233661198E+01  0.47787248277E+02  0.19999896196E+02 0.  0.
         12    1    3    3    0    0 -0.49089668728E+01 -0.42512942456E+02 -0.72233661198E+01  0.43400751723E+02  0.00000000000E+00 0. -1.
         11    1    4    4    0    0  0.71568843696E+01  0.98761551324E+01 -0.24918695932E+01  0.12448648457E+02  0.51100000000E-03 0. -1.
        -11    1    4    4    0    0  0.28254173447E+01  0.94937711253E+01  0.50292261593E+00  0.99180444025E+01  0.51100000000E-03 0.  1.
         12    1    4    4    0    0 -0.50733348415E+01  0.23143016198E+02  0.92123130971E+01  0.25420555418E+02  0.00000000000E+00 0. -1.
</event>
<event>
 8    1  0.8600524E-011  0.9118800E+02  0.7816164E-02  0.1184000E+00
        -11   -1    0    0    0    0  0.00000000000E+00  0.00000000000E+00  0.45593999997E+02  0.45594000000E+02  0.51100000000E-03 0. -1.
         11   -1    0    0    0    0 -0.00000000000E+00 -0.00000000000E+00 -0.45593999997E+02  0.45594000000E+02  0.51100000000E-03 0.  1.
         23    2    1    2    0    0  0.44408920985E-15  0.35527136788E-14  0.00000000000E+00  0.91188000000E+02  0.91188000000E+02 0.  0.
    9900012    2    3    3    0    0 -0.31958336999E+01 -0.23982670858E+02 -0.36031118159E+02  0.47787270394E+02  0.19999997036E+02 0.  0.
         12    1    3    3    0    0  0.31958336999E+01  0.23982670858E+02  0.36031118159E+02  0.43400729606E+02  0.00000000000E+00 0. -1.
         11    1    4    4    0    0  0.29752549860E+01 -0.85675404256E+01 -0.66190094808E+01  0.11227919573E+02  0.51100000000E-03 0. -1.
        -11    1    4    4    0    0 -0.92967538007E+01 -0.96954312282E+01 -0.25849546986E+02  0.29131256368E+02  0.51100000000E-03 0.  1.
         12    1    4    4    0    0  0.31256651148E+01 -0.57196992042E+01 -0.35625616925E+01  0.74280944534E+01  0.00000000000E+00 0. -1.
</event>
<event>
 8    1  0.8600524E-011  0.9118800E+02  0.7816164E-02  0.1184000E+00
        -11   -1    0    0    0    0  0.00000000000E+00  0.00000000000E+00  0.45593999997E+02  0.45594000000E+02  0.51100000000E-03 0. -1.
         11   -1    0    0    0    0 -0.00000000000E+00 -0.00000000000E+00 -0.45593999997E+02  0.45594000000E+02  0.51100000000E-03 0.  1.
         23    2    1    2    0    0  0.00000000000E+00  0.00000000000E+00  0.00000000000E+00  0.91188000000E+02  0.91188000000E+02 0.  0.
    9900012    2    3    3    0    0  0.24823620722E+02  0.25751178750E+02  0.24582266383E+02  0.47787272203E+02  0.20000005282E+02 0.  0.
        -12    1    3    3    0    0 -0.24823620722E+02 -0.25751178750E+02 -0.24582266383E+02  0.43400727797E+02  0.00000000000E+00 0.  1.
         11    1    4    4    0    0  0.16283447304E+02  0.51504510411E+01  0.13523284384E+02  0.21784329754E+02  0.51100000000E-03 0. -1.
        -11    1    4    4    0    0 -0.56989638950E+00  0.48072211714E+01  0.33981927763E+00  0.48527965843E+01  0.51100000000E-03 0.  1.
         12    1    4    4    0    0  0.91100698075E+01  0.15793506537E+02  0.10719162722E+02  0.21150145865E+02  0.00000000000E+00 0. -1.
</event>
<event>
 8    1  0.8600524E-011  0.9118800E+02  0.7816164E-02  0.1184000E+00
        -11   -1    0    0    0    0  0.00000000000E+00  0.00000000000E+00  0.45593999997E+02  0.45594000000E+02  0.51100000000E-03 0. -1.
         11   -1    0    0    0    0 -0.00000000000E+00 -0.00000000000E+00 -0.45593999997E+02  0.45594000000E+02  0.51100000000E-03 0.  1.
         23    2    1    2    0    0  0.00000000000E+00  0.00000000000E+00  0.00000000000E+00  0.91188000000E+02  0.91188000000E+02 0.  0.
    9900012    2    3    3    0    0  0.13609856819E+02  0.22898875751E+02  0.34264207047E+02  0.47787278832E+02  0.20000035509E+02 0.  0.
        -12    1    3    3    0    0 -0.13609856819E+02 -0.22898875751E+02 -0.34264207047E+02  0.43400721168E+02  0.00000000000E+00 0.  1.
         11    1    4    4    0    0  0.28388872793E+01  0.15919364490E+02  0.13446387841E+02  0.21030710710E+02  0.51100000000E-03 0. -1.
        -11    1    4    4    0    0  0.11279654784E+02  0.15854851613E+01  0.14168532726E+02  0.18179430550E+02  0.51100000000E-03 0.  1.
        -12    1    4    4    0    0 -0.50868524425E+00  0.53940260993E+01  0.66492864802E+01  0.85771375722E+01  0.00000000000E+00 0.  1.
</event>
<event>
 8    1  0.8600524E-011  0.9118800E+02  0.7816164E-02  0.1184000E+00
        -11   -1    0    0    0    0  0.00000000000E+00  0.00000000000E+00  0.45593999997E+02  0.45594000000E+02  0.51100000000E-03 0. -1.
         11   -1    0    0    0    0 -0.00000000000E+00 -0.00000000000E+00 -0.45593999997E+02  0.45594000000E+02  0.51100000000E-03 0.  1.
         23    2    1    2    0    0  0.00000000000E+00 -0.17763568394E-14 -0.35527136788E-14  0.91188000000E+02  0.91188000000E+02 0.  0.
    9900012    2    3    3    0    0 -0.29268951424E+02  0.95183335320E+01  0.30599880720E+02  0.47787275458E+02  0.20000020122E+02 0.  0.
        -12    1    3    3    0    0  0.29268951424E+02 -0.95183335320E+01 -0.30599880720E+02  0.43400724542E+02  0.00000000000E+00 0.  1.
         11    1    4    4    0    0 -0.18264601079E+01  0.10374507004E+01  0.54614013096E+01  0.58514241862E+01  0.51100000000E-03 0. -1.
        -11    1    4    4    0    0  0.11898882084E+01 -0.25996414199E+01  0.19371237343E+01  0.34534646492E+01  0.51100000000E-03 0.  1.
        -12    1    4    4    0    0 -0.28632379525E+02  0.11080524251E+02  0.23201355676E+02  0.38482386622E+02  0.00000000000E+00 0.  1.
</event>
<event>
 8    1  0.8600524E-011  0.9118800E+02  0.7816164E-02  0.1184000E+00
        -11   -1    0    0    0    0  0.00000000000E+00  0.00000000000E+00  0.45593999997E+02  0.45594000000E+02  0.51100000000E-03 0. -1.
         11   -1    0    0    0    0 -0.00000000000E+00 -0.00000000000E+00 -0.45593999997E+02  0.45594000000E+02  0.51100000000E-03 0.  1.
         23    2    1    2    0    0  0.00000000000E+00  0.88817841970E-15  0.00000000000E+00  0.91188000000E+02  0.91188000000E+02 0.  0.
    9900012    2    3    3    0    0 -0.10169061843E+02 -0.68332435914E+01  0.41635574495E+02  0.47787261524E+02  0.19999956590E+02 0.  0.
        -12    1    3    3    0    0  0.10169061843E+02  0.68332435914E+01 -0.41635574495E+02  0.43400738476E+02  0.00000000000E+00 0.  1.
         11    1    4    4    0    0 -0.37109503163E+01 -0.38250486139E+01  0.16276404569E+02  0.17126689554E+02  0.51100000000E-03 0. -1.
        -11    1    4    4    0    0 -0.36466888953E+01  0.51448073800E+01  0.18788511839E+02  0.19818566050E+02  0.51100000000E-03 0.  1.
        -12    1    4    4    0    0 -0.28114226316E+01 -0.81530023575E+01  0.65706580876E+01  0.10842005919E+02  0.00000000000E+00 0.  1.
</event>
<event>
 8    1  0.8600524E-011  0.9118800E+02  0.7816164E-02  0.1184000E+00
        -11   -1    0    0    0    0  0.00000000000E+00  0.00000000000E+00  0.45593999997E+02  0.45594000000E+02  0.51100000000E-03 0. -1.
         11   -1    0    0    0    0 -0.00000000000E+00 -0.00000000000E+00 -0.45593999997E+02  0.45594000000E+02  0.51100000000E-03 0.  1.
         23    2    1    2    0    0  0.00000000000E+00 -0.13322676296E-14  0.00000000000E+00  0.91188000000E+02  0.91188000000E+02 0.  0.
    9900012    2    3    3    0    0 -0.25777401655E+02  0.64127174779E+00 -0.34910475612E+02  0.47787228428E+02  0.19999805696E+02 0.  0.
         12    1    3    3    0    0  0.25777401655E+02 -0.64127174779E+00  0.34910475612E+02  0.43400771572E+02  0.00000000000E+00 0. -1.
         11    1    4    4    0    0  0.11279186738E+01 -0.36388292487E+01 -0.96451159260E+01  0.10370223735E+02  0.51100000000E-03 0. -1.
        -11    1    4    4    0    0 -0.17705262873E+02  0.23095916405E+01 -0.13686081991E+02  0.22497097312E+02  0.51100000000E-03 0.  1.
         12    1    4    4    0    0 -0.92000574559E+01  0.19705093560E+01 -0.11579277695E+02  0.14919907381E+02  0.00000000000E+00 0. -1.
</event>
<event>
 8    1  0.8600524E-011  0.9118800E+02  0.7816164E-02  0.1184000E+00
        -11   -1    0    0    0    0  0.00000000000E+00  0.00000000000E+00  0.45593999997E+02  0.45594000000E+02  0.51100000000E-03 0.  1.
         11   -1    0    0    0    0 -0.00000000000E+00 -0.00000000000E+00 -0.45593999997E+02  0.45594000000E+02  0.51100000000E-03 0. -1.
         23    2    1    2    0    0  0.35527136788E-14  0.00000000000E+00  0.00000000000E+00  0.91188000000E+02  0.91188000000E+02 0.  0.
    9900012    2    3    3    0    0 -0.19855469245E+02  0.19197146733E+02 -0.33479086706E+02  0.47787316269E+02  0.20000206198E+02 0.  0.
         12    1    3    3    0    0  0.19855469245E+02 -0.19197146733E+02  0.33479086706E+02  0.43400683731E+02  0.00000000000E+00 0. -1.
         11    1    4    4    0    0  0.11009994460E+01  0.82402603405E+00  0.18319132035E+01  0.22906603701E+01  0.51100000000E-03 0. -1.
        -11    1    4    4    0    0 -0.65288985394E+01  0.64735805311E+01 -0.16979074384E+02  0.19308617978E+02  0.51100000000E-03 0.  1.
         12    1    4    4    0    0 -0.14427570152E+02  0.11899540168E+02 -0.18331925525E+02  0.26188037921E+02  0.00000000000E+00 0. -1.
</event>
<event>
 8    1  0.8600524E-011  0.9118800E+02  0.7816164E-02  0.1184000E+00
        -11   -1    0    0    0    0  0.00000000000E+00  0.00000000000E+00  0.45593999997E+02  0.45594000000E+02  0.51100000000E-03 0. -1.
         11   -1    0    0    0    0 -0.00000000000E+00 -0.00000000000E+00 -0.45593999997E+02  0.45594000000E+02  0.51100000000E-03 0.  1.
         23    2    1    2    0    0  0.00000000000E+00  0.00000000000E+00  0.00000000000E+00  0.91188000000E+02  0.91188000000E+02 0.  0.
    9900012    2    3    3    0    0  0.12243797064E+02  0.31876765006E+02  0.26787765991E+02  0.47787272811E+02  0.20000008053E+02 0.  0.
        -12    1    3    3    0    0 -0.12243797064E+02 -0.31876765006E+02 -0.26787765991E+02  0.43400727189E+02  0.00000000000E+00 0.  1.
         11    1    4    4    0    0  0.10761459744E+02  0.11721475492E+02  0.16358736097E+02  0.22821267504E+02  0.51100000000E-03 0. -1.
        -11    1    4    4    0    0  0.53592892567E-01  0.20974227759E+02  0.91614071574E+01  0.22887823917E+02  0.51100000000E-03 0.  1.
        -12    1    4    4    0    0  0.14287444275E+01 -0.81893824484E+00  0.12676227367E+01  0.20781813902E+01  0.00000000000E+00 0.  1.
</event>
<event>
 8    1  0.8600524E-011  0.9118800E+02  0.7816164E-02  0.1184000E+00
        -11   -1    0    0    0    0  0.00000000000E+00  0.00000000000E+00  0.45593999997E+02  0.45594000000E+02  0.51100000000E-03 0. -1.
         11   -1    0    0    0    0 -0.00000000000E+00 -0.00000000000E+00 -0.45593999997E+02  0.45594000000E+02  0.51100000000E-03 0.  1.
         23    2    1    2    0    0  0.00000000000E+00  0.17763568394E-14  0.00000000000E+00  0.91188000000E+02  0.91188000000E+02 0.  0.
    9900012    2    3    3    0    0  0.40753540867E+02  0.11395073061E+02 -0.96397311532E+01  0.47787271896E+02  0.20000003883E+02 0.  0.
         12    1    3    3    0    0 -0.40753540867E+02 -0.11395073061E+02  0.96397311532E+01  0.43400728104E+02  0.00000000000E+00 0. -1.
         11    1    4    4    0    0  0.10033176978E+02 -0.13880294168E+01  0.23625112499E+01  0.10400611789E+02  0.51100000000E-03 0. -1.
        -11    1    4    4    0    0  0.30524585165E+02  0.10617608914E+02 -0.13193056625E+02  0.34907601778E+02  0.51100000000E-03 0.  1.
         12    1    4    4    0    0  0.19577872415E+00  0.21654935639E+01  0.11908142220E+01  0.24790583284E+01  0.00000000000E+00 0. -1.
</event>
<event>
 8    1  0.8600524E-011  0.9118800E+02  0.7816164E-02  0.1184000E+00
        -11   -1    0    0    0    0  0.00000000000E+00  0.00000000000E+00  0.45593999997E+02  0.45594000000E+02  0.51100000000E-03 0.  1.
         11   -1    0    0    0    0 -0.00000000000E+00 -0.00000000000E+00 -0.45593999997E+02  0.45594000000E+02  0.51100000000E-03 0. -1.
         23    2    1    2    0    0  0.00000000000E+00 -0.88817841970E-15 -0.35527136788E-14  0.91188000000E+02  0.91188000000E+02 0.  0.
    9900012    2    3    3    0    0 -0.39904885535E+02 -0.12307000652E+01 -0.17020836512E+02  0.47787269732E+02  0.19999994016E+02 0.  0.
         12    1    3    3    0    0  0.39904885535E+02  0.12307000652E+01  0.17020836512E+02  0.43400730268E+02  0.00000000000E+00 0. -1.
         11    1    4    4    0    0 -0.10432838746E+02  0.62547629363E+01 -0.64043126323E+00  0.12180982561E+02  0.51100000000E-03 0. -1.
        -11    1    4    4    0    0 -0.18462094012E+01  0.14421951597E+01 -0.15609454549E+00  0.23479313874E+01  0.51100000000E-03 0.  1.
         12    1    4    4    0    0 -0.27625837388E+02 -0.89276581612E+01 -0.16224310704E+02  0.33258355784E+02  0.00000000000E+00 0. -1.
</event>
<event>
 8    1  0.8600524E-011  0.9118800E+02  0.7816164E-02  0.1184000E+00
        -11   -1    0    0    0    0  0.00000000000E+00  0.00000000000E+00  0.45593999997E+02  0.45594000000E+02  0.51100000000E-03 0. -1.
         11   -1    0    0    0    0 -0.00000000000E+00 -0.00000000000E+00 -0.45593999997E+02  0.45594000000E+02  0.51100000000E-03 0.  1.
         23    2    1    2    0    0 -0.88817841970E-15  0.35527136788E-14  0.71054273576E-14  0.91188000000E+02  0.91188000000E+02 0.  0.
    9900012    2    3    3    0    0 -0.65924072175E+01 -0.23918008099E+02 -0.35610286981E+02  0.47787268633E+02  0.19999989004E+02 0.  0.
         12    1    3    3    0    0  0.65924072175E+01  0.23918008099E+02  0.35610286981E+02  0.43400731367E+02  0.00000000000E+00 0. -1.
         11    1    4    4    0    0 -0.10972800633E+02 -0.12370386344E+02 -0.19542216786E+02  0.25599356422E+02  0.51100000000E-03 0. -1.
        -11    1    4    4    0    0  0.38052601847E+01 -0.11274902491E+02 -0.85740129125E+01  0.14666871818E+02  0.51100000000E-03 0.  1.
         12    1    4    4    0    0  0.57513323107E+00 -0.27271926380E+00 -0.74940572830E+01  0.75210403929E+01  0.00000000000E+00 0. -1.
</event>
<event>
 8    1  0.8600524E-011  0.9118800E+02  0.7816164E-02  0.1184000E+00
        -11   -1    0    0    0    0  0.00000000000E+00  0.00000000000E+00  0.45593999997E+02  0.45594000000E+02  0.51100000000E-03 0. -1.
         11   -1    0    0    0    0 -0.00000000000E+00 -0.00000000000E+00 -0.45593999997E+02  0.45594000000E+02  0.51100000000E-03 0.  1.
         23    2    1    2    0    0  0.35527136788E-14 -0.17763568394E-14 -0.35527136788E-14  0.91188000000E+02  0.91188000000E+02 0.  0.
    9900012    2    3    3    0    0  0.30797427477E+02 -0.11111501542E+02 -0.28489931829E+02  0.47787271650E+02  0.20000002761E+02 0.  0.
         12    1    3    3    0    0 -0.30797427477E+02  0.11111501542E+02  0.28489931829E+02  0.43400728350E+02  0.00000000000E+00 0. -1.
         11    1    4    4    0    0  0.18179182498E+02 -0.15409072224E+02 -0.15083579394E+02  0.28203484727E+02  0.51100000000E-03 0. -1.
        -11    1    4    4    0    0  0.84861062256E+01  0.70954290482E+00 -0.10013393250E+02  0.13144789639E+02  0.51100000000E-03 0.  1.
         12    1    4    4    0    0  0.41321387528E+01  0.35880277776E+01 -0.33929591843E+01  0.64389972846E+01  0.00000000000E+00 0. -1.
</event>
<event>
 8    1  0.8600524E-011  0.9118800E+02  0.7816164E-02  0.1184000E+00
        -11   -1    0    0    0    0  0.00000000000E+00  0.00000000000E+00  0.45593999997E+02  0.45594000000E+02  0.51100000000E-03 0. -1.
         11   -1    0    0    0    0 -0.00000000000E+00 -0.00000000000E+00 -0.45593999997E+02  0.45594000000E+02  0.51100000000E-03 0.  1.
         23    2    1    2    0    0  0.00000000000E+00  0.00000000000E+00  0.00000000000E+00  0.91188000000E+02  0.91188000000E+02 0.  0.
    9900012    2    3    3    0    0 -0.28468359188E+02 -0.18236311621E+02 -0.27214203606E+02  0.47787269426E+02  0.19999992623E+02 0.  0.
         12    1    3    3    0    0  0.28468359188E+02  0.18236311621E+02  0.27214203606E+02  0.43400730574E+02  0.00000000000E+00 0. -1.
         11    1    4    4    0    0 -0.22704867670E+02 -0.11144705595E+02 -0.20118910660E+02  0.32318509328E+02  0.51100000000E-03 0. -1.
        -11    1    4    4    0    0 -0.39860411688E+01 -0.81458953891E+01 -0.89136863128E+01  0.12716050481E+02  0.51100000000E-03 0.  1.
         12    1    4    4    0    0 -0.17774503485E+01  0.10542893632E+01  0.18183933669E+01  0.27527096177E+01  0.00000000000E+00 0. -1.
</event>
<event>
 8    1  0.8600524E-011  0.9118800E+02  0.7816164E-02  0.1184000E+00
        -11   -1    0    0    0    0  0.00000000000E+00  0.00000000000E+00  0.45593999997E+02  0.45594000000E+02  0.51100000000E-03 0. -1.
         11   -1    0    0    0    0 -0.00000000000E+00 -0.00000000000E+00 -0.45593999997E+02  0.45594000000E+02  0.51100000000E-03 0.  1.
         23    2    1    2    0    0  0.00000000000E+00 -0.17763568394E-14  0.00000000000E+00  0.91188000000E+02  0.91188000000E+02 0.  0.
    9900012    2    3    3    0    0 -0.22604976697E+02 -0.92430629439E+01  0.35877627620E+02  0.47787270194E+02  0.19999996122E+02 0.  0.
        -12    1    3    3    0    0  0.22604976697E+02  0.92430629439E+01 -0.35877627620E+02  0.43400729806E+02  0.00000000000E+00 0.  1.
         11    1    4    4    0    0 -0.15151430661E+02 -0.37878725214E+01  0.27932959704E+02  0.32002563450E+02  0.51100000000E-03 0. -1.
        -11    1    4    4    0    0 -0.28209925790E+01  0.26144904746E+01  0.43579287288E+01  0.58124953883E+01  0.51100000000E-03 0.  1.
         12    1    4    4    0    0 -0.46325534571E+01 -0.80696808972E+01  0.35867391874E+01  0.99722113552E+01  0.00000000000E+00 0. -1.
</event>
<event>
 8    1  0.8600524E-011  0.9118800E+02  0.7816164E-02  0.1184000E+00
        -11   -1    0    0    0    0  0.00000000000E+00  0.00000000000E+00  0.45593999997E+02  0.45594000000E+02  0.51100000000E-03 0. -1.
         11   -1    0    0    0    0 -0.00000000000E+00 -0.00000000000E+00 -0.45593999997E+02  0.45594000000E+02  0.51100000000E-03 0.  1.
         23    2    1    2    0    0  0.35527136788E-14  0.88817841970E-15  0.71054273576E-14  0.91188000000E+02  0.91188000000E+02 0.  0.
    9900012    2    3    3    0    0  0.10764104686E+02  0.51544491284E+01  0.41727560918E+02  0.47787266876E+02  0.19999980996E+02 0.  0.
        -12    1    3    3    0    0 -0.10764104686E+02 -0.51544491284E+01 -0.41727560918E+02  0.43400733124E+02  0.00000000000E+00 0.  1.
         11    1    4    4    0    0 -0.37585114370E+01 -0.87729982347E+00  0.22392914075E+01  0.44621171512E+01  0.51100000000E-03 0. -1.
        -11    1    4    4    0    0 -0.10098445310E+01 -0.20386291943E+00  0.15785072571E+01  0.18849486700E+01  0.51100000000E-03 0.  1.
         12    1    4    4    0    0  0.15532460654E+02  0.62356118713E+01  0.37909762253E+02  0.41440201055E+02  0.00000000000E+00 0. -1.
</event>
<event>
 8    1  0.8600524E-011  0.9118800E+02  0.7816164E-02  0.1184000E+00
        -11   -1    0    0    0    0  0.00000000000E+00  0.00000000000E+00  0.45593999997E+02  0.45594000000E+02  0.51100000000E-03 0. -1.
         11   -1    0    0    0    0 -0.00000000000E+00 -0.00000000000E+00 -0.45593999997E+02  0.45594000000E+02  0.51100000000E-03 0.  1.
         23    2    1    2    0    0  0.00000000000E+00  0.00000000000E+00  0.35527136788E-14  0.91188000000E+02  0.91188000000E+02 0.  0.
    9900012    2    3    3    0    0  0.82661273909E+01  0.31989115131E+02 -0.28142341230E+02  0.47787265918E+02  0.19999976627E+02 0.  0.
         12    1    3    3    0    0 -0.82661273909E+01 -0.31989115131E+02  0.28142341230E+02  0.43400734082E+02  0.00000000000E+00 0. -1.
         11    1    4    4    0    0  0.89401926845E+00  0.19209905293E+02 -0.89399553004E+01  0.21207134008E+02  0.51100000000E-03 0. -1.
        -11    1    4    4    0    0  0.65032796378E+01  0.22888561985E+01 -0.11953986807E+02  0.13799612661E+02  0.51100000000E-03 0.  1.
         12    1    4    4    0    0  0.86882848463E+00  0.10490353640E+02 -0.72483991227E+01  0.12780519249E+02  0.00000000000E+00 0. -1.
</event>
<event>
 8    1  0.8600524E-011  0.9118800E+02  0.7816164E-02  0.1184000E+00
        -11   -1    0    0    0    0  0.00000000000E+00  0.00000000000E+00  0.45593999997E+02  0.45594000000E+02  0.51100000000E-03 0. -1.
         11   -1    0    0    0    0 -0.00000000000E+00 -0.00000000000E+00 -0.45593999997E+02  0.45594000000E+02  0.51100000000E-03 0.  1.
         23    2    1    2    0    0  0.71054273576E-14  0.00000000000E+00  0.00000000000E+00  0.91188000000E+02  0.91188000000E+02 0.  0.
    9900012    2    3    3    0    0 -0.36355145046E+02 -0.20458922820E+02 -0.11973291213E+02  0.47787265021E+02  0.19999972539E+02 0.  0.
         12    1    3    3    0    0  0.36355145046E+02  0.20458922820E+02  0.11973291213E+02  0.43400734979E+02  0.00000000000E+00 0. -1.
         11    1    4    4    0    0 -0.60077873935E+01 -0.11396550921E+02 -0.12298762077E+01  0.12941695330E+02  0.51100000000E-03 0. -1.
        -11    1    4    4    0    0 -0.19154991065E+02 -0.67073234746E+01 -0.11599232508E+02  0.23376143094E+02  0.51100000000E-03 0.  1.
         12    1    4    4    0    0 -0.11192366587E+02 -0.23550484241E+01  0.85581750283E+00  0.11469426598E+02  0.00000000000E+00 0. -1.
</event>
<event>
 8    1  0.8600524E-011  0.9118800E+02  0.7816164E-02  0.1184000E+00
        -11   -1    0    0    0    0  0.00000000000E+00  0.00000000000E+00  0.45593999997E+02  0.45594000000E+02  0.51100000000E-03 0. -1.
         11   -1    0    0    0    0 -0.00000000000E+00 -0.00000000000E+00 -0.45593999997E+02  0.45594000000E+02  0.51100000000E-03 0.  1.
         23    2    1    2    0    0 -0.88817841970E-15  0.00000000000E+00  0.00000000000E+00  0.91188000000E+02  0.91188000000E+02 0.  0.
    9900012    2    3    3    0    0 -0.44879539420E+01  0.16116149159E+02  0.40046861604E+02  0.47787272833E+02  0.20000008154E+02 0.  0.
        -12    1    3    3    0    0  0.44879539420E+01 -0.16116149159E+02 -0.40046861604E+02  0.43400727167E+02  0.00000000000E+00 0.  1.
         11    1    4    4    0    0 -0.24299007914E+01 -0.15293876140E+01  0.13033319203E+02  0.13345817848E+02  0.51100000000E-03 0. -1.
        -11    1    4    4    0    0  0.25015825854E+01  0.56241248100E+01  0.22768286203E+01  0.65629752505E+01  0.51100000000E-03 0.  1.
         12    1    4    4    0    0 -0.45596357360E+01  0.12021411963E+02  0.24736713781E+02  0.27878479734E+02  0.00000000000E+00 0. -1.
</event>
<event>
 8    1  0.8600524E-011  0.9118800E+02  0.7816164E-02  0.1184000E+00
        -11   -1    0    0    0    0  0.00000000000E+00  0.00000000000E+00  0.45593999997E+02  0.45594000000E+02  0.51100000000E-03 0. -1.
         11   -1    0    0    0    0 -0.00000000000E+00 -0.00000000000E+00 -0.45593999997E+02  0.45594000000E+02  0.51100000000E-03 0.  1.
         23    2    1    2    0    0  0.00000000000E+00  0.35527136788E-14  0.71054273576E-14  0.91188000000E+02  0.91188000000E+02 0.  0.
    9900012    2    3    3    0    0 -0.10117579379E+02 -0.17596168775E+02 -0.38361865904E+02  0.47787270470E+02  0.19999997383E+02 0.  0.
         12    1    3    3    0    0  0.10117579379E+02  0.17596168775E+02  0.38361865904E+02  0.43400729530E+02  0.00000000000E+00 0. -1.
         11    1    4    4    0    0  0.25276931323E+01 -0.29360650754E+01 -0.86195227890E+01  0.94501790496E+01  0.51100000000E-03 0. -1.
        -11    1    4    4    0    0 -0.13053327480E+02 -0.44959868439E+01 -0.19584067484E+02  0.23961196871E+02  0.51100000000E-03 0.  1.
        -12    1    4    4    0    0  0.40805496876E+00 -0.10164116856E+02 -0.10158275631E+02  0.14375894550E+02  0.00000000000E+00 0.  1.
</event>
<event>
 8    1  0.8600524E-011  0.9118800E+02  0.7816164E-02  0.1184000E+00
        -11   -1    0    0    0    0  0.00000000000E+00  0.00000000000E+00  0.45593999997E+02  0.45594000000E+02  0.51100000000E-03 0. -1.
         11   -1    0    0    0    0 -0.00000000000E+00 -0.00000000000E+00 -0.45593999997E+02  0.45594000000E+02  0.51100000000E-03 0.  1.
         23    2    1    2    0    0  0.00000000000E+00  0.00000000000E+00  0.71054273576E-14  0.91188000000E+02  0.91188000000E+02 0.  0.
    9900012    2    3    3    0    0 -0.10572179929E+02 -0.18044706742E+02 -0.38029473030E+02  0.47787271333E+02  0.20000001317E+02 0.  0.
         12    1    3    3    0    0  0.10572179929E+02  0.18044706742E+02  0.38029473030E+02  0.43400728667E+02  0.00000000000E+00 0. -1.
         11    1    4    4    0    0 -0.50695723951E+01 -0.23070852666E+01 -0.42745590882E+01  0.70210442497E+01  0.51100000000E-03 0. -1.
        -11    1    4    4    0    0 -0.58758035916E+01 -0.14268971195E+02 -0.13643794177E+02  0.20598100073E+02  0.51100000000E-03 0.  1.
        -12    1    4    4    0    0  0.37319605722E+00 -0.14686502812E+01 -0.20111119764E+02  0.20168127011E+02  0.00000000000E+00 0.  1.
</event>
<event>
 8    1  0.8600524E-011  0.9118800E+02  0.7816164E-02  0.1184000E+00
        -11   -1    0    0    0    0  0.00000000000E+00  0.00000000000E+00  0.45593999997E+02  0.45594000000E+02  0.51100000000E-03 0. -1.
         11   -1    0    0    0    0 -0.00000000000E+00 -0.00000000000E+00 -0.45593999997E+02  0.45594000000E+02  0.51100000000E-03 0.  1.
         23    2    1    2    0    0 -0.44408920985E-15 -0.88817841970E-15  0.00000000000E+00  0.91188000000E+02  0.91188000000E+02 0.  0.
    9900012    2    3    3    0    0  0.11776455304E+01  0.72596299756E+01  0.42773051256E+02  0.47787274314E+02  0.20000014905E+02 0.  0.
        -12    1    3    3    0    0 -0.11776455304E+01 -0.72596299756E+01 -0.42773051256E+02  0.43400725686E+02  0.00000000000E+00 0.  1.
         11    1    4    4    0    0 -0.23473042809E+01  0.40556998625E+01  0.27308088131E+02  0.27707223181E+02  0.51100000000E-03 0. -1.
        -11    1    4    4    0    0  0.33516886361E+01  0.31942851870E+01  0.15954503902E-01  0.46300679667E+01  0.51100000000E-03 0.  1.
        -12    1    4    4    0    0  0.17326117523E+00  0.96449261570E-02  0.15449008621E+02  0.15449983166E+02  0.00000000000E+00 0.  1.
</event>
<event>
 8    1  0.8600524E-011  0.9118800E+02  0.7816164E-02  0.1184000E+00
        -11   -1    0    0    0    0  0.00000000000E+00  0.00000000000E+00  0.45593999997E+02  0.45594000000E+02  0.51100000000E-03 0. -1.
         11   -1    0    0    0    0 -0.00000000000E+00 -0.00000000000E+00 -0.45593999997E+02  0.45594000000E+02  0.51100000000E-03 0.  1.
         23    2    1    2    0    0  0.00000000000E+00  0.00000000000E+00  0.00000000000E+00  0.91188000000E+02  0.91188000000E+02 0.  0.
    9900012    2    3    3    0    0  0.25170144177E+02  0.58267058164E+01 -0.34873155001E+02  0.47787267307E+02  0.19999982959E+02 0.  0.
         12    1    3    3    0    0 -0.25170144177E+02 -0.58267058164E+01  0.34873155001E+02  0.43400732693E+02  0.00000000000E+00 0. -1.
         11    1    4    4    0    0  0.13738766294E+01 -0.47291899234E+00  0.10330024073E+01  0.17827741306E+01  0.51100000000E-03 0. -1.
        -11    1    4    4    0    0  0.21687315211E+02  0.10270584848E+02 -0.32314287490E+02  0.40249692302E+02  0.51100000000E-03 0.  1.
        -12    1    4    4    0    0  0.21089523372E+01 -0.39709600390E+01 -0.35918699189E+01  0.57548008746E+01  0.00000000000E+00 0.  1.
</event>
<event>
 8    1  0.8600524E-011  0.9118800E+02  0.7816164E-02  0.1184000E+00
        -11   -1    0    0    0    0  0.00000000000E+00  0.00000000000E+00  0.45593999997E+02  0.45594000000E+02  0.51100000000E-03 0. -1.
         11   -1    0    0    0    0 -0.00000000000E+00 -0.00000000000E+00 -0.45593999997E+02  0.45594000000E+02  0.51100000000E-03 0.  1.
         23    2    1    2    0    0  0.00000000000E+00 -0.88817841970E-15  0.00000000000E+00  0.91188000000E+02  0.91188000000E+02 0.  0.
    9900012    2    3    3    0    0  0.40534100308E+02 -0.54384570661E+01 -0.14526980651E+02  0.47787271091E+02  0.20000000212E+02 0.  0.
         12    1    3    3    0    0 -0.40534100308E+02  0.54384570661E+01  0.14526980651E+02  0.43400728909E+02  0.00000000000E+00 0. -1.
         11    1    4    4    0    0  0.21755567287E+01  0.11473184293E+01 -0.35470299749E+01  0.43163420349E+01  0.51100000000E-03 0. -1.
        -11    1    4    4    0    0  0.23879430027E+02  0.38837463255E+01 -0.62116940354E+01  0.24977906377E+02  0.51100000000E-03 0.  1.
        -12    1    4    4    0    0  0.14479113552E+02 -0.10469521821E+02 -0.47682566405E+01  0.18493022679E+02  0.00000000000E+00 0.  1.
</event>
<event>
 8    1  0.8600524E-011  0.9118800E+02  0.7816164E-02  0.1184000E+00
        -11   -1    0    0    0    0  0.00000000000E+00  0.00000000000E+00  0.45593999997E+02  0.45594000000E+02  0.51100000000E-03 0.  1.
         11   -1    0    0    0    0 -0.00000000000E+00 -0.00000000000E+00 -0.45593999997E+02  0.45594000000E+02  0.51100000000E-03 0. -1.
         23    2    1    2    0    0  0.88817841970E-15 -0.71054273576E-14  0.00000000000E+00  0.91188000000E+02  0.91188000000E+02 0.  0.
    9900012    2    3    3    0    0 -0.30196056079E+01  0.42894922478E+02 -0.58762839163E+01  0.47787272989E+02  0.20000008866E+02 0.  0.
         12    1    3    3    0    0  0.30196056079E+01 -0.42894922478E+02  0.58762839163E+01  0.43400727011E+02  0.00000000000E+00 0. -1.
         11    1    4    4    0    0 -0.35400112336E+01  0.13578003592E+02 -0.40591120732E+01  0.14607198641E+02  0.51100000000E-03 0. -1.
        -11    1    4    4    0    0  0.79605178904E+01  0.14249289759E+02 -0.64693157978E+00  0.16334951008E+02  0.51100000000E-03 0.  1.
        -12    1    4    4    0    0 -0.74401122647E+01  0.15067629128E+02 -0.11702402634E+01  0.16845123339E+02  0.00000000000E+00 0.  1.
</event>
<event>
 8    1  0.8600524E-011  0.9118800E+02  0.7816164E-02  0.1184000E+00
        -11   -1    0    0    0    0  0.00000000000E+00  0.00000000000E+00  0.45593999997E+02  0.45594000000E+02  0.51100000000E-03 0. -1.
         11   -1    0    0    0    0 -0.00000000000E+00 -0.00000000000E+00 -0.45593999997E+02  0.45594000000E+02  0.51100000000E-03 0.  1.
         23    2    1    2    0    0  0.00000000000E+00  0.22204460493E-15  0.00000000000E+00  0.91188000000E+02  0.91188000000E+02 0.  0.
    9900012    2    3    3    0    0 -0.39459876206E+02 -0.15525503798E+01  0.18003626422E+02  0.47787276421E+02  0.20000024513E+02 0.  0.
        -12    1    3    3    0    0  0.39459876206E+02  0.15525503798E+01 -0.18003626422E+02  0.43400723579E+02  0.00000000000E+00 0.  1.
         11    1    4    4    0    0 -0.17076594279E+02  0.39624271473E+01  0.12997511796E+02  0.21823066105E+02  0.51100000000E-03 0. -1.
        -11    1    4    4    0    0 -0.96402761192E+01 -0.43023967505E+01 -0.28632581530E+01  0.10938180332E+02  0.51100000000E-03 0.  1.
         12    1    4    4    0    0 -0.12743005808E+02 -0.12125807765E+01  0.78693727787E+01  0.15026029984E+02  0.00000000000E+00 0. -1.
</event>
<event>
 8    1  0.8600524E-011  0.9118800E+02  0.7816164E-02  0.1184000E+00
        -11   -1    0    0    0    0  0.00000000000E+00  0.00000000000E+00  0.45593999997E+02  0.45594000000E+02  0.51100000000E-03 0. -1.
         11   -1    0    0    0    0 -0.00000000000E+00 -0.00000000000E+00 -0.45593999997E+02  0.45594000000E+02  0.51100000000E-03 0.  1.
         23    2    1    2    0    0 -0.35527136788E-14  0.00000000000E+00 -0.17763568394E-14  0.91188000000E+02  0.91188000000E+02 0.  0.
    9900012    2    3    3    0    0 -0.23039535336E+02  0.33233652587E+02 -0.15758412841E+02  0.47787269269E+02  0.19999991903E+02 0.  0.
         12    1    3    3    0    0  0.23039535336E+02 -0.33233652587E+02  0.15758412841E+02  0.43400730731E+02  0.00000000000E+00 0. -1.
         11    1    4    4    0    0  0.86716686077E+00  0.16224184753E+01  0.26545736330E+01  0.32297030061E+01  0.51100000000E-03 0. -1.
        -11    1    4    4    0    0 -0.36645093859E+01  0.11348175007E+02 -0.50016353724E+01  0.12931591614E+02  0.51100000000E-03 0.  1.
         12    1    4    4    0    0 -0.20242192811E+02  0.20263059105E+02 -0.13411351101E+02  0.31625974648E+02  0.00000000000E+00 0. -1.
</event>
<event>
 8    1  0.8600524E-011  0.9118800E+02  0.7816164E-02  0.1184000E+00
        -11   -1    0    0    0    0  0.00000000000E+00  0.00000000000E+00  0.45593999997E+02  0.45594000000E+02  0.51100000000E-03 0. -1.
         11   -1    0    0    0    0 -0.00000000000E+00 -0.00000000000E+00 -0.45593999997E+02  0.45594000000E+02  0.51100000000E-03 0.  1.
         23    2    1    2    0    0  0.00000000000E+00  0.55511151231E-15  0.00000000000E+00  0.91188000000E+02  0.91188000000E+02 0.  0.
    9900012    2    3    3    0    0 -0.49077240171E+01  0.75003564538E+00 -0.43115829712E+02  0.47787273276E+02  0.20000010173E+02 0.  0.
         12    1    3    3    0    0  0.49077240171E+01 -0.75003564538E+00  0.43115829712E+02  0.43400726724E+02  0.00000000000E+00 0. -1.
         11    1    4    4    0    0 -0.79438149179E+01  0.66378697974E+01 -0.30574933903E+02  0.32279902329E+02  0.51100000000E-03 0. -1.
        -11    1    4    4    0    0  0.22557075195E+01 -0.67017062917E+01 -0.73647242767E+01  0.10209811338E+02  0.51100000000E-03 0.  1.
        -12    1    4    4    0    0  0.78038338130E+00  0.81387213963E+00 -0.51761715315E+01  0.52975596085E+01  0.00000000000E+00 0.  1.
</event>
<event>
 8    1  0.8600524E-011  0.9118800E+02  0.7816164E-02  0.1184000E+00
        -11   -1    0    0    0    0  0.00000000000E+00  0.00000000000E+00  0.45593999997E+02  0.45594000000E+02  0.51100000000E-03 0. -1.
         11   -1    0    0    0    0 -0.00000000000E+00 -0.00000000000E+00 -0.45593999997E+02  0.45594000000E+02  0.51100000000E-03 0.  1.
         23    2    1    2    0    0  0.00000000000E+00  0.00000000000E+00 -0.35527136788E-14  0.91188000000E+02  0.91188000000E+02 0.  0.
    9900012    2    3    3    0    0 -0.26592535005E+02 -0.20201906346E+02 -0.27719006952E+02  0.47787270923E+02  0.19999999446E+02 0.  0.
         12    1    3    3    0    0  0.26592535005E+02  0.20201906346E+02  0.27719006952E+02  0.43400729077E+02  0.00000000000E+00 0. -1.
         11    1    4    4    0    0 -0.17370546838E+01 -0.22605200444E+01  0.42363936608E+00  0.28821485769E+01  0.51100000000E-03 0. -1.
        -11    1    4    4    0    0 -0.50280165196E+01  0.31076215326E+01 -0.32249217291E+01  0.67333782109E+01  0.51100000000E-03 0.  1.
        -12    1    4    4    0    0 -0.19827463801E+02 -0.21049007834E+02 -0.24917724589E+02  0.38171744135E+02  0.00000000000E+00 0.  1.
</event>
<event>
 8    1  0.8600524E-011  0.9118800E+02  0.7816164E-02  0.1184000E+00
        -11   -1    0    0    0    0  0.00000000000E+00  0.00000000000E+00  0.45593999997E+02  0.45594000000E+02  0.51100000000E-03 0. -1.
         11   -1    0    0    0    0 -0.00000000000E+00 -0.00000000000E+00 -0.45593999997E+02  0.45594000000E+02  0.51100000000E-03 0.  1.
         23    2    1    2    0    0  0.00000000000E+00 -0.35527136788E-14  0.00000000000E+00  0.91188000000E+02  0.91188000000E+02 0.  0.
    9900012    2    3    3    0    0  0.13334393250E+01  0.25942536447E+02  0.34768238741E+02  0.47787266332E+02  0.19999978514E+02 0.  0.
        -12    1    3    3    0    0 -0.13334393250E+01 -0.25942536447E+02 -0.34768238741E+02  0.43400733668E+02  0.00000000000E+00 0.  1.
         11    1    4    4    0    0 -0.29379626774E+01  0.23517396172E+02  0.19145971724E+02  0.30467487276E+02  0.51100000000E-03 0. -1.
        -11    1    4    4    0    0  0.40937615686E+01  0.31756155963E+01  0.15711219678E+02  0.16543453153E+02  0.51100000000E-03 0.  1.
        -12    1    4    4    0    0  0.17764043375E+00 -0.75047532135E+00 -0.88952660415E-01  0.77632590286E+00  0.00000000000E+00 0.  1.
</event>
<event>
 8    1  0.8600524E-011  0.9118800E+02  0.7816164E-02  0.1184000E+00
        -11   -1    0    0    0    0  0.00000000000E+00  0.00000000000E+00  0.45593999997E+02  0.45594000000E+02  0.51100000000E-03 0. -1.
         11   -1    0    0    0    0 -0.00000000000E+00 -0.00000000000E+00 -0.45593999997E+02  0.45594000000E+02  0.51100000000E-03 0.  1.
         23    2    1    2    0    0  0.17763568394E-14  0.00000000000E+00  0.00000000000E+00  0.91188000000E+02  0.91188000000E+02 0.  0.
    9900012    2    3    3    0    0  0.86324003628E+01  0.18013216940E+02 -0.38530883609E+02  0.47787270602E+02  0.19999997984E+02 0.  0.
         12    1    3    3    0    0 -0.86324003628E+01 -0.18013216940E+02  0.38530883609E+02  0.43400729398E+02  0.00000000000E+00 0. -1.
         11    1    4    4    0    0  0.19823163839E+01  0.31746680203E+01 -0.19560857846E+01  0.42230755549E+01  0.51100000000E-03 0. -1.
        -11    1    4    4    0    0  0.12135611371E+01  0.17087915311E+02 -0.31207853627E+02  0.35600557700E+02  0.51100000000E-03 0.  1.
        -12    1    4    4    0    0  0.54365228418E+01 -0.22493663919E+01 -0.53669441980E+01  0.79636373472E+01  0.00000000000E+00 0.  1.
</event>
<event>
 8    1  0.9855962E-011  0.9118800E+02  0.7816164E-02  0.1184000E+00
        -11   -1    0    0    0    0  0.00000000000E+00  0.00000000000E+00  0.45593999997E+02  0.45594000000E+02  0.51100000000E-03 0. -1.
         11   -1    0    0    0    0 -0.00000000000E+00 -0.00000000000E+00 -0.45593999997E+02  0.45594000000E+02  0.51100000000E-03 0.  1.
         23    2    1    2    0    0  0.00000000000E+00  0.00000000000E+00 -0.71054273576E-14  0.91188000000E+02  0.91188000000E+02 0.  0.
    9900012    2    3    3    0    0  0.99989176206E+01 -0.87750835967E+01  0.41311529705E+02  0.47787274980E+02  0.20000017945E+02 0.  0.
        -12    1    3    3    0    0 -0.99989176206E+01  0.87750835967E+01 -0.41311529705E+02  0.43400725020E+02  0.00000000000E+00 0.  1.
         11    1    4    4    0    0 -0.29433014218E+01 -0.28972472574E+00  0.13809622902E+02  0.14122770572E+02  0.51100000000E-03 0. -1.
        -11    1    4    4    0    0  0.91752313189E+01 -0.99815990419E+01  0.13679061424E+02  0.19259644620E+02  0.51100000000E-03 0.  1.
        -12    1    4    4    0    0  0.37669877235E+01  0.14962401709E+01  0.13822845378E+02  0.14404859788E+02  0.00000000000E+00 0.  1.
</event>
<event>
 8    1  0.8600524E-011  0.9118800E+02  0.7816164E-02  0.1184000E+00
        -11   -1    0    0    0    0  0.00000000000E+00  0.00000000000E+00  0.45593999997E+02  0.45594000000E+02  0.51100000000E-03 0. -1.
         11   -1    0    0    0    0 -0.00000000000E+00 -0.00000000000E+00 -0.45593999997E+02  0.45594000000E+02  0.51100000000E-03 0.  1.
         23    2    1    2    0    0  0.00000000000E+00  0.00000000000E+00  0.00000000000E+00  0.91188000000E+02  0.91188000000E+02 0.  0.
    9900012    2    3    3    0    0 -0.46144549578E+01 -0.10162342519E+02  0.41941115959E+02  0.47787267196E+02  0.19999982453E+02 0.  0.
        -12    1    3    3    0    0  0.46144549578E+01  0.10162342519E+02 -0.41941115959E+02  0.43400732804E+02  0.00000000000E+00 0.  1.
         11    1    4    4    0    0 -0.29855762824E+01 -0.41321490434E+01  0.12480394715E+02  0.13481415874E+02  0.51100000000E-03 0. -1.
        -11    1    4    4    0    0 -0.81700188555E-01 -0.81286378902E+01  0.30450691471E+02  0.31517075375E+02  0.51100000000E-03 0.  1.
        -12    1    4    4    0    0 -0.15471784868E+01  0.20984444141E+01 -0.98997022763E+00  0.27887759467E+01  0.00000000000E+00 0.  1.
</event>
<event>
 8    1  0.8600524E-011  0.9118800E+02  0.7816164E-02  0.1184000E+00
        -11   -1    0    0    0    0  0.00000000000E+00  0.00000000000E+00  0.45593999997E+02  0.45594000000E+02  0.51100000000E-03 0. -1.
         11   -1    0    0    0    0 -0.00000000000E+00 -0.00000000000E+00 -0.45593999997E+02  0.45594000000E+02  0.51100000000E-03 0.  1.
         23    2    1    2    0    0  0.00000000000E+00  0.00000000000E+00 -0.35527136788E-14  0.91188000000E+02  0.91188000000E+02 0.  0.
    9900012    2    3    3    0    0 -0.38196909184E+02 -0.62237105594E+01 -0.19643969951E+02  0.47787262681E+02  0.19999961870E+02 0.  0.
         12    1    3    3    0    0  0.38196909184E+02  0.62237105594E+01  0.19643969951E+02  0.43400737319E+02  0.00000000000E+00 0. -1.
         11    1    4    4    0    0 -0.14264268954E+02 -0.10968597311E+01 -0.14005201145E+01  0.14374767021E+02  0.51100000000E-03 0. -1.
        -11    1    4    4    0    0 -0.14713826586E+02  0.29462317964E+00 -0.17245297164E+02  0.22671210160E+02  0.51100000000E-03 0.  1.
        -12    1    4    4    0    0 -0.92188136448E+01 -0.54214740080E+01 -0.99815267315E+00  0.10741285500E+02  0.00000000000E+00 0.  1.
</event>
<event>
 8    1  0.8600524E-011  0.9118800E+02  0.7816164E-02  0.1184000E+00
        -11   -1    0    0    0    0  0.00000000000E+00  0.00000000000E+00  0.45593999997E+02  0.45594000000E+02  0.51100000000E-03 0. -1.
         11   -1    0    0    0    0 -0.00000000000E+00 -0.00000000000E+00 -0.45593999997E+02  0.45594000000E+02  0.51100000000E-03 0.  1.
         23    2    1    2    0    0  0.00000000000E+00  0.00000000000E+00  0.00000000000E+00  0.91188000000E+02  0.91188000000E+02 0.  0.
    9900012    2    3    3    0    0  0.15693995302E+02  0.17864837828E+02 -0.36306603587E+02  0.47787269785E+02  0.19999994259E+02 0.  0.
         12    1    3    3    0    0 -0.15693995302E+02 -0.17864837828E+02  0.36306603587E+02  0.43400730215E+02  0.00000000000E+00 0. -1.
         11    1    4    4    0    0 -0.68473219185E+00  0.98027885014E+01 -0.23482514400E+02  0.25455687054E+02  0.51100000000E-03 0. -1.
        -11    1    4    4    0    0  0.10378151796E+02  0.47965180545E+01 -0.85002928191E+01  0.14246669731E+02  0.51100000000E-03 0.  1.
         12    1    4    4    0    0  0.60005756982E+01  0.32655312724E+01 -0.43237963673E+01  0.80849130006E+01  0.00000000000E+00 0. -1.
</event>
<event>
 8    1  0.8600524E-011  0.9118800E+02  0.7816164E-02  0.1184000E+00
        -11   -1    0    0    0    0  0.00000000000E+00  0.00000000000E+00  0.45593999997E+02  0.45594000000E+02  0.51100000000E-03 0. -1.
         11   -1    0    0    0    0 -0.00000000000E+00 -0.00000000000E+00 -0.45593999997E+02  0.45594000000E+02  0.51100000000E-03 0.  1.
         23    2    1    2    0    0  0.00000000000E+00  0.00000000000E+00  0.00000000000E+00  0.91188000000E+02  0.91188000000E+02 0.  0.
    9900012    2    3    3    0    0 -0.33988262769E+02 -0.94538765969E+01 -0.25279333201E+02  0.47787280238E+02  0.20000041918E+02 0.  0.
         12    1    3    3    0    0  0.33988262769E+02  0.94538765969E+01  0.25279333201E+02  0.43400719762E+02  0.00000000000E+00 0. -1.
         11    1    4    4    0    0  0.12069305407E+00 -0.30636074053E+01 -0.65286093660E+01  0.72126969756E+01  0.51100000000E-03 0. -1.
        -11    1    4    4    0    0 -0.28099725173E+02 -0.53051698741E+01 -0.19212351649E+02  0.34450745106E+02  0.51100000000E-03 0.  1.
         12    1    4    4    0    0 -0.60092306501E+01 -0.10850993176E+01  0.46162781384E+00  0.61238381571E+01  0.00000000000E+00 0. -1.
</event>
<event>
 8    1  0.8600524E-011  0.9118800E+02  0.7816164E-02  0.1184000E+00
        -11   -1    0    0    0    0  0.00000000000E+00  0.00000000000E+00  0.45593999997E+02  0.45594000000E+02  0.51100000000E-03 0. -1.
         11   -1    0    0    0    0 -0.00000000000E+00 -0.00000000000E+00 -0.45593999997E+02  0.45594000000E+02  0.51100000000E-03 0.  1.
         23    2    1    2    0    0  0.00000000000E+00  0.00000000000E+00 -0.71054273576E-14  0.91188000000E+02  0.91188000000E+02 0.  0.
    9900012    2    3    3    0    0 -0.17463850220E+02 -0.64554882792E+01  0.39204130887E+02  0.47787271065E+02  0.20000000095E+02 0.  0.
        -12    1    3    3    0    0  0.17463850220E+02  0.64554882792E+01 -0.39204130887E+02  0.43400728935E+02  0.00000000000E+00 0.  1.
         11    1    4    4    0    0 -0.23414821771E+01 -0.22689947270E+01  0.16138364821E+02  0.16464437288E+02  0.51100000000E-03 0. -1.
        -11    1    4    4    0    0 -0.11856983177E+02  0.28532512472E+01  0.86519350186E+01  0.14952761370E+02  0.51100000000E-03 0.  1.
        -12    1    4    4    0    0 -0.32653848659E+01 -0.70397447994E+01  0.14413831048E+02  0.16370072408E+02  0.00000000000E+00 0.  1.
</event>
<event>
 8    1  0.8600524E-011  0.9118800E+02  0.7816164E-02  0.1184000E+00
        -11   -1    0    0    0    0  0.00000000000E+00  0.00000000000E+00  0.45593999997E+02  0.45594000000E+02  0.51100000000E-03 0. -1.
         11   -1    0    0    0    0 -0.00000000000E+00 -0.00000000000E+00 -0.45593999997E+02  0.45594000000E+02  0.51100000000E-03 0.  1.
         23    2    1    2    0    0  0.00000000000E+00  0.00000000000E+00  0.35527136788E-14  0.91188000000E+02  0.91188000000E+02 0.  0.
    9900012    2    3    3    0    0 -0.18755961173E+02 -0.23617995249E+02  0.31209416921E+02  0.47787268628E+02  0.19999988981E+02 0.  0.
        -12    1    3    3    0    0  0.18755961173E+02  0.23617995249E+02 -0.31209416921E+02  0.43400731372E+02  0.00000000000E+00 0.  1.
         11    1    4    4    0    0 -0.35617098682E+01 -0.15741331737E+02  0.17185759350E+02  0.23575954418E+02  0.51100000000E-03 0. -1.
        -11    1    4    4    0    0 -0.97611748822E+01  0.40245791512E+00  0.59884683808E+01  0.11458807148E+02  0.51100000000E-03 0.  1.
        -12    1    4    4    0    0 -0.54330764221E+01 -0.82791214277E+01  0.80351891897E+01  0.12752507061E+02  0.00000000000E+00 0.  1.
</event>
<event>
 8    1  0.8600524E-011  0.9118800E+02  0.7816164E-02  0.1184000E+00
        -11   -1    0    0    0    0  0.00000000000E+00  0.00000000000E+00  0.45593999997E+02  0.45594000000E+02  0.51100000000E-03 0. -1.
         11   -1    0    0    0    0 -0.00000000000E+00 -0.00000000000E+00 -0.45593999997E+02  0.45594000000E+02  0.51100000000E-03 0.  1.
         23    2    1    2    0    0  0.00000000000E+00  0.00000000000E+00 -0.35527136788E-14  0.91188000000E+02  0.91188000000E+02 0.  0.
    9900012    2    3    3    0    0  0.32562043154E+02  0.11080402412E+02  0.26468118417E+02  0.47787271152E+02  0.20000000490E+02 0.  0.
        -12    1    3    3    0    0 -0.32562043154E+02 -0.11080402412E+02 -0.26468118417E+02  0.43400728848E+02  0.00000000000E+00 0.  1.
         11    1    4    4    0    0  0.11120899506E+02 -0.24743465257E+01  0.10240027555E+01  0.11438766475E+02  0.51100000000E-03 0. -1.
        -11    1    4    4    0    0  0.93509027232E+01  0.76149597417E+01  0.87598598136E+01  0.14905104422E+02  0.51100000000E-03 0.  1.
         12    1    4    4    0    0  0.12090240924E+02  0.59397891964E+01  0.16684255848E+02  0.21443400255E+02  0.00000000000E+00 0. -1.
</event>
<event>
 8    1  0.8600524E-011  0.9118800E+02  0.7816164E-02  0.1184000E+00
        -11   -1    0    0    0    0  0.00000000000E+00  0.00000000000E+00  0.45593999997E+02  0.45594000000E+02  0.51100000000E-03 0. -1.
         11   -1    0    0    0    0 -0.00000000000E+00 -0.00000000000E+00 -0.45593999997E+02  0.45594000000E+02  0.51100000000E-03 0.  1.
         23    2    1    2    0    0  0.00000000000E+00  0.00000000000E+00  0.00000000000E+00  0.91188000000E+02  0.91188000000E+02 0.  0.
    9900012    2    3    3    0    0 -0.20141148029E+02 -0.18350355897E+02  0.33781971793E+02  0.47787273927E+02  0.20000013141E+02 0.  0.
        -12    1    3    3    0    0  0.20141148029E+02  0.18350355897E+02 -0.33781971793E+02  0.43400726073E+02  0.00000000000E+00 0.  1.
         11    1    4    4    0    0 -0.76898458101E+01  0.17595356377E+01  0.14788089433E+02  0.16760587208E+02  0.51100000000E-03 0. -1.
        -11    1    4    4    0    0 -0.76325473453E+01 -0.14912059438E+02  0.97654011517E+01  0.19390419170E+02  0.51100000000E-03 0.  1.
         12    1    4    4    0    0 -0.48187548736E+01 -0.51978320966E+01  0.92284812089E+01  0.11636267548E+02  0.00000000000E+00 0. -1.
</event>
<event>
 8    1  0.8600524E-011  0.9118800E+02  0.7816164E-02  0.1184000E+00
        -11   -1    0    0    0    0  0.00000000000E+00  0.00000000000E+00  0.45593999997E+02  0.45594000000E+02  0.51100000000E-03 0. -1.
         11   -1    0    0    0    0 -0.00000000000E+00 -0.00000000000E+00 -0.45593999997E+02  0.45594000000E+02  0.51100000000E-03 0.  1.
         23    2    1    2    0    0  0.35527136788E-14  0.17763568394E-14  0.00000000000E+00  0.91188000000E+02  0.91188000000E+02 0.  0.
    9900012    2    3    3    0    0  0.24577820430E+02  0.66002952172E+01  0.35156652507E+02  0.47787269942E+02  0.19999994973E+02 0.  0.
        -12    1    3    3    0    0 -0.24577820430E+02 -0.66002952172E+01 -0.35156652507E+02  0.43400730058E+02  0.00000000000E+00 0.  1.
         11    1    4    4    0    0  0.19664641941E+02 -0.11173033000E+01  0.14514872000E+02  0.24466875950E+02  0.51100000000E-03 0. -1.
        -11    1    4    4    0    0 -0.74505437585E+00  0.26299748087E+01  0.27482977634E+01  0.38762113428E+01  0.51100000000E-03 0.  1.
         12    1    4    4    0    0  0.56582328653E+01  0.50876237085E+01  0.17893482745E+02  0.19444182649E+02  0.00000000000E+00 0. -1.
</event>
<event>
 8    1  0.8600524E-011  0.9118800E+02  0.7816164E-02  0.1184000E+00
        -11   -1    0    0    0    0  0.00000000000E+00  0.00000000000E+00  0.45593999997E+02  0.45594000000E+02  0.51100000000E-03 0. -1.
         11   -1    0    0    0    0 -0.00000000000E+00 -0.00000000000E+00 -0.45593999997E+02  0.45594000000E+02  0.51100000000E-03 0.  1.
         23    2    1    2    0    0  0.00000000000E+00  0.35527136788E-14 -0.71054273576E-14  0.91188000000E+02  0.91188000000E+02 0.  0.
    9900012    2    3    3    0    0 -0.83660626804E+01 -0.24368017050E+02  0.34926090074E+02  0.47787273882E+02  0.20000012937E+02 0.  0.
        -12    1    3    3    0    0  0.83660626804E+01  0.24368017050E+02 -0.34926090074E+02  0.43400726118E+02  0.00000000000E+00 0.  1.
         11    1    4    4    0    0  0.17940236704E+01 -0.12684583745E+02  0.60650230976E+01  0.14173979369E+02  0.51100000000E-03 0.  1.
        -11    1    4    4    0    0 -0.83559226737E+01 -0.12639149918E+02  0.26103895756E+02  0.30182493738E+02  0.51100000000E-03 0. -1.
        -12    1    4    4    0    0 -0.18041636770E+01  0.95571661273E+00  0.27571712208E+01  0.34308007750E+01  0.00000000000E+00 0.  1.
</event>
<event>
 8    1  0.8600524E-011  0.9118800E+02  0.7816164E-02  0.1184000E+00
        -11   -1    0    0    0    0  0.00000000000E+00  0.00000000000E+00  0.45593999997E+02  0.45594000000E+02  0.51100000000E-03 0. -1.
         11   -1    0    0    0    0 -0.00000000000E+00 -0.00000000000E+00 -0.45593999997E+02  0.45594000000E+02  0.51100000000E-03 0.  1.
         23    2    1    2    0    0  0.00000000000E+00 -0.17763568394E-14  0.00000000000E+00  0.91188000000E+02  0.91188000000E+02 0.  0.
    9900012    2    3    3    0    0  0.19205562428E+02  0.11923893647E+02  0.37048483987E+02  0.47787273812E+02  0.20000012620E+02 0.  0.
        -12    1    3    3    0    0 -0.19205562428E+02 -0.11923893647E+02 -0.37048483987E+02  0.43400726188E+02  0.00000000000E+00 0.  1.
         11    1    4    4    0    0  0.72178286688E+01  0.88898587634E+01  0.22477371416E+02  0.25226154395E+02  0.51100000000E-03 0. -1.
        -11    1    4    4    0    0  0.19900088193E+01  0.80651358478E+00 -0.20944093713E+01  0.29995249856E+01  0.51100000000E-03 0.  1.
         12    1    4    4    0    0  0.99977249402E+01  0.22275212984E+01  0.16665521942E+02  0.19561594432E+02  0.00000000000E+00 0. -1.
</event>
<event>
 8    1  0.8600524E-011  0.9118800E+02  0.7816164E-02  0.1184000E+00
        -11   -1    0    0    0    0  0.00000000000E+00  0.00000000000E+00  0.45593999997E+02  0.45594000000E+02  0.51100000000E-03 0.  1.
         11   -1    0    0    0    0 -0.00000000000E+00 -0.00000000000E+00 -0.45593999997E+02  0.45594000000E+02  0.51100000000E-03 0. -1.
         23    2    1    2    0    0  0.71054273576E-14  0.00000000000E+00  0.17763568394E-14  0.91188000000E+02  0.91188000000E+02 0.  0.
    9900012    2    3    3    0    0 -0.36975457520E+02 -0.20695818454E+02 -0.93873486507E+01  0.47787266423E+02  0.19999978931E+02 0.  0.
         12    1    3    3    0    0  0.36975457520E+02  0.20695818454E+02  0.93873486507E+01  0.43400733577E+02  0.00000000000E+00 0. -1.
         11    1    4    4    0    0 -0.13587279111E+02 -0.52780966090E+01  0.32983168181E+00  0.14580166208E+02  0.51100000000E-03 0.  1.
        -11    1    4    4    0    0 -0.10550499559E+02 -0.14708290363E+02 -0.92828013017E+01  0.20342498534E+02  0.51100000000E-03 0. -1.
        -12    1    4    4    0    0 -0.12837678850E+02 -0.70943148282E+00 -0.43437903072E+00  0.12864601682E+02  0.00000000000E+00 0.  1.
</event>
<event>
 8    1  0.8600524E-011  0.9118800E+02  0.7816164E-02  0.1184000E+00
        -11   -1    0    0    0    0  0.00000000000E+00  0.00000000000E+00  0.45593999997E+02  0.45594000000E+02  0.51100000000E-03 0. -1.
         11   -1    0    0    0    0 -0.00000000000E+00 -0.00000000000E+00 -0.45593999997E+02  0.45594000000E+02  0.51100000000E-03 0.  1.
         23    2    1    2    0    0  0.00000000000E+00  0.00000000000E+00  0.00000000000E+00  0.91188000000E+02  0.91188000000E+02 0.  0.
    9900012    2    3    3    0    0 -0.26365584290E+02 -0.16396050640E+02  0.30325709609E+02  0.47787272186E+02  0.20000005204E+02 0.  0.
        -12    1    3    3    0    0  0.26365584290E+02  0.16396050640E+02 -0.30325709609E+02  0.43400727814E+02  0.00000000000E+00 0.  1.
         11    1    4    4    0    0 -0.94398240422E+01 -0.12535627355E+02  0.15870218027E+02  0.22318513651E+02  0.51100000000E-03 0. -1.
        -11    1    4    4    0    0 -0.15251383380E+02  0.11114753326E+00  0.14658443183E+02  0.21153888663E+02  0.51100000000E-03 0.  1.
         12    1    4    4    0    0 -0.16743768679E+01 -0.39715708178E+01 -0.20295160040E+00  0.43148698715E+01  0.00000000000E+00 0. -1.
</event>
<event>
 8    1  0.8600524E-011  0.9118800E+02  0.7816164E-02  0.1184000E+00
        -11   -1    0    0    0    0  0.00000000000E+00  0.00000000000E+00  0.45593999997E+02  0.45594000000E+02  0.51100000000E-03 0. -1.
         11   -1    0    0    0    0 -0.00000000000E+00 -0.00000000000E+00 -0.45593999997E+02  0.45594000000E+02  0.51100000000E-03 0.  1.
         23    2    1    2    0    0  0.00000000000E+00  0.00000000000E+00  0.35527136788E-14  0.91188000000E+02  0.91188000000E+02 0.  0.
    9900012    2    3    3    0    0 -0.32848512433E+02 -0.15313778910E+02  0.23876387228E+02  0.47787326495E+02  0.20000252822E+02 0.  0.
        -12    1    3    3    0    0  0.32848512433E+02  0.15313778910E+02 -0.23876387228E+02  0.43400673505E+02  0.00000000000E+00 0.  1.
         11    1    4    4    0    0 -0.37705195936E+01 -0.44565972444E+01  0.10741874759E+02  0.12225626798E+02  0.51100000000E-03 0. -1.
        -11    1    4    4    0    0 -0.14945319964E+02 -0.18618741808E+01  0.14367283745E+01  0.15129221823E+02  0.51100000000E-03 0.  1.
        -12    1    4    4    0    0 -0.14132672875E+02 -0.89953074847E+01  0.11697784095E+02  0.20432477874E+02  0.00000000000E+00 0.  1.
</event>
<event>
 8    1  0.8600524E-011  0.9118800E+02  0.7816164E-02  0.1184000E+00
        -11   -1    0    0    0    0  0.00000000000E+00  0.00000000000E+00  0.45593999997E+02  0.45594000000E+02  0.51100000000E-03 0. -1.
         11   -1    0    0    0    0 -0.00000000000E+00 -0.00000000000E+00 -0.45593999997E+02  0.45594000000E+02  0.51100000000E-03 0.  1.
         23    2    1    2    0    0  0.17763568394E-14  0.00000000000E+00  0.00000000000E+00  0.91188000000E+02  0.91188000000E+02 0.  0.
    9900012    2    3    3    0    0  0.15189075775E+02  0.31544015584E+02  0.25649376103E+02  0.47787269170E+02  0.19999991455E+02 0.  0.
        -12    1    3    3    0    0 -0.15189075775E+02 -0.31544015584E+02 -0.25649376103E+02  0.43400730830E+02  0.00000000000E+00 0.  1.
         11    1    4    4    0    0  0.65910053437E+01  0.14547052190E+02  0.84731626272E+01  0.18079064247E+02  0.51100000000E-03 0. -1.
        -11    1    4    4    0    0  0.49875087655E+01  0.40911576381E+01 -0.15940569934E+01  0.66448350217E+01  0.51100000000E-03 0.  1.
        -12    1    4    4    0    0  0.36105616663E+01  0.12905805756E+02  0.18770270469E+02  0.23063369902E+02  0.00000000000E+00 0.  1.
</event>
<event>
 8    1  0.8600524E-011  0.9118800E+02  0.7816164E-02  0.1184000E+00
        -11   -1    0    0    0    0  0.00000000000E+00  0.00000000000E+00  0.45593999997E+02  0.45594000000E+02  0.51100000000E-03 0. -1.
         11   -1    0    0    0    0 -0.00000000000E+00 -0.00000000000E+00 -0.45593999997E+02  0.45594000000E+02  0.51100000000E-03 0.  1.
         23    2    1    2    0    0  0.00000000000E+00  0.35527136788E-14  0.00000000000E+00  0.91188000000E+02  0.91188000000E+02 0.  0.
    9900012    2    3    3    0    0  0.20783168814E+02 -0.19044801886E+02  0.32999677491E+02  0.47787270751E+02  0.19999998662E+02 0.  0.
        -12    1    3    3    0    0 -0.20783168814E+02  0.19044801886E+02 -0.32999677491E+02  0.43400729249E+02  0.00000000000E+00 0.  1.
         11    1    4    4    0    0  0.17671358459E+01 -0.97718502830E+00  0.11277927416E+02  0.11457281822E+02  0.51100000000E-03 0. -1.
        -11    1    4    4    0    0  0.74845654229E+00 -0.59713080636E+01  0.94901409017E+01  0.11237414373E+02  0.51100000000E-03 0.  1.
         12    1    4    4    0    0  0.18267576426E+02 -0.12096308794E+02  0.12231609173E+02  0.25092574557E+02  0.00000000000E+00 0. -1.
</event>
<event>
 8    1  0.8600524E-011  0.9118800E+02  0.7816164E-02  0.1184000E+00
        -11   -1    0    0    0    0  0.00000000000E+00  0.00000000000E+00  0.45593999997E+02  0.45594000000E+02  0.51100000000E-03 0. -1.
         11   -1    0    0    0    0 -0.00000000000E+00 -0.00000000000E+00 -0.45593999997E+02  0.45594000000E+02  0.51100000000E-03 0.  1.
         23    2    1    2    0    0  0.00000000000E+00  0.00000000000E+00  0.00000000000E+00  0.91188000000E+02  0.91188000000E+02 0.  0.
    9900012    2    3    3    0    0  0.18742274145E+02  0.35435031894E+02 -0.16634569099E+02  0.47787271728E+02  0.20000003115E+02 0.  0.
         12    1    3    3    0    0 -0.18742274145E+02 -0.35435031894E+02  0.16634569099E+02  0.43400728272E+02  0.00000000000E+00 0. -1.
         11    1    4    4    0    0 -0.23486123625E+01  0.55972398955E+01  0.14363725174E+01  0.62376470522E+01  0.51100000000E-03 0. -1.
        -11    1    4    4    0    0  0.18613143826E+02  0.20268031401E+02 -0.13730996234E+02  0.30753576666E+02  0.51100000000E-03 0.  1.
        -12    1    4    4    0    0  0.24777426816E+01  0.95697605976E+01 -0.43399453826E+01  0.10796048009E+02  0.00000000000E+00 0.  1.
</event>
<event>
 8    1  0.8600524E-011  0.9118800E+02  0.7816164E-02  0.1184000E+00
        -11   -1    0    0    0    0  0.00000000000E+00  0.00000000000E+00  0.45593999997E+02  0.45594000000E+02  0.51100000000E-03 0. -1.
         11   -1    0    0    0    0 -0.00000000000E+00 -0.00000000000E+00 -0.45593999997E+02  0.45594000000E+02  0.51100000000E-03 0.  1.
         23    2    1    2    0    0  0.00000000000E+00  0.00000000000E+00 -0.71054273576E-14  0.91188000000E+02  0.91188000000E+02 0.  0.
    9900012    2    3    3    0    0 -0.19387722417E+02 -0.15202692354E+02 -0.35729776372E+02  0.47787279327E+02  0.20000037764E+02 0.  0.
         12    1    3    3    0    0  0.19387722417E+02  0.15202692354E+02  0.35729776372E+02  0.43400720673E+02  0.00000000000E+00 0. -1.
         11    1    4    4    0    0 -0.85206528729E+01  0.25964707780E+01 -0.74698216399E+01  0.11625034257E+02  0.51100000000E-03 0. -1.
        -11    1    4    4    0    0 -0.84653526657E+01 -0.16819220090E+02 -0.27723690545E+02  0.33513450701E+02  0.51100000000E-03 0.  1.
        -12    1    4    4    0    0 -0.24017168787E+01 -0.97994304212E+00 -0.53626418641E+00  0.26487943689E+01  0.00000000000E+00 0.  1.
</event>
<event>
 8    1  0.8600524E-011  0.9118800E+02  0.7816164E-02  0.1184000E+00
        -11   -1    0    0    0    0  0.00000000000E+00  0.00000000000E+00  0.45593999997E+02  0.45594000000E+02  0.51100000000E-03 0. -1.
         11   -1    0    0    0    0 -0.00000000000E+00 -0.00000000000E+00 -0.45593999997E+02  0.45594000000E+02  0.51100000000E-03 0.  1.
         23    2    1    2    0    0  0.00000000000E+00  0.00000000000E+00  0.00000000000E+00  0.91188000000E+02  0.91188000000E+02 0.  0.
    9900012    2    3    3    0    0  0.34124856443E+01  0.22575153210E+02 -0.36909898671E+02  0.47787271658E+02  0.20000002796E+02 0.  0.
         12    1    3    3    0    0 -0.34124856443E+01 -0.22575153210E+02  0.36909898671E+02  0.43400728342E+02  0.00000000000E+00 0. -1.
         11    1    4    4    0    0  0.18578380095E+01 -0.12964941619E+01 -0.10074490021E+01  0.24793976959E+01  0.51100000000E-03 0. -1.
        -11    1    4    4    0    0 -0.64511006354E+00  0.20645039671E+02 -0.35882451060E+02  0.41402706727E+02  0.51100000000E-03 0.  1.
        -12    1    4    4    0    0  0.21997576983E+01  0.32266077010E+01 -0.19998609484E-01  0.39051672348E+01  0.00000000000E+00 0.  1.
</event>
<event>
 8    1  0.8600524E-011  0.9118800E+02  0.7816164E-02  0.1184000E+00
        -11   -1    0    0    0    0  0.00000000000E+00  0.00000000000E+00  0.45593999997E+02  0.45594000000E+02  0.51100000000E-03 0. -1.
         11   -1    0    0    0    0 -0.00000000000E+00 -0.00000000000E+00 -0.45593999997E+02  0.45594000000E+02  0.51100000000E-03 0.  1.
         23    2    1    2    0    0 -0.35527136788E-14  0.00000000000E+00  0.00000000000E+00  0.91188000000E+02  0.91188000000E+02 0.  0.
    9900012    2    3    3    0    0 -0.25863192491E+02  0.64381764663E+01  0.34253011509E+02  0.47787266832E+02  0.19999980795E+02 0.  0.
        -12    1    3    3    0    0  0.25863192491E+02 -0.64381764663E+01 -0.34253011509E+02  0.43400733168E+02  0.00000000000E+00 0.  1.
         11    1    4    4    0    0 -0.21634866299E+02  0.87523707307E+01  0.27756981428E+02  0.36264603285E+02  0.51100000000E-03 0. -1.
        -11    1    4    4    0    0  0.21802152197E+01 -0.57568757091E+00  0.36672655587E+01  0.43050657977E+01  0.51100000000E-03 0.  1.
         12    1    4    4    0    0 -0.64085414114E+01 -0.17385066935E+01  0.28287645229E+01  0.72175977494E+01  0.00000000000E+00 0. -1.
</event>
<event>
 8    1  0.8600524E-011  0.9118800E+02  0.7816164E-02  0.1184000E+00
        -11   -1    0    0    0    0  0.00000000000E+00  0.00000000000E+00  0.45593999997E+02  0.45594000000E+02  0.51100000000E-03 0. -1.
         11   -1    0    0    0    0 -0.00000000000E+00 -0.00000000000E+00 -0.45593999997E+02  0.45594000000E+02  0.51100000000E-03 0.  1.
         23    2    1    2    0    0  0.00000000000E+00 -0.17763568394E-14  0.00000000000E+00  0.91188000000E+02  0.91188000000E+02 0.  0.
    9900012    2    3    3    0    0 -0.13083125276E+02 -0.15442958505E+02 -0.38392319572E+02  0.47787270323E+02  0.19999996712E+02 0.  0.
         12    1    3    3    0    0  0.13083125276E+02  0.15442958505E+02  0.38392319572E+02  0.43400729677E+02  0.00000000000E+00 0. -1.
         11    1    4    4    0    0 -0.39724539675E+01  0.15897615189E+01 -0.95641829010E-01  0.42798224065E+01  0.51100000000E-03 0. -1.
        -11    1    4    4    0    0 -0.57918321226E+01 -0.15102918631E+02 -0.25958060848E+02  0.30585362410E+02  0.51100000000E-03 0.  1.
         12    1    4    4    0    0 -0.33188391856E+01 -0.19298013921E+01 -0.12338616895E+02  0.12922085507E+02  0.00000000000E+00 0. -1.
</event>
<event>
 8    1  0.8600524E-011  0.9118800E+02  0.7816164E-02  0.1184000E+00
        -11   -1    0    0    0    0  0.00000000000E+00  0.00000000000E+00  0.45593999997E+02  0.45594000000E+02  0.51100000000E-03 0. -1.
         11   -1    0    0    0    0 -0.00000000000E+00 -0.00000000000E+00 -0.45593999997E+02  0.45594000000E+02  0.51100000000E-03 0.  1.
         23    2    1    2    0    0  0.44408920985E-15  0.00000000000E+00  0.71054273576E-14  0.91188000000E+02  0.91188000000E+02 0.  0.
    9900012    2    3    3    0    0 -0.34150835779E+01  0.12803382370E+02 -0.41328367798E+02  0.47787269812E+02  0.19999994383E+02 0.  0.
         12    1    3    3    0    0  0.34150835779E+01 -0.12803382370E+02  0.41328367798E+02  0.43400730188E+02  0.00000000000E+00 0. -1.
         11    1    4    4    0    0  0.29662502724E+00 -0.19276161108E+00  0.11160721866E+01  0.11707949574E+01  0.51100000000E-03 0. -1.
        -11    1    4    4    0    0 -0.84351067589E+01  0.81513774399E+01 -0.32806766665E+02  0.34840779548E+02  0.51100000000E-03 0.  1.
        -12    1    4    4    0    0  0.47233981537E+01  0.48447665413E+01 -0.96376733194E+01  0.11775695307E+02  0.00000000000E+00 0.  1.
</event>
<event>
 8    1  0.8600524E-011  0.9118800E+02  0.7816164E-02  0.1184000E+00
        -11   -1    0    0    0    0  0.00000000000E+00  0.00000000000E+00  0.45593999997E+02  0.45594000000E+02  0.51100000000E-03 0. -1.
         11   -1    0    0    0    0 -0.00000000000E+00 -0.00000000000E+00 -0.45593999997E+02  0.45594000000E+02  0.51100000000E-03 0.  1.
         23    2    1    2    0    0 -0.35527136788E-14  0.00000000000E+00 -0.71054273576E-14  0.91188000000E+02  0.91188000000E+02 0.  0.
    9900012    2    3    3    0    0 -0.22953800115E+02  0.19558539547E+02 -0.31212325568E+02  0.47787277929E+02  0.20000031390E+02 0.  0.
         12    1    3    3    0    0  0.22953800115E+02 -0.19558539547E+02  0.31212325568E+02  0.43400722071E+02  0.00000000000E+00 0. -1.
         11    1    4    4    0    0 -0.35452539850E+01  0.13398932488E+02 -0.74477036555E+01  0.15734309887E+02  0.51100000000E-03 0.  1.
        -11    1    4    4    0    0 -0.16264392572E+01  0.30474947386E+01 -0.39881644799E+01  0.52761714357E+01  0.51100000000E-03 0. -1.
         12    1    4    4    0    0 -0.17782106873E+02  0.31121123213E+01 -0.19776457432E+02  0.26776796606E+02  0.00000000000E+00 0. -1.
</event>
<event>
 8    1  0.8600524E-011  0.9118800E+02  0.7816164E-02  0.1184000E+00
        -11   -1    0    0    0    0  0.00000000000E+00  0.00000000000E+00  0.45593999997E+02  0.45594000000E+02  0.51100000000E-03 0. -1.
         11   -1    0    0    0    0 -0.00000000000E+00 -0.00000000000E+00 -0.45593999997E+02  0.45594000000E+02  0.51100000000E-03 0.  1.
         23    2    1    2    0    0  0.00000000000E+00  0.00000000000E+00  0.00000000000E+00  0.91188000000E+02  0.91188000000E+02 0.  0.
    9900012    2    3    3    0    0 -0.31105160962E+02  0.23900546615E+02 -0.18570239426E+02  0.47787297709E+02  0.20000121574E+02 0.  0.
         12    1    3    3    0    0  0.31105160962E+02 -0.23900546615E+02  0.18570239426E+02  0.43400702291E+02  0.00000000000E+00 0. -1.
         11    1    4    4    0    0 -0.17786955337E+02  0.90178857095E+01  0.48607078124E+00  0.19948290852E+02  0.51100000000E-03 0. -1.
        -11    1    4    4    0    0 -0.32430816731E+01  0.15819507986E+01 -0.33269918775E+01  0.49080568743E+01  0.51100000000E-03 0.  1.
         12    1    4    4    0    0 -0.10075123952E+02  0.13300710107E+02 -0.15729318330E+02  0.22930949983E+02  0.00000000000E+00 0. -1.
</event>
<event>
 8    1  0.8600524E-011  0.9118800E+02  0.7816164E-02  0.1184000E+00
        -11   -1    0    0    0    0  0.00000000000E+00  0.00000000000E+00  0.45593999997E+02  0.45594000000E+02  0.51100000000E-03 0.  1.
         11   -1    0    0    0    0 -0.00000000000E+00 -0.00000000000E+00 -0.45593999997E+02  0.45594000000E+02  0.51100000000E-03 0. -1.
         23    2    1    2    0    0  0.00000000000E+00  0.00000000000E+00  0.00000000000E+00  0.91188000000E+02  0.91188000000E+02 0.  0.
    9900012    2    3    3    0    0 -0.35647216704E+02 -0.20329443886E+02  0.14128439954E+02  0.47787272322E+02  0.20000005825E+02 0.  0.
         12    1    3    3    0    0  0.35647216704E+02  0.20329443886E+02 -0.14128439954E+02  0.43400727678E+02  0.00000000000E+00 0. -1.
         11    1    4    4    0    0 -0.10295578434E+02 -0.81676911722E+01 -0.21897256665E+01  0.13323100732E+02  0.51100000000E-03 0. -1.
        -11    1    4    4    0    0 -0.19583892775E+02 -0.34777779827E+01  0.11550209900E+02  0.23000677053E+02  0.51100000000E-03 0.  1.
        -12    1    4    4    0    0 -0.57677454954E+01 -0.86839747313E+01  0.47679557202E+01  0.11463494536E+02  0.00000000000E+00 0.  1.
</event>
<event>
 8    1  0.8600524E-011  0.9118800E+02  0.7816164E-02  0.1184000E+00
        -11   -1    0    0    0    0  0.00000000000E+00  0.00000000000E+00  0.45593999997E+02  0.45594000000E+02  0.51100000000E-03 0. -1.
         11   -1    0    0    0    0 -0.00000000000E+00 -0.00000000000E+00 -0.45593999997E+02  0.45594000000E+02  0.51100000000E-03 0.  1.
         23    2    1    2    0    0  0.00000000000E+00  0.00000000000E+00 -0.35527136788E-14  0.91188000000E+02  0.91188000000E+02 0.  0.
    9900012    2    3    3    0    0  0.13547803048E+02  0.35480889557E+02  0.21004476452E+02  0.47787256663E+02  0.19999934430E+02 0.  0.
        -12    1    3    3    0    0 -0.13547803048E+02 -0.35480889557E+02 -0.21004476452E+02  0.43400743337E+02  0.00000000000E+00 0.  1.
         11    1    4    4    0    0  0.74668291056E+01  0.13703292796E+02  0.13859946229E+02  0.20871796283E+02  0.51100000000E-03 0. -1.
        -11    1    4    4    0    0  0.46672770179E+00  0.10178249236E+02 -0.28808683105E+01  0.10588389620E+02  0.51100000000E-03 0.  1.
        -12    1    4    4    0    0  0.56142462409E+01  0.11599347524E+02  0.10025398533E+02  0.16327070760E+02  0.00000000000E+00 0.  1.
</event>
<event>
 8    1  0.8600524E-011  0.9118800E+02  0.7816164E-02  0.1184000E+00
        -11   -1    0    0    0    0  0.00000000000E+00  0.00000000000E+00  0.45593999997E+02  0.45594000000E+02  0.51100000000E-03 0. -1.
         11   -1    0    0    0    0 -0.00000000000E+00 -0.00000000000E+00 -0.45593999997E+02  0.45594000000E+02  0.51100000000E-03 0.  1.
         23    2    1    2    0    0  0.52735593670E-15  0.00000000000E+00  0.00000000000E+00  0.91188000000E+02  0.91188000000E+02 0.  0.
    9900012    2    3    3    0    0  0.10343363755E+00  0.17941428435E+02 -0.39518555378E+02  0.47787288348E+02  0.20000078892E+02 0.  0.
         12    1    3    3    0    0 -0.10343363755E+00 -0.17941428435E+02  0.39518555378E+02  0.43400711652E+02  0.00000000000E+00 0. -1.
         11    1    4    4    0    0  0.71627368181E+01  0.76125300754E+00 -0.17224792781E+02  0.18670238121E+02  0.51100000000E-03 0. -1.
        -11    1    4    4    0    0 -0.63309060787E+01  0.16603624154E+02 -0.21518372906E+02  0.27907007715E+02  0.51100000000E-03 0.  1.
         12    1    4    4    0    0 -0.72839710183E+00  0.57655127309E+00 -0.77538969058E+00  0.12100425119E+01  0.00000000000E+00 0. -1.
</event>
<event>
 8    1  0.8600524E-011  0.9118800E+02  0.7816164E-02  0.1184000E+00
        -11   -1    0    0    0    0  0.00000000000E+00  0.00000000000E+00  0.45593999997E+02  0.45594000000E+02  0.51100000000E-03 0.  1.
         11   -1    0    0    0    0 -0.00000000000E+00 -0.00000000000E+00 -0.45593999997E+02  0.45594000000E+02  0.51100000000E-03 0. -1.
         23    2    1    2    0    0  0.00000000000E+00  0.00000000000E+00  0.00000000000E+00  0.91188000000E+02  0.91188000000E+02 0.  0.
    9900012    2    3    3    0    0 -0.79534225534E+01 -0.35574671475E+02  0.23554385147E+02  0.47787271429E+02  0.20000001751E+02 0.  0.
        -12    1    3    3    0    0  0.79534225534E+01  0.35574671475E+02 -0.23554385147E+02  0.43400728571E+02  0.00000000000E+00 0.  1.
         11    1    4    4    0    0  0.79729508575E+00 -0.36056035922E+01  0.36458395263E+01  0.51892391379E+01  0.51100000000E-03 0. -1.
        -11    1    4    4    0    0 -0.15370274924E+01 -0.18760858394E+02  0.20112215902E+02  0.27546932496E+02  0.51100000000E-03 0.  1.
        -12    1    4    4    0    0 -0.72136901467E+01 -0.13208209489E+02 -0.20367028174E+00  0.15051099794E+02  0.00000000000E+00 0.  1.
</event>
<event>
 8    1  0.8600524E-011  0.9118800E+02  0.7816164E-02  0.1184000E+00
        -11   -1    0    0    0    0  0.00000000000E+00  0.00000000000E+00  0.45593999997E+02  0.45594000000E+02  0.51100000000E-03 0. -1.
         11   -1    0    0    0    0 -0.00000000000E+00 -0.00000000000E+00 -0.45593999997E+02  0.45594000000E+02  0.51100000000E-03 0.  1.
         23    2    1    2    0    0 -0.17763568394E-14  0.00000000000E+00  0.00000000000E+00  0.91188000000E+02  0.91188000000E+02 0.  0.
    9900012    2    3    3    0    0 -0.11992525810E+02  0.16012018176E+02  0.38515163494E+02  0.47787271661E+02  0.20000002810E+02 0.  0.
        -12    1    3    3    0    0  0.11992525810E+02 -0.16012018176E+02 -0.38515163494E+02  0.43400728339E+02  0.00000000000E+00 0.  1.
         11    1    4    4    0    0  0.44063445439E+01  0.20577046545E+01  0.92541003892E+01  0.10454108999E+02  0.51100000000E-03 0. -1.
        -11    1    4    4    0    0  0.92257594647E+00  0.40985504782E+00  0.49083886623E+00  0.11225197508E+01  0.51100000000E-03 0.  1.
         12    1    4    4    0    0 -0.17321446301E+02  0.13544458474E+02  0.28770224239E+02  0.36210642911E+02  0.00000000000E+00 0. -1.
</event>
<event>
 8    1  0.8600524E-011  0.9118800E+02  0.7816164E-02  0.1184000E+00
        -11   -1    0    0    0    0  0.00000000000E+00  0.00000000000E+00  0.45593999997E+02  0.45594000000E+02  0.51100000000E-03 0.  1.
         11   -1    0    0    0    0 -0.00000000000E+00 -0.00000000000E+00 -0.45593999997E+02  0.45594000000E+02  0.51100000000E-03 0. -1.
         23    2    1    2    0    0  0.71054273576E-14  0.00000000000E+00  0.00000000000E+00  0.91188000000E+02  0.91188000000E+02 0.  0.
    9900012    2    3    3    0    0  0.38300497342E+02  0.15212755501E+02 -0.13611292943E+02  0.47787270488E+02  0.19999997463E+02 0.  0.
         12    1    3    3    0    0 -0.38300497342E+02 -0.15212755501E+02  0.13611292943E+02  0.43400729512E+02  0.00000000000E+00 0. -1.
         11    1    4    4    0    0  0.34897323165E+02  0.14307363835E+02 -0.14866518310E+02  0.40540562291E+02  0.51100000000E-03 0. -1.
        -11    1    4    4    0    0  0.20836963289E+00  0.13865771408E+01  0.31874098790E+01  0.34821826588E+01  0.51100000000E-03 0.  1.
        -12    1    4    4    0    0  0.31948045440E+01 -0.48118547438E+00 -0.19321845123E+01  0.37645255378E+01  0.00000000000E+00 0.  1.
</event>
<event>
 8    1  0.8600524E-011  0.9118800E+02  0.7816164E-02  0.1184000E+00
        -11   -1    0    0    0    0  0.00000000000E+00  0.00000000000E+00  0.45593999997E+02  0.45594000000E+02  0.51100000000E-03 0. -1.
         11   -1    0    0    0    0 -0.00000000000E+00 -0.00000000000E+00 -0.45593999997E+02  0.45594000000E+02  0.51100000000E-03 0.  1.
         23    2    1    2    0    0  0.00000000000E+00  0.00000000000E+00  0.00000000000E+00  0.91188000000E+02  0.91188000000E+02 0.  0.
    9900012    2    3    3    0    0  0.79396982808E+00 -0.21285823487E+02 -0.37814114043E+02  0.47787263941E+02  0.19999967614E+02 0.  0.
         12    1    3    3    0    0 -0.79396982808E+00  0.21285823487E+02  0.37814114043E+02  0.43400736059E+02  0.00000000000E+00 0. -1.
         11    1    4    4    0    0 -0.20036891643E+01 -0.12630565697E+02 -0.63868041396E+01  0.14294657305E+02  0.51100000000E-03 0. -1.
        -11    1    4    4    0    0  0.31684429704E+01 -0.94532227193E+01 -0.23649409879E+02  0.25665093776E+02  0.51100000000E-03 0.  1.
         12    1    4    4    0    0 -0.37078397803E+00  0.79796492974E+00 -0.77779000242E+01  0.78275128600E+01  0.00000000000E+00 0. -1.
</event>
<event>
 8    1  0.8600524E-011  0.9118800E+02  0.7816164E-02  0.1184000E+00
        -11   -1    0    0    0    0  0.00000000000E+00  0.00000000000E+00  0.45593999997E+02  0.45594000000E+02  0.51100000000E-03 0. -1.
         11   -1    0    0    0    0 -0.00000000000E+00 -0.00000000000E+00 -0.45593999997E+02  0.45594000000E+02  0.51100000000E-03 0.  1.
         23    2    1    2    0    0  0.00000000000E+00  0.00000000000E+00  0.00000000000E+00  0.91188000000E+02  0.91188000000E+02 0.  0.
    9900012    2    3    3    0    0  0.36720039002E+02  0.74200218561E+01 -0.21913578666E+02  0.47787275138E+02  0.20000018663E+02 0.  0.
         12    1    3    3    0    0 -0.36720039002E+02 -0.74200218561E+01  0.21913578666E+02  0.43400724862E+02  0.00000000000E+00 0. -1.
         11    1    4    4    0    0  0.12484237209E+01 -0.22242580615E+01 -0.54788685159E+01  0.60434994983E+01  0.51100000000E-03 0. -1.
        -11    1    4    4    0    0  0.32170496690E+02  0.10334788113E+02 -0.17695953809E+02  0.38143092220E+02  0.51100000000E-03 0.  1.
         12    1    4    4    0    0  0.33011185906E+01 -0.69050819534E+00  0.12612436593E+01  0.36006834192E+01  0.00000000000E+00 0. -1.
</event>
<event>
 8    1  0.8600524E-011  0.9118800E+02  0.7816164E-02  0.1184000E+00
        -11   -1    0    0    0    0  0.00000000000E+00  0.00000000000E+00  0.45593999997E+02  0.45594000000E+02  0.51100000000E-03 0.  1.
         11   -1    0    0    0    0 -0.00000000000E+00 -0.00000000000E+00 -0.45593999997E+02  0.45594000000E+02  0.51100000000E-03 0. -1.
         23    2    1    2    0    0  0.00000000000E+00  0.00000000000E+00  0.00000000000E+00  0.91188000000E+02  0.91188000000E+02 0.  0.
    9900012    2    3    3    0    0 -0.40280286807E+02  0.13150399810E+02  0.93908935392E+01  0.47787269570E+02  0.19999993277E+02 0.  0.
        -12    1    3    3    0    0  0.40280286807E+02 -0.13150399810E+02 -0.93908935392E+01  0.43400730430E+02  0.00000000000E+00 0.  1.
         11    1    4    4    0    0 -0.19368451046E+02  0.14375923508E+02  0.53323806557E+01  0.24703002983E+02  0.51100000000E-03 0. -1.
        -11    1    4    4    0    0 -0.16278086598E+02  0.15278894752E+01  0.20917920821E-01  0.16349647928E+02  0.51100000000E-03 0.  1.
         12    1    4    4    0    0 -0.46337491628E+01 -0.27534131735E+01  0.40375949627E+01  0.67346186596E+01  0.00000000000E+00 0. -1.
</event>
<event>
 8    1  0.8600524E-011  0.9118800E+02  0.7816164E-02  0.1184000E+00
        -11   -1    0    0    0    0  0.00000000000E+00  0.00000000000E+00  0.45593999997E+02  0.45594000000E+02  0.51100000000E-03 0. -1.
         11   -1    0    0    0    0 -0.00000000000E+00 -0.00000000000E+00 -0.45593999997E+02  0.45594000000E+02  0.51100000000E-03 0.  1.
         23    2    1    2    0    0  0.11102230246E-15 -0.35527136788E-14  0.00000000000E+00  0.91188000000E+02  0.91188000000E+02 0.  0.
    9900012    2    3    3    0    0  0.51847401296E+00 -0.24609932608E+02 -0.35745008338E+02  0.47787271673E+02  0.20000002866E+02 0.  0.
         12    1    3    3    0    0 -0.51847401296E+00  0.24609932608E+02  0.35745008338E+02  0.43400728327E+02  0.00000000000E+00 0. -1.
         11    1    4    4    0    0 -0.10384395077E+01 -0.50990206711E+01 -0.47145115095E+00  0.52250009439E+01  0.51100000000E-03 0. -1.
        -11    1    4    4    0    0 -0.26615191941E+01 -0.18715967104E+02 -0.31988250314E+02  0.37156685367E+02  0.51100000000E-03 0.  1.
        -12    1    4    4    0    0  0.42184327147E+01 -0.79494483206E+00 -0.32853068726E+01  0.54055853616E+01  0.00000000000E+00 0.  1.
</event>
<event>
 8    1  0.8600524E-011  0.9118800E+02  0.7816164E-02  0.1184000E+00
        -11   -1    0    0    0    0  0.00000000000E+00  0.00000000000E+00  0.45593999997E+02  0.45594000000E+02  0.51100000000E-03 0. -1.
         11   -1    0    0    0    0 -0.00000000000E+00 -0.00000000000E+00 -0.45593999997E+02  0.45594000000E+02  0.51100000000E-03 0.  1.
         23    2    1    2    0    0  0.00000000000E+00  0.00000000000E+00  0.00000000000E+00  0.91188000000E+02  0.91188000000E+02 0.  0.
    9900012    2    3    3    0    0 -0.17400285185E+02  0.19983735035E+02  0.34373006388E+02  0.47787272372E+02  0.20000006053E+02 0.  0.
        -12    1    3    3    0    0  0.17400285185E+02 -0.19983735035E+02 -0.34373006388E+02  0.43400727628E+02  0.00000000000E+00 0.  1.
         11    1    4    4    0    0 -0.56931916890E+01  0.14181078814E+02  0.29092116418E+02  0.32861324774E+02  0.51100000000E-03 0. -1.
        -11    1    4    4    0    0 -0.93730231119E+01  0.55464923654E+01  0.23000688264E+01  0.11131372632E+02  0.51100000000E-03 0.  1.
         12    1    4    4    0    0 -0.23340703845E+01  0.25616385544E+00  0.29808211434E+01  0.37945749656E+01  0.00000000000E+00 0. -1.
</event>
<event>
 8    1  0.8600524E-011  0.9118800E+02  0.7816164E-02  0.1184000E+00
        -11   -1    0    0    0    0  0.00000000000E+00  0.00000000000E+00  0.45593999997E+02  0.45594000000E+02  0.51100000000E-03 0. -1.
         11   -1    0    0    0    0 -0.00000000000E+00 -0.00000000000E+00 -0.45593999997E+02  0.45594000000E+02  0.51100000000E-03 0.  1.
         23    2    1    2    0    0  0.00000000000E+00  0.44408920985E-15  0.00000000000E+00  0.91188000000E+02  0.91188000000E+02 0.  0.
    9900012    2    3    3    0    0  0.25810568066E+02 -0.23591072547E+01  0.34811962382E+02  0.47787268027E+02  0.19999986241E+02 0.  0.
        -12    1    3    3    0    0 -0.25810568066E+02  0.23591072547E+01 -0.34811962382E+02  0.43400731973E+02  0.00000000000E+00 0.  1.
         11    1    4    4    0    0  0.66964921208E+01  0.32367241815E+01  0.58271962392E+01  0.94485769522E+01  0.51100000000E-03 0. -1.
        -11    1    4    4    0    0  0.10536584686E+02 -0.10661970625E+02  0.15378868785E+02  0.21475726759E+02  0.51100000000E-03 0.  1.
        -12    1    4    4    0    0  0.85774912586E+01  0.50661391894E+01  0.13605897358E+02  0.16862964315E+02  0.00000000000E+00 0.  1.
</event>
<event>
 8    1  0.8600524E-011  0.9118800E+02  0.7816164E-02  0.1184000E+00
        -11   -1    0    0    0    0  0.00000000000E+00  0.00000000000E+00  0.45593999997E+02  0.45594000000E+02  0.51100000000E-03 0. -1.
         11   -1    0    0    0    0 -0.00000000000E+00 -0.00000000000E+00 -0.45593999997E+02  0.45594000000E+02  0.51100000000E-03 0.  1.
         23    2    1    2    0    0  0.00000000000E+00  0.00000000000E+00 -0.17763568394E-14  0.91188000000E+02  0.91188000000E+02 0.  0.
    9900012    2    3    3    0    0  0.11715932526E+02  0.40144292211E+02  0.11610132486E+02  0.47787280554E+02  0.20000043358E+02 0.  0.
        -12    1    3    3    0    0 -0.11715932526E+02 -0.40144292211E+02 -0.11610132486E+02  0.43400719446E+02  0.00000000000E+00 0.  1.
         11    1    4    4    0    0  0.13788926450E+02  0.33282154661E+02  0.70696094132E+01  0.36712609401E+02  0.51100000000E-03 0. -1.
        -11    1    4    4    0    0  0.78358216110E-01  0.46566646070E+00  0.42957919732E+01  0.43216679883E+01  0.51100000000E-03 0.  1.
         12    1    4    4    0    0 -0.21513521406E+01  0.63964710893E+01  0.24473109990E+00  0.67530031645E+01  0.00000000000E+00 0. -1.
</event>
<event>
 8    1  0.8600524E-011  0.9118800E+02  0.7816164E-02  0.1184000E+00
        -11   -1    0    0    0    0  0.00000000000E+00  0.00000000000E+00  0.45593999997E+02  0.45594000000E+02  0.51100000000E-03 0. -1.
         11   -1    0    0    0    0 -0.00000000000E+00 -0.00000000000E+00 -0.45593999997E+02  0.45594000000E+02  0.51100000000E-03 0.  1.
         23    2    1    2    0    0  0.00000000000E+00  0.00000000000E+00  0.00000000000E+00  0.91188000000E+02  0.91188000000E+02 0.  0.
    9900012    2    3    3    0    0  0.21067996524E+02  0.32696918985E+02  0.19252896019E+02  0.47787274271E+02  0.20000014711E+02 0.  0.
        -12    1    3    3    0    0 -0.21067996524E+02 -0.32696918985E+02 -0.19252896019E+02  0.43400725729E+02  0.00000000000E+00 0.  1.
         11    1    4    4    0    0  0.19164432092E+02  0.21342027911E+02  0.20626248964E+02  0.35329870639E+02  0.51100000000E-03 0. -1.
        -11    1    4    4    0    0  0.24369558924E+01  0.11330819565E+02 -0.71808248171E+00  0.11612143159E+02  0.51100000000E-03 0.  1.
         12    1    4    4    0    0 -0.53339146066E+00  0.24071509989E-01 -0.65527046322E+00  0.84526047339E+00  0.00000000000E+00 0. -1.
</event>
<event>
 8    1  0.8600524E-011  0.9118800E+02  0.7816164E-02  0.1184000E+00
        -11   -1    0    0    0    0  0.00000000000E+00  0.00000000000E+00  0.45593999997E+02  0.45594000000E+02  0.51100000000E-03 0. -1.
         11   -1    0    0    0    0 -0.00000000000E+00 -0.00000000000E+00 -0.45593999997E+02  0.45594000000E+02  0.51100000000E-03 0.  1.
         23    2    1    2    0    0  0.00000000000E+00  0.00000000000E+00  0.00000000000E+00  0.91188000000E+02  0.91188000000E+02 0.  0.
    9900012    2    3    3    0    0  0.47552652721E+01  0.26660473573E+02 -0.33915042914E+02  0.47787268038E+02  0.19999986292E+02 0.  0.
         12    1    3    3    0    0 -0.47552652721E+01 -0.26660473573E+02  0.33915042914E+02  0.43400731962E+02  0.00000000000E+00 0. -1.
         11    1    4    4    0    0 -0.47145179735E+01  0.15557195242E+00 -0.54898230317E+01  0.72380273235E+01  0.51100000000E-03 0. -1.
        -11    1    4    4    0    0  0.67631260060E+01  0.94190526684E+01 -0.10612036503E+02  0.15718579629E+02  0.51100000000E-03 0.  1.
         12    1    4    4    0    0  0.27066572396E+01  0.17085848953E+02 -0.17813183380E+02  0.24830661086E+02  0.00000000000E+00 0. -1.
</event>
<event>
 8    1  0.8600524E-011  0.9118800E+02  0.7816164E-02  0.1184000E+00
        -11   -1    0    0    0    0  0.00000000000E+00  0.00000000000E+00  0.45593999997E+02  0.45594000000E+02  0.51100000000E-03 0. -1.
         11   -1    0    0    0    0 -0.00000000000E+00 -0.00000000000E+00 -0.45593999997E+02  0.45594000000E+02  0.51100000000E-03 0.  1.
         23    2    1    2    0    0 -0.38857805862E-15  0.00000000000E+00  0.71054273576E-14  0.91188000000E+02  0.91188000000E+02 0.  0.
    9900012    2    3    3    0    0  0.38789971175E+00 -0.21063199035E+02 -0.37944887353E+02  0.47787270789E+02  0.19999998836E+02 0.  0.
         12    1    3    3    0    0 -0.38789971175E+00  0.21063199035E+02  0.37944887353E+02  0.43400729211E+02  0.00000000000E+00 0. -1.
         11    1    4    4    0    0 -0.80399669009E+01 -0.47532466036E+01 -0.99947473832E+01  0.13679524720E+02  0.51100000000E-03 0. -1.
        -11    1    4    4    0    0  0.30211641182E+01 -0.98405692396E+01 -0.20124614521E+02  0.22604520465E+02  0.51100000000E-03 0.  1.
         12    1    4    4    0    0  0.54067024945E+01 -0.64693831921E+01 -0.78255254490E+01  0.11503225604E+02  0.00000000000E+00 0. -1.
</event>
<event>
 8    1  0.8600524E-011  0.9118800E+02  0.7816164E-02  0.1184000E+00
        -11   -1    0    0    0    0  0.00000000000E+00  0.00000000000E+00  0.45593999997E+02  0.45594000000E+02  0.51100000000E-03 0. -1.
         11   -1    0    0    0    0 -0.00000000000E+00 -0.00000000000E+00 -0.45593999997E+02  0.45594000000E+02  0.51100000000E-03 0.  1.
         23    2    1    2    0    0  0.71054273576E-14  0.00000000000E+00  0.35527136788E-14  0.91188000000E+02  0.91188000000E+02 0.  0.
    9900012    2    3    3    0    0 -0.32147935324E+02 -0.16862693934E+02 -0.23786196074E+02  0.47787270559E+02  0.19999997787E+02 0.  0.
         12    1    3    3    0    0  0.32147935324E+02  0.16862693934E+02  0.23786196074E+02  0.43400729441E+02  0.00000000000E+00 0. -1.
         11    1    4    4    0    0 -0.13874573463E+02 -0.10800318834E+02 -0.94718847928E+00  0.17608175430E+02  0.51100000000E-03 0. -1.
        -11    1    4    4    0    0 -0.17322555409E+02 -0.44996923248E+01 -0.20662923013E+02  0.27336322807E+02  0.51100000000E-03 0.  1.
         12    1    4    4    0    0 -0.95080645221E+00 -0.15626827750E+01 -0.21760845817E+01  0.28427723214E+01  0.00000000000E+00 0. -1.
</event>
<event>
 8    1  0.8600524E-011  0.9118800E+02  0.7816164E-02  0.1184000E+00
        -11   -1    0    0    0    0  0.00000000000E+00  0.00000000000E+00  0.45593999997E+02  0.45594000000E+02  0.51100000000E-03 0. -1.
         11   -1    0    0    0    0 -0.00000000000E+00 -0.00000000000E+00 -0.45593999997E+02  0.45594000000E+02  0.51100000000E-03 0.  1.
         23    2    1    2    0    0 -0.17763568394E-14  0.00000000000E+00  0.00000000000E+00  0.91188000000E+02  0.91188000000E+02 0.  0.
    9900012    2    3    3    0    0 -0.92734173601E+01  0.16545238279E+02  0.39036933039E+02  0.47787270509E+02  0.19999997561E+02 0.  0.
        -12    1    3    3    0    0  0.92734173601E+01 -0.16545238279E+02 -0.39036933039E+02  0.43400729491E+02  0.00000000000E+00 0.  1.
         11    1    4    4    0    0  0.88010048173E+00 -0.15602743769E+01  0.13863300031E+02  0.13978559332E+02  0.51100000000E-03 0. -1.
        -11    1    4    4    0    0 -0.28884860940E+01  0.30445478349E+01  0.83442447236E+00  0.42788886285E+01  0.51100000000E-03 0.  1.
         12    1    4    4    0    0 -0.72650317478E+01  0.15060964821E+02  0.24339208536E+02  0.29529822549E+02  0.00000000000E+00 0. -1.
</event>
<event>
 8    1  0.8600524E-011  0.9118800E+02  0.7816164E-02  0.1184000E+00
        -11   -1    0    0    0    0  0.00000000000E+00  0.00000000000E+00  0.45593999997E+02  0.45594000000E+02  0.51100000000E-03 0. -1.
         11   -1    0    0    0    0 -0.00000000000E+00 -0.00000000000E+00 -0.45593999997E+02  0.45594000000E+02  0.51100000000E-03 0.  1.
         23    2    1    2    0    0 -0.17763568394E-14  0.00000000000E+00  0.00000000000E+00  0.91188000000E+02  0.91188000000E+02 0.  0.
    9900012    2    3    3    0    0  0.14807521389E+02 -0.33386025276E+01  0.40659749257E+02  0.47787260765E+02  0.19999953131E+02 0.  0.
        -12    1    3    3    0    0 -0.14807521389E+02  0.33386025276E+01 -0.40659749257E+02  0.43400739235E+02  0.00000000000E+00 0.  1.
         11    1    4    4    0    0  0.42114444309E+01 -0.22584760376E+01  0.37276553614E+01  0.60607254484E+01  0.51100000000E-03 0. -1.
        -11    1    4    4    0    0  0.10936881465E+02  0.19552040239E+01  0.11067042163E+02  0.15681760790E+02  0.51100000000E-03 0.  1.
        -12    1    4    4    0    0 -0.34080450689E+00 -0.30353305139E+01  0.25865051732E+02  0.26044774527E+02  0.00000000000E+00 0.  1.
</event>
<event>
 8    1  0.8600524E-011  0.9118800E+02  0.7816164E-02  0.1184000E+00
        -11   -1    0    0    0    0  0.00000000000E+00  0.00000000000E+00  0.45593999997E+02  0.45594000000E+02  0.51100000000E-03 0.  1.
         11   -1    0    0    0    0 -0.00000000000E+00 -0.00000000000E+00 -0.45593999997E+02  0.45594000000E+02  0.51100000000E-03 0. -1.
         23    2    1    2    0    0  0.17763568394E-14  0.00000000000E+00  0.00000000000E+00  0.91188000000E+02  0.91188000000E+02 0.  0.
    9900012    2    3    3    0    0  0.12237998199E+02 -0.22361747805E+02  0.35125587284E+02  0.47787271356E+02  0.20000001419E+02 0.  0.
        -12    1    3    3    0    0 -0.12237998199E+02  0.22361747805E+02 -0.35125587284E+02  0.43400728644E+02  0.00000000000E+00 0.  1.
         11    1    4    4    0    0  0.37935684580E+01 -0.19440939954E+02  0.23455015593E+02  0.30699821900E+02  0.51100000000E-03 0. -1.
        -11    1    4    4    0    0  0.61868132687E+01  0.23341865747E+01  0.75616200676E+01  0.10045057675E+02  0.51100000000E-03 0.  1.
        -12    1    4    4    0    0  0.22576164719E+01 -0.52549944260E+01  0.41089516231E+01  0.70423917806E+01  0.00000000000E+00 0.  1.
</event>
<event>
 8    1  0.8600524E-011  0.9118800E+02  0.7816164E-02  0.1184000E+00
        -11   -1    0    0    0    0  0.00000000000E+00  0.00000000000E+00  0.45593999997E+02  0.45594000000E+02  0.51100000000E-03 0. -1.
         11   -1    0    0    0    0 -0.00000000000E+00 -0.00000000000E+00 -0.45593999997E+02  0.45594000000E+02  0.51100000000E-03 0.  1.
         23    2    1    2    0    0  0.00000000000E+00  0.35527136788E-14  0.00000000000E+00  0.91188000000E+02  0.91188000000E+02 0.  0.
    9900012    2    3    3    0    0  0.12745528028E+02 -0.18423574342E+02 -0.37171817959E+02  0.47787301542E+02  0.20000139051E+02 0.  0.
         12    1    3    3    0    0 -0.12745528028E+02  0.18423574342E+02  0.37171817959E+02  0.43400698458E+02  0.00000000000E+00 0. -1.
         11    1    4    4    0    0  0.75276542781E+01 -0.91802954067E+01 -0.73515923651E+01  0.13963857391E+02  0.51100000000E-03 0. -1.
        -11    1    4    4    0    0  0.47622465527E+01 -0.11954986985E+02 -0.26857650079E+02  0.29781438415E+02  0.51100000000E-03 0.  1.
        -12    1    4    4    0    0  0.45562719750E+00  0.27117080494E+01 -0.29625755145E+01  0.40420057357E+01  0.00000000000E+00 0.  1.
</event>
<event>
 8    1  0.8600524E-011  0.9118800E+02  0.7816164E-02  0.1184000E+00
        -11   -1    0    0    0    0  0.00000000000E+00  0.00000000000E+00  0.45593999997E+02  0.45594000000E+02  0.51100000000E-03 0. -1.
         11   -1    0    0    0    0 -0.00000000000E+00 -0.00000000000E+00 -0.45593999997E+02  0.45594000000E+02  0.51100000000E-03 0.  1.
         23    2    1    2    0    0 -0.88817841970E-15  0.00000000000E+00  0.00000000000E+00  0.91188000000E+02  0.91188000000E+02 0.  0.
    9900012    2    3    3    0    0  0.58711734126E+01 -0.22024244954E+02  0.36933517583E+02  0.47787276918E+02  0.20000026780E+02 0.  0.
        -12    1    3    3    0    0 -0.58711734126E+01  0.22024244954E+02 -0.36933517583E+02  0.43400723082E+02  0.00000000000E+00 0.  1.
         11    1    4    4    0    0  0.72908894148E+01 -0.76174930703E+01  0.20672174519E+02  0.23206078271E+02  0.51100000000E-03 0. -1.
        -11    1    4    4    0    0 -0.12060668742E+01 -0.16042880093E+02  0.16337958488E+02  0.22929402233E+02  0.51100000000E-03 0.  1.
        -12    1    4    4    0    0 -0.21364912806E+00  0.16361282093E+01 -0.76615424127E-01  0.16517964131E+01  0.00000000000E+00 0.  1.
</event>
<event>
 8    1  0.8600524E-011  0.9118800E+02  0.7816164E-02  0.1184000E+00
        -11   -1    0    0    0    0  0.00000000000E+00  0.00000000000E+00  0.45593999997E+02  0.45594000000E+02  0.51100000000E-03 0.  1.
         11   -1    0    0    0    0 -0.00000000000E+00 -0.00000000000E+00 -0.45593999997E+02  0.45594000000E+02  0.51100000000E-03 0. -1.
         23    2    1    2    0    0  0.00000000000E+00  0.00000000000E+00  0.00000000000E+00  0.91188000000E+02  0.91188000000E+02 0.  0.
    9900012    2    3    3    0    0 -0.30063830151E+02  0.47267429066E+01 -0.30942647953E+02  0.47787269082E+02  0.19999991051E+02 0.  0.
         12    1    3    3    0    0  0.30063830151E+02 -0.47267429066E+01  0.30942647953E+02  0.43400730918E+02  0.00000000000E+00 0. -1.
         11    1    4    4    0    0 -0.84201636790E+01  0.91668229960E+01 -0.91736870598E+01  0.15462416847E+02  0.51100000000E-03 0. -1.
        -11    1    4    4    0    0 -0.15319631309E+02  0.11982676468E+01 -0.15083455805E+02  0.21532245309E+02  0.51100000000E-03 0.  1.
         12    1    4    4    0    0 -0.63240351635E+01 -0.56383477362E+01 -0.66855050890E+01  0.10792606925E+02  0.00000000000E+00 0. -1.
</event>
<event>
 8    1  0.8600524E-011  0.9118800E+02  0.7816164E-02  0.1184000E+00
        -11   -1    0    0    0    0  0.00000000000E+00  0.00000000000E+00  0.45593999997E+02  0.45594000000E+02  0.51100000000E-03 0. -1.
         11   -1    0    0    0    0 -0.00000000000E+00 -0.00000000000E+00 -0.45593999997E+02  0.45594000000E+02  0.51100000000E-03 0.  1.
         23    2    1    2    0    0  0.14210854715E-13 -0.17763568394E-14 -0.35527136788E-14  0.91188000000E+02  0.91188000000E+02 0.  0.
    9900012    2    3    3    0    0 -0.34200235826E+02  0.11025921035E+02  0.24339221201E+02  0.47787253994E+02  0.19999922259E+02 0.  0.
        -12    1    3    3    0    0  0.34200235826E+02 -0.11025921035E+02 -0.24339221201E+02  0.43400746006E+02  0.00000000000E+00 0.  1.
         11    1    4    4    0    0 -0.20377682362E+02  0.14286300654E+02  0.14893303460E+02  0.29002738027E+02  0.51100000000E-03 0. -1.
        -11    1    4    4    0    0 -0.11658114018E+01 -0.33280418124E+01  0.27058737845E+01  0.44448545227E+01  0.51100000000E-03 0.  1.
        -12    1    4    4    0    0 -0.12656742062E+02  0.67662193036E-01  0.67400439570E+01  0.14339661444E+02  0.00000000000E+00 0.  1.
</event>
<event>
 8    1  0.8600524E-011  0.9118800E+02  0.7816164E-02  0.1184000E+00
        -11   -1    0    0    0    0  0.00000000000E+00  0.00000000000E+00  0.45593999997E+02  0.45594000000E+02  0.51100000000E-03 0. -1.
         11   -1    0    0    0    0 -0.00000000000E+00 -0.00000000000E+00 -0.45593999997E+02  0.45594000000E+02  0.51100000000E-03 0.  1.
         23    2    1    2    0    0  0.00000000000E+00  0.00000000000E+00 -0.71054273576E-14  0.91188000000E+02  0.91188000000E+02 0.  0.
    9900012    2    3    3    0    0 -0.21381193660E+01 -0.79245201243E+01 -0.42617529725E+02  0.47787269436E+02  0.19999992667E+02 0.  0.
         12    1    3    3    0    0  0.21381193660E+01  0.79245201243E+01  0.42617529725E+02  0.43400730564E+02  0.00000000000E+00 0. -1.
         11    1    4    4    0    0  0.80384809807E+00 -0.56061532520E+01 -0.39963428726E+02  0.40362739771E+02  0.51100000000E-03 0. -1.
        -11    1    4    4    0    0 -0.24367994895E+01 -0.36232268853E+01 -0.36630680584E+01  0.56994589810E+01  0.51100000000E-03 0.  1.
         12    1    4    4    0    0 -0.50516797456E+00  0.13048600130E+01  0.10089670596E+01  0.17250706837E+01  0.00000000000E+00 0. -1.
</event>
<event>
 8    1  0.8600524E-011  0.9118800E+02  0.7816164E-02  0.1184000E+00
        -11   -1    0    0    0    0  0.00000000000E+00  0.00000000000E+00  0.45593999997E+02  0.45594000000E+02  0.51100000000E-03 0. -1.
         11   -1    0    0    0    0 -0.00000000000E+00 -0.00000000000E+00 -0.45593999997E+02  0.45594000000E+02  0.51100000000E-03 0.  1.
         23    2    1    2    0    0  0.71054273576E-14  0.35527136788E-14  0.35527136788E-14  0.91188000000E+02  0.91188000000E+02 0.  0.
    9900012    2    3    3    0    0 -0.31596673934E+02 -0.24702175324E+02 -0.16585427027E+02  0.47787266606E+02  0.19999979765E+02 0.  0.
         12    1    3    3    0    0  0.31596673934E+02  0.24702175324E+02  0.16585427027E+02  0.43400733394E+02  0.00000000000E+00 0. -1.
         11    1    4    4    0    0 -0.16276409214E+02 -0.16627155712E+02 -0.34581433507E+00  0.23270225435E+02  0.51100000000E-03 0.  1.
        -11    1    4    4    0    0 -0.62361917109E+01 -0.61040286154E+00 -0.79902099714E+01  0.10154119083E+02  0.51100000000E-03 0. -1.
        -12    1    4    4    0    0 -0.90840730095E+01 -0.74646167500E+01 -0.82494027208E+01  0.14362922088E+02  0.00000000000E+00 0.  1.
</event>
<event>
 8    1  0.8600524E-011  0.9118800E+02  0.7816164E-02  0.1184000E+00
        -11   -1    0    0    0    0  0.00000000000E+00  0.00000000000E+00  0.45593999997E+02  0.45594000000E+02  0.51100000000E-03 0. -1.
         11   -1    0    0    0    0 -0.00000000000E+00 -0.00000000000E+00 -0.45593999997E+02  0.45594000000E+02  0.51100000000E-03 0.  1.
         23    2    1    2    0    0  0.00000000000E+00  0.00000000000E+00  0.00000000000E+00  0.91188000000E+02  0.91188000000E+02 0.  0.
    9900012    2    3    3    0    0  0.16030864124E+02 -0.10392076506E+02  0.38969723758E+02  0.47787271568E+02  0.20000002387E+02 0.  0.
        -12    1    3    3    0    0 -0.16030864124E+02  0.10392076506E+02 -0.38969723758E+02  0.43400728432E+02  0.00000000000E+00 0.  1.
         11    1    4    4    0    0  0.35299242633E+01 -0.63625554342E+01  0.27473568966E+02  0.28420757713E+02  0.51100000000E-03 0. -1.
        -11    1    4    4    0    0  0.20052111859E+01 -0.10484435046E+01 -0.12525188951E+01  0.25862926220E+01  0.51100000000E-03 0.  1.
         12    1    4    4    0    0  0.10495728674E+02 -0.29810775668E+01  0.12748673687E+02  0.16780221233E+02  0.00000000000E+00 0. -1.
</event>
<event>
 8    1  0.8600524E-011  0.9118800E+02  0.7816164E-02  0.1184000E+00
        -11   -1    0    0    0    0  0.00000000000E+00  0.00000000000E+00  0.45593999997E+02  0.45594000000E+02  0.51100000000E-03 0. -1.
         11   -1    0    0    0    0 -0.00000000000E+00 -0.00000000000E+00 -0.45593999997E+02  0.45594000000E+02  0.51100000000E-03 0.  1.
         23    2    1    2    0    0 -0.35527136788E-14  0.00000000000E+00  0.35527136788E-14  0.91188000000E+02  0.91188000000E+02 0.  0.
    9900012    2    3    3    0    0 -0.27021347505E+02 -0.21557304586E+02 -0.26244100817E+02  0.47787269249E+02  0.19999991814E+02 0.  0.
         12    1    3    3    0    0  0.27021347505E+02  0.21557304586E+02  0.26244100817E+02  0.43400730751E+02  0.00000000000E+00 0. -1.
         11    1    4    4    0    0 -0.14173739391E+02 -0.46216469429E+01 -0.12430477962E+02  0.19410597400E+02  0.51100000000E-03 0. -1.
        -11    1    4    4    0    0 -0.65533409522E+01 -0.97993074173E+01 -0.22896959371E+00  0.11790891859E+02  0.51100000000E-03 0.  1.
        -12    1    4    4    0    0 -0.62942671617E+01 -0.71363502258E+01 -0.13584653262E+02  0.16585779991E+02  0.00000000000E+00 0.  1.
</event>
<event>
 8    1  0.9789513E-011  0.9118800E+02  0.7816164E-02  0.1184000E+00
        -11   -1    0    0    0    0  0.00000000000E+00  0.00000000000E+00  0.45593999997E+02  0.45594000000E+02  0.51100000000E-03 0. -1.
         11   -1    0    0    0    0 -0.00000000000E+00 -0.00000000000E+00 -0.45593999997E+02  0.45594000000E+02  0.51100000000E-03 0.  1.
         23    2    1    2    0    0 -0.44408920985E-15 -0.35527136788E-14  0.00000000000E+00  0.91188000000E+02  0.91188000000E+02 0.  0.
    9900012    2    3    3    0    0 -0.96013303112E+00 -0.19913199205E+02  0.38550831421E+02  0.47787263125E+02  0.19999963894E+02 0.  0.
        -12    1    3    3    0    0  0.96013303112E+00  0.19913199205E+02 -0.38550831421E+02  0.43400736875E+02  0.00000000000E+00 0.  1.
         11    1    4    4    0    0 -0.18014611819E+01 -0.91651383670E+01  0.22092091343E+02  0.23985527383E+02  0.51100000000E-03 0. -1.
        -11    1    4    4    0    0  0.70931180191E+01 -0.52996102864E+01  0.76194885323E+01  0.11681386826E+02  0.51100000000E-03 0.  1.
        -12    1    4    4    0    0 -0.62517898683E+01 -0.54484505514E+01  0.88392515454E+01  0.12120348916E+02  0.00000000000E+00 0.  1.
</event>
<event>
 8    1  0.8600524E-011  0.9118800E+02  0.7816164E-02  0.1184000E+00
        -11   -1    0    0    0    0  0.00000000000E+00  0.00000000000E+00  0.45593999997E+02  0.45594000000E+02  0.51100000000E-03 0. -1.
         11   -1    0    0    0    0 -0.00000000000E+00 -0.00000000000E+00 -0.45593999997E+02  0.45594000000E+02  0.51100000000E-03 0.  1.
         23    2    1    2    0    0  0.00000000000E+00 -0.44408920985E-15  0.00000000000E+00  0.91188000000E+02  0.91188000000E+02 0.  0.
    9900012    2    3    3    0    0 -0.72702688272E+01 -0.29100526967E+01 -0.42688384312E+02  0.47787269929E+02  0.19999994916E+02 0.  0.
         12    1    3    3    0    0  0.72702688272E+01  0.29100526967E+01  0.42688384312E+02  0.43400730071E+02  0.00000000000E+00 0. -1.
         11    1    4    4    0    0 -0.38713089715E+01 -0.77913275394E+00 -0.50556394709E+01  0.64151049658E+01  0.51100000000E-03 0. -1.
        -11    1    4    4    0    0 -0.75249445647E+01  0.49323775278E+01 -0.20438228592E+02  0.22331017152E+02  0.51100000000E-03 0.  1.
        -12    1    4    4    0    0  0.41259847090E+01 -0.70632974706E+01 -0.17194516248E+02  0.19041147812E+02  0.00000000000E+00 0.  1.
</event>
<event>
 8    1  0.8600524E-011  0.9118800E+02  0.7816164E-02  0.1184000E+00
        -11   -1    0    0    0    0  0.00000000000E+00  0.00000000000E+00  0.45593999997E+02  0.45594000000E+02  0.51100000000E-03 0. -1.
         11   -1    0    0    0    0 -0.00000000000E+00 -0.00000000000E+00 -0.45593999997E+02  0.45594000000E+02  0.51100000000E-03 0.  1.
         23    2    1    2    0    0 -0.17763568394E-14  0.00000000000E+00  0.00000000000E+00  0.91188000000E+02  0.91188000000E+02 0.  0.
    9900012    2    3    3    0    0  0.10537520098E+02 -0.16267126236E+02  0.38832514109E+02  0.47787275607E+02  0.20000020802E+02 0.  0.
        -12    1    3    3    0    0 -0.10537520098E+02  0.16267126236E+02 -0.38832514109E+02  0.43400724393E+02  0.00000000000E+00 0.  1.
         11    1    4    4    0    0  0.51215546132E+01 -0.17540706598E+02  0.37512588932E+02  0.41726502828E+02  0.51100000000E-03 0. -1.
        -11    1    4    4    0    0  0.36652474424E+01  0.37034960718E+00 -0.99507884536E-02  0.36839241204E+01  0.51100000000E-03 0.  1.
         12    1    4    4    0    0  0.17507180424E+01  0.90323075476E+00  0.13298759654E+01  0.23768486581E+01  0.00000000000E+00 0. -1.
</event>
<event>
 8    1  0.8600524E-011  0.9118800E+02  0.7816164E-02  0.1184000E+00
        -11   -1    0    0    0    0  0.00000000000E+00  0.00000000000E+00  0.45593999997E+02  0.45594000000E+02  0.51100000000E-03 0. -1.
         11   -1    0    0    0    0 -0.00000000000E+00 -0.00000000000E+00 -0.45593999997E+02  0.45594000000E+02  0.51100000000E-03 0.  1.
         23    2    1    2    0    0  0.00000000000E+00  0.00000000000E+00  0.00000000000E+00  0.91188000000E+02  0.91188000000E+02 0.  0.
    9900012    2    3    3    0    0 -0.22291071223E+02  0.34515920307E+02 -0.13977930004E+02  0.47787272609E+02  0.20000007133E+02 0.  0.
         12    1    3    3    0    0  0.22291071223E+02 -0.34515920307E+02  0.13977930004E+02  0.43400727391E+02  0.00000000000E+00 0. -1.
         11    1    4    4    0    0 -0.84372377532E+01  0.27357431911E+01  0.18334462906E+00  0.88715774937E+01  0.51100000000E-03 0. -1.
        -11    1    4    4    0    0 -0.14643243631E+02  0.24726539078E+02 -0.13608572414E+02  0.31796533809E+02  0.51100000000E-03 0.  1.
        -12    1    4    4    0    0  0.78941016203E+00  0.70536380374E+01 -0.55270221892E+00  0.71191613066E+01  0.00000000000E+00 0.  1.
</event>
<event>
 8    1  0.8600524E-011  0.9118800E+02  0.7816164E-02  0.1184000E+00
        -11   -1    0    0    0    0  0.00000000000E+00  0.00000000000E+00  0.45593999997E+02  0.45594000000E+02  0.51100000000E-03 0. -1.
         11   -1    0    0    0    0 -0.00000000000E+00 -0.00000000000E+00 -0.45593999997E+02  0.45594000000E+02  0.51100000000E-03 0.  1.
         23    2    1    2    0    0  0.00000000000E+00  0.88817841970E-15  0.00000000000E+00  0.91188000000E+02  0.91188000000E+02 0.  0.
    9900012    2    3    3    0    0 -0.22218432508E+02  0.49024464977E+01 -0.36958497453E+02  0.47787271218E+02  0.20000000794E+02 0.  0.
         12    1    3    3    0    0  0.22218432508E+02 -0.49024464977E+01  0.36958497453E+02  0.43400728782E+02  0.00000000000E+00 0. -1.
         11    1    4    4    0    0 -0.12559749812E+02  0.10922387419E+02 -0.17562685627E+02  0.24196978922E+02  0.51100000000E-03 0. -1.
        -11    1    4    4    0    0 -0.97749819617E+01 -0.32870554852E+01 -0.17314690893E+02  0.20153251030E+02  0.51100000000E-03 0.  1.
         12    1    4    4    0    0  0.11629926542E+00 -0.27328854361E+01 -0.20811209334E+01  0.34370412662E+01  0.00000000000E+00 0. -1.
</event>
<event>
 8    1  0.8600524E-011  0.9118800E+02  0.7816164E-02  0.1184000E+00
        -11   -1    0    0    0    0  0.00000000000E+00  0.00000000000E+00  0.45593999997E+02  0.45594000000E+02  0.51100000000E-03 0. -1.
         11   -1    0    0    0    0 -0.00000000000E+00 -0.00000000000E+00 -0.45593999997E+02  0.45594000000E+02  0.51100000000E-03 0.  1.
         23    2    1    2    0    0  0.00000000000E+00  0.00000000000E+00  0.00000000000E+00  0.91188000000E+02  0.91188000000E+02 0.  0.
    9900012    2    3    3    0    0 -0.19590255102E+02  0.34671586136E+02  0.17254746136E+02  0.47787271384E+02  0.20000001550E+02 0.  0.
        -12    1    3    3    0    0  0.19590255102E+02 -0.34671586136E+02 -0.17254746136E+02  0.43400728616E+02  0.00000000000E+00 0.  1.
         11    1    4    4    0    0 -0.34862471382E+01  0.36165572503E+01  0.50364989091E+01  0.71133485066E+01  0.51100000000E-03 0. -1.
        -11    1    4    4    0    0 -0.74870620388E+01  0.27387971063E+02  0.13096991223E+02  0.31268006593E+02  0.51100000000E-03 0.  1.
        -12    1    4    4    0    0 -0.86169459249E+01  0.36670578225E+01 -0.87874399650E+00  0.94059162849E+01  0.00000000000E+00 0.  1.
</event>
<event>
 8    1  0.8600524E-011  0.9118800E+02  0.7816164E-02  0.1184000E+00
        -11   -1    0    0    0    0  0.00000000000E+00  0.00000000000E+00  0.45593999997E+02  0.45594000000E+02  0.51100000000E-03 0. -1.
         11   -1    0    0    0    0 -0.00000000000E+00 -0.00000000000E+00 -0.45593999997E+02  0.45594000000E+02  0.51100000000E-03 0.  1.
         23    2    1    2    0    0  0.22204460493E-15  0.17763568394E-14  0.71054273576E-14  0.91188000000E+02  0.91188000000E+02 0.  0.
    9900012    2    3    3    0    0 -0.14493075052E+01  0.11613760687E+02  0.41792906909E+02  0.47787228147E+02  0.19999804413E+02 0.  0.
        -12    1    3    3    0    0  0.14493075052E+01 -0.11613760687E+02 -0.41792906909E+02  0.43400771853E+02  0.00000000000E+00 0.  1.
         11    1    4    4    0    0  0.90517498417E+00 -0.46615084086E+01  0.14888347351E+02  0.15627280297E+02  0.51100000000E-03 0.  1.
        -11    1    4    4    0    0 -0.28384573134E+01  0.98865809815E+01  0.11241819670E+02  0.15237448381E+02  0.51100000000E-03 0. -1.
         12    1    4    4    0    0  0.48397482397E+00  0.63886881136E+01  0.15662739888E+02  0.16922499468E+02  0.00000000000E+00 0. -1.
</event>
<event>
 8    1  0.8600524E-011  0.9118800E+02  0.7816164E-02  0.1184000E+00
        -11   -1    0    0    0    0  0.00000000000E+00  0.00000000000E+00  0.45593999997E+02  0.45594000000E+02  0.51100000000E-03 0. -1.
         11   -1    0    0    0    0 -0.00000000000E+00 -0.00000000000E+00 -0.45593999997E+02  0.45594000000E+02  0.51100000000E-03 0.  1.
         23    2    1    2    0    0  0.00000000000E+00  0.00000000000E+00  0.00000000000E+00  0.91188000000E+02  0.91188000000E+02 0.  0.
    9900012    2    3    3    0    0 -0.41658116260E+01  0.20827903634E+02 -0.37847945425E+02  0.47787279624E+02  0.20000039116E+02 0.  0.
         12    1    3    3    0    0  0.41658116260E+01 -0.20827903634E+02  0.37847945425E+02  0.43400720376E+02  0.00000000000E+00 0. -1.
         11    1    4    4    0    0 -0.23471622471E+01 -0.23254117840E+01 -0.20302414649E+01  0.38779622544E+01  0.51100000000E-03 0. -1.
        -11    1    4    4    0    0  0.19509672939E+01  0.14465341427E+02 -0.28206396868E+02  0.31759301008E+02  0.51100000000E-03 0.  1.
        -12    1    4    4    0    0 -0.37696166728E+01  0.86879739910E+01 -0.76113070917E+01  0.12150016361E+02  0.00000000000E+00 0.  1.
</event>
<event>
 8    1  0.8600524E-011  0.9118800E+02  0.7816164E-02  0.1184000E+00
        -11   -1    0    0    0    0  0.00000000000E+00  0.00000000000E+00  0.45593999997E+02  0.45594000000E+02  0.51100000000E-03 0. -1.
         11   -1    0    0    0    0 -0.00000000000E+00 -0.00000000000E+00 -0.45593999997E+02  0.45594000000E+02  0.51100000000E-03 0.  1.
         23    2    1    2    0    0 -0.88817841970E-15  0.88817841970E-15 -0.71054273576E-14  0.91188000000E+02  0.91188000000E+02 0.  0.
    9900012    2    3    3    0    0  0.69169354219E+01 -0.20589496157E+01  0.42796495085E+02  0.47787271196E+02  0.20000000692E+02 0.  0.
        -12    1    3    3    0    0 -0.69169354219E+01  0.20589496157E+01 -0.42796495085E+02  0.43400728804E+02  0.00000000000E+00 0.  1.
         11    1    4    4    0    0 -0.80429814627E-01 -0.51665241612E+01  0.15958077814E+01  0.54079611315E+01  0.51100000000E-03 0.  1.
        -11    1    4    4    0    0  0.22943810965E+01  0.38665380658E+01  0.27706499033E+02  0.28068922141E+02  0.51100000000E-03 0. -1.
        -12    1    4    4    0    0  0.47029841400E+01 -0.75896352030E+00  0.13494188270E+02  0.14310387924E+02  0.00000000000E+00 0.  1.
</event>
<event>
 8    1  0.8600524E-011  0.9118800E+02  0.7816164E-02  0.1184000E+00
        -11   -1    0    0    0    0  0.00000000000E+00  0.00000000000E+00  0.45593999997E+02  0.45594000000E+02  0.51100000000E-03 0. -1.
         11   -1    0    0    0    0 -0.00000000000E+00 -0.00000000000E+00 -0.45593999997E+02  0.45594000000E+02  0.51100000000E-03 0.  1.
         23    2    1    2    0    0  0.00000000000E+00  0.35527136788E-14  0.00000000000E+00  0.91188000000E+02  0.91188000000E+02 0.  0.
    9900012    2    3    3    0    0 -0.30341235577E+02  0.25022249517E+02 -0.18355311341E+02  0.47787297221E+02  0.20000119351E+02 0.  0.
         12    1    3    3    0    0  0.30341235577E+02 -0.25022249517E+02  0.18355311341E+02  0.43400702779E+02  0.00000000000E+00 0. -1.
         11    1    4    4    0    0 -0.21873245226E+02  0.17149247412E+02 -0.18716614629E+02  0.33508912351E+02  0.51100000000E-03 0.  1.
        -11    1    4    4    0    0  0.26836757680E+00  0.60351158487E+00  0.26104395121E+01  0.26927016353E+01  0.51100000000E-03 0. -1.
         12    1    4    4    0    0 -0.87363579285E+01  0.72694905196E+01 -0.22491362247E+01  0.11585683235E+02  0.00000000000E+00 0. -1.
</event>
<event>
 8    1  0.8600524E-011  0.9118800E+02  0.7816164E-02  0.1184000E+00
        -11   -1    0    0    0    0  0.00000000000E+00  0.00000000000E+00  0.45593999997E+02  0.45594000000E+02  0.51100000000E-03 0. -1.
         11   -1    0    0    0    0 -0.00000000000E+00 -0.00000000000E+00 -0.45593999997E+02  0.45594000000E+02  0.51100000000E-03 0.  1.
         23    2    1    2    0    0  0.00000000000E+00  0.00000000000E+00 -0.35527136788E-14  0.91188000000E+02  0.91188000000E+02 0.  0.
    9900012    2    3    3    0    0 -0.20827606371E+02 -0.23152828346E+02 -0.30228802542E+02  0.47787272463E+02  0.20000006470E+02 0.  0.
         12    1    3    3    0    0  0.20827606371E+02  0.23152828346E+02  0.30228802542E+02  0.43400727537E+02  0.00000000000E+00 0. -1.
         11    1    4    4    0    0 -0.26718492433E+01  0.28589775091E+01 -0.71737404843E+01  0.81716022648E+01  0.51100000000E-03 0. -1.
        -11    1    4    4    0    0 -0.17198061126E+02 -0.22972697793E+02 -0.18828123761E+02  0.34322243444E+02  0.51100000000E-03 0.  1.
        -12    1    4    4    0    0 -0.95769600185E+00 -0.30391080618E+01 -0.42269382966E+01  0.52934267546E+01  0.00000000000E+00 0.  1.
</event>
<event>
 8    1  0.8600524E-011  0.9118800E+02  0.7816164E-02  0.1184000E+00
        -11   -1    0    0    0    0  0.00000000000E+00  0.00000000000E+00  0.45593999997E+02  0.45594000000E+02  0.51100000000E-03 0.  1.
         11   -1    0    0    0    0 -0.00000000000E+00 -0.00000000000E+00 -0.45593999997E+02  0.45594000000E+02  0.51100000000E-03 0. -1.
         23    2    1    2    0    0 -0.13322676296E-14 -0.71054273576E-14 -0.44408920985E-15  0.91188000000E+02  0.91188000000E+02 0.  0.
    9900012    2    3    3    0    0 -0.23176100939E+01  0.43248117572E+02  0.28023225837E+01  0.47787262657E+02  0.19999961757E+02 0.  0.
        -12    1    3    3    0    0  0.23176100939E+01 -0.43248117572E+02 -0.28023225837E+01  0.43400737343E+02  0.00000000000E+00 0.  1.
         11    1    4    4    0    0 -0.86869870013E+01  0.34047899028E+02 -0.27802691698E+01  0.35248447743E+02  0.51100000000E-03 0. -1.
        -11    1    4    4    0    0  0.25749619942E+01  0.32035275806E+01  0.24201809783E+01  0.47697268748E+01  0.51100000000E-03 0.  1.
         12    1    4    4    0    0  0.37944149133E+01  0.59966909632E+01  0.31624107752E+01  0.77690880387E+01  0.00000000000E+00 0. -1.
</event>
<event>
 8    1  0.8600524E-011  0.9118800E+02  0.7816164E-02  0.1184000E+00
        -11   -1    0    0    0    0  0.00000000000E+00  0.00000000000E+00  0.45593999997E+02  0.45594000000E+02  0.51100000000E-03 0. -1.
         11   -1    0    0    0    0 -0.00000000000E+00 -0.00000000000E+00 -0.45593999997E+02  0.45594000000E+02  0.51100000000E-03 0.  1.
         23    2    1    2    0    0  0.35527136788E-14  0.00000000000E+00  0.71054273576E-14  0.91188000000E+02  0.91188000000E+02 0.  0.
    9900012    2    3    3    0    0 -0.16672590852E+02  0.21939093675E+02 -0.33530937202E+02  0.47787275736E+02  0.20000021390E+02 0.  0.
         12    1    3    3    0    0  0.16672590852E+02 -0.21939093675E+02  0.33530937202E+02  0.43400724264E+02  0.00000000000E+00 0. -1.
         11    1    4    4    0    0 -0.40177466188E+01 -0.10912397497E+01 -0.66849956739E+00  0.42166318333E+01  0.51100000000E-03 0. -1.
        -11    1    4    4    0    0 -0.10171400517E+02  0.19146470107E+02 -0.32334894259E+02  0.38930580435E+02  0.51100000000E-03 0.  1.
         12    1    4    4    0    0 -0.24834437161E+01  0.38838633185E+01 -0.52754337540E+00  0.46400634673E+01  0.00000000000E+00 0. -1.
</event>
<event>
 8    1  0.8600524E-011  0.9118800E+02  0.7816164E-02  0.1184000E+00
        -11   -1    0    0    0    0  0.00000000000E+00  0.00000000000E+00  0.45593999997E+02  0.45594000000E+02  0.51100000000E-03 0. -1.
         11   -1    0    0    0    0 -0.00000000000E+00 -0.00000000000E+00 -0.45593999997E+02  0.45594000000E+02  0.51100000000E-03 0.  1.
         23    2    1    2    0    0  0.71054273576E-14  0.99920072216E-15  0.00000000000E+00  0.91188000000E+02  0.91188000000E+02 0.  0.
    9900012    2    3    3    0    0  0.42864809377E+02 -0.38830740593E+00  0.67882599958E+01  0.47787272594E+02  0.20000007067E+02 0.  0.
        -12    1    3    3    0    0 -0.42864809377E+02  0.38830740593E+00 -0.67882599958E+01  0.43400727406E+02  0.00000000000E+00 0.  1.
         11    1    4    4    0    0  0.41145637079E+02  0.40051026229E+01  0.47020048956E+01  0.41606647882E+02  0.51100000000E-03 0. -1.
        -11    1    4    4    0    0  0.24454833826E+01 -0.40710421394E+01  0.24063543101E+01  0.53239378661E+01  0.51100000000E-03 0.  1.
         12    1    4    4    0    0 -0.72631108500E+00 -0.32236788944E+00 -0.32009920990E+00  0.85668684624E+00  0.00000000000E+00 0. -1.
</event>
<event>
 8    1  0.8600524E-011  0.9118800E+02  0.7816164E-02  0.1184000E+00
        -11   -1    0    0    0    0  0.00000000000E+00  0.00000000000E+00  0.45593999997E+02  0.45594000000E+02  0.51100000000E-03 0. -1.
         11   -1    0    0    0    0 -0.00000000000E+00 -0.00000000000E+00 -0.45593999997E+02  0.45594000000E+02  0.51100000000E-03 0.  1.
         23    2    1    2    0    0  0.00000000000E+00  0.00000000000E+00  0.35527136788E-14  0.91188000000E+02  0.91188000000E+02 0.  0.
    9900012    2    3    3    0    0 -0.18526382231E+02  0.27532273141E+02  0.27970900465E+02  0.47787260655E+02  0.19999952628E+02 0.  0.
        -12    1    3    3    0    0  0.18526382231E+02 -0.27532273141E+02 -0.27970900465E+02  0.43400739345E+02  0.00000000000E+00 0.  1.
         11    1    4    4    0    0 -0.32200091378E+00  0.19333686539E+01 -0.23053947520E+01  0.30259616924E+01  0.51100000000E-03 0. -1.
        -11    1    4    4    0    0 -0.68413701031E+01  0.96263854966E+01  0.18332424802E+02  0.21807096139E+02  0.51100000000E-03 0.  1.
         12    1    4    4    0    0 -0.11363011214E+02  0.15972518991E+02  0.11943870416E+02  0.22954202824E+02  0.00000000000E+00 0. -1.
</event>
<event>
 8    1  0.8600524E-011  0.9118800E+02  0.7816164E-02  0.1184000E+00
        -11   -1    0    0    0    0  0.00000000000E+00  0.00000000000E+00  0.45593999997E+02  0.45594000000E+02  0.51100000000E-03 0. -1.
         11   -1    0    0    0    0 -0.00000000000E+00 -0.00000000000E+00 -0.45593999997E+02  0.45594000000E+02  0.51100000000E-03 0.  1.
         23    2    1    2    0    0  0.00000000000E+00  0.00000000000E+00 -0.35527136788E-14  0.91188000000E+02  0.91188000000E+02 0.  0.
    9900012    2    3    3    0    0 -0.15341252742E+02 -0.34420762123E+02  0.21528546305E+02  0.47787294858E+02  0.20000108575E+02 0.  0.
        -12    1    3    3    0    0  0.15341252742E+02  0.34420762123E+02 -0.21528546305E+02  0.43400705142E+02  0.00000000000E+00 0.  1.
         11    1    4    4    0    0 -0.14518796537E+02 -0.18885643592E+02  0.18493869416E+02  0.30157688788E+02  0.51100000000E-03 0. -1.
        -11    1    4    4    0    0 -0.15176096842E+01 -0.11673845998E+02 -0.12283420750E+01  0.11835989357E+02  0.51100000000E-03 0.  1.
        -12    1    4    4    0    0  0.69515347947E+00 -0.38612725334E+01  0.42630189637E+01  0.57936167134E+01  0.00000000000E+00 0.  1.
</event>
<event>
 8    1  0.8600524E-011  0.9118800E+02  0.7816164E-02  0.1184000E+00
        -11   -1    0    0    0    0  0.00000000000E+00  0.00000000000E+00  0.45593999997E+02  0.45594000000E+02  0.51100000000E-03 0. -1.
         11   -1    0    0    0    0 -0.00000000000E+00 -0.00000000000E+00 -0.45593999997E+02  0.45594000000E+02  0.51100000000E-03 0.  1.
         23    2    1    2    0    0 -0.17763568394E-14  0.17763568394E-14  0.00000000000E+00  0.91188000000E+02  0.91188000000E+02 0.  0.
    9900012    2    3    3    0    0  0.13228395897E+02 -0.81350656297E+01 -0.40527192851E+02  0.47787272919E+02  0.20000008548E+02 0.  0.
         12    1    3    3    0    0 -0.13228395897E+02  0.81350656297E+01  0.40527192851E+02  0.43400727081E+02  0.00000000000E+00 0. -1.
         11    1    4    4    0    0  0.10186311258E+01  0.15789534912E+01 -0.33695948439E+00  0.19089906896E+01  0.51100000000E-03 0. -1.
        -11    1    4    4    0    0 -0.40376219000E+00 -0.92576239731E+00 -0.22163757057E+02  0.22186757020E+02  0.51100000000E-03 0.  1.
        -12    1    4    4    0    0  0.12613526961E+02 -0.87882567236E+01 -0.18026476310E+02  0.23691525210E+02  0.00000000000E+00 0.  1.
</event>
<event>
 8    1  0.8600524E-011  0.9118800E+02  0.7816164E-02  0.1184000E+00
        -11   -1    0    0    0    0  0.00000000000E+00  0.00000000000E+00  0.45593999997E+02  0.45594000000E+02  0.51100000000E-03 0. -1.
         11   -1    0    0    0    0 -0.00000000000E+00 -0.00000000000E+00 -0.45593999997E+02  0.45594000000E+02  0.51100000000E-03 0.  1.
         23    2    1    2    0    0  0.35527136788E-14  0.00000000000E+00  0.35527136788E-14  0.91188000000E+02  0.91188000000E+02 0.  0.
    9900012    2    3    3    0    0 -0.30698336866E+02 -0.13166923242E+02  0.27710451159E+02  0.47787252801E+02  0.19999916820E+02 0.  0.
        -12    1    3    3    0    0  0.30698336866E+02  0.13166923242E+02 -0.27710451159E+02  0.43400747199E+02  0.00000000000E+00 0.  1.
         11    1    4    4    0    0 -0.21763328681E+02 -0.13775470433E+01  0.22426407209E+02  0.31280726521E+02  0.51100000000E-03 0. -1.
        -11    1    4    4    0    0 -0.71671694970E+01 -0.65718502732E+01  0.15387459947E+01  0.98450634386E+01  0.51100000000E-03 0.  1.
         12    1    4    4    0    0 -0.17678386881E+01 -0.52175259251E+01  0.37452979556E+01  0.66614628411E+01  0.00000000000E+00 0. -1.
</event>
<event>
 8    1  0.8600524E-011  0.9118800E+02  0.7816164E-02  0.1184000E+00
        -11   -1    0    0    0    0  0.00000000000E+00  0.00000000000E+00  0.45593999997E+02  0.45594000000E+02  0.51100000000E-03 0. -1.
         11   -1    0    0    0    0 -0.00000000000E+00 -0.00000000000E+00 -0.45593999997E+02  0.45594000000E+02  0.51100000000E-03 0.  1.
         23    2    1    2    0    0  0.00000000000E+00 -0.88817841970E-15  0.00000000000E+00  0.91188000000E+02  0.91188000000E+02 0.  0.
    9900012    2    3    3    0    0  0.12126137007E+02  0.68064994012E+01 -0.41112674208E+02  0.47787267133E+02  0.19999982168E+02 0.  0.
         12    1    3    3    0    0 -0.12126137007E+02 -0.68064994012E+01  0.41112674208E+02  0.43400732867E+02  0.00000000000E+00 0. -1.
         11    1    4    4    0    0  0.31051325003E-01  0.43231655444E+01 -0.66511942019E+01  0.79327869681E+01  0.51100000000E-03 0. -1.
        -11    1    4    4    0    0  0.51662481152E+01  0.90075126365E+01 -0.15807527751E+02  0.18913046749E+02  0.51100000000E-03 0.  1.
        -12    1    4    4    0    0  0.69288375671E+01 -0.65241787797E+01 -0.18653952255E+02  0.20941433416E+02  0.00000000000E+00 0.  1.
</event>
<event>
 8    1  0.8600524E-011  0.9118800E+02  0.7816164E-02  0.1184000E+00
        -11   -1    0    0    0    0  0.00000000000E+00  0.00000000000E+00  0.45593999997E+02  0.45594000000E+02  0.51100000000E-03 0. -1.
         11   -1    0    0    0    0 -0.00000000000E+00 -0.00000000000E+00 -0.45593999997E+02  0.45594000000E+02  0.51100000000E-03 0.  1.
         23    2    1    2    0    0 -0.35527136788E-14  0.63837823916E-15  0.00000000000E+00  0.91188000000E+02  0.91188000000E+02 0.  0.
    9900012    2    3    3    0    0  0.16961516895E+02 -0.17948716765E+00 -0.39948696177E+02  0.47787267318E+02  0.19999983012E+02 0.  0.
         12    1    3    3    0    0 -0.16961516895E+02  0.17948716765E+00  0.39948696177E+02  0.43400732682E+02  0.00000000000E+00 0. -1.
         11    1    4    4    0    0  0.10246876826E+02 -0.26614327391E+01 -0.87810602738E+01  0.13754589369E+02  0.51100000000E-03 0. -1.
        -11    1    4    4    0    0 -0.28398117741E+01 -0.15730643254E+01 -0.86101461824E+01  0.92018302434E+01  0.51100000000E-03 0.  1.
        -12    1    4    4    0    0  0.95544518423E+01  0.40550098969E+01 -0.22557489721E+02  0.24830847706E+02  0.00000000000E+00 0.  1.
</event>
<event>
 8    1  0.8600524E-011  0.9118800E+02  0.7816164E-02  0.1184000E+00
        -11   -1    0    0    0    0  0.00000000000E+00  0.00000000000E+00  0.45593999997E+02  0.45594000000E+02  0.51100000000E-03 0. -1.
         11   -1    0    0    0    0 -0.00000000000E+00 -0.00000000000E+00 -0.45593999997E+02  0.45594000000E+02  0.51100000000E-03 0.  1.
         23    2    1    2    0    0  0.00000000000E+00  0.00000000000E+00  0.71054273576E-14  0.91188000000E+02  0.91188000000E+02 0.  0.
    9900012    2    3    3    0    0  0.17726843680E+02 -0.20634826520E+02  0.33816951915E+02  0.47787270868E+02  0.19999999196E+02 0.  0.
        -12    1    3    3    0    0 -0.17726843680E+02  0.20634826520E+02 -0.33816951915E+02  0.43400729132E+02  0.00000000000E+00 0.  1.
         11    1    4    4    0    0  0.19437058014E+02 -0.13655854210E+02  0.28603066455E+02  0.37180868593E+02  0.51100000000E-03 0. -1.
        -11    1    4    4    0    0 -0.21486145371E+01 -0.44627167007E+01  0.17378966431E+00  0.49560657671E+01  0.51100000000E-03 0.  1.
         12    1    4    4    0    0  0.43840020372E+00 -0.25162556089E+01  0.50400957951E+01  0.56503365078E+01  0.00000000000E+00 0. -1.
</event>
<event>
 8    1  0.8600524E-011  0.9118800E+02  0.7816164E-02  0.1184000E+00
        -11   -1    0    0    0    0  0.00000000000E+00  0.00000000000E+00  0.45593999997E+02  0.45594000000E+02  0.51100000000E-03 0. -1.
         11   -1    0    0    0    0 -0.00000000000E+00 -0.00000000000E+00 -0.45593999997E+02  0.45594000000E+02  0.51100000000E-03 0.  1.
         23    2    1    2    0    0  0.00000000000E+00  0.35527136788E-14  0.35527136788E-14  0.91188000000E+02  0.91188000000E+02 0.  0.
    9900012    2    3    3    0    0 -0.15506051070E+02  0.28151386798E+02 -0.29166506171E+02  0.47787270966E+02  0.19999999643E+02 0.  0.
         12    1    3    3    0    0  0.15506051070E+02 -0.28151386798E+02  0.29166506171E+02  0.43400729034E+02  0.00000000000E+00 0. -1.
         11    1    4    4    0    0 -0.93052679457E+01  0.29505775391E+02 -0.22980088952E+02  0.38539113657E+02  0.51100000000E-03 0. -1.
        -11    1    4    4    0    0 -0.38143328293E+01 -0.19860182031E+01 -0.31276078674E+01  0.53174556386E+01  0.51100000000E-03 0.  1.
         12    1    4    4    0    0 -0.23864502949E+01  0.63162961063E+00 -0.30588093518E+01  0.39307016709E+01  0.00000000000E+00 0. -1.
</event>
<event>
 8    1  0.8600524E-011  0.9118800E+02  0.7816164E-02  0.1184000E+00
        -11   -1    0    0    0    0  0.00000000000E+00  0.00000000000E+00  0.45593999997E+02  0.45594000000E+02  0.51100000000E-03 0. -1.
         11   -1    0    0    0    0 -0.00000000000E+00 -0.00000000000E+00 -0.45593999997E+02  0.45594000000E+02  0.51100000000E-03 0.  1.
         23    2    1    2    0    0  0.35527136788E-14  0.00000000000E+00  0.71054273576E-14  0.91188000000E+02  0.91188000000E+02 0.  0.
    9900012    2    3    3    0    0 -0.15807248461E+02 -0.18909315952E+02 -0.35723826626E+02  0.47787272788E+02  0.20000007949E+02 0.  0.
         12    1    3    3    0    0  0.15807248461E+02  0.18909315952E+02  0.35723826626E+02  0.43400727212E+02  0.00000000000E+00 0. -1.
         11    1    4    4    0    0  0.12812750328E+01 -0.97641231059E+01 -0.14671331330E+02  0.17669966865E+02  0.51100000000E-03 0. -1.
        -11    1    4    4    0    0 -0.11354738746E+02 -0.42574275685E+01 -0.18580802358E+02  0.22187879529E+02  0.51100000000E-03 0.  1.
         12    1    4    4    0    0 -0.57337847482E+01 -0.48877652780E+01 -0.24716929381E+01  0.79294263937E+01  0.00000000000E+00 0. -1.
</event>
<event>
 8    1  0.8600524E-011  0.9118800E+02  0.7816164E-02  0.1184000E+00
        -11   -1    0    0    0    0  0.00000000000E+00  0.00000000000E+00  0.45593999997E+02  0.45594000000E+02  0.51100000000E-03 0. -1.
         11   -1    0    0    0    0 -0.00000000000E+00 -0.00000000000E+00 -0.45593999997E+02  0.45594000000E+02  0.51100000000E-03 0.  1.
         23    2    1    2    0    0  0.00000000000E+00  0.44408920985E-15  0.00000000000E+00  0.91188000000E+02  0.91188000000E+02 0.  0.
    9900012    2    3    3    0    0 -0.51844823193E+01  0.10426587623E+01 -0.43077349663E+02  0.47787262124E+02  0.19999959327E+02 0.  0.
         12    1    3    3    0    0  0.51844823193E+01 -0.10426587623E+01  0.43077349663E+02  0.43400737876E+02  0.00000000000E+00 0. -1.
         11    1    4    4    0    0 -0.47552089106E+01  0.18918930182E+01 -0.18977523015E+01  0.54582721657E+01  0.51100000000E-03 0. -1.
        -11    1    4    4    0    0 -0.15670762745E+01 -0.42157438886E+01 -0.34223465167E+02  0.34517731572E+02  0.51100000000E-03 0.  1.
        -12    1    4    4    0    0  0.11378028658E+01  0.33665096327E+01 -0.69561321947E+01  0.78112583863E+01  0.00000000000E+00 0.  1.
</event>
<event>
 8    1  0.8600524E-011  0.9118800E+02  0.7816164E-02  0.1184000E+00
        -11   -1    0    0    0    0  0.00000000000E+00  0.00000000000E+00  0.45593999997E+02  0.45594000000E+02  0.51100000000E-03 0. -1.
         11   -1    0    0    0    0 -0.00000000000E+00 -0.00000000000E+00 -0.45593999997E+02  0.45594000000E+02  0.51100000000E-03 0.  1.
         23    2    1    2    0    0  0.00000000000E+00  0.00000000000E+00  0.00000000000E+00  0.91188000000E+02  0.91188000000E+02 0.  0.
    9900012    2    3    3    0    0 -0.16021721283E+02  0.23208393657E+02 -0.32989364215E+02  0.47787271431E+02  0.20000001761E+02 0.  0.
         12    1    3    3    0    0  0.16021721283E+02 -0.23208393657E+02  0.32989364215E+02  0.43400728569E+02  0.00000000000E+00 0. -1.
         11    1    4    4    0    0 -0.12702021344E+02  0.98339068097E+01 -0.12011161995E+02  0.20057793550E+02  0.51100000000E-03 0. -1.
        -11    1    4    4    0    0 -0.68059758405E+01  0.43350967426E+01 -0.12370268594E+02  0.14769492756E+02  0.51100000000E-03 0.  1.
         12    1    4    4    0    0  0.34862759010E+01  0.90393901049E+01 -0.86079336264E+01  0.12959985125E+02  0.00000000000E+00 0. -1.
</event>
<event>
 8    1  0.8600524E-011  0.9118800E+02  0.7816164E-02  0.1184000E+00
        -11   -1    0    0    0    0  0.00000000000E+00  0.00000000000E+00  0.45593999997E+02  0.45594000000E+02  0.51100000000E-03 0. -1.
         11   -1    0    0    0    0 -0.00000000000E+00 -0.00000000000E+00 -0.45593999997E+02  0.45594000000E+02  0.51100000000E-03 0.  1.
         23    2    1    2    0    0  0.88817841970E-15  0.00000000000E+00  0.00000000000E+00  0.91188000000E+02  0.91188000000E+02 0.  0.
    9900012    2    3    3    0    0 -0.59504701805E+01 -0.20646439053E+02  0.37708626528E+02  0.47787262039E+02  0.19999958941E+02 0.  0.
        -12    1    3    3    0    0  0.59504701805E+01  0.20646439053E+02 -0.37708626528E+02  0.43400737961E+02  0.00000000000E+00 0.  1.
         11    1    4    4    0    0  0.43365953194E+01 -0.20853469986E+01  0.91628861846E+00  0.48983993470E+01  0.51100000000E-03 0. -1.
        -11    1    4    4    0    0 -0.13584075341E+01 -0.56386549271E+00  0.81322616312E+00  0.16806404660E+01  0.51100000000E-03 0.  1.
         12    1    4    4    0    0 -0.89286579658E+01 -0.17997226561E+02  0.35979111747E+02  0.41208222226E+02  0.00000000000E+00 0. -1.
</event>
<event>
 8    1  0.8600524E-011  0.9118800E+02  0.7816164E-02  0.1184000E+00
        -11   -1    0    0    0    0  0.00000000000E+00  0.00000000000E+00  0.45593999997E+02  0.45594000000E+02  0.51100000000E-03 0. -1.
         11   -1    0    0    0    0 -0.00000000000E+00 -0.00000000000E+00 -0.45593999997E+02  0.45594000000E+02  0.51100000000E-03 0.  1.
         23    2    1    2    0    0  0.00000000000E+00 -0.88817841970E-15  0.71054273576E-14  0.91188000000E+02  0.91188000000E+02 0.  0.
    9900012    2    3    3    0    0 -0.10390213870E+02 -0.30448425104E+01  0.42028512007E+02  0.47787269226E+02  0.19999991709E+02 0.  0.
        -12    1    3    3    0    0  0.10390213870E+02  0.30448425104E+01 -0.42028512007E+02  0.43400730774E+02  0.00000000000E+00 0.  1.
         11    1    4    4    0    0  0.28887782909E+01 -0.41509838363E+01  0.23702983933E+02  0.24236483953E+02  0.51100000000E-03 0. -1.
        -11    1    4    4    0    0 -0.12160760431E+02  0.25830174191E+01  0.17629038148E+02  0.21571718974E+02  0.51100000000E-03 0.  1.
         12    1    4    4    0    0 -0.11182317296E+01 -0.14768760931E+01  0.69648992666E+00  0.19790662984E+01  0.00000000000E+00 0. -1.
</event>
<event>
 8    1  0.8600524E-011  0.9118800E+02  0.7816164E-02  0.1184000E+00
        -11   -1    0    0    0    0  0.00000000000E+00  0.00000000000E+00  0.45593999997E+02  0.45594000000E+02  0.51100000000E-03 0. -1.
         11   -1    0    0    0    0 -0.00000000000E+00 -0.00000000000E+00 -0.45593999997E+02  0.45594000000E+02  0.51100000000E-03 0.  1.
         23    2    1    2    0    0  0.00000000000E+00  0.00000000000E+00  0.00000000000E+00  0.91188000000E+02  0.91188000000E+02 0.  0.
    9900012    2    3    3    0    0  0.36307622501E+02 -0.93707424702E+01  0.21853351576E+02  0.47787271421E+02  0.20000001717E+02 0.  0.
        -12    1    3    3    0    0 -0.36307622501E+02  0.93707424702E+01 -0.21853351576E+02  0.43400728579E+02  0.00000000000E+00 0.  1.
         11    1    4    4    0    0  0.21814893726E+02 -0.22257059133E+01  0.14039528106E+02  0.26037505733E+02  0.51100000000E-03 0. -1.
        -11    1    4    4    0    0  0.74055385412E+01 -0.12385074418E+01 -0.24982193621E+01  0.79130905473E+01  0.51100000000E-03 0.  1.
        -12    1    4    4    0    0  0.70871902338E+01 -0.59065291151E+01  0.10312042832E+02  0.13836675141E+02  0.00000000000E+00 0.  1.
</event>
<event>
 8    1  0.8600524E-011  0.9118800E+02  0.7816164E-02  0.1184000E+00
        -11   -1    0    0    0    0  0.00000000000E+00  0.00000000000E+00  0.45593999997E+02  0.45594000000E+02  0.51100000000E-03 0. -1.
         11   -1    0    0    0    0 -0.00000000000E+00 -0.00000000000E+00 -0.45593999997E+02  0.45594000000E+02  0.51100000000E-03 0.  1.
         23    2    1    2    0    0 -0.17763568394E-14  0.00000000000E+00  0.00000000000E+00  0.91188000000E+02  0.91188000000E+02 0.  0.
    9900012    2    3    3    0    0  0.97679112058E+01 -0.22134057135E+02 -0.36031855418E+02  0.47787272133E+02  0.20000004961E+02 0.  0.
         12    1    3    3    0    0 -0.97679112058E+01  0.22134057135E+02  0.36031855418E+02  0.43400727867E+02  0.00000000000E+00 0. -1.
         11    1    4    4    0    0  0.50036957572E+01 -0.18026298047E+01 -0.17567545085E+02  0.18354974421E+02  0.51100000000E-03 0. -1.
        -11    1    4    4    0    0 -0.12143092159E+01 -0.20391426690E+01 -0.61324316346E+01  0.65756648113E+01  0.51100000000E-03 0.  1.
         12    1    4    4    0    0  0.59785246645E+01 -0.18292284661E+02 -0.12331878699E+02  0.22856632900E+02  0.00000000000E+00 0. -1.
</event>
<event>
 8    1  0.8600524E-011  0.9118800E+02  0.7816164E-02  0.1184000E+00
        -11   -1    0    0    0    0  0.00000000000E+00  0.00000000000E+00  0.45593999997E+02  0.45594000000E+02  0.51100000000E-03 0.  1.
         11   -1    0    0    0    0 -0.00000000000E+00 -0.00000000000E+00 -0.45593999997E+02  0.45594000000E+02  0.51100000000E-03 0. -1.
         23    2    1    2    0    0 -0.35527136788E-14  0.00000000000E+00 -0.88817841970E-15  0.91188000000E+02  0.91188000000E+02 0.  0.
    9900012    2    3    3    0    0 -0.29448966606E+02 -0.31566573744E+02 -0.44645176766E+01  0.47787284221E+02  0.20000060075E+02 0.  0.
         12    1    3    3    0    0  0.29448966606E+02  0.31566573744E+02  0.44645176766E+01  0.43400715779E+02  0.00000000000E+00 0. -1.
         11    1    4    4    0    0 -0.15848437227E+01 -0.12021597439E+02  0.16445402056E+01  0.12236627287E+02  0.51100000000E-03 0. -1.
        -11    1    4    4    0    0 -0.25253682333E+01 -0.54943827155E+01 -0.11677402105E+01  0.61586803455E+01  0.51100000000E-03 0.  1.
         12    1    4    4    0    0 -0.25338754650E+02 -0.14050593589E+02 -0.49413176717E+01  0.29391976588E+02  0.00000000000E+00 0. -1.
</event>
<event>
 8    1  0.8600524E-011  0.9118800E+02  0.7816164E-02  0.1184000E+00
        -11   -1    0    0    0    0  0.00000000000E+00  0.00000000000E+00  0.45593999997E+02  0.45594000000E+02  0.51100000000E-03 0. -1.
         11   -1    0    0    0    0 -0.00000000000E+00 -0.00000000000E+00 -0.45593999997E+02  0.45594000000E+02  0.51100000000E-03 0.  1.
         23    2    1    2    0    0  0.00000000000E+00  0.00000000000E+00  0.00000000000E+00  0.91188000000E+02  0.91188000000E+02 0.  0.
    9900012    2    3    3    0    0  0.14961490660E+02 -0.17991392139E+02  0.36552523950E+02  0.47787269579E+02  0.19999993320E+02 0.  0.
        -12    1    3    3    0    0 -0.14961490660E+02  0.17991392139E+02 -0.36552523950E+02  0.43400730421E+02  0.00000000000E+00 0.  1.
         11    1    4    4    0    0  0.11450267923E+02 -0.10626870269E+02  0.86705933352E+01  0.17866678379E+02  0.51100000000E-03 0. -1.
        -11    1    4    4    0    0  0.41213045057E+01 -0.82340936256E+01  0.27041136216E+02  0.28565862437E+02  0.51100000000E-03 0.  1.
        -12    1    4    4    0    0 -0.61008176866E+00  0.86957175526E+00  0.84079439953E+00  0.13547287641E+01  0.00000000000E+00 0.  1.
</event>
<event>
 8    1  0.8600524E-011  0.9118800E+02  0.7816164E-02  0.1184000E+00
        -11   -1    0    0    0    0  0.00000000000E+00  0.00000000000E+00  0.45593999997E+02  0.45594000000E+02  0.51100000000E-03 0. -1.
         11   -1    0    0    0    0 -0.00000000000E+00 -0.00000000000E+00 -0.45593999997E+02  0.45594000000E+02  0.51100000000E-03 0.  1.
         23    2    1    2    0    0  0.00000000000E+00  0.00000000000E+00  0.00000000000E+00  0.91188000000E+02  0.91188000000E+02 0.  0.
    9900012    2    3    3    0    0 -0.12840831835E+02 -0.27597094964E+02 -0.30937626795E+02  0.47787270002E+02  0.19999995245E+02 0.  0.
         12    1    3    3    0    0  0.12840831835E+02  0.27597094964E+02  0.30937626795E+02  0.43400729998E+02  0.00000000000E+00 0. -1.
         11    1    4    4    0    0 -0.74242479775E+01 -0.97320277474E+01 -0.13295003265E+02  0.18071771750E+02  0.51100000000E-03 0. -1.
        -11    1    4    4    0    0 -0.56028913181E+01 -0.19471352569E+02 -0.11361370597E+02  0.23229436155E+02  0.51100000000E-03 0.  1.
        -12    1    4    4    0    0  0.18630746006E+00  0.16062853525E+01 -0.62812529330E+01  0.64860620959E+01  0.00000000000E+00 0.  1.
</event>
<event>
 8    1  0.8600524E-011  0.9118800E+02  0.7816164E-02  0.1184000E+00
        -11   -1    0    0    0    0  0.00000000000E+00  0.00000000000E+00  0.45593999997E+02  0.45594000000E+02  0.51100000000E-03 0. -1.
         11   -1    0    0    0    0 -0.00000000000E+00 -0.00000000000E+00 -0.45593999997E+02  0.45594000000E+02  0.51100000000E-03 0.  1.
         23    2    1    2    0    0  0.35527136788E-14  0.35527136788E-14 -0.71054273576E-14  0.91188000000E+02  0.91188000000E+02 0.  0.
    9900012    2    3    3    0    0  0.14529926951E+02  0.25337044460E+02 -0.32102005593E+02  0.47787270026E+02  0.19999995355E+02 0.  0.
         12    1    3    3    0    0 -0.14529926951E+02 -0.25337044460E+02  0.32102005593E+02  0.43400729974E+02  0.00000000000E+00 0. -1.
         11    1    4    4    0    0  0.40044821578E+01  0.95197140029E+01 -0.88245084176E+00  0.10365305196E+02  0.51100000000E-03 0. -1.
        -11    1    4    4    0    0  0.10182676410E+02  0.15218663741E+02 -0.24090729158E+02  0.30259839005E+02  0.51100000000E-03 0.  1.
         12    1    4    4    0    0  0.34276838311E+00  0.59866671635E+00 -0.71288255933E+01  0.71621258255E+01  0.00000000000E+00 0. -1.
</event>
<event>
 8    1  0.8600524E-011  0.9118800E+02  0.7816164E-02  0.1184000E+00
        -11   -1    0    0    0    0  0.00000000000E+00  0.00000000000E+00  0.45593999997E+02  0.45594000000E+02  0.51100000000E-03 0. -1.
         11   -1    0    0    0    0 -0.00000000000E+00 -0.00000000000E+00 -0.45593999997E+02  0.45594000000E+02  0.51100000000E-03 0.  1.
         23    2    1    2    0    0 -0.35527136788E-14  0.35527136788E-14  0.35527136788E-14  0.91188000000E+02  0.91188000000E+02 0.  0.
    9900012    2    3    3    0    0  0.29592489813E+02 -0.18850883606E+02 -0.25545097213E+02  0.47787271231E+02  0.20000000851E+02 0.  0.
         12    1    3    3    0    0 -0.29592489813E+02  0.18850883606E+02  0.25545097213E+02  0.43400728769E+02  0.00000000000E+00 0. -1.
         11    1    4    4    0    0  0.16890478098E+01 -0.78034488522E+00  0.21661881483E+00  0.18731643323E+01  0.51100000000E-03 0. -1.
        -11    1    4    4    0    0  0.62755386743E+01 -0.40313628451E+01 -0.17195382197E+02  0.18743410607E+02  0.51100000000E-03 0.  1.
        -12    1    4    4    0    0  0.21627903328E+02 -0.14039175876E+02 -0.85663338312E+01  0.27170696292E+02  0.00000000000E+00 0.  1.
</event>
<event>
 8    1  0.8600524E-011  0.9118800E+02  0.7816164E-02  0.1184000E+00
        -11   -1    0    0    0    0  0.00000000000E+00  0.00000000000E+00  0.45593999997E+02  0.45594000000E+02  0.51100000000E-03 0. -1.
         11   -1    0    0    0    0 -0.00000000000E+00 -0.00000000000E+00 -0.45593999997E+02  0.45594000000E+02  0.51100000000E-03 0.  1.
         23    2    1    2    0    0  0.00000000000E+00  0.00000000000E+00  0.00000000000E+00  0.91188000000E+02  0.91188000000E+02 0.  0.
    9900012    2    3    3    0    0 -0.19235358424E+02 -0.97156636223E+01  0.37672675694E+02  0.47787266973E+02  0.19999981437E+02 0.  0.
        -12    1    3    3    0    0  0.19235358424E+02  0.97156636223E+01 -0.37672675694E+02  0.43400733027E+02  0.00000000000E+00 0.  1.
         11    1    4    4    0    0 -0.15959089476E+02 -0.27194536880E+01  0.14382752895E+02  0.21655289109E+02  0.51100000000E-03 0. -1.
        -11    1    4    4    0    0 -0.34005685964E+01  0.64622993994E+00  0.35238830132E+01  0.49395578412E+01  0.51100000000E-03 0.  1.
         12    1    4    4    0    0  0.12429964873E+00 -0.76424398742E+01  0.19766039786E+02  0.21192420023E+02  0.00000000000E+00 0. -1.
</event>
<event>
 8    1  0.8600524E-011  0.9118800E+02  0.7816164E-02  0.1184000E+00
        -11   -1    0    0    0    0  0.00000000000E+00  0.00000000000E+00  0.45593999997E+02  0.45594000000E+02  0.51100000000E-03 0. -1.
         11   -1    0    0    0    0 -0.00000000000E+00 -0.00000000000E+00 -0.45593999997E+02  0.45594000000E+02  0.51100000000E-03 0.  1.
         23    2    1    2    0    0  0.35527136788E-14  0.00000000000E+00  0.00000000000E+00  0.91188000000E+02  0.91188000000E+02 0.  0.
    9900012    2    3    3    0    0 -0.29296719861E+02  0.13151716026E+02  0.29195178698E+02  0.47787263966E+02  0.19999967728E+02 0.  0.
        -12    1    3    3    0    0  0.29296719861E+02 -0.13151716026E+02 -0.29195178698E+02  0.43400736034E+02  0.00000000000E+00 0.  1.
         11    1    4    4    0    0 -0.31527665716E+01 -0.12212686786E+01  0.12995063894E+02  0.13427699733E+02  0.51100000000E-03 0. -1.
        -11    1    4    4    0    0 -0.14884327292E+02  0.10788572055E+02  0.11219949272E+02  0.21536567689E+02  0.51100000000E-03 0.  1.
         12    1    4    4    0    0 -0.11259625998E+02  0.35844126500E+01  0.49801655321E+01  0.12822996545E+02  0.00000000000E+00 0. -1.
</event>
<event>
 8    1  0.9859659E-011  0.9118800E+02  0.7816164E-02  0.1184000E+00
        -11   -1    0    0    0    0  0.00000000000E+00  0.00000000000E+00  0.45593999997E+02  0.45594000000E+02  0.51100000000E-03 0. -1.
         11   -1    0    0    0    0 -0.00000000000E+00 -0.00000000000E+00 -0.45593999997E+02  0.45594000000E+02  0.51100000000E-03 0.  1.
         23    2    1    2    0    0  0.17763568394E-14  0.00000000000E+00  0.00000000000E+00  0.91188000000E+02  0.91188000000E+02 0.  0.
    9900012    2    3    3    0    0  0.11458941887E+02 -0.13694997187E+02  0.39557087090E+02  0.47787269175E+02  0.19999991477E+02 0.  0.
        -12    1    3    3    0    0 -0.11458941887E+02  0.13694997187E+02 -0.39557087090E+02  0.43400730825E+02  0.00000000000E+00 0.  1.
         11    1    4    4    0    0  0.10871761839E+01 -0.53800223859E+01  0.13728667542E+02  0.14785225925E+02  0.51100000000E-03 0. -1.
        -11    1    4    4    0    0 -0.20617856577E+01  0.29413827653E+01  0.63698950920E+01  0.73128829072E+01  0.51100000000E-03 0.  1.
        -12    1    4    4    0    0  0.12433551361E+02 -0.11256357566E+02  0.19458524456E+02  0.25689160343E+02  0.00000000000E+00 0.  1.
</event>
<event>
 8    1  0.8600524E-011  0.9118800E+02  0.7816164E-02  0.1184000E+00
        -11   -1    0    0    0    0  0.00000000000E+00  0.00000000000E+00  0.45593999997E+02  0.45594000000E+02  0.51100000000E-03 0. -1.
         11   -1    0    0    0    0 -0.00000000000E+00 -0.00000000000E+00 -0.45593999997E+02  0.45594000000E+02  0.51100000000E-03 0.  1.
         23    2    1    2    0    0 -0.17763568394E-14  0.88817841970E-15  0.00000000000E+00  0.91188000000E+02  0.91188000000E+02 0.  0.
    9900012    2    3    3    0    0 -0.13316083500E+02  0.39373257334E+01 -0.41119313387E+02  0.47787325499E+02  0.20000248277E+02 0.  0.
         12    1    3    3    0    0  0.13316083500E+02 -0.39373257334E+01  0.41119313387E+02  0.43400674501E+02  0.00000000000E+00 0. -1.
         11    1    4    4    0    0  0.36424405918E+01 -0.79333433480E+00 -0.81004458871E+01  0.89170609880E+01  0.51100000000E-03 0. -1.
        -11    1    4    4    0    0 -0.97551214613E+01  0.58653350827E+01 -0.11633718642E+02  0.16275993366E+02  0.51100000000E-03 0.  1.
         12    1    4    4    0    0 -0.72034026308E+01 -0.11346750145E+01 -0.21385148859E+02  0.22594271145E+02  0.00000000000E+00 0. -1.
</event>
<event>
 8    1  0.8600524E-011  0.9118800E+02  0.7816164E-02  0.1184000E+00
        -11   -1    0    0    0    0  0.00000000000E+00  0.00000000000E+00  0.45593999997E+02  0.45594000000E+02  0.51100000000E-03 0. -1.
         11   -1    0    0    0    0 -0.00000000000E+00 -0.00000000000E+00 -0.45593999997E+02  0.45594000000E+02  0.51100000000E-03 0.  1.
         23    2    1    2    0    0  0.71054273576E-14 -0.44408920985E-15  0.00000000000E+00  0.91188000000E+02  0.91188000000E+02 0.  0.
    9900012    2    3    3    0    0  0.41373596255E+02  0.13472308352E+01 -0.13039687584E+02  0.47787274772E+02  0.20000016996E+02 0.  0.
         12    1    3    3    0    0 -0.41373596255E+02 -0.13472308352E+01  0.13039687584E+02  0.43400725228E+02  0.00000000000E+00 0. -1.
         11    1    4    4    0    0  0.13743532549E+02  0.69937007292E+01 -0.41258761006E+01  0.15963063324E+02  0.51100000000E-03 0. -1.
        -11    1    4    4    0    0  0.32605510756E+01 -0.45663727119E+01  0.59616534498E+00  0.56425496400E+01  0.51100000000E-03 0.  1.
        -12    1    4    4    0    0  0.24369512630E+02 -0.10800971821E+01 -0.95099768283E+01  0.26181661808E+02  0.00000000000E+00 0.  1.
</event>
<event>
 8    1  0.8600524E-011  0.9118800E+02  0.7816164E-02  0.1184000E+00
        -11   -1    0    0    0    0  0.00000000000E+00  0.00000000000E+00  0.45593999997E+02  0.45594000000E+02  0.51100000000E-03 0. -1.
         11   -1    0    0    0    0 -0.00000000000E+00 -0.00000000000E+00 -0.45593999997E+02  0.45594000000E+02  0.51100000000E-03 0.  1.
         23    2    1    2    0    0  0.00000000000E+00 -0.54817261841E-15  0.00000000000E+00  0.91188000000E+02  0.91188000000E+02 0.  0.
    9900012    2    3    3    0    0 -0.28689445953E+02 -0.33855275772E-01 -0.32565897554E+02  0.47787272601E+02  0.20000007096E+02 0.  0.
         12    1    3    3    0    0  0.28689445953E+02  0.33855275772E-01  0.32565897554E+02  0.43400727399E+02  0.00000000000E+00 0. -1.
         11    1    4    4    0    0 -0.11500227399E+02  0.41613447365E+01 -0.47546794052E+01  0.13121699461E+02  0.51100000000E-03 0. -1.
        -11    1    4    4    0    0 -0.55477197117E+01 -0.36747592552E+01 -0.30928040386E+01  0.73380165348E+01  0.51100000000E-03 0.  1.
         12    1    4    4    0    0 -0.11641498843E+02 -0.52044075705E+00 -0.24718414110E+02  0.27327556605E+02  0.00000000000E+00 0. -1.
</event>
<event>
 8    1  0.8600524E-011  0.9118800E+02  0.7816164E-02  0.1184000E+00
        -11   -1    0    0    0    0  0.00000000000E+00  0.00000000000E+00  0.45593999997E+02  0.45594000000E+02  0.51100000000E-03 0. -1.
         11   -1    0    0    0    0 -0.00000000000E+00 -0.00000000000E+00 -0.45593999997E+02  0.45594000000E+02  0.51100000000E-03 0.  1.
         23    2    1    2    0    0 -0.17763568394E-14 -0.17763568394E-14  0.00000000000E+00  0.91188000000E+02  0.91188000000E+02 0.  0.
    9900012    2    3    3    0    0  0.11400466066E+02  0.10977483333E+02  0.40412217884E+02  0.47787272803E+02  0.20000008020E+02 0.  0.
        -12    1    3    3    0    0 -0.11400466066E+02 -0.10977483333E+02 -0.40412217884E+02  0.43400727197E+02  0.00000000000E+00 0.  1.
         11    1    4    4    0    0  0.82013569902E+01  0.24528779411E+01  0.28991048461E+02  0.30228459402E+02  0.51100000000E-03 0. -1.
        -11    1    4    4    0    0  0.44219998957E+01 -0.29483176671E+00  0.39027782589E+01  0.59053100890E+01  0.51100000000E-03 0.  1.
         12    1    4    4    0    0 -0.12228908200E+01  0.88194371589E+01  0.75183911647E+01  0.11653503313E+02  0.00000000000E+00 0. -1.
</event>
<event>
 8    1  0.8600524E-011  0.9118800E+02  0.7816164E-02  0.1184000E+00
        -11   -1    0    0    0    0  0.00000000000E+00  0.00000000000E+00  0.45593999997E+02  0.45594000000E+02  0.51100000000E-03 0. -1.
         11   -1    0    0    0    0 -0.00000000000E+00 -0.00000000000E+00 -0.45593999997E+02  0.45594000000E+02  0.51100000000E-03 0.  1.
         23    2    1    2    0    0  0.00000000000E+00  0.00000000000E+00  0.71054273576E-14  0.91188000000E+02  0.91188000000E+02 0.  0.
    9900012    2    3    3    0    0  0.68324376385E+01  0.17068011740E+02 -0.39314425451E+02  0.47787271004E+02  0.19999999818E+02 0.  0.
         12    1    3    3    0    0 -0.68324376385E+01 -0.17068011740E+02  0.39314425451E+02  0.43400728996E+02  0.00000000000E+00 0. -1.
         11    1    4    4    0    0  0.61785918583E+01  0.16280751497E+02 -0.14566768745E+02  0.22703053067E+02  0.51100000000E-03 0. -1.
        -11    1    4    4    0    0 -0.53799397402E+00  0.18791020614E+01 -0.19384233481E+02  0.19482529866E+02  0.51100000000E-03 0.  1.
         12    1    4    4    0    0  0.11918397542E+01 -0.10918418185E+01 -0.53634232251E+01  0.56016880712E+01  0.00000000000E+00 0. -1.
</event>
<event>
 8    1  0.8600524E-011  0.9118800E+02  0.7816164E-02  0.1184000E+00
        -11   -1    0    0    0    0  0.00000000000E+00  0.00000000000E+00  0.45593999997E+02  0.45594000000E+02  0.51100000000E-03 0. -1.
         11   -1    0    0    0    0 -0.00000000000E+00 -0.00000000000E+00 -0.45593999997E+02  0.45594000000E+02  0.51100000000E-03 0.  1.
         23    2    1    2    0    0  0.00000000000E+00 -0.17763568394E-14 -0.35527136788E-14  0.91188000000E+02  0.91188000000E+02 0.  0.
    9900012    2    3    3    0    0 -0.27393978631E+02  0.12152329045E+02  0.31392900859E+02  0.47787269698E+02  0.19999993859E+02 0.  0.
        -12    1    3    3    0    0  0.27393978631E+02 -0.12152329045E+02 -0.31392900859E+02  0.43400730302E+02  0.00000000000E+00 0.  1.
         11    1    4    4    0    0 -0.26695212211E+02  0.40854209569E+01  0.27114685831E+02  0.38269193973E+02  0.51100000000E-03 0. -1.
        -11    1    4    4    0    0  0.70524682323E+00  0.38458631889E+01  0.11356001208E+01  0.40715629241E+01  0.51100000000E-03 0.  1.
         12    1    4    4    0    0 -0.14040132434E+01  0.42210448997E+01  0.31426149064E+01  0.54465128002E+01  0.00000000000E+00 0. -1.
</event>
<event>
 8    1  0.8600524E-011  0.9118800E+02  0.7816164E-02  0.1184000E+00
        -11   -1    0    0    0    0  0.00000000000E+00  0.00000000000E+00  0.45593999997E+02  0.45594000000E+02  0.51100000000E-03 0. -1.
         11   -1    0    0    0    0 -0.00000000000E+00 -0.00000000000E+00 -0.45593999997E+02  0.45594000000E+02  0.51100000000E-03 0.  1.
         23    2    1    2    0    0  0.00000000000E+00 -0.17763568394E-14  0.00000000000E+00  0.91188000000E+02  0.91188000000E+02 0.  0.
    9900012    2    3    3    0    0  0.99536502823E+01  0.12616105473E+02 -0.40316027802E+02  0.47787269949E+02  0.19999995007E+02 0.  0.
         12    1    3    3    0    0 -0.99536502823E+01 -0.12616105473E+02  0.40316027802E+02  0.43400730051E+02  0.00000000000E+00 0. -1.
         11    1    4    4    0    0  0.33579619807E+01  0.11786923409E+02 -0.34071705315E+02  0.36208957116E+02  0.51100000000E-03 0. -1.
        -11    1    4    4    0    0  0.58789620568E+01 -0.15924646170E+01 -0.66529643227E+01  0.90199818715E+01  0.51100000000E-03 0.  1.
         12    1    4    4    0    0  0.71672624481E+00  0.24216466812E+01  0.40864183625E+00  0.25583309616E+01  0.00000000000E+00 0. -1.
</event>
<event>
 8    1  0.8600524E-011  0.9118800E+02  0.7816164E-02  0.1184000E+00
        -11   -1    0    0    0    0  0.00000000000E+00  0.00000000000E+00  0.45593999997E+02  0.45594000000E+02  0.51100000000E-03 0. -1.
         11   -1    0    0    0    0 -0.00000000000E+00 -0.00000000000E+00 -0.45593999997E+02  0.45594000000E+02  0.51100000000E-03 0.  1.
         23    2    1    2    0    0  0.00000000000E+00 -0.35527136788E-14  0.35527136788E-14  0.91188000000E+02  0.91188000000E+02 0.  0.
    9900012    2    3    3    0    0  0.56176570549E+01 -0.31559675950E+02 -0.29258375125E+02  0.47787265769E+02  0.19999975947E+02 0.  0.
         12    1    3    3    0    0 -0.56176570549E+01  0.31559675950E+02  0.29258375125E+02  0.43400734231E+02  0.00000000000E+00 0. -1.
         11    1    4    4    0    0  0.56865786680E+01 -0.15321678225E+02 -0.96043340327E+01  0.18956113342E+02  0.51100000000E-03 0. -1.
        -11    1    4    4    0    0 -0.16087468216E+01  0.76586513713E+00 -0.79109637654E+01  0.81091284182E+01  0.51100000000E-03 0.  1.
        -12    1    4    4    0    0  0.15398252085E+01 -0.17003862862E+02 -0.11743077327E+02  0.20722024008E+02  0.00000000000E+00 0.  1.
</event>
<event>
 8    1  0.8600524E-011  0.9118800E+02  0.7816164E-02  0.1184000E+00
        -11   -1    0    0    0    0  0.00000000000E+00  0.00000000000E+00  0.45593999997E+02  0.45594000000E+02  0.51100000000E-03 0.  1.
         11   -1    0    0    0    0 -0.00000000000E+00 -0.00000000000E+00 -0.45593999997E+02  0.45594000000E+02  0.51100000000E-03 0. -1.
         23    2    1    2    0    0  0.35527136788E-14  0.00000000000E+00  0.00000000000E+00  0.91188000000E+02  0.91188000000E+02 0.  0.
    9900012    2    3    3    0    0 -0.20896423324E+02 -0.34563777570E+02 -0.15884210333E+02  0.47787269988E+02  0.19999995184E+02 0.  0.
         12    1    3    3    0    0  0.20896423324E+02  0.34563777570E+02  0.15884210333E+02  0.43400730012E+02  0.00000000000E+00 0. -1.
         11    1    4    4    0    0  0.17860586278E+00 -0.82078408246E+01 -0.58342969420E+01  0.10071721408E+02  0.51100000000E-03 0. -1.
        -11    1    4    4    0    0 -0.83272583003E+01 -0.10942154294E+02  0.26757164931E+01  0.14008334319E+02  0.51100000000E-03 0.  1.
        -12    1    4    4    0    0 -0.12747770887E+02 -0.15413782452E+02 -0.12725629884E+02  0.23707214261E+02  0.00000000000E+00 0.  1.
</event>
<event>
 8    1  0.8694474E-011  0.9118800E+02  0.7816164E-02  0.1184000E+00
        -11   -1    0    0    0    0  0.00000000000E+00  0.00000000000E+00  0.45593999997E+02  0.45594000000E+02  0.51100000000E-03 0. -1.
         11   -1    0    0    0    0 -0.00000000000E+00 -0.00000000000E+00 -0.45593999997E+02  0.45594000000E+02  0.51100000000E-03 0.  1.
         23    2    1    2    0    0  0.00000000000E+00  0.00000000000E+00 -0.14210854715E-13  0.91188000000E+02  0.91188000000E+02 0.  0.
    9900012    2    3    3    0    0 -0.72332303226E+01  0.89773598099E+01  0.41841492816E+02  0.47787272689E+02  0.20000007499E+02 0.  0.
        -12    1    3    3    0    0  0.72332303226E+01 -0.89773598099E+01 -0.41841492816E+02  0.43400727311E+02  0.00000000000E+00 0.  1.
         11    1    4    4    0    0 -0.75760410499E+01  0.10364095652E+02  0.26716691545E+02  0.29641060778E+02  0.51100000000E-03 0. -1.
        -11    1    4    4    0    0  0.31089567442E+01 -0.16787545189E+01  0.89192198649E+00  0.36440847772E+01  0.51100000000E-03 0.  1.
        -12    1    4    4    0    0 -0.27661460170E+01  0.29201867725E+00  0.14232879284E+02  0.14502127134E+02  0.00000000000E+00 0.  1.
</event>
<event>
 8    1  0.8600524E-011  0.9118800E+02  0.7816164E-02  0.1184000E+00
        -11   -1    0    0    0    0  0.00000000000E+00  0.00000000000E+00  0.45593999997E+02  0.45594000000E+02  0.51100000000E-03 0. -1.
         11   -1    0    0    0    0 -0.00000000000E+00 -0.00000000000E+00 -0.45593999997E+02  0.45594000000E+02  0.51100000000E-03 0.  1.
         23    2    1    2    0    0  0.00000000000E+00  0.00000000000E+00  0.00000000000E+00  0.91188000000E+02  0.91188000000E+02 0.  0.
    9900012    2    3    3    0    0  0.36436016407E+02 -0.17393753145E+02  0.15921583822E+02  0.47787276832E+02  0.20000026389E+02 0.  0.
        -12    1    3    3    0    0 -0.36436016407E+02  0.17393753145E+02 -0.15921583822E+02  0.43400723168E+02  0.00000000000E+00 0.  1.
         11    1    4    4    0    0  0.28910772013E+02 -0.94820097554E+01  0.14614082079E+02  0.33753705614E+02  0.51100000000E-03 0. -1.
        -11    1    4    4    0    0  0.59220586934E+01 -0.41221940054E+01 -0.32324165989E+01  0.79064391426E+01  0.51100000000E-03 0.  1.
         12    1    4    4    0    0  0.16031857008E+01 -0.37895493844E+01  0.45399183410E+01  0.61271320755E+01  0.00000000000E+00 0. -1.
</event>
<event>
 8    1  0.8600524E-011  0.9118800E+02  0.7816164E-02  0.1184000E+00
        -11   -1    0    0    0    0  0.00000000000E+00  0.00000000000E+00  0.45593999997E+02  0.45594000000E+02  0.51100000000E-03 0. -1.
         11   -1    0    0    0    0 -0.00000000000E+00 -0.00000000000E+00 -0.45593999997E+02  0.45594000000E+02  0.51100000000E-03 0.  1.
         23    2    1    2    0    0 -0.12212453271E-14  0.88817841970E-15 -0.71054273576E-14  0.91188000000E+02  0.91188000000E+02 0.  0.
    9900012    2    3    3    0    0 -0.91862365518E+00 -0.56209480444E+01 -0.43025390071E+02  0.47787272850E+02  0.20000008234E+02 0.  0.
         12    1    3    3    0    0  0.91862365518E+00  0.56209480444E+01  0.43025390071E+02  0.43400727150E+02  0.00000000000E+00 0. -1.
         11    1    4    4    0    0  0.34087722512E+01  0.37344739329E+01 -0.50342850254E+01  0.71351278752E+01  0.51100000000E-03 0. -1.
        -11    1    4    4    0    0 -0.86524127904E+00 -0.10481325965E+02 -0.24157790108E+02  0.26347782822E+02  0.51100000000E-03 0.  1.
         12    1    4    4    0    0 -0.34621546273E+01  0.11259039879E+01 -0.13833314938E+02  0.14304362154E+02  0.00000000000E+00 0. -1.
</event>
<event>
 8    1  0.8600524E-011  0.9118800E+02  0.7816164E-02  0.1184000E+00
        -11   -1    0    0    0    0  0.00000000000E+00  0.00000000000E+00  0.45593999997E+02  0.45594000000E+02  0.51100000000E-03 0. -1.
         11   -1    0    0    0    0 -0.00000000000E+00 -0.00000000000E+00 -0.45593999997E+02  0.45594000000E+02  0.51100000000E-03 0.  1.
         23    2    1    2    0    0  0.17763568394E-14  0.00000000000E+00  0.00000000000E+00  0.91188000000E+02  0.91188000000E+02 0.  0.
    9900012    2    3    3    0    0  0.11436236374E+02 -0.35943498070E+02  0.21468601302E+02  0.47787269617E+02  0.19999993491E+02 0.  0.
        -12    1    3    3    0    0 -0.11436236374E+02  0.35943498070E+02 -0.21468601302E+02  0.43400730383E+02  0.00000000000E+00 0.  1.
         11    1    4    4    0    0  0.36570955703E+01 -0.31544642837E+01  0.40232079577E+01  0.62857931448E+01  0.51100000000E-03 0. -1.
        -11    1    4    4    0    0  0.11153978413E+02 -0.30409340326E+02  0.18415637435E+02  0.37259561402E+02  0.51100000000E-03 0.  1.
        -12    1    4    4    0    0 -0.33748376103E+01 -0.23796934606E+01 -0.97024409071E+00  0.42419150696E+01  0.00000000000E+00 0.  1.
</event>
<event>
 8    1  0.8600524E-011  0.9118800E+02  0.7816164E-02  0.1184000E+00
        -11   -1    0    0    0    0  0.00000000000E+00  0.00000000000E+00  0.45593999997E+02  0.45594000000E+02  0.51100000000E-03 0. -1.
         11   -1    0    0    0    0 -0.00000000000E+00 -0.00000000000E+00 -0.45593999997E+02  0.45594000000E+02  0.51100000000E-03 0.  1.
         23    2    1    2    0    0  0.00000000000E+00  0.00000000000E+00  0.00000000000E+00  0.91188000000E+02  0.91188000000E+02 0.  0.
    9900012    2    3    3    0    0  0.95747000614E+01 -0.34108820988E+02  0.25070634104E+02  0.47787271378E+02  0.20000001523E+02 0.  0.
        -12    1    3    3    0    0 -0.95747000614E+01  0.34108820988E+02 -0.25070634104E+02  0.43400728622E+02  0.00000000000E+00 0.  1.
         11    1    4    4    0    0  0.92660205788E+01 -0.14995392424E+02  0.14310760662E+02  0.22705039139E+02  0.51100000000E-03 0. -1.
        -11    1    4    4    0    0 -0.54742377716E+01 -0.68002289159E+01  0.21764325616E+01  0.89970690475E+01  0.51100000000E-03 0.  1.
        -12    1    4    4    0    0  0.57829172542E+01 -0.12313199649E+02  0.85834408809E+01  0.16085163192E+02  0.00000000000E+00 0.  1.
</event>
<event>
 8    1  0.8600524E-011  0.9118800E+02  0.7816164E-02  0.1184000E+00
        -11   -1    0    0    0    0  0.00000000000E+00  0.00000000000E+00  0.45593999997E+02  0.45594000000E+02  0.51100000000E-03 0. -1.
         11   -1    0    0    0    0 -0.00000000000E+00 -0.00000000000E+00 -0.45593999997E+02  0.45594000000E+02  0.51100000000E-03 0.  1.
         23    2    1    2    0    0 -0.88817841970E-15  0.00000000000E+00  0.00000000000E+00  0.91188000000E+02  0.91188000000E+02 0.  0.
    9900012    2    3    3    0    0 -0.69898108170E+01 -0.12432407628E+02  0.40990255232E+02  0.47787271450E+02  0.20000001851E+02 0.  0.
        -12    1    3    3    0    0  0.69898108170E+01  0.12432407628E+02 -0.40990255232E+02  0.43400728550E+02  0.00000000000E+00 0.  1.
         11    1    4    4    0    0 -0.66400258912E+01 -0.16145202309E+01  0.17542679205E+02  0.18826635742E+02  0.51100000000E-03 0.  1.
        -11    1    4    4    0    0 -0.44304501197E+01 -0.19629814169E+01  0.15925120771E+02  0.16646070291E+02  0.51100000000E-03 0. -1.
         12    1    4    4    0    0  0.40806651940E+01 -0.88549059803E+01  0.75224552560E+01  0.12314565418E+02  0.00000000000E+00 0. -1.
</event>
<event>
 8    1  0.8600524E-011  0.9118800E+02  0.7816164E-02  0.1184000E+00
        -11   -1    0    0    0    0  0.00000000000E+00  0.00000000000E+00  0.45593999997E+02  0.45594000000E+02  0.51100000000E-03 0. -1.
         11   -1    0    0    0    0 -0.00000000000E+00 -0.00000000000E+00 -0.45593999997E+02  0.45594000000E+02  0.51100000000E-03 0.  1.
         23    2    1    2    0    0  0.00000000000E+00  0.35527136788E-14  0.17763568394E-14  0.91188000000E+02  0.91188000000E+02 0.  0.
    9900012    2    3    3    0    0  0.37703633134E+02  0.16948602916E+02 -0.13221370085E+02  0.47787265914E+02  0.19999976607E+02 0.  0.
         12    1    3    3    0    0 -0.37703633134E+02 -0.16948602916E+02  0.13221370085E+02  0.43400734086E+02  0.00000000000E+00 0. -1.
         11    1    4    4    0    0  0.93043453086E+01  0.97144921507E-01 -0.48102070823E+01  0.10474653751E+02  0.51100000000E-03 0. -1.
        -11    1    4    4    0    0  0.14611971965E+02  0.16970288793E+02 -0.34447510638E+01  0.22657597767E+02  0.51100000000E-03 0.  1.
        -12    1    4    4    0    0  0.13787315861E+02 -0.11883079910E+00 -0.49664119388E+01  0.14655014396E+02  0.00000000000E+00 0.  1.
</event>
<event>
 8    1  0.8600524E-011  0.9118800E+02  0.7816164E-02  0.1184000E+00
        -11   -1    0    0    0    0  0.00000000000E+00  0.00000000000E+00  0.45593999997E+02  0.45594000000E+02  0.51100000000E-03 0. -1.
         11   -1    0    0    0    0 -0.00000000000E+00 -0.00000000000E+00 -0.45593999997E+02  0.45594000000E+02  0.51100000000E-03 0.  1.
         23    2    1    2    0    0  0.17763568394E-14  0.00000000000E+00  0.00000000000E+00  0.91188000000E+02  0.91188000000E+02 0.  0.
    9900012    2    3    3    0    0  0.13172099663E+02  0.28370778737E+02 -0.30086843430E+02  0.47787269092E+02  0.19999991100E+02 0.  0.
         12    1    3    3    0    0 -0.13172099663E+02 -0.28370778737E+02  0.30086843430E+02  0.43400730908E+02  0.00000000000E+00 0. -1.
         11    1    4    4    0    0 -0.43002441733E+00 -0.44418955384E+00  0.48531970832E+00  0.78597763304E+00  0.51100000000E-03 0. -1.
        -11    1    4    4    0    0  0.14227505023E-01  0.17756734866E+02 -0.11775982353E+02  0.21306703080E+02  0.51100000000E-03 0.  1.
        -12    1    4    4    0    0  0.13587896576E+02  0.11058233426E+02 -0.18796180785E+02  0.25694588379E+02  0.00000000000E+00 0.  1.
</event>
<event>
 8    1  0.8600524E-011  0.9118800E+02  0.7816164E-02  0.1184000E+00
        -11   -1    0    0    0    0  0.00000000000E+00  0.00000000000E+00  0.45593999997E+02  0.45594000000E+02  0.51100000000E-03 0. -1.
         11   -1    0    0    0    0 -0.00000000000E+00 -0.00000000000E+00 -0.45593999997E+02  0.45594000000E+02  0.51100000000E-03 0.  1.
         23    2    1    2    0    0  0.00000000000E+00  0.00000000000E+00 -0.35527136788E-14  0.91188000000E+02  0.91188000000E+02 0.  0.
    9900012    2    3    3    0    0  0.28020310680E+02 -0.18735258196E+02 -0.27339998956E+02  0.47787271283E+02  0.20000001086E+02 0.  0.
         12    1    3    3    0    0 -0.28020310680E+02  0.18735258196E+02  0.27339998956E+02  0.43400728717E+02  0.00000000000E+00 0. -1.
         11    1    4    4    0    0  0.35362651682E+01 -0.44064505365E+01  0.21204934371E+01  0.60347717727E+01  0.51100000000E-03 0. -1.
        -11    1    4    4    0    0  0.14920585237E+02 -0.13255384898E+02 -0.19528836775E+02  0.27923190338E+02  0.51100000000E-03 0.  1.
         12    1    4    4    0    0  0.95634602748E+01 -0.10734227616E+01 -0.99316556182E+01  0.13829309172E+02  0.00000000000E+00 0. -1.
</event>
<event>
 8    1  0.8600524E-011  0.9118800E+02  0.7816164E-02  0.1184000E+00
        -11   -1    0    0    0    0  0.00000000000E+00  0.00000000000E+00  0.45593999997E+02  0.45594000000E+02  0.51100000000E-03 0. -1.
         11   -1    0    0    0    0 -0.00000000000E+00 -0.00000000000E+00 -0.45593999997E+02  0.45594000000E+02  0.51100000000E-03 0.  1.
         23    2    1    2    0    0  0.00000000000E+00  0.00000000000E+00  0.00000000000E+00  0.91188000000E+02  0.91188000000E+02 0.  0.
    9900012    2    3    3    0    0  0.17843627483E+02  0.17211741201E+02 -0.35622804377E+02  0.47787271105E+02  0.20000000278E+02 0.  0.
         12    1    3    3    0    0 -0.17843627483E+02 -0.17211741201E+02  0.35622804377E+02  0.43400728895E+02  0.00000000000E+00 0. -1.
         11    1    4    4    0    0  0.75127195640E+00 -0.50818664337E+00 -0.91831010494E+01  0.92277845858E+01  0.51100000000E-03 0. -1.
        -11    1    4    4    0    0  0.18934643486E+02  0.13149741953E+02 -0.22888067116E+02  0.32485382158E+02  0.51100000000E-03 0.  1.
        -12    1    4    4    0    0 -0.18422879604E+01  0.45701858918E+01 -0.35516362110E+01  0.60741043611E+01  0.00000000000E+00 0.  1.
</event>
<event>
 8    1  0.8600524E-011  0.9118800E+02  0.7816164E-02  0.1184000E+00
        -11   -1    0    0    0    0  0.00000000000E+00  0.00000000000E+00  0.45593999997E+02  0.45594000000E+02  0.51100000000E-03 0. -1.
         11   -1    0    0    0    0 -0.00000000000E+00 -0.00000000000E+00 -0.45593999997E+02  0.45594000000E+02  0.51100000000E-03 0.  1.
         23    2    1    2    0    0 -0.17763568394E-14  0.00000000000E+00  0.35527136788E-14  0.91188000000E+02  0.91188000000E+02 0.  0.
    9900012    2    3    3    0    0 -0.14021353640E+02 -0.26227070007E+02  0.31609584398E+02  0.47787269765E+02  0.19999994168E+02 0.  0.
        -12    1    3    3    0    0  0.14021353640E+02  0.26227070007E+02 -0.31609584398E+02  0.43400730235E+02  0.00000000000E+00 0.  1.
         11    1    4    4    0    0 -0.65304107447E+00 -0.13458577208E+02  0.22590151314E+02  0.26303511168E+02  0.51100000000E-03 0. -1.
        -11    1    4    4    0    0 -0.11400451977E+02 -0.11710387352E+02  0.98707161415E+01  0.19092786979E+02  0.51100000000E-03 0.  1.
         12    1    4    4    0    0 -0.19678605891E+01 -0.10581054469E+01 -0.85128305753E+00  0.23909716181E+01  0.00000000000E+00 0. -1.
</event>
<event>
 8    1  0.8600524E-011  0.9118800E+02  0.7816164E-02  0.1184000E+00
        -11   -1    0    0    0    0  0.00000000000E+00  0.00000000000E+00  0.45593999997E+02  0.45594000000E+02  0.51100000000E-03 0. -1.
         11   -1    0    0    0    0 -0.00000000000E+00 -0.00000000000E+00 -0.45593999997E+02  0.45594000000E+02  0.51100000000E-03 0.  1.
         23    2    1    2    0    0 -0.88817841970E-15 -0.35527136788E-14  0.00000000000E+00  0.91188000000E+02  0.91188000000E+02 0.  0.
    9900012    2    3    3    0    0  0.58578062307E+01  0.11110905152E+02  0.41543433014E+02  0.47787274963E+02  0.20000017867E+02 0.  0.
        -12    1    3    3    0    0 -0.58578062307E+01 -0.11110905152E+02 -0.41543433014E+02  0.43400725037E+02  0.00000000000E+00 0.  1.
         11    1    4    4    0    0  0.42022969153E+01  0.73150179976E+01  0.16191520721E+02  0.18257440434E+02  0.51100000000E-03 0. -1.
        -11    1    4    4    0    0 -0.22092636408E+01 -0.34680418885E+01  0.16330847581E+01  0.44243786527E+01  0.51100000000E-03 0.  1.
        -12    1    4    4    0    0  0.38647729562E+01  0.72639290430E+01  0.23718827535E+02  0.25105455876E+02  0.00000000000E+00 0.  1.
</event>
<event>
 8    1  0.8600524E-011  0.9118800E+02  0.7816164E-02  0.1184000E+00
        -11   -1    0    0    0    0  0.00000000000E+00  0.00000000000E+00  0.45593999997E+02  0.45594000000E+02  0.51100000000E-03 0.  1.
         11   -1    0    0    0    0 -0.00000000000E+00 -0.00000000000E+00 -0.45593999997E+02  0.45594000000E+02  0.51100000000E-03 0. -1.
         23    2    1    2    0    0  0.00000000000E+00 -0.35527136788E-14  0.88817841970E-15  0.91188000000E+02  0.91188000000E+02 0.  0.
    9900012    2    3    3    0    0 -0.33486128054E+02 -0.27297607229E+02  0.41404310776E+01  0.47787270720E+02  0.19999998523E+02 0.  0.
        -12    1    3    3    0    0  0.33486128054E+02  0.27297607229E+02 -0.41404310776E+01  0.43400729280E+02  0.00000000000E+00 0.  1.
         11    1    4    4    0    0 -0.54284339178E+01 -0.50779986881E+00 -0.18085609659E+01  0.57442709315E+01  0.51100000000E-03 0. -1.
        -11    1    4    4    0    0 -0.19439281063E+01 -0.10724422851E+02  0.56321142274E+00  0.10913721150E+02  0.51100000000E-03 0.  1.
        -12    1    4    4    0    0 -0.26113766030E+02 -0.16065384510E+02  0.53857806207E+01  0.31129278639E+02  0.00000000000E+00 0.  1.
</event>
<event>
 8    1  0.8600524E-011  0.9118800E+02  0.7816164E-02  0.1184000E+00
        -11   -1    0    0    0    0  0.00000000000E+00  0.00000000000E+00  0.45593999997E+02  0.45594000000E+02  0.51100000000E-03 0. -1.
         11   -1    0    0    0    0 -0.00000000000E+00 -0.00000000000E+00 -0.45593999997E+02  0.45594000000E+02  0.51100000000E-03 0.  1.
         23    2    1    2    0    0 -0.35527136788E-14  0.00000000000E+00  0.00000000000E+00  0.91188000000E+02  0.91188000000E+02 0.  0.
    9900012    2    3    3    0    0 -0.18740552845E+02  0.18749601807E+02 -0.34363755405E+02  0.47787267583E+02  0.19999984218E+02 0.  0.
         12    1    3    3    0    0  0.18740552845E+02 -0.18749601807E+02  0.34363755405E+02  0.43400732417E+02  0.00000000000E+00 0. -1.
         11    1    4    4    0    0 -0.27511542957E+01  0.33168102201E+01 -0.69864285104E-01  0.43098678952E+01  0.51100000000E-03 0. -1.
        -11    1    4    4    0    0 -0.36643329883E+01  0.88963207034E+01 -0.24803770370E+02  0.26604489905E+02  0.51100000000E-03 0.  1.
        -12    1    4    4    0    0 -0.12325065561E+02  0.65364708833E+01 -0.94901207496E+01  0.16872909782E+02  0.00000000000E+00 0.  1.
</event>
<event>
 8    1  0.8600524E-011  0.9118800E+02  0.7816164E-02  0.1184000E+00
        -11   -1    0    0    0    0  0.00000000000E+00  0.00000000000E+00  0.45593999997E+02  0.45594000000E+02  0.51100000000E-03 0. -1.
         11   -1    0    0    0    0 -0.00000000000E+00 -0.00000000000E+00 -0.45593999997E+02  0.45594000000E+02  0.51100000000E-03 0.  1.
         23    2    1    2    0    0  0.00000000000E+00  0.00000000000E+00  0.00000000000E+00  0.91188000000E+02  0.91188000000E+02 0.  0.
    9900012    2    3    3    0    0  0.64487445441E+01 -0.16310079081E+02  0.39699099195E+02  0.47787268869E+02  0.19999990081E+02 0.  0.
        -12    1    3    3    0    0 -0.64487445441E+01  0.16310079081E+02 -0.39699099195E+02  0.43400731131E+02  0.00000000000E+00 0.  1.
         11    1    4    4    0    0  0.36746685249E+01 -0.52060878165E+01  0.24334426969E+02  0.25154937394E+02  0.51100000000E-03 0. -1.
        -11    1    4    4    0    0 -0.29773643478E+01 -0.71099933037E+00  0.82186224880E+01  0.87701752758E+01  0.51100000000E-03 0.  1.
         12    1    4    4    0    0  0.57514403670E+01 -0.10392991934E+02  0.71460497385E+01  0.13862156199E+02  0.00000000000E+00 0. -1.
</event>
<event>
 8    1  0.8600524E-011  0.9118800E+02  0.7816164E-02  0.1184000E+00
        -11   -1    0    0    0    0  0.00000000000E+00  0.00000000000E+00  0.45593999997E+02  0.45594000000E+02  0.51100000000E-03 0. -1.
         11   -1    0    0    0    0 -0.00000000000E+00 -0.00000000000E+00 -0.45593999997E+02  0.45594000000E+02  0.51100000000E-03 0.  1.
         23    2    1    2    0    0  0.00000000000E+00 -0.17763568394E-14  0.35527136788E-14  0.91188000000E+02  0.91188000000E+02 0.  0.
    9900012    2    3    3    0    0 -0.35325528596E+02 -0.15333951856E+02  0.20015016899E+02  0.47787263237E+02  0.19999964402E+02 0.  0.
        -12    1    3    3    0    0  0.35325528596E+02  0.15333951856E+02 -0.20015016899E+02  0.43400736763E+02  0.00000000000E+00 0.  1.
         11    1    4    4    0    0 -0.70575697661E+01 -0.55992535802E+00  0.24875697781E+01  0.75040529764E+01  0.51100000000E-03 0. -1.
        -11    1    4    4    0    0 -0.26276082450E+02 -0.16006888755E+02  0.20140749982E+02  0.36773670019E+02  0.51100000000E-03 0.  1.
        -12    1    4    4    0    0 -0.19918763804E+01  0.12328622573E+01 -0.26133028618E+01  0.35095402416E+01  0.00000000000E+00 0.  1.
</event>
<event>
 8    1  0.8600524E-011  0.9118800E+02  0.7816164E-02  0.1184000E+00
        -11   -1    0    0    0    0  0.00000000000E+00  0.00000000000E+00  0.45593999997E+02  0.45594000000E+02  0.51100000000E-03 0. -1.
         11   -1    0    0    0    0 -0.00000000000E+00 -0.00000000000E+00 -0.45593999997E+02  0.45594000000E+02  0.51100000000E-03 0.  1.
         23    2    1    2    0    0  0.00000000000E+00  0.88817841970E-15  0.35527136788E-14  0.91188000000E+02  0.91188000000E+02 0.  0.
    9900012    2    3    3    0    0 -0.35475610278E+02  0.49247731704E+01  0.24512260559E+02  0.47787271514E+02  0.20000002139E+02 0.  0.
        -12    1    3    3    0    0  0.35475610278E+02 -0.49247731704E+01 -0.24512260559E+02  0.43400728486E+02  0.00000000000E+00 0.  1.
         11    1    4    4    0    0 -0.25228756531E+02 -0.27023672916E+01  0.94115786058E+01  0.27062349440E+02  0.51100000000E-03 0. -1.
        -11    1    4    4    0    0 -0.39055307119E+01  0.60706937240E+01  0.53289836126E+01  0.89724332840E+01  0.51100000000E-03 0.  1.
         12    1    4    4    0    0 -0.63413230356E+01  0.15564467380E+01  0.97716983411E+01  0.11752488790E+02  0.00000000000E+00 0. -1.
</event>
<event>
 8    1  0.8600524E-011  0.9118800E+02  0.7816164E-02  0.1184000E+00
        -11   -1    0    0    0    0  0.00000000000E+00  0.00000000000E+00  0.45593999997E+02  0.45594000000E+02  0.51100000000E-03 0. -1.
         11   -1    0    0    0    0 -0.00000000000E+00 -0.00000000000E+00 -0.45593999997E+02  0.45594000000E+02  0.51100000000E-03 0.  1.
         23    2    1    2    0    0  0.00000000000E+00  0.00000000000E+00  0.00000000000E+00  0.91188000000E+02  0.91188000000E+02 0.  0.
    9900012    2    3    3    0    0  0.95221427412E+01  0.37877944905E+02 -0.18926522094E+02  0.47787272458E+02  0.20000006445E+02 0.  0.
         12    1    3    3    0    0 -0.95221427412E+01 -0.37877944905E+02  0.18926522094E+02  0.43400727542E+02  0.00000000000E+00 0. -1.
         11    1    4    4    0    0 -0.50706634551E+01  0.69870889580E+01 -0.52025513890E+01  0.10079562550E+02  0.51100000000E-03 0. -1.
        -11    1    4    4    0    0  0.78303010320E+01  0.21965034939E+02 -0.12457695204E+02  0.26438051066E+02  0.51100000000E-03 0.  1.
        -12    1    4    4    0    0  0.67625051643E+01  0.89258210079E+01 -0.12662755008E+01  0.11269658842E+02  0.00000000000E+00 0.  1.
</event>
<event>
 8    1  0.1039923E-010  0.9118800E+02  0.7816164E-02  0.1184000E+00
        -11   -1    0    0    0    0  0.00000000000E+00  0.00000000000E+00  0.45593999997E+02  0.45594000000E+02  0.51100000000E-03 0. -1.
         11   -1    0    0    0    0 -0.00000000000E+00 -0.00000000000E+00 -0.45593999997E+02  0.45594000000E+02  0.51100000000E-03 0.  1.
         23    2    1    2    0    0  0.00000000000E+00  0.00000000000E+00  0.00000000000E+00  0.91188000000E+02  0.91188000000E+02 0.  0.
    9900012    2    3    3    0    0  0.88505477741E+01 -0.88277517136E+01  0.41561534774E+02  0.47787279165E+02  0.20000037024E+02 0.  0.
        -12    1    3    3    0    0 -0.88505477741E+01  0.88277517136E+01 -0.41561534774E+02  0.43400720835E+02  0.00000000000E+00 0.  1.
         11    1    4    4    0    0  0.72400729920E+01 -0.85103419947E+01  0.19544957007E+02  0.22513327663E+02  0.51100000000E-03 0. -1.
        -11    1    4    4    0    0  0.27224974996E+01  0.56866653500E+01  0.11291332744E+02  0.12932298745E+02  0.51100000000E-03 0.  1.
        -12    1    4    4    0    0 -0.11120227175E+01 -0.60040750689E+01  0.10725245023E+02  0.12341652757E+02  0.00000000000E+00 0.  1.
</event>
<event>
 8    1  0.8600524E-011  0.9118800E+02  0.7816164E-02  0.1184000E+00
        -11   -1    0    0    0    0  0.00000000000E+00  0.00000000000E+00  0.45593999997E+02  0.45594000000E+02  0.51100000000E-03 0. -1.
         11   -1    0    0    0    0 -0.00000000000E+00 -0.00000000000E+00 -0.45593999997E+02  0.45594000000E+02  0.51100000000E-03 0.  1.
         23    2    1    2    0    0  0.00000000000E+00  0.00000000000E+00  0.35527136788E-14  0.91188000000E+02  0.91188000000E+02 0.  0.
    9900012    2    3    3    0    0  0.20789402091E+02  0.30599682068E+02  0.22695453403E+02  0.47787269740E+02  0.19999994051E+02 0.  0.
        -12    1    3    3    0    0 -0.20789402091E+02 -0.30599682068E+02 -0.22695453403E+02  0.43400730260E+02  0.00000000000E+00 0.  1.
         11    1    4    4    0    0  0.84190446725E+01  0.27497635232E+01  0.55738063333E+00  0.88742428445E+01  0.51100000000E-03 0. -1.
        -11    1    4    4    0    0  0.22227529596E+01  0.16691772804E+02  0.10297828738E+02  0.19738317736E+02  0.51100000000E-03 0.  1.
         12    1    4    4    0    0  0.10147604459E+02  0.11158145741E+02  0.11840244032E+02  0.19174709160E+02  0.00000000000E+00 0. -1.
</event>
<event>
 8    1  0.8600524E-011  0.9118800E+02  0.7816164E-02  0.1184000E+00
        -11   -1    0    0    0    0  0.00000000000E+00  0.00000000000E+00  0.45593999997E+02  0.45594000000E+02  0.51100000000E-03 0. -1.
         11   -1    0    0    0    0 -0.00000000000E+00 -0.00000000000E+00 -0.45593999997E+02  0.45594000000E+02  0.51100000000E-03 0.  1.
         23    2    1    2    0    0 -0.88817841970E-15  0.00000000000E+00 -0.35527136788E-14  0.91188000000E+02  0.91188000000E+02 0.  0.
    9900012    2    3    3    0    0  0.57140245219E+01 -0.29680778289E+02  0.31145224486E+02  0.47787266315E+02  0.19999978438E+02 0.  0.
        -12    1    3    3    0    0 -0.57140245219E+01  0.29680778289E+02 -0.31145224486E+02  0.43400733685E+02  0.00000000000E+00 0.  1.
         11    1    4    4    0    0 -0.33627608001E+01 -0.12248816769E+02  0.18611401205E+02  0.22532774519E+02  0.51100000000E-03 0. -1.
        -11    1    4    4    0    0  0.19065230844E+01 -0.13711171753E+02  0.76986806489E+01  0.15839846752E+02  0.51100000000E-03 0.  1.
         12    1    4    4    0    0  0.71702622376E+01 -0.37207897666E+01  0.48351426322E+01  0.94146450447E+01  0.00000000000E+00 0. -1.
</event>
<event>
 8    1  0.8600524E-011  0.9118800E+02  0.7816164E-02  0.1184000E+00
        -11   -1    0    0    0    0  0.00000000000E+00  0.00000000000E+00  0.45593999997E+02  0.45594000000E+02  0.51100000000E-03 0. -1.
         11   -1    0    0    0    0 -0.00000000000E+00 -0.00000000000E+00 -0.45593999997E+02  0.45594000000E+02  0.51100000000E-03 0.  1.
         23    2    1    2    0    0  0.00000000000E+00  0.71054273576E-14  0.00000000000E+00  0.91188000000E+02  0.91188000000E+02 0.  0.
    9900012    2    3    3    0    0 -0.65469733374E+01  0.40455870314E+02  0.14285755199E+02  0.47787272997E+02  0.20000008902E+02 0.  0.
        -12    1    3    3    0    0  0.65469733374E+01 -0.40455870314E+02 -0.14285755199E+02  0.43400727003E+02  0.00000000000E+00 0.  1.
         11    1    4    4    0    0  0.37749998081E+00  0.30809675195E+02  0.43759461617E+01  0.31121174415E+02  0.51100000000E-03 0. -1.
        -11    1    4    4    0    0 -0.46188205413E+01  0.99419213128E+01  0.72972094065E+01  0.13169076200E+02  0.51100000000E-03 0.  1.
         12    1    4    4    0    0 -0.23056527768E+01 -0.29572619358E+00  0.26125996310E+01  0.34970223821E+01  0.00000000000E+00 0. -1.
</event>
<event>
 8    1  0.8600524E-011  0.9118800E+02  0.7816164E-02  0.1184000E+00
        -11   -1    0    0    0    0  0.00000000000E+00  0.00000000000E+00  0.45593999997E+02  0.45594000000E+02  0.51100000000E-03 0. -1.
         11   -1    0    0    0    0 -0.00000000000E+00 -0.00000000000E+00 -0.45593999997E+02  0.45594000000E+02  0.51100000000E-03 0.  1.
         23    2    1    2    0    0  0.00000000000E+00  0.00000000000E+00 -0.88817841970E-15  0.91188000000E+02  0.91188000000E+02 0.  0.
    9900012    2    3    3    0    0 -0.18772780711E+02  0.38717370886E+02  0.56719636840E+01  0.47787271020E+02  0.19999999890E+02 0.  0.
        -12    1    3    3    0    0  0.18772780711E+02 -0.38717370886E+02 -0.56719636840E+01  0.43400728980E+02  0.00000000000E+00 0.  1.
         11    1    4    4    0    0 -0.14566925394E+02  0.29697598993E+02  0.66020097961E+00  0.33084415773E+02  0.51100000000E-03 0. -1.
        -11    1    4    4    0    0 -0.83522038665E+00  0.10147134720E+02  0.44212100767E+01  0.11099956528E+02  0.51100000000E-03 0.  1.
         12    1    4    4    0    0 -0.33706349299E+01 -0.11273628280E+01  0.59055262770E+00  0.36028987195E+01  0.00000000000E+00 0. -1.
</event>
<event>
 8    1  0.8600524E-011  0.9118800E+02  0.7816164E-02  0.1184000E+00
        -11   -1    0    0    0    0  0.00000000000E+00  0.00000000000E+00  0.45593999997E+02  0.45594000000E+02  0.51100000000E-03 0. -1.
         11   -1    0    0    0    0 -0.00000000000E+00 -0.00000000000E+00 -0.45593999997E+02  0.45594000000E+02  0.51100000000E-03 0.  1.
         23    2    1    2    0    0  0.00000000000E+00 -0.17763568394E-14  0.00000000000E+00  0.91188000000E+02  0.91188000000E+02 0.  0.
    9900012    2    3    3    0    0 -0.96544902486E+01  0.11447395589E+02 -0.40735375620E+02  0.47787275644E+02  0.20000020972E+02 0.  0.
         12    1    3    3    0    0  0.96544902486E+01 -0.11447395589E+02  0.40735375620E+02  0.43400724356E+02  0.00000000000E+00 0. -1.
         11    1    4    4    0    0 -0.51607282802E+01  0.30855252550E+01 -0.24384785811E+02  0.25115161990E+02  0.51100000000E-03 0. -1.
        -11    1    4    4    0    0  0.80107169543E+00  0.93987284331E+01 -0.65479708363E+01  0.11482758134E+02  0.51100000000E-03 0.  1.
        -12    1    4    4    0    0 -0.52948336639E+01 -0.10368580989E+01 -0.98026189721E+01  0.11189355520E+02  0.00000000000E+00 0.  1.
</event>
<event>
 8    1  0.8600524E-011  0.9118800E+02  0.7816164E-02  0.1184000E+00
        -11   -1    0    0    0    0  0.00000000000E+00  0.00000000000E+00  0.45593999997E+02  0.45594000000E+02  0.51100000000E-03 0. -1.
         11   -1    0    0    0    0 -0.00000000000E+00 -0.00000000000E+00 -0.45593999997E+02  0.45594000000E+02  0.51100000000E-03 0.  1.
         23    2    1    2    0    0  0.00000000000E+00  0.00000000000E+00  0.00000000000E+00  0.91188000000E+02  0.91188000000E+02 0.  0.
    9900012    2    3    3    0    0 -0.99221838401E+01 -0.27787004057E+02 -0.31828555298E+02  0.47787259695E+02  0.19999948254E+02 0.  0.
         12    1    3    3    0    0  0.99221838401E+01  0.27787004057E+02  0.31828555298E+02  0.43400740305E+02  0.00000000000E+00 0. -1.
         11    1    4    4    0    0 -0.12246889768E+01  0.17310247806E+01  0.86825581416E+00  0.22913267556E+01  0.51100000000E-03 0. -1.
        -11    1    4    4    0    0 -0.43051717768E+01 -0.57090290275E+01 -0.50913064243E+01  0.87777512970E+01  0.51100000000E-03 0.  1.
         12    1    4    4    0    0 -0.43923230865E+01 -0.23808999810E+02 -0.27605504688E+02  0.36718181643E+02  0.00000000000E+00 0. -1.
</event>
<event>
 8    1  0.8600524E-011  0.9118800E+02  0.7816164E-02  0.1184000E+00
        -11   -1    0    0    0    0  0.00000000000E+00  0.00000000000E+00  0.45593999997E+02  0.45594000000E+02  0.51100000000E-03 0. -1.
         11   -1    0    0    0    0 -0.00000000000E+00 -0.00000000000E+00 -0.45593999997E+02  0.45594000000E+02  0.51100000000E-03 0.  1.
         23    2    1    2    0    0  0.00000000000E+00  0.00000000000E+00  0.00000000000E+00  0.91188000000E+02  0.91188000000E+02 0.  0.
    9900012    2    3    3    0    0 -0.91730332632E+01  0.54330921768E+01  0.42070898353E+02  0.47787268231E+02  0.19999987171E+02 0.  0.
        -12    1    3    3    0    0  0.91730332632E+01 -0.54330921768E+01 -0.42070898353E+02  0.43400731769E+02  0.00000000000E+00 0.  1.
         11    1    4    4    0    0 -0.24995051822E+01  0.51518589613E+01  0.97072450166E+01  0.11270305363E+02  0.51100000000E-03 0. -1.
        -11    1    4    4    0    0  0.19916807519E+01  0.23393589194E+01  0.12955411247E+00  0.30750897386E+01  0.51100000000E-03 0.  1.
        -12    1    4    4    0    0 -0.86652088329E+01 -0.20581257039E+01  0.32234099224E+02  0.33441873128E+02  0.00000000000E+00 0.  1.
</event>
<event>
 8    1  0.8600524E-011  0.9118800E+02  0.7816164E-02  0.1184000E+00
        -11   -1    0    0    0    0  0.00000000000E+00  0.00000000000E+00  0.45593999997E+02  0.45594000000E+02  0.51100000000E-03 0. -1.
         11   -1    0    0    0    0 -0.00000000000E+00 -0.00000000000E+00 -0.45593999997E+02  0.45594000000E+02  0.51100000000E-03 0.  1.
         23    2    1    2    0    0  0.00000000000E+00  0.17763568394E-14  0.00000000000E+00  0.91188000000E+02  0.91188000000E+02 0.  0.
    9900012    2    3    3    0    0 -0.87264912229E+01 -0.11843777945E+02  0.40831276275E+02  0.47787310520E+02  0.20000179984E+02 0.  0.
        -12    1    3    3    0    0  0.87264912229E+01  0.11843777945E+02 -0.40831276275E+02  0.43400689480E+02  0.00000000000E+00 0.  1.
         11    1    4    4    0    0 -0.57078729362E+01 -0.73296598142E+00  0.32990220418E+02  0.33488381508E+02  0.51100000000E-03 0. -1.
        -11    1    4    4    0    0 -0.28042440619E+01 -0.10128111226E+02  0.57519161438E+01  0.11980273843E+02  0.51100000000E-03 0.  1.
         12    1    4    4    0    0 -0.21437422480E+00 -0.98270073762E+00  0.20891397137E+01  0.23186551687E+01  0.00000000000E+00 0. -1.
</event>
<event>
 8    1  0.8600524E-011  0.9118800E+02  0.7816164E-02  0.1184000E+00
        -11   -1    0    0    0    0  0.00000000000E+00  0.00000000000E+00  0.45593999997E+02  0.45594000000E+02  0.51100000000E-03 0.  1.
         11   -1    0    0    0    0 -0.00000000000E+00 -0.00000000000E+00 -0.45593999997E+02  0.45594000000E+02  0.51100000000E-03 0. -1.
         23    2    1    2    0    0  0.00000000000E+00  0.00000000000E+00  0.00000000000E+00  0.91188000000E+02  0.91188000000E+02 0.  0.
    9900012    2    3    3    0    0  0.14944909607E+02  0.40659915738E+02  0.26541024239E+01  0.47787270391E+02  0.19999997020E+02 0.  0.
        -12    1    3    3    0    0 -0.14944909607E+02 -0.40659915738E+02 -0.26541024239E+01  0.43400729609E+02  0.00000000000E+00 0.  1.
         11    1    4    4    0    0 -0.32087187397E+01  0.10042193168E+02  0.49718932644E+01  0.11655953091E+02  0.51100000000E-03 0. -1.
        -11    1    4    4    0    0  0.90418720441E+01  0.10886291494E+02 -0.26376124942E+01  0.14395269796E+02  0.51100000000E-03 0.  1.
         12    1    4    4    0    0  0.91117563021E+01  0.19731431076E+02  0.31982165372E+00  0.21736047504E+02  0.00000000000E+00 0. -1.
</event>
<event>
 8    1  0.8600524E-011  0.9118800E+02  0.7816164E-02  0.1184000E+00
        -11   -1    0    0    0    0  0.00000000000E+00  0.00000000000E+00  0.45593999997E+02  0.45594000000E+02  0.51100000000E-03 0. -1.
         11   -1    0    0    0    0 -0.00000000000E+00 -0.00000000000E+00 -0.45593999997E+02  0.45594000000E+02  0.51100000000E-03 0.  1.
         23    2    1    2    0    0  0.00000000000E+00 -0.17763568394E-14  0.00000000000E+00  0.91188000000E+02  0.91188000000E+02 0.  0.
    9900012    2    3    3    0    0 -0.22951180905E+02  0.12927005122E+02 -0.34492884670E+02  0.47787271213E+02  0.20000000770E+02 0.  0.
         12    1    3    3    0    0  0.22951180905E+02 -0.12927005122E+02  0.34492884670E+02  0.43400728787E+02  0.00000000000E+00 0. -1.
         11    1    4    4    0    0  0.47927974499E+00  0.16706983871E+01 -0.21191240187E+01  0.27407351281E+01  0.51100000000E-03 0. -1.
        -11    1    4    4    0    0 -0.36297821566E+01 -0.46574779341E+01 -0.55688148291E+01  0.81165952266E+01  0.51100000000E-03 0.  1.
        -12    1    4    4    0    0 -0.19800678493E+02  0.15913784669E+02 -0.26804945822E+02  0.36929940859E+02  0.00000000000E+00 0.  1.
</event>
<event>
 8    1  0.8600524E-011  0.9118800E+02  0.7816164E-02  0.1184000E+00
        -11   -1    0    0    0    0  0.00000000000E+00  0.00000000000E+00  0.45593999997E+02  0.45594000000E+02  0.51100000000E-03 0. -1.
         11   -1    0    0    0    0 -0.00000000000E+00 -0.00000000000E+00 -0.45593999997E+02  0.45594000000E+02  0.51100000000E-03 0.  1.
         23    2    1    2    0    0  0.00000000000E+00 -0.17763568394E-14  0.00000000000E+00  0.91188000000E+02  0.91188000000E+02 0.  0.
    9900012    2    3    3    0    0 -0.19437847615E+02 -0.95832499338E+01  0.37602588639E+02  0.47787271071E+02  0.20000000123E+02 0.  0.
        -12    1    3    3    0    0  0.19437847615E+02  0.95832499338E+01 -0.37602588639E+02  0.43400728929E+02  0.00000000000E+00 0.  1.
         11    1    4    4    0    0 -0.49159249096E+01 -0.13013979701E+02  0.13474524489E+02  0.19367312561E+02  0.51100000000E-03 0. -1.
        -11    1    4    4    0    0 -0.12136180179E+02  0.23743273759E+01  0.19070336267E+02  0.22728880866E+02  0.51100000000E-03 0.  1.
         12    1    4    4    0    0 -0.23857425262E+01  0.10564023915E+01  0.50577278832E+01  0.56910776444E+01  0.00000000000E+00 0. -1.
</event>
<event>
 8    1  0.8600524E-011  0.9118800E+02  0.7816164E-02  0.1184000E+00
        -11   -1    0    0    0    0  0.00000000000E+00  0.00000000000E+00  0.45593999997E+02  0.45594000000E+02  0.51100000000E-03 0. -1.
         11   -1    0    0    0    0 -0.00000000000E+00 -0.00000000000E+00 -0.45593999997E+02  0.45594000000E+02  0.51100000000E-03 0.  1.
         23    2    1    2    0    0  0.00000000000E+00  0.35527136788E-14  0.00000000000E+00  0.91188000000E+02  0.91188000000E+02 0.  0.
    9900012    2    3    3    0    0 -0.67034486871E+01  0.17475457856E+02  0.39157322794E+02  0.47787265214E+02  0.19999973417E+02 0.  0.
        -12    1    3    3    0    0  0.67034486871E+01 -0.17475457856E+02 -0.39157322794E+02  0.43400734786E+02  0.00000000000E+00 0.  1.
         11    1    4    4    0    0 -0.62717171276E+01  0.67949321631E+01  0.17420659222E+02  0.19722700292E+02  0.51100000000E-03 0. -1.
        -11    1    4    4    0    0  0.62130508859E+01  0.36664162115E+01  0.51315823839E+01  0.88531207588E+01  0.51100000000E-03 0.  1.
        -12    1    4    4    0    0 -0.66447824453E+01  0.70141094811E+01  0.16605081188E+02  0.19211444163E+02  0.00000000000E+00 0.  1.
</event>
<event>
 8    1  0.8600524E-011  0.9118800E+02  0.7816164E-02  0.1184000E+00
        -11   -1    0    0    0    0  0.00000000000E+00  0.00000000000E+00  0.45593999997E+02  0.45594000000E+02  0.51100000000E-03 0. -1.
         11   -1    0    0    0    0 -0.00000000000E+00 -0.00000000000E+00 -0.45593999997E+02  0.45594000000E+02  0.51100000000E-03 0.  1.
         23    2    1    2    0    0  0.66613381478E-15  0.88817841970E-15  0.00000000000E+00  0.91188000000E+02  0.91188000000E+02 0.  0.
    9900012    2    3    3    0    0  0.13184676057E+01  0.77147076052E+01  0.42689195032E+02  0.47787280619E+02  0.20000043655E+02 0.  0.
        -12    1    3    3    0    0 -0.13184676057E+01 -0.77147076052E+01 -0.42689195032E+02  0.43400719381E+02  0.00000000000E+00 0.  1.
         11    1    4    4    0    0  0.65515805819E+01 -0.30149191567E+01  0.15358258947E+02  0.16967293944E+02  0.51100000000E-03 0. -1.
        -11    1    4    4    0    0 -0.38745936822E+01  0.45005315192E+01  0.21044656230E+02  0.21866522729E+02  0.51100000000E-03 0.  1.
         12    1    4    4    0    0 -0.13585192940E+01  0.62290952426E+01  0.62862798558E+01  0.89534639463E+01  0.00000000000E+00 0. -1.
</event>
<event>
 8    1  0.8600524E-011  0.9118800E+02  0.7816164E-02  0.1184000E+00
        -11   -1    0    0    0    0  0.00000000000E+00  0.00000000000E+00  0.45593999997E+02  0.45594000000E+02  0.51100000000E-03 0. -1.
         11   -1    0    0    0    0 -0.00000000000E+00 -0.00000000000E+00 -0.45593999997E+02  0.45594000000E+02  0.51100000000E-03 0.  1.
         23    2    1    2    0    0  0.17763568394E-14  0.00000000000E+00  0.00000000000E+00  0.91188000000E+02  0.91188000000E+02 0.  0.
    9900012    2    3    3    0    0  0.10405339204E+02 -0.35249801539E+01 -0.41987216797E+02  0.47787274852E+02  0.20000017359E+02 0.  0.
         12    1    3    3    0    0 -0.10405339204E+02  0.35249801539E+01  0.41987216797E+02  0.43400725148E+02  0.00000000000E+00 0. -1.
         11    1    4    4    0    0  0.36196504913E+01  0.43177147836E+01 -0.61688318588E+01  0.83545806236E+01  0.51100000000E-03 0. -1.
        -11    1    4    4    0    0 -0.28403065834E+01 -0.46319836211E+01 -0.19265727118E+02  0.20017263934E+02  0.51100000000E-03 0.  1.
        -12    1    4    4    0    0  0.96259952959E+01 -0.32107113165E+01 -0.16552657821E+02  0.19415430295E+02  0.00000000000E+00 0.  1.
</event>
<event>
 8    1  0.8600524E-011  0.9118800E+02  0.7816164E-02  0.1184000E+00
        -11   -1    0    0    0    0  0.00000000000E+00  0.00000000000E+00  0.45593999997E+02  0.45594000000E+02  0.51100000000E-03 0. -1.
         11   -1    0    0    0    0 -0.00000000000E+00 -0.00000000000E+00 -0.45593999997E+02  0.45594000000E+02  0.51100000000E-03 0.  1.
         23    2    1    2    0    0  0.00000000000E+00  0.00000000000E+00  0.00000000000E+00  0.91188000000E+02  0.91188000000E+02 0.  0.
    9900012    2    3    3    0    0 -0.50406977594E+01  0.16657651349E+02  0.39758487929E+02  0.47787270228E+02  0.19999996276E+02 0.  0.
        -12    1    3    3    0    0  0.50406977594E+01 -0.16657651349E+02 -0.39758487929E+02  0.43400729772E+02  0.00000000000E+00 0.  1.
         11    1    4    4    0    0  0.83772685630E+00  0.12450823404E+00  0.94684810990E+01  0.95062833520E+01  0.51100000000E-03 0. -1.
        -11    1    4    4    0    0  0.53207755818E+01  0.61654463673E+01  0.10831259576E+02  0.13551367679E+02  0.51100000000E-03 0.  1.
        -12    1    4    4    0    0 -0.11199200198E+02  0.10367696748E+02  0.19458747254E+02  0.24729619197E+02  0.00000000000E+00 0.  1.
</event>
<event>
 8    1  0.8600524E-011  0.9118800E+02  0.7816164E-02  0.1184000E+00
        -11   -1    0    0    0    0  0.00000000000E+00  0.00000000000E+00  0.45593999997E+02  0.45594000000E+02  0.51100000000E-03 0. -1.
         11   -1    0    0    0    0 -0.00000000000E+00 -0.00000000000E+00 -0.45593999997E+02  0.45594000000E+02  0.51100000000E-03 0.  1.
         23    2    1    2    0    0  0.00000000000E+00  0.00000000000E+00 -0.71054273576E-14  0.91188000000E+02  0.91188000000E+02 0.  0.
    9900012    2    3    3    0    0 -0.14545680198E+02  0.13952261313E+01  0.40866853492E+02  0.47787272094E+02  0.20000004788E+02 0.  0.
        -12    1    3    3    0    0  0.14545680198E+02 -0.13952261313E+01 -0.40866853492E+02  0.43400727906E+02  0.00000000000E+00 0.  1.
         11    1    4    4    0    0 -0.23528103006E+01  0.30837963648E+01  0.54239892466E+01  0.66682213475E+01  0.51100000000E-03 0. -1.
        -11    1    4    4    0    0 -0.16419312696E+02 -0.72015626204E+00  0.29393191300E+02  0.33675987728E+02  0.51100000000E-03 0.  1.
        -12    1    4    4    0    0  0.42264427982E+01 -0.96841397147E+00  0.60496729458E+01  0.74430630185E+01  0.00000000000E+00 0.  1.
</event>
<event>
 8    1  0.8600524E-011  0.9118800E+02  0.7816164E-02  0.1184000E+00
        -11   -1    0    0    0    0  0.00000000000E+00  0.00000000000E+00  0.45593999997E+02  0.45594000000E+02  0.51100000000E-03 0. -1.
         11   -1    0    0    0    0 -0.00000000000E+00 -0.00000000000E+00 -0.45593999997E+02  0.45594000000E+02  0.51100000000E-03 0.  1.
         23    2    1    2    0    0  0.00000000000E+00 -0.31918911958E-15  0.35527136788E-14  0.91188000000E+02  0.91188000000E+02 0.  0.
    9900012    2    3    3    0    0 -0.34031527768E+02  0.10927474933E+00 -0.26934486528E+02  0.47787269733E+02  0.19999994020E+02 0.  0.
         12    1    3    3    0    0  0.34031527768E+02 -0.10927474933E+00  0.26934486528E+02  0.43400730267E+02  0.00000000000E+00 0. -1.
         11    1    4    4    0    0 -0.85022295489E+00  0.39665004080E+01 -0.34024809381E+01  0.52946087065E+01  0.51100000000E-03 0. -1.
        -11    1    4    4    0    0 -0.16863725542E+02 -0.59163941712E+01 -0.17390875378E+02  0.24936549597E+02  0.51100000000E-03 0.  1.
        -12    1    4    4    0    0 -0.16317579271E+02  0.20591685125E+01 -0.61411302119E+01  0.17556111429E+02  0.00000000000E+00 0.  1.
</event>
<event>
 8    1  0.8600524E-011  0.9118800E+02  0.7816164E-02  0.1184000E+00
        -11   -1    0    0    0    0  0.00000000000E+00  0.00000000000E+00  0.45593999997E+02  0.45594000000E+02  0.51100000000E-03 0. -1.
         11   -1    0    0    0    0 -0.00000000000E+00 -0.00000000000E+00 -0.45593999997E+02  0.45594000000E+02  0.51100000000E-03 0.  1.
         23    2    1    2    0    0  0.17763568394E-14  0.71054273576E-14  0.35527136788E-14  0.91188000000E+02  0.91188000000E+02 0.  0.
    9900012    2    3    3    0    0  0.70868863701E+01  0.33861175471E+02  0.26207256065E+02  0.47787269210E+02  0.19999991634E+02 0.  0.
        -12    1    3    3    0    0 -0.70868863701E+01 -0.33861175471E+02 -0.26207256065E+02  0.43400730790E+02  0.00000000000E+00 0.  1.
         11    1    4    4    0    0 -0.40301772566E+01  0.14868109478E+02  0.38855064907E+01  0.15887107009E+02  0.51100000000E-03 0. -1.
        -11    1    4    4    0    0  0.72283543977E+01  0.12758059964E+02  0.18533792581E+02  0.23632999578E+02  0.51100000000E-03 0.  1.
         12    1    4    4    0    0  0.38887092289E+01  0.62350060285E+01  0.37879569929E+01  0.82671626222E+01  0.00000000000E+00 0. -1.
</event>
<event>
 8    1  0.8600524E-011  0.9118800E+02  0.7816164E-02  0.1184000E+00
        -11   -1    0    0    0    0  0.00000000000E+00  0.00000000000E+00  0.45593999997E+02  0.45594000000E+02  0.51100000000E-03 0. -1.
         11   -1    0    0    0    0 -0.00000000000E+00 -0.00000000000E+00 -0.45593999997E+02  0.45594000000E+02  0.51100000000E-03 0.  1.
         23    2    1    2    0    0  0.00000000000E+00  0.00000000000E+00  0.00000000000E+00  0.91188000000E+02  0.91188000000E+02 0.  0.
    9900012    2    3    3    0    0  0.10036012406E+02  0.14514906160E+01 -0.42199472090E+02  0.47787264814E+02  0.19999971593E+02 0.  0.
         12    1    3    3    0    0 -0.10036012406E+02 -0.14514906160E+01  0.42199472090E+02  0.43400735186E+02  0.00000000000E+00 0. -1.
         11    1    4    4    0    0 -0.22316186758E+01 -0.45131662781E+00  0.12895972705E+00  0.22804472117E+01  0.51100000000E-03 0. -1.
        -11    1    4    4    0    0  0.14175530716E+02  0.28752124601E+00 -0.34952222269E+02  0.37718512449E+02  0.51100000000E-03 0.  1.
        -12    1    4    4    0    0 -0.19078996342E+01  0.16152859978E+01 -0.73762095481E+01  0.77883051537E+01  0.00000000000E+00 0.  1.
</event>
<event>
 8    1  0.8600524E-011  0.9118800E+02  0.7816164E-02  0.1184000E+00
        -11   -1    0    0    0    0  0.00000000000E+00  0.00000000000E+00  0.45593999997E+02  0.45594000000E+02  0.51100000000E-03 0.  1.
         11   -1    0    0    0    0 -0.00000000000E+00 -0.00000000000E+00 -0.45593999997E+02  0.45594000000E+02  0.51100000000E-03 0. -1.
         23    2    1    2    0    0  0.00000000000E+00  0.00000000000E+00  0.00000000000E+00  0.91188000000E+02  0.91188000000E+02 0.  0.
    9900012    2    3    3    0    0  0.10206860624E+02 -0.38175071666E+02  0.17947345552E+02  0.47787270595E+02  0.19999997950E+02 0.  0.
        -12    1    3    3    0    0 -0.10206860624E+02  0.38175071666E+02 -0.17947345552E+02  0.43400729405E+02  0.00000000000E+00 0.  1.
         11    1    4    4    0    0  0.10122190206E+02 -0.22377347660E+02  0.35319191209E+01  0.24812877218E+02  0.51100000000E-03 0. -1.
        -11    1    4    4    0    0  0.14876567780E+00 -0.16798946016E+02  0.13013021430E+02  0.21250069306E+02  0.51100000000E-03 0.  1.
         12    1    4    4    0    0 -0.64095260595E-01  0.10012220104E+01  0.14024050012E+01  0.17243240716E+01  0.00000000000E+00 0. -1.
</event>
<event>
 8    1  0.8600524E-011  0.9118800E+02  0.7816164E-02  0.1184000E+00
        -11   -1    0    0    0    0  0.00000000000E+00  0.00000000000E+00  0.45593999997E+02  0.45594000000E+02  0.51100000000E-03 0. -1.
         11   -1    0    0    0    0 -0.00000000000E+00 -0.00000000000E+00 -0.45593999997E+02  0.45594000000E+02  0.51100000000E-03 0.  1.
         23    2    1    2    0    0  0.35527136788E-14  0.00000000000E+00 -0.35527136788E-14  0.91188000000E+02  0.91188000000E+02 0.  0.
    9900012    2    3    3    0    0  0.16610385516E+02 -0.26124743274E+02 -0.30417396744E+02  0.47787249514E+02  0.19999901832E+02 0.  0.
         12    1    3    3    0    0 -0.16610385516E+02  0.26124743274E+02  0.30417396744E+02  0.43400750486E+02  0.00000000000E+00 0. -1.
         11    1    4    4    0    0  0.11796086900E+02 -0.33133339761E+01 -0.11241373176E+02  0.16628118335E+02  0.51100000000E-03 0. -1.
        -11    1    4    4    0    0  0.64061857802E+00 -0.12432601231E+02 -0.14289751296E+02  0.18951964486E+02  0.51100000000E-03 0.  1.
         12    1    4    4    0    0  0.41736800376E+01 -0.10378808067E+02 -0.48862722713E+01  0.12207166693E+02  0.00000000000E+00 0. -1.
</event>
<event>
 8    1  0.8600524E-011  0.9118800E+02  0.7816164E-02  0.1184000E+00
        -11   -1    0    0    0    0  0.00000000000E+00  0.00000000000E+00  0.45593999997E+02  0.45594000000E+02  0.51100000000E-03 0.  1.
         11   -1    0    0    0    0 -0.00000000000E+00 -0.00000000000E+00 -0.45593999997E+02  0.45594000000E+02  0.51100000000E-03 0. -1.
         23    2    1    2    0    0 -0.88817841970E-15 -0.71054273576E-14  0.88817841970E-15  0.91188000000E+02  0.91188000000E+02 0.  0.
    9900012    2    3    3    0    0 -0.79503617919E+01 -0.42255712695E+02  0.59050606153E+01  0.47787271332E+02  0.20000001313E+02 0.  0.
         12    1    3    3    0    0  0.79503617919E+01  0.42255712695E+02 -0.59050606153E+01  0.43400728668E+02  0.00000000000E+00 0. -1.
         11    1    4    4    0    0  0.23856828440E+00 -0.76151870125E+01  0.82444518715E+01  0.11225817341E+02  0.51100000000E-03 0. -1.
        -11    1    4    4    0    0 -0.16260258469E+01 -0.97427531365E+01  0.28815513091E+01  0.10289243750E+02  0.51100000000E-03 0.  1.
         12    1    4    4    0    0 -0.65629042294E+01 -0.24897772546E+02 -0.52209425653E+01  0.26272210241E+02  0.00000000000E+00 0. -1.
</event>
<event>
 8    1  0.8600524E-011  0.9118800E+02  0.7816164E-02  0.1184000E+00
        -11   -1    0    0    0    0  0.00000000000E+00  0.00000000000E+00  0.45593999997E+02  0.45594000000E+02  0.51100000000E-03 0. -1.
         11   -1    0    0    0    0 -0.00000000000E+00 -0.00000000000E+00 -0.45593999997E+02  0.45594000000E+02  0.51100000000E-03 0.  1.
         23    2    1    2    0    0  0.00000000000E+00  0.00000000000E+00  0.00000000000E+00  0.91188000000E+02  0.91188000000E+02 0.  0.
    9900012    2    3    3    0    0 -0.63608902055E+01 -0.41226998886E+02 -0.11979020789E+02  0.47787270739E+02  0.19999998605E+02 0.  0.
         12    1    3    3    0    0  0.63608902055E+01  0.41226998886E+02  0.11979020789E+02  0.43400729261E+02  0.00000000000E+00 0. -1.
         11    1    4    4    0    0 -0.34563048153E+01 -0.13330415449E+02 -0.22138178501E+01  0.13948010925E+02  0.51100000000E-03 0. -1.
        -11    1    4    4    0    0 -0.90907973673E+01 -0.16821692685E+02 -0.26762150158E+01  0.19307357888E+02  0.51100000000E-03 0.  1.
         12    1    4    4    0    0  0.61862119770E+01 -0.11074890752E+02 -0.70889879234E+01  0.14531901926E+02  0.00000000000E+00 0. -1.
</event>
<event>
 8    1  0.8600524E-011  0.9118800E+02  0.7816164E-02  0.1184000E+00
        -11   -1    0    0    0    0  0.00000000000E+00  0.00000000000E+00  0.45593999997E+02  0.45594000000E+02  0.51100000000E-03 0. -1.
         11   -1    0    0    0    0 -0.00000000000E+00 -0.00000000000E+00 -0.45593999997E+02  0.45594000000E+02  0.51100000000E-03 0.  1.
         23    2    1    2    0    0 -0.35527136788E-14  0.00000000000E+00  0.35527136788E-14  0.91188000000E+02  0.91188000000E+02 0.  0.
    9900012    2    3    3    0    0 -0.25277854459E+02  0.19362438848E+02 -0.29491505463E+02  0.47787275828E+02  0.20000021809E+02 0.  0.
         12    1    3    3    0    0  0.25277854459E+02 -0.19362438848E+02  0.29491505463E+02  0.43400724172E+02  0.00000000000E+00 0. -1.
         11    1    4    4    0    0 -0.11497382287E+01  0.11918328700E+02 -0.72059763375E+01  0.13974782726E+02  0.51100000000E-03 0. -1.
        -11    1    4    4    0    0 -0.15060366534E+02  0.36640865576E+01 -0.15117956838E+02  0.21651623257E+02  0.51100000000E-03 0.  1.
         12    1    4    4    0    0 -0.90677496960E+01  0.37800235911E+01 -0.71675722875E+01  0.12160869845E+02  0.00000000000E+00 0. -1.
</event>
<event>
 8    1  0.8600524E-011  0.9118800E+02  0.7816164E-02  0.1184000E+00
        -11   -1    0    0    0    0  0.00000000000E+00  0.00000000000E+00  0.45593999997E+02  0.45594000000E+02  0.51100000000E-03 0.  1.
         11   -1    0    0    0    0 -0.00000000000E+00 -0.00000000000E+00 -0.45593999997E+02  0.45594000000E+02  0.51100000000E-03 0. -1.
         23    2    1    2    0    0  0.35527136788E-14  0.35527136788E-14  0.00000000000E+00  0.91188000000E+02  0.91188000000E+02 0.  0.
    9900012    2    3    3    0    0  0.31178804882E+02  0.29081002788E+02  0.81117615735E+01  0.47787271057E+02  0.20000000055E+02 0.  0.
         12    1    3    3    0    0 -0.31178804882E+02 -0.29081002788E+02 -0.81117615735E+01  0.43400728943E+02  0.00000000000E+00 0. -1.
         11    1    4    4    0    0  0.26928187196E+01 -0.16314633591E+01  0.49747253612E+00  0.31875420835E+01  0.51100000000E-03 0. -1.
        -11    1    4    4    0    0  0.54286287114E+01  0.13308706660E+02  0.62667320017E+01  0.15680038677E+02  0.51100000000E-03 0.  1.
        -12    1    4    4    0    0  0.23057357451E+02  0.17403759486E+02  0.13475570357E+01  0.28919690296E+02  0.00000000000E+00 0.  1.
</event>
<event>
 8    1  0.8600524E-011  0.9118800E+02  0.7816164E-02  0.1184000E+00
        -11   -1    0    0    0    0  0.00000000000E+00  0.00000000000E+00  0.45593999997E+02  0.45594000000E+02  0.51100000000E-03 0.  1.
         11   -1    0    0    0    0 -0.00000000000E+00 -0.00000000000E+00 -0.45593999997E+02  0.45594000000E+02  0.51100000000E-03 0. -1.
         23    2    1    2    0    0  0.00000000000E+00  0.88817841970E-15 -0.17763568394E-14  0.91188000000E+02  0.91188000000E+02 0.  0.
    9900012    2    3    3    0    0 -0.41175857092E+02  0.23507564455E+01 -0.13514657435E+02  0.47787271565E+02  0.20000002373E+02 0.  0.
         12    1    3    3    0    0  0.41175857092E+02 -0.23507564455E+01  0.13514657435E+02  0.43400728435E+02  0.00000000000E+00 0. -1.
         11    1    4    4    0    0 -0.13930041454E+02 -0.61832634703E+01 -0.24850492327E+01  0.15441964642E+02  0.51100000000E-03 0. -1.
        -11    1    4    4    0    0 -0.14342947853E+02  0.86832798666E+01 -0.97073480430E+01  0.19374006004E+02  0.51100000000E-03 0.  1.
        -12    1    4    4    0    0 -0.12902867785E+02 -0.14925995080E+00 -0.13222601596E+01  0.12971300919E+02  0.00000000000E+00 0.  1.
</event>
<event>
 8    1  0.8600524E-011  0.9118800E+02  0.7816164E-02  0.1184000E+00
        -11   -1    0    0    0    0  0.00000000000E+00  0.00000000000E+00  0.45593999997E+02  0.45594000000E+02  0.51100000000E-03 0. -1.
         11   -1    0    0    0    0 -0.00000000000E+00 -0.00000000000E+00 -0.45593999997E+02  0.45594000000E+02  0.51100000000E-03 0.  1.
         23    2    1    2    0    0  0.00000000000E+00 -0.17763568394E-14  0.00000000000E+00  0.91188000000E+02  0.91188000000E+02 0.  0.
    9900012    2    3    3    0    0 -0.35873080083E+02 -0.14933395004E+02 -0.19332337641E+02  0.47787269134E+02  0.19999991292E+02 0.  0.
         12    1    3    3    0    0  0.35873080083E+02  0.14933395004E+02  0.19332337641E+02  0.43400730866E+02  0.00000000000E+00 0. -1.
         11    1    4    4    0    0 -0.28180774967E+01  0.42539080254E+01 -0.13352695982E+01  0.52744894944E+01  0.51100000000E-03 0. -1.
        -11    1    4    4    0    0 -0.17523190367E+02 -0.12808328791E+02 -0.94743993542E+01  0.23682899536E+02  0.51100000000E-03 0.  1.
         12    1    4    4    0    0 -0.15531812219E+02 -0.63789742389E+01 -0.85226686889E+01  0.18829880104E+02  0.00000000000E+00 0. -1.
</event>
<event>
 8    1  0.8600524E-011  0.9118800E+02  0.7816164E-02  0.1184000E+00
        -11   -1    0    0    0    0  0.00000000000E+00  0.00000000000E+00  0.45593999997E+02  0.45594000000E+02  0.51100000000E-03 0.  1.
         11   -1    0    0    0    0 -0.00000000000E+00 -0.00000000000E+00 -0.45593999997E+02  0.45594000000E+02  0.51100000000E-03 0. -1.
         23    2    1    2    0    0  0.00000000000E+00  0.00000000000E+00  0.00000000000E+00  0.91188000000E+02  0.91188000000E+02 0.  0.
    9900012    2    3    3    0    0 -0.54175500672E+01  0.42065649823E+02  0.92062049310E+01  0.47787274741E+02  0.20000016853E+02 0.  0.
         12    1    3    3    0    0  0.54175500672E+01 -0.42065649823E+02 -0.92062049310E+01  0.43400725259E+02  0.00000000000E+00 0. -1.
         11    1    4    4    0    0  0.25878962078E+01  0.14784668254E+01 -0.93167424435E+00  0.31226732290E+01  0.51100000000E-03 0. -1.
        -11    1    4    4    0    0 -0.72333886059E+01  0.37375171554E+02  0.47764921860E+01  0.38367176561E+02  0.51100000000E-03 0.  1.
        -12    1    4    4    0    0 -0.77205766914E+00  0.32120114443E+01  0.53613869894E+01  0.62974249510E+01  0.00000000000E+00 0.  1.
</event>
<event>
 8    1  0.8600524E-011  0.9118800E+02  0.7816164E-02  0.1184000E+00
        -11   -1    0    0    0    0  0.00000000000E+00  0.00000000000E+00  0.45593999997E+02  0.45594000000E+02  0.51100000000E-03 0. -1.
         11   -1    0    0    0    0 -0.00000000000E+00 -0.00000000000E+00 -0.45593999997E+02  0.45594000000E+02  0.51100000000E-03 0.  1.
         23    2    1    2    0    0  0.35527136788E-14 -0.35527136788E-14  0.00000000000E+00  0.91188000000E+02  0.91188000000E+02 0.  0.
    9900012    2    3    3    0    0 -0.17414027319E+02 -0.28428975086E+02  0.27787912120E+02  0.47787273832E+02  0.20000012711E+02 0.  0.
        -12    1    3    3    0    0  0.17414027319E+02  0.28428975086E+02 -0.27787912120E+02  0.43400726168E+02  0.00000000000E+00 0.  1.
         11    1    4    4    0    0 -0.10495449618E+02 -0.21339383169E+02  0.28240244677E+02  0.36919306012E+02  0.51100000000E-03 0. -1.
        -11    1    4    4    0    0 -0.52798430948E+00 -0.16653504426E+01 -0.16470248405E+01  0.24010103319E+01  0.51100000000E-03 0.  1.
         12    1    4    4    0    0 -0.63905933907E+01 -0.54242414744E+01  0.11946922836E+01  0.84669574884E+01  0.00000000000E+00 0. -1.
</event>
<event>
 8    1  0.8600524E-011  0.9118800E+02  0.7816164E-02  0.1184000E+00
        -11   -1    0    0    0    0  0.00000000000E+00  0.00000000000E+00  0.45593999997E+02  0.45594000000E+02  0.51100000000E-03 0.  1.
         11   -1    0    0    0    0 -0.00000000000E+00 -0.00000000000E+00 -0.45593999997E+02  0.45594000000E+02  0.51100000000E-03 0. -1.
         23    2    1    2    0    0  0.00000000000E+00 -0.22204460493E-15 -0.17763568394E-14  0.91188000000E+02  0.91188000000E+02 0.  0.
    9900012    2    3    3    0    0 -0.41959089939E+02  0.11673585246E+01 -0.11031552097E+02  0.47787273093E+02  0.20000009340E+02 0.  0.
         12    1    3    3    0    0  0.41959089939E+02 -0.11673585246E+01  0.11031552097E+02  0.43400726907E+02  0.00000000000E+00 0. -1.
         11    1    4    4    0    0 -0.62404677481E+01 -0.52272661773E+01 -0.47711799912E+01  0.94356721103E+01  0.51100000000E-03 0. -1.
        -11    1    4    4    0    0 -0.15085916331E+02  0.50307537604E+01  0.21138420373E+01  0.16042496170E+02  0.51100000000E-03 0.  1.
        -12    1    4    4    0    0 -0.20632705859E+02  0.13638709415E+01 -0.83742141429E+01  0.22309104812E+02  0.00000000000E+00 0.  1.
</event>
<event>
 8    1  0.8600524E-011  0.9118800E+02  0.7816164E-02  0.1184000E+00
        -11   -1    0    0    0    0  0.00000000000E+00  0.00000000000E+00  0.45593999997E+02  0.45594000000E+02  0.51100000000E-03 0. -1.
         11   -1    0    0    0    0 -0.00000000000E+00 -0.00000000000E+00 -0.45593999997E+02  0.45594000000E+02  0.51100000000E-03 0.  1.
         23    2    1    2    0    0  0.00000000000E+00  0.00000000000E+00  0.00000000000E+00  0.91188000000E+02  0.91188000000E+02 0.  0.
    9900012    2    3    3    0    0 -0.20558952545E+01 -0.39233666591E+02  0.18442231411E+02  0.47787271908E+02  0.20000003937E+02 0.  0.
        -12    1    3    3    0    0  0.20558952545E+01  0.39233666591E+02 -0.18442231411E+02  0.43400728092E+02  0.00000000000E+00 0.  1.
         11    1    4    4    0    0 -0.25293597977E+01 -0.17875804605E+00  0.32685709796E+00  0.25566484406E+01  0.51100000000E-03 0. -1.
        -11    1    4    4    0    0  0.43676748355E+01 -0.32275491565E+02  0.18398801420E+02  0.37407216325E+02  0.51100000000E-03 0.  1.
        -12    1    4    4    0    0 -0.38942102922E+01 -0.67794169800E+01 -0.28342710664E+00  0.78234071423E+01  0.00000000000E+00 0.  1.
</event>
<event>
 8    1  0.8600524E-011  0.9118800E+02  0.7816164E-02  0.1184000E+00
        -11   -1    0    0    0    0  0.00000000000E+00  0.00000000000E+00  0.45593999997E+02  0.45594000000E+02  0.51100000000E-03 0. -1.
         11   -1    0    0    0    0 -0.00000000000E+00 -0.00000000000E+00 -0.45593999997E+02  0.45594000000E+02  0.51100000000E-03 0.  1.
         23    2    1    2    0    0  0.00000000000E+00 -0.35527136788E-14  0.35527136788E-14  0.91188000000E+02  0.91188000000E+02 0.  0.
    9900012    2    3    3    0    0  0.31559686640E+02 -0.22245042103E+02  0.19818376349E+02  0.47787265443E+02  0.19999974462E+02 0.  0.
        -12    1    3    3    0    0 -0.31559686640E+02  0.22245042103E+02 -0.19818376349E+02  0.43400734557E+02  0.00000000000E+00 0.  1.
         11    1    4    4    0    0  0.15776156161E+02 -0.32192357570E+01  0.58753019561E+01  0.17139712816E+02  0.51100000000E-03 0. -1.
        -11    1    4    4    0    0 -0.93690286237E+00 -0.57487311540E+01  0.41875719617E+01  0.71736640603E+01  0.51100000000E-03 0.  1.
         12    1    4    4    0    0  0.16720433341E+02 -0.13277075192E+02  0.97555024313E+01  0.23473888567E+02  0.00000000000E+00 0. -1.
</event>
<event>
 8    1  0.8600524E-011  0.9118800E+02  0.7816164E-02  0.1184000E+00
        -11   -1    0    0    0    0  0.00000000000E+00  0.00000000000E+00  0.45593999997E+02  0.45594000000E+02  0.51100000000E-03 0. -1.
         11   -1    0    0    0    0 -0.00000000000E+00 -0.00000000000E+00 -0.45593999997E+02  0.45594000000E+02  0.51100000000E-03 0.  1.
         23    2    1    2    0    0 -0.88817841970E-15 -0.71054273576E-14 -0.35527136788E-14  0.91188000000E+02  0.91188000000E+02 0.  0.
    9900012    2    3    3    0    0 -0.29037655382E+00 -0.32355215737E+02 -0.28925404845E+02  0.47787270175E+02  0.19999996036E+02 0.  0.
         12    1    3    3    0    0  0.29037655382E+00  0.32355215737E+02  0.28925404845E+02  0.43400729825E+02  0.00000000000E+00 0. -1.
         11    1    4    4    0    0 -0.11373206597E+01 -0.31005685309E+01  0.69171011839E+00  0.33742386766E+01  0.51100000000E-03 0.  1.
        -11    1    4    4    0    0  0.76026382726E+01 -0.92883107150E+01 -0.10114081146E+02  0.15696097041E+02  0.51100000000E-03 0. -1.
        -12    1    4    4    0    0 -0.67556941667E+01 -0.19966336491E+02 -0.19503033817E+02  0.28716934457E+02  0.00000000000E+00 0.  1.
</event>
<event>
 8    1  0.8600524E-011  0.9118800E+02  0.7816164E-02  0.1184000E+00
        -11   -1    0    0    0    0  0.00000000000E+00  0.00000000000E+00  0.45593999997E+02  0.45594000000E+02  0.51100000000E-03 0. -1.
         11   -1    0    0    0    0 -0.00000000000E+00 -0.00000000000E+00 -0.45593999997E+02  0.45594000000E+02  0.51100000000E-03 0.  1.
         23    2    1    2    0    0 -0.17763568394E-14  0.00000000000E+00  0.35527136788E-14  0.91188000000E+02  0.91188000000E+02 0.  0.
    9900012    2    3    3    0    0 -0.10455583706E+02 -0.27777728265E+02 -0.31665465159E+02  0.47787273026E+02  0.20000009033E+02 0.  0.
         12    1    3    3    0    0  0.10455583706E+02  0.27777728265E+02  0.31665465159E+02  0.43400726974E+02  0.00000000000E+00 0. -1.
         11    1    4    4    0    0 -0.91756949687E+00 -0.15121213887E+02 -0.26771532604E+02  0.30760494168E+02  0.51100000000E-03 0. -1.
        -11    1    4    4    0    0 -0.60392528073E+00 -0.33092442082E+01 -0.13007711832E+01  0.36066367860E+01  0.51100000000E-03 0.  1.
         12    1    4    4    0    0 -0.89340889280E+01 -0.93472701694E+01 -0.35931613715E+01  0.13420142072E+02  0.00000000000E+00 0. -1.
</event>
<event>
 8    1  0.8600524E-011  0.9118800E+02  0.7816164E-02  0.1184000E+00
        -11   -1    0    0    0    0  0.00000000000E+00  0.00000000000E+00  0.45593999997E+02  0.45594000000E+02  0.51100000000E-03 0. -1.
         11   -1    0    0    0    0 -0.00000000000E+00 -0.00000000000E+00 -0.45593999997E+02  0.45594000000E+02  0.51100000000E-03 0.  1.
         23    2    1    2    0    0  0.00000000000E+00  0.00000000000E+00  0.00000000000E+00  0.91188000000E+02  0.91188000000E+02 0.  0.
    9900012    2    3    3    0    0  0.90035242744E+01 -0.24392443606E+02  0.34750090844E+02  0.47787267654E+02  0.19999984543E+02 0.  0.
        -12    1    3    3    0    0 -0.90035242744E+01  0.24392443606E+02 -0.34750090844E+02  0.43400732346E+02  0.00000000000E+00 0.  1.
         11    1    4    4    0    0  0.87209780709E+01 -0.15100300051E+02  0.14357434545E+02  0.22587838479E+02  0.51100000000E-03 0. -1.
        -11    1    4    4    0    0  0.65792022214E+00  0.24607048028E+01  0.66011125119E+01  0.70754938910E+01  0.51100000000E-03 0.  1.
        -12    1    4    4    0    0 -0.37537401866E+00 -0.11752848358E+02  0.13791543787E+02  0.18123935285E+02  0.00000000000E+00 0.  1.
</event>
<event>
 8    1  0.8600524E-011  0.9118800E+02  0.7816164E-02  0.1184000E+00
        -11   -1    0    0    0    0  0.00000000000E+00  0.00000000000E+00  0.45593999997E+02  0.45594000000E+02  0.51100000000E-03 0. -1.
         11   -1    0    0    0    0 -0.00000000000E+00 -0.00000000000E+00 -0.45593999997E+02  0.45594000000E+02  0.51100000000E-03 0.  1.
         23    2    1    2    0    0  0.00000000000E+00  0.00000000000E+00  0.00000000000E+00  0.91188000000E+02  0.91188000000E+02 0.  0.
    9900012    2    3    3    0    0  0.93624937574E+01  0.23872183950E+02  0.35015568710E+02  0.47787222265E+02  0.19999777595E+02 0.  0.
        -12    1    3    3    0    0 -0.93624937574E+01 -0.23872183950E+02 -0.35015568710E+02  0.43400777735E+02  0.00000000000E+00 0.  1.
         11    1    4    4    0    0  0.88755699771E+01  0.15331041409E+02  0.10881056087E+02  0.20789756009E+02  0.51100000000E-03 0. -1.
        -11    1    4    4    0    0 -0.38626189799E+01  0.55383065889E+01  0.12173860810E+02  0.13921047106E+02  0.51100000000E-03 0.  1.
         12    1    4    4    0    0  0.43495427602E+01  0.30028359527E+01  0.11960651813E+02  0.13076419150E+02  0.00000000000E+00 0. -1.
</event>
<event>
 8    1  0.8600524E-011  0.9118800E+02  0.7816164E-02  0.1184000E+00
        -11   -1    0    0    0    0  0.00000000000E+00  0.00000000000E+00  0.45593999997E+02  0.45594000000E+02  0.51100000000E-03 0. -1.
         11   -1    0    0    0    0 -0.00000000000E+00 -0.00000000000E+00 -0.45593999997E+02  0.45594000000E+02  0.51100000000E-03 0.  1.
         23    2    1    2    0    0 -0.71054273576E-14  0.35527136788E-14  0.00000000000E+00  0.91188000000E+02  0.91188000000E+02 0.  0.
    9900012    2    3    3    0    0  0.25847819612E+02 -0.21500258726E+02  0.27445450312E+02  0.47787266748E+02  0.19999980409E+02 0.  0.
        -12    1    3    3    0    0 -0.25847819612E+02  0.21500258726E+02 -0.27445450312E+02  0.43400733252E+02  0.00000000000E+00 0.  1.
         11    1    4    4    0    0  0.84515508623E+01 -0.51179253190E+01  0.12538742479E+02  0.15963769441E+02  0.51100000000E-03 0. -1.
        -11    1    4    4    0    0 -0.13529203871E+01 -0.61988876153E+01  0.11814128774E+01  0.64538622459E+01  0.51100000000E-03 0.  1.
        -12    1    4    4    0    0  0.18749189137E+02 -0.10183445791E+02  0.13725294956E+02  0.25369635061E+02  0.00000000000E+00 0.  1.
</event>
<event>
 8    1  0.8600524E-011  0.9118800E+02  0.7816164E-02  0.1184000E+00
        -11   -1    0    0    0    0  0.00000000000E+00  0.00000000000E+00  0.45593999997E+02  0.45594000000E+02  0.51100000000E-03 0. -1.
         11   -1    0    0    0    0 -0.00000000000E+00 -0.00000000000E+00 -0.45593999997E+02  0.45594000000E+02  0.51100000000E-03 0.  1.
         23    2    1    2    0    0  0.00000000000E+00 -0.35527136788E-14  0.00000000000E+00  0.91188000000E+02  0.91188000000E+02 0.  0.
    9900012    2    3    3    0    0  0.10713216224E+02  0.20849138885E+02  0.36526194401E+02  0.47787280288E+02  0.20000042145E+02 0.  0.
        -12    1    3    3    0    0 -0.10713216224E+02 -0.20849138885E+02 -0.36526194401E+02  0.43400719712E+02  0.00000000000E+00 0.  1.
         11    1    4    4    0    0  0.32907992490E+01  0.17944696325E+02  0.19790152936E+02  0.26916382361E+02  0.51100000000E-03 0. -1.
        -11    1    4    4    0    0  0.14886735730E+01  0.23352667530E+01 -0.33447391651E+00  0.27895327344E+01  0.51100000000E-03 0.  1.
         12    1    4    4    0    0  0.59337434016E+01  0.56917580722E+00  0.17070515381E+02  0.18081365192E+02  0.00000000000E+00 0. -1.
</event>
<event>
 8    1  0.8600524E-011  0.9118800E+02  0.7816164E-02  0.1184000E+00
        -11   -1    0    0    0    0  0.00000000000E+00  0.00000000000E+00  0.45593999997E+02  0.45594000000E+02  0.51100000000E-03 0. -1.
         11   -1    0    0    0    0 -0.00000000000E+00 -0.00000000000E+00 -0.45593999997E+02  0.45594000000E+02  0.51100000000E-03 0.  1.
         23    2    1    2    0    0  0.22204460493E-15  0.00000000000E+00  0.71054273576E-14  0.91188000000E+02  0.91188000000E+02 0.  0.
    9900012    2    3    3    0    0 -0.15083666817E+01 -0.10209640150E+02  0.42155793009E+02  0.47787276432E+02  0.20000024563E+02 0.  0.
        -12    1    3    3    0    0  0.15083666817E+01  0.10209640150E+02 -0.42155793009E+02  0.43400723568E+02  0.00000000000E+00 0.  1.
         11    1    4    4    0    0 -0.55006823666E+01 -0.13064247544E+02  0.23120104230E+02  0.27119573932E+02  0.51100000000E-03 0. -1.
        -11    1    4    4    0    0 -0.98276468572E+00 -0.10815549620E+01  0.59291114554E+01  0.61065498012E+01  0.51100000000E-03 0.  1.
         12    1    4    4    0    0  0.49750803706E+01  0.39361623556E+01  0.13106577324E+02  0.14561152699E+02  0.00000000000E+00 0. -1.
</event>
<event>
 8    1  0.8600524E-011  0.9118800E+02  0.7816164E-02  0.1184000E+00
        -11   -1    0    0    0    0  0.00000000000E+00  0.00000000000E+00  0.45593999997E+02  0.45594000000E+02  0.51100000000E-03 0. -1.
         11   -1    0    0    0    0 -0.00000000000E+00 -0.00000000000E+00 -0.45593999997E+02  0.45594000000E+02  0.51100000000E-03 0.  1.
         23    2    1    2    0    0  0.00000000000E+00 -0.35527136788E-14  0.00000000000E+00  0.91188000000E+02  0.91188000000E+02 0.  0.
    9900012    2    3    3    0    0 -0.29479077814E+02 -0.30704934499E+02  0.84743278059E+01  0.47787271168E+02  0.20000000564E+02 0.  0.
         12    1    3    3    0    0  0.29479077814E+02  0.30704934499E+02 -0.84743278059E+01  0.43400728832E+02  0.00000000000E+00 0. -1.
         11    1    4    4    0    0 -0.54441913577E+01 -0.77264800629E+00  0.31497255931E+00  0.55077592954E+01  0.51100000000E-03 0. -1.
        -11    1    4    4    0    0 -0.64656257086E+01 -0.13765959504E+02  0.10207358982E+02  0.18316553565E+02  0.51100000000E-03 0.  1.
        -12    1    4    4    0    0 -0.17569260748E+02 -0.16166326989E+02 -0.20480037356E+01  0.23962958307E+02  0.00000000000E+00 0.  1.
</event>
<event>
 8    1  0.8600524E-011  0.9118800E+02  0.7816164E-02  0.1184000E+00
        -11   -1    0    0    0    0  0.00000000000E+00  0.00000000000E+00  0.45593999997E+02  0.45594000000E+02  0.51100000000E-03 0. -1.
         11   -1    0    0    0    0 -0.00000000000E+00 -0.00000000000E+00 -0.45593999997E+02  0.45594000000E+02  0.51100000000E-03 0.  1.
         23    2    1    2    0    0  0.00000000000E+00  0.00000000000E+00  0.00000000000E+00  0.91188000000E+02  0.91188000000E+02 0.  0.
    9900012    2    3    3    0    0  0.31599887742E+02 -0.10961296287E+02  0.27657204491E+02  0.47787264040E+02  0.19999968066E+02 0.  0.
        -12    1    3    3    0    0 -0.31599887742E+02  0.10961296287E+02 -0.27657204491E+02  0.43400735960E+02  0.00000000000E+00 0.  1.
         11    1    4    4    0    0  0.13233442618E+02 -0.18242057360E+01  0.20508604401E+02  0.24475591613E+02  0.51100000000E-03 0. -1.
        -11    1    4    4    0    0  0.13834864802E+02 -0.10543278891E+02  0.62463065279E+01  0.18481898154E+02  0.51100000000E-03 0.  1.
        -12    1    4    4    0    0  0.45315803217E+01  0.14061883399E+01  0.90229356224E+00  0.48297742734E+01  0.00000000000E+00 0.  1.
</event>
<event>
 8    1  0.8600524E-011  0.9118800E+02  0.7816164E-02  0.1184000E+00
        -11   -1    0    0    0    0  0.00000000000E+00  0.00000000000E+00  0.45593999997E+02  0.45594000000E+02  0.51100000000E-03 0. -1.
         11   -1    0    0    0    0 -0.00000000000E+00 -0.00000000000E+00 -0.45593999997E+02  0.45594000000E+02  0.51100000000E-03 0.  1.
         23    2    1    2    0    0  0.00000000000E+00  0.00000000000E+00  0.17763568394E-14  0.91188000000E+02  0.91188000000E+02 0.  0.
    9900012    2    3    3    0    0  0.41447377761E+02  0.12329857246E+02  0.37030316931E+01  0.47787274814E+02  0.20000017186E+02 0.  0.
         12    1    3    3    0    0 -0.41447377761E+02 -0.12329857246E+02 -0.37030316931E+01  0.43400725186E+02  0.00000000000E+00 0. -1.
         11    1    4    4    0    0  0.14325009799E+02  0.66972840498E+01  0.10463709181E+02  0.18961770210E+02  0.51100000000E-03 0. -1.
        -11    1    4    4    0    0  0.12277024170E+02  0.42700621144E+01 -0.44541631057E+01  0.13740390175E+02  0.51100000000E-03 0.  1.
         12    1    4    4    0    0  0.14845343792E+02  0.13625110819E+01 -0.23065143822E+01  0.15085114429E+02  0.00000000000E+00 0. -1.
</event>
<event>
 8    1  0.8600524E-011  0.9118800E+02  0.7816164E-02  0.1184000E+00
        -11   -1    0    0    0    0  0.00000000000E+00  0.00000000000E+00  0.45593999997E+02  0.45594000000E+02  0.51100000000E-03 0. -1.
         11   -1    0    0    0    0 -0.00000000000E+00 -0.00000000000E+00 -0.45593999997E+02  0.45594000000E+02  0.51100000000E-03 0.  1.
         23    2    1    2    0    0  0.35527136788E-14  0.00000000000E+00  0.00000000000E+00  0.91188000000E+02  0.91188000000E+02 0.  0.
    9900012    2    3    3    0    0  0.27861039915E+02  0.66232622345E+01  0.32611629245E+02  0.47787268326E+02  0.19999987607E+02 0.  0.
        -12    1    3    3    0    0 -0.27861039915E+02 -0.66232622345E+01 -0.32611629245E+02  0.43400731674E+02  0.00000000000E+00 0.  1.
         11    1    4    4    0    0  0.18576297184E+01 -0.20024228764E+01  0.12703595312E+02  0.12993914716E+02  0.51100000000E-03 0. -1.
        -11    1    4    4    0    0  0.10386931741E+02  0.73641375444E+01  0.72533414444E+01  0.14653662857E+02  0.51100000000E-03 0.  1.
         12    1    4    4    0    0  0.15616478456E+02  0.12615475664E+01  0.12654692489E+02  0.20139690753E+02  0.00000000000E+00 0. -1.
</event>
<event>
 8    1  0.8600524E-011  0.9118800E+02  0.7816164E-02  0.1184000E+00
        -11   -1    0    0    0    0  0.00000000000E+00  0.00000000000E+00  0.45593999997E+02  0.45594000000E+02  0.51100000000E-03 0. -1.
         11   -1    0    0    0    0 -0.00000000000E+00 -0.00000000000E+00 -0.45593999997E+02  0.45594000000E+02  0.51100000000E-03 0.  1.
         23    2    1    2    0    0  0.00000000000E+00  0.22204460493E-15  0.00000000000E+00  0.91188000000E+02  0.91188000000E+02 0.  0.
    9900012    2    3    3    0    0  0.15701810249E+02 -0.10807091256E+01  0.40446370295E+02  0.47787266742E+02  0.19999980384E+02 0.  0.
        -12    1    3    3    0    0 -0.15701810249E+02  0.10807091256E+01 -0.40446370295E+02  0.43400733258E+02  0.00000000000E+00 0.  1.
         11    1    4    4    0    0  0.23407436019E+01  0.17869588234E+01  0.22403395793E+01  0.37001924461E+01  0.51100000000E-03 0. -1.
        -11    1    4    4    0    0  0.17963741040E+01  0.66075182830E+01  0.93647876722E+01  0.11601099353E+02  0.51100000000E-03 0.  1.
        -12    1    4    4    0    0  0.11564692543E+02 -0.94751862320E+01  0.28841243043E+02  0.32485974943E+02  0.00000000000E+00 0.  1.
</event>
<event>
 8    1  0.8600524E-011  0.9118800E+02  0.7816164E-02  0.1184000E+00
        -11   -1    0    0    0    0  0.00000000000E+00  0.00000000000E+00  0.45593999997E+02  0.45594000000E+02  0.51100000000E-03 0. -1.
         11   -1    0    0    0    0 -0.00000000000E+00 -0.00000000000E+00 -0.45593999997E+02  0.45594000000E+02  0.51100000000E-03 0.  1.
         23    2    1    2    0    0  0.00000000000E+00  0.17763568394E-14  0.35527136788E-14  0.91188000000E+02  0.91188000000E+02 0.  0.
    9900012    2    3    3    0    0  0.27598583386E+02  0.14892696694E+02  0.30002481567E+02  0.47787272818E+02  0.20000008086E+02 0.  0.
        -12    1    3    3    0    0 -0.27598583386E+02 -0.14892696694E+02 -0.30002481567E+02  0.43400727182E+02  0.00000000000E+00 0.  1.
         11    1    4    4    0    0  0.16525132993E+02  0.11348151693E+02  0.86803842337E+01  0.21845128473E+02  0.51100000000E-03 0. -1.
        -11    1    4    4    0    0  0.11790874037E+01  0.30514532727E+01  0.11636009811E+02  0.12087114575E+02  0.51100000000E-03 0.  1.
         12    1    4    4    0    0  0.98943629893E+01  0.49309172826E+00  0.96860875225E+01  0.13855029769E+02  0.00000000000E+00 0. -1.
</event>
<event>
 8    1  0.8600524E-011  0.9118800E+02  0.7816164E-02  0.1184000E+00
        -11   -1    0    0    0    0  0.00000000000E+00  0.00000000000E+00  0.45593999997E+02  0.45594000000E+02  0.51100000000E-03 0. -1.
         11   -1    0    0    0    0 -0.00000000000E+00 -0.00000000000E+00 -0.45593999997E+02  0.45594000000E+02  0.51100000000E-03 0.  1.
         23    2    1    2    0    0  0.00000000000E+00  0.35527136788E-14  0.00000000000E+00  0.91188000000E+02  0.91188000000E+02 0.  0.
    9900012    2    3    3    0    0 -0.83014072925E+01 -0.22963461699E+02  0.35880199343E+02  0.47787278334E+02  0.20000033237E+02 0.  0.
        -12    1    3    3    0    0  0.83014072925E+01  0.22963461699E+02 -0.35880199343E+02  0.43400721666E+02  0.00000000000E+00 0.  1.
         11    1    4    4    0    0 -0.34373244647E+01 -0.20635393624E+02  0.26379605083E+02  0.33667762534E+02  0.51100000000E-03 0. -1.
        -11    1    4    4    0    0 -0.44407619823E+01  0.22064288661E+01  0.78309327632E+01  0.92688836182E+01  0.51100000000E-03 0.  1.
         12    1    4    4    0    0 -0.42332084546E+00 -0.45344969414E+01  0.16696614971E+01  0.48506321819E+01  0.00000000000E+00 0. -1.
</event>
<event>
 8    1  0.8600524E-011  0.9118800E+02  0.7816164E-02  0.1184000E+00
        -11   -1    0    0    0    0  0.00000000000E+00  0.00000000000E+00  0.45593999997E+02  0.45594000000E+02  0.51100000000E-03 0.  1.
         11   -1    0    0    0    0 -0.00000000000E+00 -0.00000000000E+00 -0.45593999997E+02  0.45594000000E+02  0.51100000000E-03 0. -1.
         23    2    1    2    0    0  0.35527136788E-14  0.00000000000E+00  0.00000000000E+00  0.91188000000E+02  0.91188000000E+02 0.  0.
    9900012    2    3    3    0    0  0.29789232734E+02 -0.31292679221E+02 -0.41222643813E+01  0.47787271626E+02  0.20000002654E+02 0.  0.
         12    1    3    3    0    0 -0.29789232734E+02  0.31292679221E+02  0.41222643813E+01  0.43400728374E+02  0.00000000000E+00 0. -1.
         11    1    4    4    0    0 -0.16560995220E+00 -0.55423883715E+01  0.18338921585E+01  0.58402616574E+01  0.51100000000E-03 0. -1.
        -11    1    4    4    0    0  0.14133746577E+02 -0.67455322599E+01 -0.70936452564E+01  0.17192579825E+02  0.51100000000E-03 0.  1.
        -12    1    4    4    0    0  0.15821096109E+02 -0.19004758590E+02  0.11374887166E+01  0.24754430144E+02  0.00000000000E+00 0.  1.
</event>
<event>
 8    1  0.8600524E-011  0.9118800E+02  0.7816164E-02  0.1184000E+00
        -11   -1    0    0    0    0  0.00000000000E+00  0.00000000000E+00  0.45593999997E+02  0.45594000000E+02  0.51100000000E-03 0.  1.
         11   -1    0    0    0    0 -0.00000000000E+00 -0.00000000000E+00 -0.45593999997E+02  0.45594000000E+02  0.51100000000E-03 0. -1.
         23    2    1    2    0    0  0.00000000000E+00  0.35527136788E-14  0.00000000000E+00  0.91188000000E+02  0.91188000000E+02 0.  0.
    9900012    2    3    3    0    0  0.10258961029E+02 -0.22854223718E+02  0.35440958296E+02  0.47787270189E+02  0.19999996102E+02 0.  0.
        -12    1    3    3    0    0 -0.10258961029E+02  0.22854223718E+02 -0.35440958296E+02  0.43400729811E+02  0.00000000000E+00 0.  1.
         11    1    4    4    0    0 -0.24457921753E+01 -0.68335734356E+01  0.59006925354E+01  0.93540257603E+01  0.51100000000E-03 0. -1.
        -11    1    4    4    0    0  0.12474782256E+02 -0.73512299603E+01  0.24339541432E+02  0.28320911914E+02  0.51100000000E-03 0.  1.
        -12    1    4    4    0    0  0.22997094805E+00 -0.86694203219E+01  0.52007243289E+01  0.10112332515E+02  0.00000000000E+00 0.  1.
</event>
<event>
 8    1  0.8600524E-011  0.9118800E+02  0.7816164E-02  0.1184000E+00
        -11   -1    0    0    0    0  0.00000000000E+00  0.00000000000E+00  0.45593999997E+02  0.45594000000E+02  0.51100000000E-03 0. -1.
         11   -1    0    0    0    0 -0.00000000000E+00 -0.00000000000E+00 -0.45593999997E+02  0.45594000000E+02  0.51100000000E-03 0.  1.
         23    2    1    2    0    0  0.00000000000E+00 -0.35527136788E-14  0.00000000000E+00  0.91188000000E+02  0.91188000000E+02 0.  0.
    9900012    2    3    3    0    0 -0.12258668543E+02  0.22431749404E+02 -0.35073706581E+02  0.47787271561E+02  0.20000002354E+02 0.  0.
         12    1    3    3    0    0  0.12258668543E+02 -0.22431749404E+02  0.35073706581E+02  0.43400728439E+02  0.00000000000E+00 0. -1.
         11    1    4    4    0    0 -0.22479841762E+01  0.12471603413E+02 -0.49058947199E+01  0.13589044404E+02  0.51100000000E-03 0. -1.
        -11    1    4    4    0    0 -0.53519694234E+01  0.64945610536E+01 -0.93215258757E+01  0.12558413311E+02  0.51100000000E-03 0.  1.
         12    1    4    4    0    0 -0.46587149433E+01  0.34655849368E+01 -0.20846285985E+02  0.21639813845E+02  0.00000000000E+00 0. -1.
</event>
<event>
 8    1  0.8600524E-011  0.9118800E+02  0.7816164E-02  0.1184000E+00
        -11   -1    0    0    0    0  0.00000000000E+00  0.00000000000E+00  0.45593999997E+02  0.45594000000E+02  0.51100000000E-03 0. -1.
         11   -1    0    0    0    0 -0.00000000000E+00 -0.00000000000E+00 -0.45593999997E+02  0.45594000000E+02  0.51100000000E-03 0.  1.
         23    2    1    2    0    0  0.00000000000E+00  0.00000000000E+00 -0.35527136788E-14  0.91188000000E+02  0.91188000000E+02 0.  0.
    9900012    2    3    3    0    0 -0.28219917851E+02  0.19539284559E+02  0.26560791219E+02  0.47787273799E+02  0.20000012559E+02 0.  0.
        -12    1    3    3    0    0  0.28219917851E+02 -0.19539284559E+02 -0.26560791219E+02  0.43400726201E+02  0.00000000000E+00 0.  1.
         11    1    4    4    0    0 -0.22433171805E+02  0.14251106421E+02  0.22616586007E+02  0.34897724773E+02  0.51100000000E-03 0. -1.
        -11    1    4    4    0    0 -0.33908122701E+01 -0.54591699922E+00 -0.22047231850E+01  0.40812299378E+01  0.51100000000E-03 0.  1.
         12    1    4    4    0    0 -0.23959337763E+01  0.58340951374E+01  0.61489283966E+01  0.88083190882E+01  0.00000000000E+00 0. -1.
</event>
<event>
 8    1  0.8600524E-011  0.9118800E+02  0.7816164E-02  0.1184000E+00
        -11   -1    0    0    0    0  0.00000000000E+00  0.00000000000E+00  0.45593999997E+02  0.45594000000E+02  0.51100000000E-03 0. -1.
         11   -1    0    0    0    0 -0.00000000000E+00 -0.00000000000E+00 -0.45593999997E+02  0.45594000000E+02  0.51100000000E-03 0.  1.
         23    2    1    2    0    0  0.44408920985E-15 -0.71054273576E-14 -0.35527136788E-14  0.91188000000E+02  0.91188000000E+02 0.  0.
    9900012    2    3    3    0    0 -0.39312519738E+01  0.35792329224E+02  0.24229788162E+02  0.47787214204E+02  0.19999740838E+02 0.  0.
        -12    1    3    3    0    0  0.39312519738E+01 -0.35792329224E+02 -0.24229788162E+02  0.43400785796E+02  0.00000000000E+00 0.  1.
         11    1    4    4    0    0 -0.58807970578E+01  0.11192319357E+02  0.14006992445E+02  0.18869224262E+02  0.51100000000E-03 0. -1.
        -11    1    4    4    0    0  0.31643237977E+01  0.70362048399E+01 -0.13735184913E+01  0.78363050574E+01  0.51100000000E-03 0.  1.
         12    1    4    4    0    0 -0.12147787137E+01  0.17563805027E+02  0.11596314209E+02  0.21081684885E+02  0.00000000000E+00 0. -1.
</event>
<event>
 8    1  0.8600524E-011  0.9118800E+02  0.7816164E-02  0.1184000E+00
        -11   -1    0    0    0    0  0.00000000000E+00  0.00000000000E+00  0.45593999997E+02  0.45594000000E+02  0.51100000000E-03 0. -1.
         11   -1    0    0    0    0 -0.00000000000E+00 -0.00000000000E+00 -0.45593999997E+02  0.45594000000E+02  0.51100000000E-03 0.  1.
         23    2    1    2    0    0 -0.17763568394E-14  0.00000000000E+00 -0.22204460493E-14  0.91188000000E+02  0.91188000000E+02 0.  0.
    9900012    2    3    3    0    0  0.63534698886E+01 -0.42775907328E+02  0.36708624565E+01  0.47787308087E+02  0.20000168891E+02 0.  0.
        -12    1    3    3    0    0 -0.63534698886E+01  0.42775907328E+02 -0.36708624565E+01  0.43400691913E+02  0.00000000000E+00 0.  1.
         11    1    4    4    0    0  0.73588004652E+01 -0.27789181653E+02  0.73518934715E+01  0.29672224370E+02  0.51100000000E-03 0. -1.
        -11    1    4    4    0    0  0.38464035068E+00 -0.14176158188E+02 -0.59120443830E+01  0.15364363906E+02  0.51100000000E-03 0.  1.
        -12    1    4    4    0    0 -0.13899709273E+01 -0.81056748697E+00  0.22310133680E+01  0.27507198109E+01  0.00000000000E+00 0.  1.
</event>
<event>
 8    1  0.8600524E-011  0.9118800E+02  0.7816164E-02  0.1184000E+00
        -11   -1    0    0    0    0  0.00000000000E+00  0.00000000000E+00  0.45593999997E+02  0.45594000000E+02  0.51100000000E-03 0. -1.
         11   -1    0    0    0    0 -0.00000000000E+00 -0.00000000000E+00 -0.45593999997E+02  0.45594000000E+02  0.51100000000E-03 0.  1.
         23    2    1    2    0    0  0.00000000000E+00  0.00000000000E+00  0.00000000000E+00  0.91188000000E+02  0.91188000000E+02 0.  0.
    9900012    2    3    3    0    0  0.25003984553E+02  0.16703300034E+02  0.31295748235E+02  0.47787270362E+02  0.19999996888E+02 0.  0.
        -12    1    3    3    0    0 -0.25003984553E+02 -0.16703300034E+02 -0.31295748235E+02  0.43400729638E+02  0.00000000000E+00 0.  1.
         11    1    4    4    0    0  0.20215212318E+02  0.36326261079E+01  0.22092965522E+02  0.30165375969E+02  0.51100000000E-03 0. -1.
        -11    1    4    4    0    0  0.54497649419E+01  0.99251028552E+01  0.51226371124E+01  0.12427751842E+02  0.51100000000E-03 0.  1.
         12    1    4    4    0    0 -0.66099270718E+00  0.31455710707E+01  0.40801456002E+01  0.51941425508E+01  0.00000000000E+00 0. -1.
</event>
<event>
 8    1  0.8600524E-011  0.9118800E+02  0.7816164E-02  0.1184000E+00
        -11   -1    0    0    0    0  0.00000000000E+00  0.00000000000E+00  0.45593999997E+02  0.45594000000E+02  0.51100000000E-03 0. -1.
         11   -1    0    0    0    0 -0.00000000000E+00 -0.00000000000E+00 -0.45593999997E+02  0.45594000000E+02  0.51100000000E-03 0.  1.
         23    2    1    2    0    0  0.00000000000E+00  0.44408920985E-15  0.00000000000E+00  0.91188000000E+02  0.91188000000E+02 0.  0.
    9900012    2    3    3    0    0 -0.24532547303E+02  0.19324687575E+01 -0.35749731137E+02  0.47787267414E+02  0.19999983446E+02 0.  0.
         12    1    3    3    0    0  0.24532547303E+02 -0.19324687575E+01  0.35749731137E+02  0.43400732586E+02  0.00000000000E+00 0. -1.
         11    1    4    4    0    0 -0.83436688493E+00  0.50188954943E+01 -0.11328035641E+02  0.12418126744E+02  0.51100000000E-03 0. -1.
        -11    1    4    4    0    0 -0.13111577685E+02 -0.35217256253E+01 -0.19310208104E+02  0.23605087546E+02  0.51100000000E-03 0.  1.
         12    1    4    4    0    0 -0.10586602733E+02  0.43529888860E+00 -0.51114873916E+01  0.11764053124E+02  0.00000000000E+00 0. -1.
</event>
<event>
 8    1  0.8600524E-011  0.9118800E+02  0.7816164E-02  0.1184000E+00
        -11   -1    0    0    0    0  0.00000000000E+00  0.00000000000E+00  0.45593999997E+02  0.45594000000E+02  0.51100000000E-03 0. -1.
         11   -1    0    0    0    0 -0.00000000000E+00 -0.00000000000E+00 -0.45593999997E+02  0.45594000000E+02  0.51100000000E-03 0.  1.
         23    2    1    2    0    0  0.00000000000E+00  0.00000000000E+00  0.00000000000E+00  0.91188000000E+02  0.91188000000E+02 0.  0.
    9900012    2    3    3    0    0 -0.15492333237E+02 -0.29406644066E+02 -0.27908066873E+02  0.47787270732E+02  0.19999998577E+02 0.  0.
         12    1    3    3    0    0  0.15492333237E+02  0.29406644066E+02  0.27908066873E+02  0.43400729268E+02  0.00000000000E+00 0. -1.
         11    1    4    4    0    0 -0.51026411511E+01 -0.15280835831E+02 -0.19460594565E+02  0.25263721648E+02  0.51100000000E-03 0. -1.
        -11    1    4    4    0    0 -0.44905824617E+01 -0.73375816382E+01 -0.10218508378E+02  0.13357520312E+02  0.51100000000E-03 0.  1.
         12    1    4    4    0    0 -0.58991096245E+01 -0.67882265966E+01  0.17710360705E+01  0.91660287721E+01  0.00000000000E+00 0. -1.
</event>
<event>
 8    1  0.8600524E-011  0.9118800E+02  0.7816164E-02  0.1184000E+00
        -11   -1    0    0    0    0  0.00000000000E+00  0.00000000000E+00  0.45593999997E+02  0.45594000000E+02  0.51100000000E-03 0. -1.
         11   -1    0    0    0    0 -0.00000000000E+00 -0.00000000000E+00 -0.45593999997E+02  0.45594000000E+02  0.51100000000E-03 0.  1.
         23    2    1    2    0    0  0.17763568394E-14  0.00000000000E+00  0.35527136788E-14  0.91188000000E+02  0.91188000000E+02 0.  0.
    9900012    2    3    3    0    0  0.95128517853E+01  0.38547952363E+02  0.17526673448E+02  0.47787271174E+02  0.20000000592E+02 0.  0.
        -12    1    3    3    0    0 -0.95128517853E+01 -0.38547952363E+02 -0.17526673448E+02  0.43400728826E+02  0.00000000000E+00 0.  1.
         11    1    4    4    0    0  0.56266210765E+01  0.15421969291E+02  0.48864966913E+01  0.17128159613E+02  0.51100000000E-03 0. -1.
        -11    1    4    4    0    0  0.45546847080E+01  0.14233096242E+02 -0.29579144246E+00  0.14947028944E+02  0.51100000000E-03 0.  1.
        -12    1    4    4    0    0 -0.66845399926E+00  0.88928868299E+01  0.12935968199E+02  0.15712082617E+02  0.00000000000E+00 0.  1.
</event>
<event>
 8    1  0.8600524E-011  0.9118800E+02  0.7816164E-02  0.1184000E+00
        -11   -1    0    0    0    0  0.00000000000E+00  0.00000000000E+00  0.45593999997E+02  0.45594000000E+02  0.51100000000E-03 0. -1.
         11   -1    0    0    0    0 -0.00000000000E+00 -0.00000000000E+00 -0.45593999997E+02  0.45594000000E+02  0.51100000000E-03 0.  1.
         23    2    1    2    0    0  0.71054273576E-14 -0.12767564783E-14  0.00000000000E+00  0.91188000000E+02  0.91188000000E+02 0.  0.
    9900012    2    3    3    0    0  0.34740242854E+02  0.37001280247E+00  0.26011557731E+02  0.47787279745E+02  0.20000039668E+02 0.  0.
        -12    1    3    3    0    0 -0.34740242854E+02 -0.37001280247E+00 -0.26011557731E+02  0.43400720255E+02  0.00000000000E+00 0.  1.
         11    1    4    4    0    0  0.16692117952E+02 -0.72260311922E+01  0.15530014175E+02  0.23917016308E+02  0.51100000000E-03 0. -1.
        -11    1    4    4    0    0  0.18618667991E+02  0.84022380585E+01  0.10257229113E+02  0.22857452866E+02  0.51100000000E-03 0.  1.
        -12    1    4    4    0    0 -0.57054308870E+00 -0.80619406382E+00  0.22431444277E+00  0.10128105715E+01  0.00000000000E+00 0.  1.
</event>
<event>
 8    1  0.8600524E-011  0.9118800E+02  0.7816164E-02  0.1184000E+00
        -11   -1    0    0    0    0  0.00000000000E+00  0.00000000000E+00  0.45593999997E+02  0.45594000000E+02  0.51100000000E-03 0. -1.
         11   -1    0    0    0    0 -0.00000000000E+00 -0.00000000000E+00 -0.45593999997E+02  0.45594000000E+02  0.51100000000E-03 0.  1.
         23    2    1    2    0    0 -0.35527136788E-14 -0.44408920985E-15  0.00000000000E+00  0.91188000000E+02  0.91188000000E+02 0.  0.
    9900012    2    3    3    0    0 -0.24379516662E+02 -0.68842084747E+00 -0.35899694043E+02  0.47787276638E+02  0.20000025505E+02 0.  0.
         12    1    3    3    0    0  0.24379516662E+02  0.68842084747E+00  0.35899694043E+02  0.43400723362E+02  0.00000000000E+00 0. -1.
         11    1    4    4    0    0 -0.17594950570E+02 -0.35225047233E+01 -0.30757112021E+02  0.35608850939E+02  0.51100000000E-03 0. -1.
        -11    1    4    4    0    0 -0.48767645987E+01  0.57165732630E+01 -0.41408405730E+01  0.85795456601E+01  0.51100000000E-03 0.  1.
         12    1    4    4    0    0 -0.19078014932E+01 -0.28824893872E+01 -0.10017414491E+01  0.35988800391E+01  0.00000000000E+00 0. -1.
</event>
<event>
 8    1  0.8600524E-011  0.9118800E+02  0.7816164E-02  0.1184000E+00
        -11   -1    0    0    0    0  0.00000000000E+00  0.00000000000E+00  0.45593999997E+02  0.45594000000E+02  0.51100000000E-03 0. -1.
         11   -1    0    0    0    0 -0.00000000000E+00 -0.00000000000E+00 -0.45593999997E+02  0.45594000000E+02  0.51100000000E-03 0.  1.
         23    2    1    2    0    0  0.00000000000E+00 -0.17763568394E-14 -0.35527136788E-14  0.91188000000E+02  0.91188000000E+02 0.  0.
    9900012    2    3    3    0    0  0.27070282569E+02  0.14253879899E+02  0.30783920696E+02  0.47787273463E+02  0.20000011028E+02 0.  0.
        -12    1    3    3    0    0 -0.27070282569E+02 -0.14253879899E+02 -0.30783920696E+02  0.43400726537E+02  0.00000000000E+00 0.  1.
         11    1    4    4    0    0  0.61602044190E+01 -0.43908789270E+01  0.84437999722E+01  0.11336917326E+02  0.51100000000E-03 0. -1.
        -11    1    4    4    0    0  0.13543344933E+02  0.12658814950E+02  0.18562322887E+02  0.26234092688E+02  0.51100000000E-03 0.  1.
        -12    1    4    4    0    0  0.73667332163E+01  0.59859438759E+01  0.37777978366E+01  0.10216263449E+02  0.00000000000E+00 0.  1.
</event>
<event>
 8    1  0.8600524E-011  0.9118800E+02  0.7816164E-02  0.1184000E+00
        -11   -1    0    0    0    0  0.00000000000E+00  0.00000000000E+00  0.45593999997E+02  0.45594000000E+02  0.51100000000E-03 0. -1.
         11   -1    0    0    0    0 -0.00000000000E+00 -0.00000000000E+00 -0.45593999997E+02  0.45594000000E+02  0.51100000000E-03 0.  1.
         23    2    1    2    0    0 -0.22204460493E-15 -0.22204460493E-15  0.00000000000E+00  0.91188000000E+02  0.91188000000E+02 0.  0.
    9900012    2    3    3    0    0 -0.12038233971E+01 -0.62203238084E+00  0.43379569875E+02  0.47787271923E+02  0.20000004006E+02 0.  0.
        -12    1    3    3    0    0  0.12038233971E+01  0.62203238084E+00 -0.43379569875E+02  0.43400728077E+02  0.00000000000E+00 0.  1.
         11    1    4    4    0    0 -0.46913592684E+01 -0.24697385841E+01  0.96910618011E+01  0.11046498973E+02  0.51100000000E-03 0. -1.
        -11    1    4    4    0    0  0.42483429115E+01  0.71895264670E+01  0.26284909537E+02  0.27579597131E+02  0.51100000000E-03 0.  1.
        -12    1    4    4    0    0 -0.76080704015E+00 -0.53418202638E+01  0.74035985373E+01  0.91611758189E+01  0.00000000000E+00 0.  1.
</event>
<event>
 8    1  0.8600524E-011  0.9118800E+02  0.7816164E-02  0.1184000E+00
        -11   -1    0    0    0    0  0.00000000000E+00  0.00000000000E+00  0.45593999997E+02  0.45594000000E+02  0.51100000000E-03 0. -1.
         11   -1    0    0    0    0 -0.00000000000E+00 -0.00000000000E+00 -0.45593999997E+02  0.45594000000E+02  0.51100000000E-03 0.  1.
         23    2    1    2    0    0 -0.17763568394E-14  0.00000000000E+00  0.00000000000E+00  0.91188000000E+02  0.91188000000E+02 0.  0.
    9900012    2    3    3    0    0 -0.14327223704E+02 -0.19244586251E+02 -0.36166269722E+02  0.47787279907E+02  0.20000040408E+02 0.  0.
         12    1    3    3    0    0  0.14327223704E+02  0.19244586251E+02  0.36166269722E+02  0.43400720093E+02  0.00000000000E+00 0. -1.
         11    1    4    4    0    0 -0.23895217444E+01  0.21006203640E+01  0.19491141640E+00  0.31875399295E+01  0.51100000000E-03 0. -1.
        -11    1    4    4    0    0 -0.27880892311E+01 -0.11137117570E+02 -0.21555610813E+02  0.24422391101E+02  0.51100000000E-03 0.  1.
        -12    1    4    4    0    0 -0.91496127280E+01 -0.10208089045E+02 -0.14805570325E+02  0.20177348876E+02  0.00000000000E+00 0.  1.
</event>
<event>
 8    1  0.8600524E-011  0.9118800E+02  0.7816164E-02  0.1184000E+00
        -11   -1    0    0    0    0  0.00000000000E+00  0.00000000000E+00  0.45593999997E+02  0.45594000000E+02  0.51100000000E-03 0. -1.
         11   -1    0    0    0    0 -0.00000000000E+00 -0.00000000000E+00 -0.45593999997E+02  0.45594000000E+02  0.51100000000E-03 0.  1.
         23    2    1    2    0    0  0.00000000000E+00  0.00000000000E+00  0.00000000000E+00  0.91188000000E+02  0.91188000000E+02 0.  0.
    9900012    2    3    3    0    0 -0.14302835333E+01 -0.27813812543E+02 -0.33286175563E+02  0.47787270020E+02  0.19999995331E+02 0.  0.
         12    1    3    3    0    0  0.14302835333E+01  0.27813812543E+02  0.33286175563E+02  0.43400729980E+02  0.00000000000E+00 0. -1.
         11    1    4    4    0    0  0.35037798210E+01  0.10887508575E+01 -0.17082703551E+01  0.40472261279E+01  0.51100000000E-03 0. -1.
        -11    1    4    4    0    0 -0.29698863910E+01 -0.20282309251E+02 -0.26638840207E+02  0.33612796694E+02  0.51100000000E-03 0.  1.
        -12    1    4    4    0    0 -0.19641769632E+01 -0.86202541496E+01 -0.49390650006E+01  0.10127247199E+02  0.00000000000E+00 0.  1.
</event>
<event>
 8    1  0.8600524E-011  0.9118800E+02  0.7816164E-02  0.1184000E+00
        -11   -1    0    0    0    0  0.00000000000E+00  0.00000000000E+00  0.45593999997E+02  0.45594000000E+02  0.51100000000E-03 0. -1.
         11   -1    0    0    0    0 -0.00000000000E+00 -0.00000000000E+00 -0.45593999997E+02  0.45594000000E+02  0.51100000000E-03 0.  1.
         23    2    1    2    0    0  0.00000000000E+00  0.00000000000E+00  0.00000000000E+00  0.91188000000E+02  0.91188000000E+02 0.  0.
    9900012    2    3    3    0    0 -0.86973286795E+01  0.10105350119E+02  0.41302080248E+02  0.47787268900E+02  0.19999990225E+02 0.  0.
        -12    1    3    3    0    0  0.86973286795E+01 -0.10105350119E+02 -0.41302080248E+02  0.43400731100E+02  0.00000000000E+00 0.  1.
         11    1    4    4    0    0  0.42344873086E+01 -0.48341366402E+00  0.13756123973E+02  0.14401233231E+02  0.51100000000E-03 0. -1.
        -11    1    4    4    0    0 -0.35849478217E+01  0.77942202604E+01  0.16856256802E+02  0.18913886802E+02  0.51100000000E-03 0.  1.
         12    1    4    4    0    0 -0.93468681663E+01  0.27945435230E+01  0.10689699473E+02  0.14472148867E+02  0.00000000000E+00 0. -1.
</event>
<event>
 8    1  0.8600524E-011  0.9118800E+02  0.7816164E-02  0.1184000E+00
        -11   -1    0    0    0    0  0.00000000000E+00  0.00000000000E+00  0.45593999997E+02  0.45594000000E+02  0.51100000000E-03 0. -1.
         11   -1    0    0    0    0 -0.00000000000E+00 -0.00000000000E+00 -0.45593999997E+02  0.45594000000E+02  0.51100000000E-03 0.  1.
         23    2    1    2    0    0  0.00000000000E+00  0.00000000000E+00  0.00000000000E+00  0.91188000000E+02  0.91188000000E+02 0.  0.
    9900012    2    3    3    0    0  0.20646198190E+02  0.40787923134E+01 -0.37956832124E+02  0.47787272457E+02  0.20000006439E+02 0.  0.
         12    1    3    3    0    0 -0.20646198190E+02 -0.40787923134E+01  0.37956832124E+02  0.43400727543E+02  0.00000000000E+00 0. -1.
         11    1    4    4    0    0  0.76705406461E+01  0.49333102038E+01 -0.27402562474E+01  0.95228014750E+01  0.51100000000E-03 0. -1.
        -11    1    4    4    0    0  0.12818031478E+02 -0.21353204701E+01 -0.27199803265E+02  0.30144499040E+02  0.51100000000E-03 0.  1.
         12    1    4    4    0    0  0.15762606537E+00  0.12808025797E+01 -0.80167726113E+01  0.81199719412E+01  0.00000000000E+00 0. -1.
</event>
<event>
 8    1  0.8600524E-011  0.9118800E+02  0.7816164E-02  0.1184000E+00
        -11   -1    0    0    0    0  0.00000000000E+00  0.00000000000E+00  0.45593999997E+02  0.45594000000E+02  0.51100000000E-03 0. -1.
         11   -1    0    0    0    0 -0.00000000000E+00 -0.00000000000E+00 -0.45593999997E+02  0.45594000000E+02  0.51100000000E-03 0.  1.
         23    2    1    2    0    0  0.00000000000E+00  0.17763568394E-14 -0.71054273576E-14  0.91188000000E+02  0.91188000000E+02 0.  0.
    9900012    2    3    3    0    0 -0.23311223593E+02  0.10739191826E+02 -0.34998289866E+02  0.47787266365E+02  0.19999978665E+02 0.  0.
         12    1    3    3    0    0  0.23311223593E+02 -0.10739191826E+02  0.34998289866E+02  0.43400733635E+02  0.00000000000E+00 0. -1.
         11    1    4    4    0    0 -0.78657125654E+01  0.12679695305E+02 -0.10188842035E+02  0.18068110290E+02  0.51100000000E-03 0. -1.
        -11    1    4    4    0    0 -0.12725885528E+02 -0.16753262771E+01 -0.23289371072E+02  0.26592286209E+02  0.51100000000E-03 0.  1.
        -12    1    4    4    0    0 -0.27196254996E+01 -0.26517720201E+00 -0.15200767592E+01  0.31268698662E+01  0.00000000000E+00 0.  1.
</event>
<event>
 8    1  0.8600524E-011  0.9118800E+02  0.7816164E-02  0.1184000E+00
        -11   -1    0    0    0    0  0.00000000000E+00  0.00000000000E+00  0.45593999997E+02  0.45594000000E+02  0.51100000000E-03 0. -1.
         11   -1    0    0    0    0 -0.00000000000E+00 -0.00000000000E+00 -0.45593999997E+02  0.45594000000E+02  0.51100000000E-03 0.  1.
         23    2    1    2    0    0  0.71054273576E-14  0.00000000000E+00  0.00000000000E+00  0.91188000000E+02  0.91188000000E+02 0.  0.
    9900012    2    3    3    0    0 -0.19689597292E+02  0.32780736375E+02  0.20527209887E+02  0.47787271152E+02  0.20000000489E+02 0.  0.
        -12    1    3    3    0    0  0.19689597292E+02 -0.32780736375E+02 -0.20527209887E+02  0.43400728848E+02  0.00000000000E+00 0.  1.
         11    1    4    4    0    0 -0.10383023497E+02  0.94842970938E+01  0.77090516555E+01  0.16037099052E+02  0.51100000000E-03 0. -1.
        -11    1    4    4    0    0 -0.10939673194E+01  0.87602966889E-01 -0.25168360762E+01  0.27457062610E+01  0.51100000000E-03 0.  1.
        -12    1    4    4    0    0 -0.82126064750E+01  0.23208836315E+02  0.15334994308E+02  0.29004465839E+02  0.00000000000E+00 0.  1.
</event>
<event>
 8    1  0.8600524E-011  0.9118800E+02  0.7816164E-02  0.1184000E+00
        -11   -1    0    0    0    0  0.00000000000E+00  0.00000000000E+00  0.45593999997E+02  0.45594000000E+02  0.51100000000E-03 0. -1.
         11   -1    0    0    0    0 -0.00000000000E+00 -0.00000000000E+00 -0.45593999997E+02  0.45594000000E+02  0.51100000000E-03 0.  1.
         23    2    1    2    0    0  0.00000000000E+00  0.00000000000E+00  0.00000000000E+00  0.91188000000E+02  0.91188000000E+02 0.  0.
    9900012    2    3    3    0    0  0.25929850642E+02 -0.16764157923E+02 -0.30499657692E+02  0.47787271152E+02  0.20000000492E+02 0.  0.
         12    1    3    3    0    0 -0.25929850642E+02  0.16764157923E+02  0.30499657692E+02  0.43400728848E+02  0.00000000000E+00 0. -1.
         11    1    4    4    0    0  0.16785969762E+02 -0.80148805049E+01 -0.10171751632E+02  0.21200745785E+02  0.51100000000E-03 0.  1.
        -11    1    4    4    0    0  0.57169849135E-01  0.25974596369E+01 -0.30095291744E+01  0.39758434413E+01  0.51100000000E-03 0. -1.
         12    1    4    4    0    0  0.90867110309E+01 -0.11346737055E+02 -0.17318376886E+02  0.22610681926E+02  0.00000000000E+00 0. -1.
</event>
<event>
 8    1  0.8600524E-011  0.9118800E+02  0.7816164E-02  0.1184000E+00
        -11   -1    0    0    0    0  0.00000000000E+00  0.00000000000E+00  0.45593999997E+02  0.45594000000E+02  0.51100000000E-03 0. -1.
         11   -1    0    0    0    0 -0.00000000000E+00 -0.00000000000E+00 -0.45593999997E+02  0.45594000000E+02  0.51100000000E-03 0.  1.
         23    2    1    2    0    0  0.00000000000E+00  0.35527136788E-14 -0.35527136788E-14  0.91188000000E+02  0.91188000000E+02 0.  0.
    9900012    2    3    3    0    0 -0.28051789718E+02  0.27519848613E+02  0.18422219644E+02  0.47787272464E+02  0.20000006472E+02 0.  0.
        -12    1    3    3    0    0  0.28051789718E+02 -0.27519848613E+02 -0.18422219644E+02  0.43400727536E+02  0.00000000000E+00 0.  1.
         11    1    4    4    0    0 -0.19880438558E+02  0.26745720388E+02  0.16912640517E+02  0.37371149378E+02  0.51100000000E-03 0. -1.
        -11    1    4    4    0    0 -0.24749987108E+01  0.70599500151E+00 -0.23901852763E+01  0.35124113479E+01  0.51100000000E-03 0.  1.
        -12    1    4    4    0    0 -0.56963524489E+01  0.68133223614E-01  0.38997644031E+01  0.69037117378E+01  0.00000000000E+00 0.  1.
</event>
<event>
 8    1  0.8600524E-011  0.9118800E+02  0.7816164E-02  0.1184000E+00
        -11   -1    0    0    0    0  0.00000000000E+00  0.00000000000E+00  0.45593999997E+02  0.45594000000E+02  0.51100000000E-03 0. -1.
         11   -1    0    0    0    0 -0.00000000000E+00 -0.00000000000E+00 -0.45593999997E+02  0.45594000000E+02  0.51100000000E-03 0.  1.
         23    2    1    2    0    0  0.17763568394E-14  0.88817841970E-15  0.71054273576E-14  0.91188000000E+02  0.91188000000E+02 0.  0.
    9900012    2    3    3    0    0 -0.13367871603E+02  0.44629720712E+01 -0.41048811086E+02  0.47787274171E+02  0.20000014257E+02 0.  0.
         12    1    3    3    0    0  0.13367871603E+02 -0.44629720712E+01  0.41048811086E+02  0.43400725829E+02  0.00000000000E+00 0. -1.
         11    1    4    4    0    0 -0.71858743581E+01  0.56882920347E+01 -0.27251968717E+02  0.28751752221E+02  0.51100000000E-03 0. -1.
        -11    1    4    4    0    0  0.29446824224E+00 -0.11342149804E+00 -0.12289612109E+02  0.12293662677E+02  0.51100000000E-03 0.  1.
         12    1    4    4    0    0 -0.64764654868E+01 -0.11118984655E+01 -0.15072302600E+01  0.67418592729E+01  0.00000000000E+00 0. -1.
</event>
<event>
 8    1  0.8600524E-011  0.9118800E+02  0.7816164E-02  0.1184000E+00
        -11   -1    0    0    0    0  0.00000000000E+00  0.00000000000E+00  0.45593999997E+02  0.45594000000E+02  0.51100000000E-03 0. -1.
         11   -1    0    0    0    0 -0.00000000000E+00 -0.00000000000E+00 -0.45593999997E+02  0.45594000000E+02  0.51100000000E-03 0.  1.
         23    2    1    2    0    0 -0.17763568394E-14  0.00000000000E+00 -0.35527136788E-14  0.91188000000E+02  0.91188000000E+02 0.  0.
    9900012    2    3    3    0    0 -0.13855410530E+02  0.26029510370E+02  0.31845169087E+02  0.47787278747E+02  0.20000035121E+02 0.  0.
        -12    1    3    3    0    0  0.13855410530E+02 -0.26029510370E+02 -0.31845169087E+02  0.43400721253E+02  0.00000000000E+00 0.  1.
         11    1    4    4    0    0  0.17082949404E+01  0.92101710890E+01  0.33325408116E+01  0.99424017025E+01  0.51100000000E-03 0. -1.
        -11    1    4    4    0    0 -0.10721256705E+02  0.11661284974E+02  0.25785415937E+02  0.30262494740E+02  0.51100000000E-03 0.  1.
        -12    1    4    4    0    0 -0.48424487650E+01  0.51580543069E+01  0.27272123379E+01  0.75823823045E+01  0.00000000000E+00 0.  1.
</event>
<event>
 8    1  0.8600524E-011  0.9118800E+02  0.7816164E-02  0.1184000E+00
        -11   -1    0    0    0    0  0.00000000000E+00  0.00000000000E+00  0.45593999997E+02  0.45594000000E+02  0.51100000000E-03 0. -1.
         11   -1    0    0    0    0 -0.00000000000E+00 -0.00000000000E+00 -0.45593999997E+02  0.45594000000E+02  0.51100000000E-03 0.  1.
         23    2    1    2    0    0  0.00000000000E+00  0.00000000000E+00  0.00000000000E+00  0.91188000000E+02  0.91188000000E+02 0.  0.
    9900012    2    3    3    0    0 -0.66946754378E+01  0.23514827196E+02  0.35858857912E+02  0.47787268808E+02  0.19999989801E+02 0.  0.
        -12    1    3    3    0    0  0.66946754378E+01 -0.23514827196E+02 -0.35858857912E+02  0.43400731192E+02  0.00000000000E+00 0.  1.
         11    1    4    4    0    0 -0.12504280618E+01  0.14319890782E+02  0.32661141936E+02  0.35684352806E+02  0.51100000000E-03 0. -1.
        -11    1    4    4    0    0 -0.11389581441E+01  0.57778367916E+01  0.31779727847E+00  0.58975943414E+01  0.51100000000E-03 0.  1.
         12    1    4    4    0    0 -0.43052892319E+01  0.34170996226E+01  0.28799186974E+01  0.62053216600E+01  0.00000000000E+00 0. -1.
</event>
<event>
 8    1  0.8600524E-011  0.9118800E+02  0.7816164E-02  0.1184000E+00
        -11   -1    0    0    0    0  0.00000000000E+00  0.00000000000E+00  0.45593999997E+02  0.45594000000E+02  0.51100000000E-03 0. -1.
         11   -1    0    0    0    0 -0.00000000000E+00 -0.00000000000E+00 -0.45593999997E+02  0.45594000000E+02  0.51100000000E-03 0.  1.
         23    2    1    2    0    0  0.00000000000E+00  0.00000000000E+00  0.00000000000E+00  0.91188000000E+02  0.91188000000E+02 0.  0.
    9900012    2    3    3    0    0  0.19673372770E+02  0.14804103293E+02 -0.35741011230E+02  0.47787274728E+02  0.20000016793E+02 0.  0.
         12    1    3    3    0    0 -0.19673372770E+02 -0.14804103293E+02  0.35741011230E+02  0.43400725272E+02  0.00000000000E+00 0. -1.
         11    1    4    4    0    0  0.19974503950E+01 -0.17930101682E+01  0.13696990107E+01  0.30134314634E+01  0.51100000000E-03 0. -1.
        -11    1    4    4    0    0  0.14183363500E+02  0.96943440599E+01 -0.23372433710E+02  0.29007219183E+02  0.51100000000E-03 0.  1.
        -12    1    4    4    0    0  0.34925588749E+01  0.69027694011E+01 -0.13738276530E+02  0.15766624081E+02  0.00000000000E+00 0.  1.
</event>
<event>
 8    1  0.8600524E-011  0.9118800E+02  0.7816164E-02  0.1184000E+00
        -11   -1    0    0    0    0  0.00000000000E+00  0.00000000000E+00  0.45593999997E+02  0.45594000000E+02  0.51100000000E-03 0. -1.
         11   -1    0    0    0    0 -0.00000000000E+00 -0.00000000000E+00 -0.45593999997E+02  0.45594000000E+02  0.51100000000E-03 0.  1.
         23    2    1    2    0    0  0.00000000000E+00 -0.71054273576E-14  0.55511151231E-16  0.91188000000E+02  0.91188000000E+02 0.  0.
    9900012    2    3    3    0    0  0.12433528735E+02 -0.41580152259E+02  0.34814504614E+00  0.47787275310E+02  0.20000019448E+02 0.  0.
        -12    1    3    3    0    0 -0.12433528735E+02  0.41580152259E+02 -0.34814504614E+00  0.43400724690E+02  0.00000000000E+00 0.  1.
         11    1    4    4    0    0  0.12014775697E+02 -0.18345749336E+02  0.44143746539E+01  0.22369802360E+02  0.51100000000E-03 0. -1.
        -11    1    4    4    0    0  0.47167773633E+01 -0.10232002911E+02 -0.31179847619E+01  0.11690325124E+02  0.51100000000E-03 0.  1.
         12    1    4    4    0    0 -0.42980243254E+01 -0.13002400011E+02 -0.94824484578E+00  0.13727147826E+02  0.00000000000E+00 0. -1.
</event>
<event>
 8    1  0.8600524E-011  0.9118800E+02  0.7816164E-02  0.1184000E+00
        -11   -1    0    0    0    0  0.00000000000E+00  0.00000000000E+00  0.45593999997E+02  0.45594000000E+02  0.51100000000E-03 0. -1.
         11   -1    0    0    0    0 -0.00000000000E+00 -0.00000000000E+00 -0.45593999997E+02  0.45594000000E+02  0.51100000000E-03 0.  1.
         23    2    1    2    0    0  0.00000000000E+00 -0.44408920985E-15  0.00000000000E+00  0.91188000000E+02  0.91188000000E+02 0.  0.
    9900012    2    3    3    0    0 -0.88153580699E+01  0.12742490753E+01  0.42476924207E+02  0.47787270297E+02  0.19999996594E+02 0.  0.
        -12    1    3    3    0    0  0.88153580699E+01 -0.12742490753E+01 -0.42476924207E+02  0.43400729703E+02  0.00000000000E+00 0.  1.
         11    1    4    4    0    0 -0.10635170028E+02 -0.46009679907E+01  0.14088577962E+02  0.18241813978E+02  0.51100000000E-03 0. -1.
        -11    1    4    4    0    0 -0.85114643821E+00  0.53880883406E+01  0.19846735417E+02  0.20582731917E+02  0.51100000000E-03 0.  1.
         12    1    4    4    0    0  0.26709583961E+01  0.48712872537E+00  0.85416108288E+01  0.89627244016E+01  0.00000000000E+00 0. -1.
</event>
<event>
 8    1  0.8600524E-011  0.9118800E+02  0.7816164E-02  0.1184000E+00
        -11   -1    0    0    0    0  0.00000000000E+00  0.00000000000E+00  0.45593999997E+02  0.45594000000E+02  0.51100000000E-03 0. -1.
         11   -1    0    0    0    0 -0.00000000000E+00 -0.00000000000E+00 -0.45593999997E+02  0.45594000000E+02  0.51100000000E-03 0.  1.
         23    2    1    2    0    0  0.00000000000E+00  0.71054273576E-14  0.00000000000E+00  0.91188000000E+02  0.91188000000E+02 0.  0.
    9900012    2    3    3    0    0 -0.11678901780E+02  0.34477014552E+02  0.23633915409E+02  0.47787271472E+02  0.20000001950E+02 0.  0.
        -12    1    3    3    0    0  0.11678901780E+02 -0.34477014552E+02 -0.23633915409E+02  0.43400728528E+02  0.00000000000E+00 0.  1.
         11    1    4    4    0    0 -0.37134543086E+01  0.16259511966E+02  0.22947394068E+01  0.16835299269E+02  0.51100000000E-03 0. -1.
        -11    1    4    4    0    0 -0.80254147808E+01  0.19523109871E+02  0.20242827665E+02  0.29246045434E+02  0.51100000000E-03 0.  1.
        -12    1    4    4    0    0  0.59967309360E-01 -0.13056072852E+01  0.10963483375E+01  0.17059267683E+01  0.00000000000E+00 0.  1.
</event>
<event>
 8    1  0.8600524E-011  0.9118800E+02  0.7816164E-02  0.1184000E+00
        -11   -1    0    0    0    0  0.00000000000E+00  0.00000000000E+00  0.45593999997E+02  0.45594000000E+02  0.51100000000E-03 0. -1.
         11   -1    0    0    0    0 -0.00000000000E+00 -0.00000000000E+00 -0.45593999997E+02  0.45594000000E+02  0.51100000000E-03 0.  1.
         23    2    1    2    0    0  0.00000000000E+00  0.00000000000E+00  0.00000000000E+00  0.91188000000E+02  0.91188000000E+02 0.  0.
    9900012    2    3    3    0    0 -0.76972288967E+01 -0.72524027504E+01  0.42092498810E+02  0.47787272652E+02  0.20000007327E+02 0.  0.
        -12    1    3    3    0    0  0.76972288967E+01  0.72524027504E+01 -0.42092498810E+02  0.43400727348E+02  0.00000000000E+00 0.  1.
         11    1    4    4    0    0 -0.30110064806E+01  0.54564669415E+01  0.19969047276E+02  0.20918939765E+02  0.51100000000E-03 0.  1.
        -11    1    4    4    0    0 -0.16377085672E+01 -0.10987810538E+02  0.13022143480E+02  0.17116959158E+02  0.51100000000E-03 0. -1.
        -12    1    4    4    0    0 -0.30485138488E+01 -0.17210591543E+01  0.91013080537E+01  0.97513737282E+01  0.00000000000E+00 0.  1.
</event>
<event>
 8    1  0.8600524E-011  0.9118800E+02  0.7816164E-02  0.1184000E+00
        -11   -1    0    0    0    0  0.00000000000E+00  0.00000000000E+00  0.45593999997E+02  0.45594000000E+02  0.51100000000E-03 0. -1.
         11   -1    0    0    0    0 -0.00000000000E+00 -0.00000000000E+00 -0.45593999997E+02  0.45594000000E+02  0.51100000000E-03 0.  1.
         23    2    1    2    0    0 -0.35527136788E-14  0.00000000000E+00  0.00000000000E+00  0.91188000000E+02  0.91188000000E+02 0.  0.
    9900012    2    3    3    0    0 -0.31643352178E+02  0.22528563815E+02  0.19359371046E+02  0.47787272218E+02  0.20000005353E+02 0.  0.
        -12    1    3    3    0    0  0.31643352178E+02 -0.22528563815E+02 -0.19359371046E+02  0.43400727782E+02  0.00000000000E+00 0.  1.
         11    1    4    4    0    0 -0.17572514300E+02  0.49651208173E+01  0.33180101019E+01  0.18559495544E+02  0.51100000000E-03 0. -1.
        -11    1    4    4    0    0 -0.10176018177E+00 -0.94833967563E+00  0.17326288581E+01  0.19778034018E+01  0.51100000000E-03 0.  1.
         12    1    4    4    0    0 -0.13969077697E+02  0.18511782674E+02  0.14308732086E+02  0.27249973273E+02  0.00000000000E+00 0. -1.
</event>
<event>
 8    1  0.8600524E-011  0.9118800E+02  0.7816164E-02  0.1184000E+00
        -11   -1    0    0    0    0  0.00000000000E+00  0.00000000000E+00  0.45593999997E+02  0.45594000000E+02  0.51100000000E-03 0. -1.
         11   -1    0    0    0    0 -0.00000000000E+00 -0.00000000000E+00 -0.45593999997E+02  0.45594000000E+02  0.51100000000E-03 0.  1.
         23    2    1    2    0    0  0.00000000000E+00  0.00000000000E+00  0.00000000000E+00  0.91188000000E+02  0.91188000000E+02 0.  0.
    9900012    2    3    3    0    0 -0.17050744805E+02  0.55986427936E+01  0.39516441505E+02  0.47787287462E+02  0.20000074856E+02 0.  0.
        -12    1    3    3    0    0  0.17050744805E+02 -0.55986427936E+01 -0.39516441505E+02  0.43400712538E+02  0.00000000000E+00 0.  1.
         11    1    4    4    0    0 -0.68799561193E+01 -0.50127567582E-01  0.31959904526E+02  0.32692075592E+02  0.51100000000E-03 0. -1.
        -11    1    4    4    0    0 -0.87891101975E+01  0.19442176603E+01  0.43145798305E+01  0.99821861208E+01  0.51100000000E-03 0.  1.
         12    1    4    4    0    0 -0.13816784878E+01  0.37045527009E+01  0.32419571494E+01  0.51130257496E+01  0.00000000000E+00 0. -1.
</event>
<event>
 8    1  0.8600524E-011  0.9118800E+02  0.7816164E-02  0.1184000E+00
        -11   -1    0    0    0    0  0.00000000000E+00  0.00000000000E+00  0.45593999997E+02  0.45594000000E+02  0.51100000000E-03 0. -1.
         11   -1    0    0    0    0 -0.00000000000E+00 -0.00000000000E+00 -0.45593999997E+02  0.45594000000E+02  0.51100000000E-03 0.  1.
         23    2    1    2    0    0  0.17763568394E-14  0.00000000000E+00  0.00000000000E+00  0.91188000000E+02  0.91188000000E+02 0.  0.
    9900012    2    3    3    0    0  0.82216151884E+01  0.36489644632E+02  0.22012137124E+02  0.47787270715E+02  0.19999998499E+02 0.  0.
        -12    1    3    3    0    0 -0.82216151884E+01 -0.36489644632E+02 -0.22012137124E+02  0.43400729285E+02  0.00000000000E+00 0.  1.
         11    1    4    4    0    0  0.67563597616E+01  0.25457261940E+02  0.74637097654E+01  0.27375674355E+02  0.51100000000E-03 0. -1.
        -11    1    4    4    0    0  0.26829831230E+00  0.77513154539E-01  0.71112455700E+01  0.71167272036E+01  0.51100000000E-03 0.  1.
        -12    1    4    4    0    0  0.11969571146E+01  0.10954869538E+02  0.74371817889E+01  0.13294869156E+02  0.00000000000E+00 0.  1.
</event>
<event>
 8    1  0.8600524E-011  0.9118800E+02  0.7816164E-02  0.1184000E+00
        -11   -1    0    0    0    0  0.00000000000E+00  0.00000000000E+00  0.45593999997E+02  0.45594000000E+02  0.51100000000E-03 0. -1.
         11   -1    0    0    0    0 -0.00000000000E+00 -0.00000000000E+00 -0.45593999997E+02  0.45594000000E+02  0.51100000000E-03 0.  1.
         23    2    1    2    0    0  0.17763568394E-14  0.00000000000E+00  0.00000000000E+00  0.91188000000E+02  0.91188000000E+02 0.  0.
    9900012    2    3    3    0    0 -0.14054072385E+02 -0.21770614459E+02  0.34815946637E+02  0.47787231058E+02  0.19999817684E+02 0.  0.
        -12    1    3    3    0    0  0.14054072385E+02  0.21770614459E+02 -0.34815946637E+02  0.43400768942E+02  0.00000000000E+00 0.  1.
         11    1    4    4    0    0 -0.10379700866E+02 -0.13308682258E+02  0.13847871437E+02  0.21831691577E+02  0.51100000000E-03 0. -1.
        -11    1    4    4    0    0 -0.87840126572E+00 -0.15019967188E+01  0.17680878415E+02  0.17766289559E+02  0.51100000000E-03 0.  1.
        -12    1    4    4    0    0 -0.27959702527E+01 -0.69599354827E+01  0.32871967859E+01  0.81892499221E+01  0.00000000000E+00 0.  1.
</event>
<event>
 8    1  0.8600524E-011  0.9118800E+02  0.7816164E-02  0.1184000E+00
        -11   -1    0    0    0    0  0.00000000000E+00  0.00000000000E+00  0.45593999997E+02  0.45594000000E+02  0.51100000000E-03 0.  1.
         11   -1    0    0    0    0 -0.00000000000E+00 -0.00000000000E+00 -0.45593999997E+02  0.45594000000E+02  0.51100000000E-03 0. -1.
         23    2    1    2    0    0  0.00000000000E+00  0.00000000000E+00 -0.88817841970E-15  0.91188000000E+02  0.91188000000E+02 0.  0.
    9900012    2    3    3    0    0  0.39801665751E+02  0.15519106897E+02 -0.76556002436E+01  0.47787268549E+02  0.19999988621E+02 0.  0.
         12    1    3    3    0    0 -0.39801665751E+02 -0.15519106897E+02  0.76556002436E+01  0.43400731451E+02  0.00000000000E+00 0. -1.
         11    1    4    4    0    0  0.16064325159E+02  0.11079065642E+02 -0.72787606874E+01  0.20827592172E+02  0.51100000000E-03 0. -1.
        -11    1    4    4    0    0  0.21146145762E+02 -0.69352496701E+00 -0.96299306111E+00  0.21179419571E+02  0.51100000000E-03 0.  1.
        -12    1    4    4    0    0  0.25911948298E+01  0.51335662217E+01  0.58615350490E+00  0.57802568049E+01  0.00000000000E+00 0.  1.
</event>
<event>
 8    1  0.8600524E-011  0.9118800E+02  0.7816164E-02  0.1184000E+00
        -11   -1    0    0    0    0  0.00000000000E+00  0.00000000000E+00  0.45593999997E+02  0.45594000000E+02  0.51100000000E-03 0. -1.
         11   -1    0    0    0    0 -0.00000000000E+00 -0.00000000000E+00 -0.45593999997E+02  0.45594000000E+02  0.51100000000E-03 0.  1.
         23    2    1    2    0    0 -0.35527136788E-14 -0.17763568394E-14 -0.35527136788E-14  0.91188000000E+02  0.91188000000E+02 0.  0.
    9900012    2    3    3    0    0 -0.29772429094E+02 -0.11225786350E+02 -0.29516198964E+02  0.47787287856E+02  0.20000076652E+02 0.  0.
         12    1    3    3    0    0  0.29772429094E+02  0.11225786350E+02  0.29516198964E+02  0.43400712144E+02  0.00000000000E+00 0. -1.
         11    1    4    4    0    0 -0.21444346157E+02 -0.14018575219E+01 -0.16696383848E+02  0.27213864490E+02  0.51100000000E-03 0. -1.
        -11    1    4    4    0    0 -0.96085720220E+01 -0.10004303588E+02 -0.13277550814E+02  0.19201669263E+02  0.51100000000E-03 0.  1.
         12    1    4    4    0    0  0.12804890855E+01  0.18037475968E+00  0.45773569843E+00  0.13717541039E+01  0.00000000000E+00 0. -1.
</event>
<event>
 8    1  0.8600524E-011  0.9118800E+02  0.7816164E-02  0.1184000E+00
        -11   -1    0    0    0    0  0.00000000000E+00  0.00000000000E+00  0.45593999997E+02  0.45594000000E+02  0.51100000000E-03 0. -1.
         11   -1    0    0    0    0 -0.00000000000E+00 -0.00000000000E+00 -0.45593999997E+02  0.45594000000E+02  0.51100000000E-03 0.  1.
         23    2    1    2    0    0  0.44408920985E-15 -0.88817841970E-15  0.00000000000E+00  0.91188000000E+02  0.91188000000E+02 0.  0.
    9900012    2    3    3    0    0 -0.23551819408E+01 -0.12813086141E+01 -0.43317820876E+02  0.47787282965E+02  0.20000054350E+02 0.  0.
         12    1    3    3    0    0  0.23551819408E+01  0.12813086141E+01  0.43317820876E+02  0.43400717035E+02  0.00000000000E+00 0. -1.
         11    1    4    4    0    0  0.13814906260E+01  0.74333459161E+01 -0.15148460079E+02  0.16930416146E+02  0.51100000000E-03 0. -1.
        -11    1    4    4    0    0 -0.42478621667E+01 -0.10173240249E+02 -0.25302567550E+02  0.27599983244E+02  0.51100000000E-03 0.  1.
        -12    1    4    4    0    0  0.51118959985E+00  0.14585857184E+01 -0.28667932463E+01  0.32568835751E+01  0.00000000000E+00 0.  1.
</event>
<event>
 8    1  0.8600524E-011  0.9118800E+02  0.7816164E-02  0.1184000E+00
        -11   -1    0    0    0    0  0.00000000000E+00  0.00000000000E+00  0.45593999997E+02  0.45594000000E+02  0.51100000000E-03 0. -1.
         11   -1    0    0    0    0 -0.00000000000E+00 -0.00000000000E+00 -0.45593999997E+02  0.45594000000E+02  0.51100000000E-03 0.  1.
         23    2    1    2    0    0  0.44408920985E-15 -0.71054273576E-14  0.00000000000E+00  0.91188000000E+02  0.91188000000E+02 0.  0.
    9900012    2    3    3    0    0  0.39217112460E+01 -0.42069638026E+02 -0.99192141870E+01  0.47787250320E+02  0.19999905507E+02 0.  0.
         12    1    3    3    0    0 -0.39217112460E+01  0.42069638026E+02  0.99192141870E+01  0.43400749680E+02  0.00000000000E+00 0. -1.
         11    1    4    4    0    0 -0.53405241853E+01 -0.28533866938E+01  0.49327789285E+00  0.60750586449E+01  0.51100000000E-03 0. -1.
        -11    1    4    4    0    0  0.87072012630E-01 -0.39552811022E+01 -0.97321398420E+00  0.40741840720E+01  0.51100000000E-03 0.  1.
         12    1    4    4    0    0  0.91751634187E+01 -0.35260970230E+02 -0.94392780956E+01  0.37638007603E+02  0.00000000000E+00 0. -1.
</event>
<event>
 8    1  0.8600524E-011  0.9118800E+02  0.7816164E-02  0.1184000E+00
        -11   -1    0    0    0    0  0.00000000000E+00  0.00000000000E+00  0.45593999997E+02  0.45594000000E+02  0.51100000000E-03 0.  1.
         11   -1    0    0    0    0 -0.00000000000E+00 -0.00000000000E+00 -0.45593999997E+02  0.45594000000E+02  0.51100000000E-03 0. -1.
         23    2    1    2    0    0  0.00000000000E+00  0.35527136788E-14  0.35527136788E-14  0.91188000000E+02  0.91188000000E+02 0.  0.
    9900012    2    3    3    0    0  0.22646716541E+02  0.21369827215E+02  0.30233757273E+02  0.47787270004E+02  0.19999995258E+02 0.  0.
        -12    1    3    3    0    0 -0.22646716541E+02 -0.21369827215E+02 -0.30233757273E+02  0.43400729996E+02  0.00000000000E+00 0.  1.
         11    1    4    4    0    0  0.74109085410E+01  0.17528549795E+02  0.19772349128E+02  0.27442984779E+02  0.51100000000E-03 0. -1.
        -11    1    4    4    0    0  0.18986315958E+01 -0.18153736063E+01  0.28960840170E+00  0.26427744047E+01  0.51100000000E-03 0.  1.
         12    1    4    4    0    0  0.13337176405E+02  0.56566510258E+01  0.10171799744E+02  0.17701510820E+02  0.00000000000E+00 0. -1.
</event>
<event>
 8    1  0.8600524E-011  0.9118800E+02  0.7816164E-02  0.1184000E+00
        -11   -1    0    0    0    0  0.00000000000E+00  0.00000000000E+00  0.45593999997E+02  0.45594000000E+02  0.51100000000E-03 0. -1.
         11   -1    0    0    0    0 -0.00000000000E+00 -0.00000000000E+00 -0.45593999997E+02  0.45594000000E+02  0.51100000000E-03 0.  1.
         23    2    1    2    0    0  0.00000000000E+00 -0.17763568394E-14  0.00000000000E+00  0.91188000000E+02  0.91188000000E+02 0.  0.
    9900012    2    3    3    0    0  0.17307164400E+02  0.10597619277E+02 -0.38363725375E+02  0.47787275368E+02  0.20000019714E+02 0.  0.
         12    1    3    3    0    0 -0.17307164400E+02 -0.10597619277E+02  0.38363725375E+02  0.43400724632E+02  0.00000000000E+00 0. -1.
         11    1    4    4    0    0  0.20513777986E+01 -0.35301699155E+01 -0.91786210295E+01  0.10045762030E+02  0.51100000000E-03 0. -1.
        -11    1    4    4    0    0  0.12346478807E+02  0.16191772136E+02 -0.24704522196E+02  0.32014409897E+02  0.51100000000E-03 0.  1.
        -12    1    4    4    0    0  0.29093077939E+01 -0.20639829430E+01 -0.44805821495E+01  0.57271034412E+01  0.00000000000E+00 0.  1.
</event>
<event>
 8    1  0.8600524E-011  0.9118800E+02  0.7816164E-02  0.1184000E+00
        -11   -1    0    0    0    0  0.00000000000E+00  0.00000000000E+00  0.45593999997E+02  0.45594000000E+02  0.51100000000E-03 0. -1.
         11   -1    0    0    0    0 -0.00000000000E+00 -0.00000000000E+00 -0.45593999997E+02  0.45594000000E+02  0.51100000000E-03 0.  1.
         23    2    1    2    0    0  0.00000000000E+00 -0.17763568394E-14  0.00000000000E+00  0.91188000000E+02  0.91188000000E+02 0.  0.
    9900012    2    3    3    0    0  0.40725520596E+01 -0.82472681236E+01 -0.42414863119E+02  0.47787265845E+02  0.19999976292E+02 0.  0.
         12    1    3    3    0    0 -0.40725520596E+01  0.82472681236E+01  0.42414863119E+02  0.43400734155E+02  0.00000000000E+00 0. -1.
         11    1    4    4    0    0  0.34996650605E+01 -0.48203039127E+01 -0.44010434348E+01  0.74062250116E+01  0.51100000000E-03 0. -1.
        -11    1    4    4    0    0 -0.29940283958E+01  0.42060501597E+01 -0.15861598622E+02  0.16680688688E+02  0.51100000000E-03 0.  1.
        -12    1    4    4    0    0  0.35669153949E+01 -0.76330143706E+01 -0.22152221062E+02  0.23700352145E+02  0.00000000000E+00 0.  1.
</event>
<event>
 8    1  0.8600524E-011  0.9118800E+02  0.7816164E-02  0.1184000E+00
        -11   -1    0    0    0    0  0.00000000000E+00  0.00000000000E+00  0.45593999997E+02  0.45594000000E+02  0.51100000000E-03 0. -1.
         11   -1    0    0    0    0 -0.00000000000E+00 -0.00000000000E+00 -0.45593999997E+02  0.45594000000E+02  0.51100000000E-03 0.  1.
         23    2    1    2    0    0  0.35527136788E-14  0.00000000000E+00 -0.35527136788E-14  0.91188000000E+02  0.91188000000E+02 0.  0.
    9900012    2    3    3    0    0 -0.26586970902E+02 -0.33168354093E+02  0.87530884837E+01  0.47787270824E+02  0.19999998996E+02 0.  0.
        -12    1    3    3    0    0  0.26586970902E+02  0.33168354093E+02 -0.87530884837E+01  0.43400729176E+02  0.00000000000E+00 0.  1.
         11    1    4    4    0    0 -0.96627405242E+00 -0.40345420228E+01  0.50096447082E+01  0.65044411936E+01  0.51100000000E-03 0. -1.
        -11    1    4    4    0    0 -0.13933253803E+02 -0.16973435842E+02 -0.46450273439E+01  0.22445698143E+02  0.51100000000E-03 0.  1.
        -12    1    4    4    0    0 -0.11687443046E+02 -0.12160376228E+02  0.83884711194E+01  0.18837131488E+02  0.00000000000E+00 0.  1.
</event>
<event>
 8    1  0.8600524E-011  0.9118800E+02  0.7816164E-02  0.1184000E+00
        -11   -1    0    0    0    0  0.00000000000E+00  0.00000000000E+00  0.45593999997E+02  0.45594000000E+02  0.51100000000E-03 0. -1.
         11   -1    0    0    0    0 -0.00000000000E+00 -0.00000000000E+00 -0.45593999997E+02  0.45594000000E+02  0.51100000000E-03 0.  1.
         23    2    1    2    0    0  0.17763568394E-14  0.00000000000E+00  0.00000000000E+00  0.91188000000E+02  0.91188000000E+02 0.  0.
    9900012    2    3    3    0    0 -0.98289397010E+01  0.41393684193E+02 -0.85777805184E+01  0.47787268839E+02  0.19999989945E+02 0.  0.
         12    1    3    3    0    0  0.98289397010E+01 -0.41393684193E+02  0.85777805184E+01  0.43400731161E+02  0.00000000000E+00 0. -1.
         11    1    4    4    0    0 -0.49032461549E+01  0.33968213098E+02 -0.48191291762E+01  0.34656966546E+02  0.51100000000E-03 0. -1.
        -11    1    4    4    0    0 -0.18658501231E+01  0.83184045356E+01 -0.45136799494E+00  0.85370360212E+01  0.51100000000E-03 0.  1.
         12    1    4    4    0    0 -0.30598434230E+01 -0.89293344072E+00 -0.33072833473E+01  0.45932662716E+01  0.00000000000E+00 0. -1.
</event>
<event>
 8    1  0.8600524E-011  0.9118800E+02  0.7816164E-02  0.1184000E+00
        -11   -1    0    0    0    0  0.00000000000E+00  0.00000000000E+00  0.45593999997E+02  0.45594000000E+02  0.51100000000E-03 0. -1.
         11   -1    0    0    0    0 -0.00000000000E+00 -0.00000000000E+00 -0.45593999997E+02  0.45594000000E+02  0.51100000000E-03 0.  1.
         23    2    1    2    0    0  0.88817841970E-15  0.00000000000E+00 -0.71054273576E-14  0.91188000000E+02  0.91188000000E+02 0.  0.
    9900012    2    3    3    0    0 -0.67581314965E+01 -0.17402583142E+01  0.42835999433E+02  0.47787266277E+02  0.19999978262E+02 0.  0.
        -12    1    3    3    0    0  0.67581314965E+01  0.17402583142E+01 -0.42835999433E+02  0.43400733723E+02  0.00000000000E+00 0.  1.
         11    1    4    4    0    0 -0.56967369570E+01 -0.63844614377E+01  0.12976164695E+02  0.15543326873E+02  0.51100000000E-03 0. -1.
        -11    1    4    4    0    0 -0.47326488230E+01  0.63539418945E+01  0.22333759560E+02  0.23697412492E+02  0.51100000000E-03 0.  1.
         12    1    4    4    0    0  0.36712542835E+01 -0.17097387710E+01  0.75260751776E+01  0.85465269121E+01  0.00000000000E+00 0. -1.
</event>
<event>
 8    1  0.8600524E-011  0.9118800E+02  0.7816164E-02  0.1184000E+00
        -11   -1    0    0    0    0  0.00000000000E+00  0.00000000000E+00  0.45593999997E+02  0.45594000000E+02  0.51100000000E-03 0. -1.
         11   -1    0    0    0    0 -0.00000000000E+00 -0.00000000000E+00 -0.45593999997E+02  0.45594000000E+02  0.51100000000E-03 0.  1.
         23    2    1    2    0    0  0.00000000000E+00 -0.17763568394E-14  0.00000000000E+00  0.91188000000E+02  0.91188000000E+02 0.  0.
    9900012    2    3    3    0    0 -0.10182159427E+02  0.12766213228E+02  0.40211573959E+02  0.47787271308E+02  0.20000001200E+02 0.  0.
        -12    1    3    3    0    0  0.10182159427E+02 -0.12766213228E+02 -0.40211573959E+02  0.43400728692E+02  0.00000000000E+00 0.  1.
         11    1    4    4    0    0 -0.90963802355E+01  0.11588556883E+02  0.14174202309E+02  0.20443747097E+02  0.51100000000E-03 0. -1.
        -11    1    4    4    0    0 -0.28474980587E+01 -0.25259997997E+01  0.16971290473E+02  0.17392918696E+02  0.51100000000E-03 0.  1.
         12    1    4    4    0    0  0.17617188668E+01  0.37036561448E+01  0.90660811771E+01  0.99506055150E+01  0.00000000000E+00 0. -1.
</event>
<event>
 8    1  0.8623410E-011  0.9118800E+02  0.7816164E-02  0.1184000E+00
        -11   -1    0    0    0    0  0.00000000000E+00  0.00000000000E+00  0.45593999997E+02  0.45594000000E+02  0.51100000000E-03 0. -1.
         11   -1    0    0    0    0 -0.00000000000E+00 -0.00000000000E+00 -0.45593999997E+02  0.45594000000E+02  0.51100000000E-03 0.  1.
         23    2    1    2    0    0 -0.17763568394E-14  0.17763568394E-14  0.00000000000E+00  0.91188000000E+02  0.91188000000E+02 0.  0.
    9900012    2    3    3    0    0 -0.12559644071E+02  0.12292322159E+02  0.39683444069E+02  0.47787290600E+02  0.20000089161E+02 0.  0.
        -12    1    3    3    0    0  0.12559644071E+02 -0.12292322159E+02 -0.39683444069E+02  0.43400709400E+02  0.00000000000E+00 0.  1.
         11    1    4    4    0    0 -0.11073053034E+01  0.50887087747E+01  0.19901858498E+02  0.20571948230E+02  0.51100000000E-03 0. -1.
        -11    1    4    4    0    0 -0.87537254430E+01 -0.20151306110E+01  0.81372588819E+01  0.12120373050E+02  0.51100000000E-03 0.  1.
        -12    1    4    4    0    0 -0.26986133250E+01  0.92187439953E+01  0.11644326689E+02  0.15094969320E+02  0.00000000000E+00 0.  1.
</event>
<event>
 8    1  0.8600524E-011  0.9118800E+02  0.7816164E-02  0.1184000E+00
        -11   -1    0    0    0    0  0.00000000000E+00  0.00000000000E+00  0.45593999997E+02  0.45594000000E+02  0.51100000000E-03 0.  1.
         11   -1    0    0    0    0 -0.00000000000E+00 -0.00000000000E+00 -0.45593999997E+02  0.45594000000E+02  0.51100000000E-03 0. -1.
         23    2    1    2    0    0  0.00000000000E+00  0.00000000000E+00  0.00000000000E+00  0.91188000000E+02  0.91188000000E+02 0.  0.
    9900012    2    3    3    0    0  0.23185529348E+02  0.98658741294E+00 -0.36675345606E+02  0.47787273034E+02  0.20000009071E+02 0.  0.
         12    1    3    3    0    0 -0.23185529348E+02 -0.98658741294E+00  0.36675345606E+02  0.43400726966E+02  0.00000000000E+00 0. -1.
         11    1    4    4    0    0  0.15771405473E+02  0.39636612052E+01 -0.30333472993E+02  0.34417545305E+02  0.51100000000E-03 0. -1.
        -11    1    4    4    0    0  0.89865660709E+01 -0.36830668913E+01 -0.41003672956E+01  0.10542123301E+02  0.51100000000E-03 0.  1.
        -12    1    4    4    0    0 -0.15724421956E+01  0.70599309902E+00 -0.22415053173E+01  0.28276044281E+01  0.00000000000E+00 0.  1.
</event>
<event>
 8    1  0.8600524E-011  0.9118800E+02  0.7816164E-02  0.1184000E+00
        -11   -1    0    0    0    0  0.00000000000E+00  0.00000000000E+00  0.45593999997E+02  0.45594000000E+02  0.51100000000E-03 0. -1.
         11   -1    0    0    0    0 -0.00000000000E+00 -0.00000000000E+00 -0.45593999997E+02  0.45594000000E+02  0.51100000000E-03 0.  1.
         23    2    1    2    0    0  0.00000000000E+00  0.71054273576E-14 -0.71054273576E-14  0.91188000000E+02  0.91188000000E+02 0.  0.
    9900012    2    3    3    0    0  0.77077579873E+01 -0.17408189011E+02  0.39002164715E+02  0.47787269242E+02  0.19999991784E+02 0.  0.
        -12    1    3    3    0    0 -0.77077579873E+01  0.17408189011E+02 -0.39002164715E+02  0.43400730758E+02  0.00000000000E+00 0.  1.
         11    1    4    4    0    0  0.73908763934E+01 -0.13811131123E+02  0.34013643323E+02  0.37447300692E+02  0.51100000000E-03 0. -1.
        -11    1    4    4    0    0  0.39230594318E+00 -0.34281368426E+00 -0.22996422061E+01  0.23579185127E+01  0.51100000000E-03 0.  1.
        -12    1    4    4    0    0 -0.75424349368E-01 -0.32542442042E+01  0.72881635981E+01  0.79820500378E+01  0.00000000000E+00 0.  1.
</event>
<event>
 8    1  0.8600524E-011  0.9118800E+02  0.7816164E-02  0.1184000E+00
        -11   -1    0    0    0    0  0.00000000000E+00  0.00000000000E+00  0.45593999997E+02  0.45594000000E+02  0.51100000000E-03 0. -1.
         11   -1    0    0    0    0 -0.00000000000E+00 -0.00000000000E+00 -0.45593999997E+02  0.45594000000E+02  0.51100000000E-03 0.  1.
         23    2    1    2    0    0 -0.71054273576E-14 -0.30531133177E-15 -0.17763568394E-14  0.91188000000E+02  0.91188000000E+02 0.  0.
    9900012    2    3    3    0    0  0.43284018527E+02 -0.32063356241E-01  0.31803318011E+01  0.47787288044E+02  0.20000077509E+02 0.  0.
         12    1    3    3    0    0 -0.43284018527E+02  0.32063356241E-01 -0.31803318011E+01  0.43400711956E+02  0.00000000000E+00 0. -1.
         11    1    4    4    0    0  0.10117220016E+02  0.11833568155E+01 -0.60467144768E+00  0.10204121816E+02  0.51100000000E-03 0. -1.
        -11    1    4    4    0    0  0.45340674804E+01  0.40506450598E+01 -0.42065442649E+01  0.73932745270E+01  0.51100000000E-03 0.  1.
        -12    1    4    4    0    0  0.28632731030E+02 -0.52660652316E+01  0.79915475137E+01  0.30189891701E+02  0.00000000000E+00 0.  1.
</event>
<event>
 8    1  0.8600524E-011  0.9118800E+02  0.7816164E-02  0.1184000E+00
        -11   -1    0    0    0    0  0.00000000000E+00  0.00000000000E+00  0.45593999997E+02  0.45594000000E+02  0.51100000000E-03 0. -1.
         11   -1    0    0    0    0 -0.00000000000E+00 -0.00000000000E+00 -0.45593999997E+02  0.45594000000E+02  0.51100000000E-03 0.  1.
         23    2    1    2    0    0  0.17763568394E-14 -0.35527136788E-14  0.00000000000E+00  0.91188000000E+02  0.91188000000E+02 0.  0.
    9900012    2    3    3    0    0  0.92193488970E+01 -0.22928818072E+02 -0.35677662316E+02  0.47787277879E+02  0.20000031163E+02 0.  0.
         12    1    3    3    0    0 -0.92193488970E+01  0.22928818072E+02  0.35677662316E+02  0.43400722121E+02  0.00000000000E+00 0. -1.
         11    1    4    4    0    0  0.89118306260E+01 -0.12590730322E+02 -0.88329606478E+01  0.17775500252E+02  0.51100000000E-03 0. -1.
        -11    1    4    4    0    0  0.37680432057E+01 -0.84383037246E+01 -0.21168019151E+02  0.23097362499E+02  0.51100000000E-03 0.  1.
         12    1    4    4    0    0 -0.34605249348E+01 -0.18997840251E+01 -0.56766825168E+01  0.69144151281E+01  0.00000000000E+00 0. -1.
</event>
<event>
 8    1  0.8600524E-011  0.9118800E+02  0.7816164E-02  0.1184000E+00
        -11   -1    0    0    0    0  0.00000000000E+00  0.00000000000E+00  0.45593999997E+02  0.45594000000E+02  0.51100000000E-03 0. -1.
         11   -1    0    0    0    0 -0.00000000000E+00 -0.00000000000E+00 -0.45593999997E+02  0.45594000000E+02  0.51100000000E-03 0.  1.
         23    2    1    2    0    0  0.00000000000E+00  0.35527136788E-14  0.71054273576E-14  0.91188000000E+02  0.91188000000E+02 0.  0.
    9900012    2    3    3    0    0  0.10754579246E+02 -0.24607210410E+02  0.34094685174E+02  0.47787270328E+02  0.19999996735E+02 0.  0.
        -12    1    3    3    0    0 -0.10754579246E+02  0.24607210410E+02 -0.34094685174E+02  0.43400729672E+02  0.00000000000E+00 0.  1.
         11    1    4    4    0    0  0.13095233244E+01  0.14904445995E+01  0.97692086444E+01  0.99686365287E+01  0.51100000000E-03 0. -1.
        -11    1    4    4    0    0  0.17996962050E+01 -0.34840860763E+00  0.46549360734E+00  0.18912904451E+01  0.51100000000E-03 0.  1.
         12    1    4    4    0    0  0.76453597171E+01 -0.25749246402E+02  0.23859982922E+02  0.35927343354E+02  0.00000000000E+00 0. -1.
</event>
<event>
 8    1  0.8600524E-011  0.9118800E+02  0.7816164E-02  0.1184000E+00
        -11   -1    0    0    0    0  0.00000000000E+00  0.00000000000E+00  0.45593999997E+02  0.45594000000E+02  0.51100000000E-03 0. -1.
         11   -1    0    0    0    0 -0.00000000000E+00 -0.00000000000E+00 -0.45593999997E+02  0.45594000000E+02  0.51100000000E-03 0.  1.
         23    2    1    2    0    0  0.17763568394E-14 -0.35527136788E-14  0.00000000000E+00  0.91188000000E+02  0.91188000000E+02 0.  0.
    9900012    2    3    3    0    0 -0.10227120637E+02 -0.17299099442E+02  0.38467784705E+02  0.47787270765E+02  0.19999998724E+02 0.  0.
        -12    1    3    3    0    0  0.10227120637E+02  0.17299099442E+02 -0.38467784705E+02  0.43400729235E+02  0.00000000000E+00 0.  1.
         11    1    4    4    0    0 -0.53695047484E+01 -0.13430475263E+02  0.18563456264E+02  0.23533192639E+02  0.51100000000E-03 0. -1.
        -11    1    4    4    0    0 -0.50508793263E+01  0.30982322732E+01  0.13686320535E+02  0.14913946334E+02  0.51100000000E-03 0.  1.
        -12    1    4    4    0    0  0.19326343737E+00 -0.69668564522E+01  0.62180079060E+01  0.93401317925E+01  0.00000000000E+00 0.  1.
</event>
<event>
 8    1  0.8600524E-011  0.9118800E+02  0.7816164E-02  0.1184000E+00
        -11   -1    0    0    0    0  0.00000000000E+00  0.00000000000E+00  0.45593999997E+02  0.45594000000E+02  0.51100000000E-03 0. -1.
         11   -1    0    0    0    0 -0.00000000000E+00 -0.00000000000E+00 -0.45593999997E+02  0.45594000000E+02  0.51100000000E-03 0.  1.
         23    2    1    2    0    0  0.88817841970E-15 -0.71054273576E-14  0.35527136788E-14  0.91188000000E+02  0.91188000000E+02 0.  0.
    9900012    2    3    3    0    0 -0.45920334500E+01 -0.30265365976E+02  0.30765952267E+02  0.47787274571E+02  0.20000016078E+02 0.  0.
        -12    1    3    3    0    0  0.45920334500E+01  0.30265365976E+02 -0.30765952267E+02  0.43400725429E+02  0.00000000000E+00 0.  1.
         11    1    4    4    0    0 -0.65990555056E+01 -0.24535026599E+01  0.77357609254E+01  0.10459885574E+02  0.51100000000E-03 0. -1.
        -11    1    4    4    0    0  0.43728320779E+01 -0.69068465833E+01  0.47369112669E+01  0.94479901947E+01  0.51100000000E-03 0.  1.
         12    1    4    4    0    0 -0.23658100223E+01 -0.20905016733E+02  0.18293280075E+02  0.27879398802E+02  0.00000000000E+00 0. -1.
</event>
<event>
 8    1  0.8600524E-011  0.9118800E+02  0.7816164E-02  0.1184000E+00
        -11   -1    0    0    0    0  0.00000000000E+00  0.00000000000E+00  0.45593999997E+02  0.45594000000E+02  0.51100000000E-03 0.  1.
         11   -1    0    0    0    0 -0.00000000000E+00 -0.00000000000E+00 -0.45593999997E+02  0.45594000000E+02  0.51100000000E-03 0. -1.
         23    2    1    2    0    0  0.00000000000E+00  0.00000000000E+00 -0.17763568394E-14  0.91188000000E+02  0.91188000000E+02 0.  0.
    9900012    2    3    3    0    0 -0.17968181261E+02  0.38026818439E+02 -0.10711145075E+02  0.47787273195E+02  0.20000009804E+02 0.  0.
         12    1    3    3    0    0  0.17968181261E+02 -0.38026818439E+02  0.10711145075E+02  0.43400726805E+02  0.00000000000E+00 0. -1.
         11    1    4    4    0    0 -0.55048453222E+01  0.16466067586E+02 -0.10286334508E+02  0.20180272090E+02  0.51100000000E-03 0. -1.
        -11    1    4    4    0    0 -0.13301610801E+02  0.22588767063E+02 -0.16775580584E-03  0.26214218425E+02  0.51100000000E-03 0.  1.
        -12    1    4    4    0    0  0.83827486264E+00 -0.10280162106E+01 -0.42464281165E+00  0.13927826794E+01  0.00000000000E+00 0.  1.
</event>
<event>
 8    1  0.8600524E-011  0.9118800E+02  0.7816164E-02  0.1184000E+00
        -11   -1    0    0    0    0  0.00000000000E+00  0.00000000000E+00  0.45593999997E+02  0.45594000000E+02  0.51100000000E-03 0. -1.
         11   -1    0    0    0    0 -0.00000000000E+00 -0.00000000000E+00 -0.45593999997E+02  0.45594000000E+02  0.51100000000E-03 0.  1.
         23    2    1    2    0    0  0.00000000000E+00  0.00000000000E+00  0.00000000000E+00  0.91188000000E+02  0.91188000000E+02 0.  0.
    9900012    2    3    3    0    0  0.37353398324E+02 -0.70466089265E+01 -0.20944978510E+02  0.47787272028E+02  0.20000004486E+02 0.  0.
         12    1    3    3    0    0 -0.37353398324E+02  0.70466089265E+01  0.20944978510E+02  0.43400727972E+02  0.00000000000E+00 0. -1.
         11    1    4    4    0    0  0.33626572305E+01 -0.10669076046E+01 -0.70284435523E+01  0.78641448686E+01  0.51100000000E-03 0. -1.
        -11    1    4    4    0    0  0.26232896509E+02 -0.33155104549E+01 -0.35115234852E+01  0.26673737388E+02  0.51100000000E-03 0.  1.
        -12    1    4    4    0    0  0.77578445850E+01 -0.26641908671E+01 -0.10405011472E+02  0.13249389771E+02  0.00000000000E+00 0.  1.
</event>
<event>
 8    1  0.8600524E-011  0.9118800E+02  0.7816164E-02  0.1184000E+00
        -11   -1    0    0    0    0  0.00000000000E+00  0.00000000000E+00  0.45593999997E+02  0.45594000000E+02  0.51100000000E-03 0. -1.
         11   -1    0    0    0    0 -0.00000000000E+00 -0.00000000000E+00 -0.45593999997E+02  0.45594000000E+02  0.51100000000E-03 0.  1.
         23    2    1    2    0    0  0.00000000000E+00  0.00000000000E+00  0.88817841970E-15  0.91188000000E+02  0.91188000000E+02 0.  0.
    9900012    2    3    3    0    0 -0.30216456930E+02  0.30721319500E+02 -0.51758730991E+01  0.47787269551E+02  0.19999993190E+02 0.  0.
         12    1    3    3    0    0  0.30216456930E+02 -0.30721319500E+02  0.51758730991E+01  0.43400730449E+02  0.00000000000E+00 0. -1.
         11    1    4    4    0    0 -0.52146953095E+01  0.72920598319E+00  0.15832978780E+01  0.54983289251E+01  0.51100000000E-03 0. -1.
        -11    1    4    4    0    0 -0.85721613908E+01  0.20151501798E+02 -0.74324657904E+01  0.23125884278E+02  0.51100000000E-03 0.  1.
        -12    1    4    4    0    0 -0.16429600229E+02  0.98406117182E+01  0.67329481337E+00  0.19163056348E+02  0.00000000000E+00 0.  1.
</event>
<event>
 8    1  0.8600524E-011  0.9118800E+02  0.7816164E-02  0.1184000E+00
        -11   -1    0    0    0    0  0.00000000000E+00  0.00000000000E+00  0.45593999997E+02  0.45594000000E+02  0.51100000000E-03 0. -1.
         11   -1    0    0    0    0 -0.00000000000E+00 -0.00000000000E+00 -0.45593999997E+02  0.45594000000E+02  0.51100000000E-03 0.  1.
         23    2    1    2    0    0  0.00000000000E+00  0.17763568394E-14  0.00000000000E+00  0.91188000000E+02  0.91188000000E+02 0.  0.
    9900012    2    3    3    0    0  0.30413252796E+02  0.14261612218E+02 -0.27482058773E+02  0.47787273242E+02  0.20000010020E+02 0.  0.
         12    1    3    3    0    0 -0.30413252796E+02 -0.14261612218E+02  0.27482058773E+02  0.43400726758E+02  0.00000000000E+00 0. -1.
         11    1    4    4    0    0  0.12715073980E+01  0.38456883639E+01  0.16921215452E+01  0.43896840023E+01  0.51100000000E-03 0. -1.
        -11    1    4    4    0    0  0.78977769521E+01 -0.55386403792E+00 -0.48205130911E+01  0.92692498553E+01  0.51100000000E-03 0.  1.
         12    1    4    4    0    0  0.21243968446E+02  0.10969787892E+02 -0.24353667227E+02  0.34128339385E+02  0.00000000000E+00 0. -1.
</event>
<event>
 8    1  0.8600524E-011  0.9118800E+02  0.7816164E-02  0.1184000E+00
        -11   -1    0    0    0    0  0.00000000000E+00  0.00000000000E+00  0.45593999997E+02  0.45594000000E+02  0.51100000000E-03 0. -1.
         11   -1    0    0    0    0 -0.00000000000E+00 -0.00000000000E+00 -0.45593999997E+02  0.45594000000E+02  0.51100000000E-03 0.  1.
         23    2    1    2    0    0  0.61062266354E-15  0.17763568394E-14 -0.71054273576E-14  0.91188000000E+02  0.91188000000E+02 0.  0.
    9900012    2    3    3    0    0  0.34146983008E+00  0.92752870141E+01 -0.42396634583E+02  0.47787283707E+02  0.20000057732E+02 0.  0.
         12    1    3    3    0    0 -0.34146983008E+00 -0.92752870141E+01  0.42396634583E+02  0.43400716293E+02  0.00000000000E+00 0. -1.
         11    1    4    4    0    0 -0.55367165346E+01  0.46832041414E+01 -0.30946967866E+02  0.31785255251E+02  0.51100000000E-03 0. -1.
        -11    1    4    4    0    0  0.42126869107E+01  0.65502684710E+01 -0.10861263056E+02  0.13364871248E+02  0.51100000000E-03 0.  1.
         12    1    4    4    0    0  0.16654994540E+01 -0.19581855983E+01 -0.58840366101E+00  0.26371572075E+01  0.00000000000E+00 0. -1.
</event>
<event>
 8    1  0.8600524E-011  0.9118800E+02  0.7816164E-02  0.1184000E+00
        -11   -1    0    0    0    0  0.00000000000E+00  0.00000000000E+00  0.45593999997E+02  0.45594000000E+02  0.51100000000E-03 0. -1.
         11   -1    0    0    0    0 -0.00000000000E+00 -0.00000000000E+00 -0.45593999997E+02  0.45594000000E+02  0.51100000000E-03 0.  1.
         23    2    1    2    0    0  0.00000000000E+00  0.00000000000E+00  0.00000000000E+00  0.91188000000E+02  0.91188000000E+02 0.  0.
    9900012    2    3    3    0    0 -0.18538366224E+02 -0.87291931126E+01 -0.38259025745E+02  0.47787275518E+02  0.20000020395E+02 0.  0.
         12    1    3    3    0    0  0.18538366224E+02  0.87291931126E+01  0.38259025745E+02  0.43400724482E+02  0.00000000000E+00 0. -1.
         11    1    4    4    0    0 -0.16909070711E+02 -0.81865479739E+01 -0.30311826762E+02  0.35661507006E+02  0.51100000000E-03 0.  1.
        -11    1    4    4    0    0 -0.49752480523E+01 -0.21731948521E+01 -0.44787862096E+01  0.70381386189E+01  0.51100000000E-03 0. -1.
         12    1    4    4    0    0  0.33459525389E+01  0.16305497134E+01 -0.34684127730E+01  0.50876298926E+01  0.00000000000E+00 0. -1.
</event>
<event>
 8    1  0.8600524E-011  0.9118800E+02  0.7816164E-02  0.1184000E+00
        -11   -1    0    0    0    0  0.00000000000E+00  0.00000000000E+00  0.45593999997E+02  0.45594000000E+02  0.51100000000E-03 0. -1.
         11   -1    0    0    0    0 -0.00000000000E+00 -0.00000000000E+00 -0.45593999997E+02  0.45594000000E+02  0.51100000000E-03 0.  1.
         23    2    1    2    0    0 -0.66613381478E-15  0.00000000000E+00  0.71054273576E-14  0.91188000000E+02  0.91188000000E+02 0.  0.
    9900012    2    3    3    0    0  0.17891746584E+01 -0.22890041631E+02 -0.36830280736E+02  0.47787254258E+02  0.19999923465E+02 0.  0.
         12    1    3    3    0    0 -0.17891746584E+01  0.22890041631E+02  0.36830280736E+02  0.43400745742E+02  0.00000000000E+00 0. -1.
         11    1    4    4    0    0  0.24231024512E+01  0.13285194179E+01 -0.68719377768E+01  0.74067481665E+01  0.51100000000E-03 0. -1.
        -11    1    4    4    0    0 -0.52824011176E+01 -0.12112085618E+02 -0.99670505977E+01  0.16551388989E+02  0.51100000000E-03 0.  1.
        -12    1    4    4    0    0  0.46484733248E+01 -0.12106475432E+02 -0.19991292362E+02  0.23829117103E+02  0.00000000000E+00 0.  1.
</event>
<event>
 8    1  0.8600524E-011  0.9118800E+02  0.7816164E-02  0.1184000E+00
        -11   -1    0    0    0    0  0.00000000000E+00  0.00000000000E+00  0.45593999997E+02  0.45594000000E+02  0.51100000000E-03 0. -1.
         11   -1    0    0    0    0 -0.00000000000E+00 -0.00000000000E+00 -0.45593999997E+02  0.45594000000E+02  0.51100000000E-03 0.  1.
         23    2    1    2    0    0 -0.35527136788E-14  0.35527136788E-14 -0.71054273576E-14  0.91188000000E+02  0.91188000000E+02 0.  0.
    9900012    2    3    3    0    0 -0.17872626416E+02  0.20513767086E+02 -0.33813872829E+02  0.47787269468E+02  0.19999992812E+02 0.  0.
         12    1    3    3    0    0  0.17872626416E+02 -0.20513767086E+02  0.33813872829E+02  0.43400730532E+02  0.00000000000E+00 0. -1.
         11    1    4    4    0    0 -0.63408911946E+01  0.10880438010E+02 -0.71079898832E+01  0.14460786731E+02  0.51100000000E-03 0. -1.
        -11    1    4    4    0    0  0.49720237583E+00 -0.24035835339E+01 -0.62687832132E+01  0.67321666083E+01  0.51100000000E-03 0.  1.
        -12    1    4    4    0    0 -0.12028937597E+02  0.12036912609E+02 -0.20437099732E+02  0.26594316129E+02  0.00000000000E+00 0.  1.
</event>
<event>
 8    1  0.8600524E-011  0.9118800E+02  0.7816164E-02  0.1184000E+00
        -11   -1    0    0    0    0  0.00000000000E+00  0.00000000000E+00  0.45593999997E+02  0.45594000000E+02  0.51100000000E-03 0. -1.
         11   -1    0    0    0    0 -0.00000000000E+00 -0.00000000000E+00 -0.45593999997E+02  0.45594000000E+02  0.51100000000E-03 0.  1.
         23    2    1    2    0    0 -0.17763568394E-14  0.00000000000E+00  0.00000000000E+00  0.91188000000E+02  0.91188000000E+02 0.  0.
    9900012    2    3    3    0    0  0.14611653586E+02 -0.17483815120E+02 -0.36938333889E+02  0.47787254359E+02  0.19999923926E+02 0.  0.
         12    1    3    3    0    0 -0.14611653586E+02  0.17483815120E+02  0.36938333889E+02  0.43400745641E+02  0.00000000000E+00 0. -1.
         11    1    4    4    0    0  0.10558179269E+02 -0.14464761866E+01 -0.80936959019E+01  0.13381904067E+02  0.51100000000E-03 0. -1.
        -11    1    4    4    0    0  0.59184698153E+00 -0.14874725536E+02 -0.25046861751E+02  0.29136798494E+02  0.51100000000E-03 0.  1.
        -12    1    4    4    0    0  0.34616273358E+01 -0.11626133981E+01 -0.37977762353E+01  0.52685517989E+01  0.00000000000E+00 0.  1.
</event>
<event>
 8    1  0.8600524E-011  0.9118800E+02  0.7816164E-02  0.1184000E+00
        -11   -1    0    0    0    0  0.00000000000E+00  0.00000000000E+00  0.45593999997E+02  0.45594000000E+02  0.51100000000E-03 0. -1.
         11   -1    0    0    0    0 -0.00000000000E+00 -0.00000000000E+00 -0.45593999997E+02  0.45594000000E+02  0.51100000000E-03 0.  1.
         23    2    1    2    0    0 -0.35527136788E-14  0.00000000000E+00  0.00000000000E+00  0.91188000000E+02  0.91188000000E+02 0.  0.
    9900012    2    3    3    0    0  0.17348857428E+02  0.38864992963E+02 -0.84942759931E+01  0.47787271242E+02  0.20000000903E+02 0.  0.
         12    1    3    3    0    0 -0.17348857428E+02 -0.38864992963E+02  0.84942759931E+01  0.43400728758E+02  0.00000000000E+00 0. -1.
         11    1    4    4    0    0  0.59645297841E+00 -0.13084351776E+01  0.61821985148E+00  0.15652331504E+01  0.51100000000E-03 0. -1.
        -11    1    4    4    0    0  0.12367628750E+02  0.31028504995E+02 -0.12293742400E+02  0.35593011471E+02  0.51100000000E-03 0.  1.
        -12    1    4    4    0    0  0.43847756992E+01  0.91449231456E+01  0.31812465552E+01  0.10629026621E+02  0.00000000000E+00 0.  1.
</event>
<event>
 8    1  0.8600524E-011  0.9118800E+02  0.7816164E-02  0.1184000E+00
        -11   -1    0    0    0    0  0.00000000000E+00  0.00000000000E+00  0.45593999997E+02  0.45594000000E+02  0.51100000000E-03 0. -1.
         11   -1    0    0    0    0 -0.00000000000E+00 -0.00000000000E+00 -0.45593999997E+02  0.45594000000E+02  0.51100000000E-03 0.  1.
         23    2    1    2    0    0  0.88817841970E-15  0.35527136788E-14  0.00000000000E+00  0.91188000000E+02  0.91188000000E+02 0.  0.
    9900012    2    3    3    0    0 -0.55495799592E+01 -0.28807064170E+02 -0.31984036610E+02  0.47787269802E+02  0.19999994336E+02 0.  0.
         12    1    3    3    0    0  0.55495799592E+01  0.28807064170E+02  0.31984036610E+02  0.43400730198E+02  0.00000000000E+00 0. -1.
         11    1    4    4    0    0 -0.45869879143E+01 -0.62605791457E+00 -0.73524683934E+01  0.86885671072E+01  0.51100000000E-03 0. -1.
        -11    1    4    4    0    0  0.28579771297E+01 -0.20919294383E+02 -0.21974021675E+02  0.30473636796E+02  0.51100000000E-03 0.  1.
        -12    1    4    4    0    0 -0.38205691746E+01 -0.72617118724E+01 -0.26575465417E+01  0.86250658987E+01  0.00000000000E+00 0.  1.
</event>
<event>
 8    1  0.8600524E-011  0.9118800E+02  0.7816164E-02  0.1184000E+00
        -11   -1    0    0    0    0  0.00000000000E+00  0.00000000000E+00  0.45593999997E+02  0.45594000000E+02  0.51100000000E-03 0. -1.
         11   -1    0    0    0    0 -0.00000000000E+00 -0.00000000000E+00 -0.45593999997E+02  0.45594000000E+02  0.51100000000E-03 0.  1.
         23    2    1    2    0    0 -0.71054273576E-14  0.00000000000E+00 -0.35527136788E-14  0.91188000000E+02  0.91188000000E+02 0.  0.
    9900012    2    3    3    0    0  0.33161308319E+02  0.27413252713E+01  0.27864600555E+02  0.47787271921E+02  0.20000003998E+02 0.  0.
        -12    1    3    3    0    0 -0.33161308319E+02 -0.27413252713E+01 -0.27864600555E+02  0.43400728079E+02  0.00000000000E+00 0.  1.
         11    1    4    4    0    0  0.90720879170E+01  0.40255303549E+01  0.17898191625E+02  0.20465896939E+02  0.51100000000E-03 0. -1.
        -11    1    4    4    0    0  0.65175161621E+00 -0.17570403854E+01  0.14883858607E+01  0.23931702440E+01  0.51100000000E-03 0.  1.
         12    1    4    4    0    0  0.23437468786E+02  0.47283530183E+00  0.84780230695E+01  0.24928204738E+02  0.00000000000E+00 0. -1.
</event>
<event>
 8    1  0.8600524E-011  0.9118800E+02  0.7816164E-02  0.1184000E+00
        -11   -1    0    0    0    0  0.00000000000E+00  0.00000000000E+00  0.45593999997E+02  0.45594000000E+02  0.51100000000E-03 0.  1.
         11   -1    0    0    0    0 -0.00000000000E+00 -0.00000000000E+00 -0.45593999997E+02  0.45594000000E+02  0.51100000000E-03 0. -1.
         23    2    1    2    0    0  0.00000000000E+00  0.17763568394E-14  0.00000000000E+00  0.91188000000E+02  0.91188000000E+02 0.  0.
    9900012    2    3    3    0    0  0.34826092788E+02 -0.15893524123E+02  0.20449018777E+02  0.47787271701E+02  0.20000002993E+02 0.  0.
        -12    1    3    3    0    0 -0.34826092788E+02  0.15893524123E+02 -0.20449018777E+02  0.43400728299E+02  0.00000000000E+00 0.  1.
         11    1    4    4    0    0  0.13190675194E+02 -0.11727611277E+02  0.35776216579E+01  0.18009168646E+02  0.51100000000E-03 0. -1.
        -11    1    4    4    0    0  0.19807300797E+02 -0.29239526838E+01  0.18317569072E+02  0.27136912151E+02  0.51100000000E-03 0.  1.
        -12    1    4    4    0    0  0.18281167975E+01 -0.12419601618E+01 -0.14461719529E+01  0.26411909030E+01  0.00000000000E+00 0.  1.
</event>
<event>
 8    1  0.8600524E-011  0.9118800E+02  0.7816164E-02  0.1184000E+00
        -11   -1    0    0    0    0  0.00000000000E+00  0.00000000000E+00  0.45593999997E+02  0.45594000000E+02  0.51100000000E-03 0.  1.
         11   -1    0    0    0    0 -0.00000000000E+00 -0.00000000000E+00 -0.45593999997E+02  0.45594000000E+02  0.51100000000E-03 0. -1.
         23    2    1    2    0    0  0.00000000000E+00  0.00000000000E+00  0.00000000000E+00  0.91188000000E+02  0.91188000000E+02 0.  0.
    9900012    2    3    3    0    0 -0.64120420901E+01 -0.42514036225E+02  0.59216197298E+01  0.47787272585E+02  0.20000007024E+02 0.  0.
         12    1    3    3    0    0  0.64120420901E+01  0.42514036225E+02 -0.59216197298E+01  0.43400727415E+02  0.00000000000E+00 0. -1.
         11    1    4    4    0    0  0.20626527136E+01 -0.14841042515E+02  0.63266892600E+01  0.16264626537E+02  0.51100000000E-03 0. -1.
        -11    1    4    4    0    0 -0.11771485584E+02 -0.21791974345E+02  0.58703422071E-02  0.24768085381E+02  0.51100000000E-03 0.  1.
        -12    1    4    4    0    0  0.32967907802E+01 -0.58810193658E+01 -0.41093987236E+00  0.67545606673E+01  0.00000000000E+00 0.  1.
</event>
<event>
 8    1  0.8600524E-011  0.9118800E+02  0.7816164E-02  0.1184000E+00
        -11   -1    0    0    0    0  0.00000000000E+00  0.00000000000E+00  0.45593999997E+02  0.45594000000E+02  0.51100000000E-03 0. -1.
         11   -1    0    0    0    0 -0.00000000000E+00 -0.00000000000E+00 -0.45593999997E+02  0.45594000000E+02  0.51100000000E-03 0.  1.
         23    2    1    2    0    0  0.00000000000E+00  0.00000000000E+00  0.00000000000E+00  0.91188000000E+02  0.91188000000E+02 0.  0.
    9900012    2    3    3    0    0 -0.37112417176E+02 -0.13817349455E+02  0.17758728694E+02  0.47787273054E+02  0.20000009164E+02 0.  0.
        -12    1    3    3    0    0  0.37112417176E+02  0.13817349455E+02 -0.17758728694E+02  0.43400726946E+02  0.00000000000E+00 0.  1.
         11    1    4    4    0    0 -0.17059177273E+02 -0.32611228100E+01  0.54025826017E+00  0.17376487863E+02  0.51100000000E-03 0. -1.
        -11    1    4    4    0    0 -0.19221393126E+02 -0.12477302272E+02  0.16316197053E+02  0.28131180427E+02  0.51100000000E-03 0.  1.
         12    1    4    4    0    0 -0.83184677682E+00  0.19210756273E+01  0.90227338105E+00  0.22796047640E+01  0.00000000000E+00 0. -1.
</event>
<event>
 8    1  0.8600524E-011  0.9118800E+02  0.7816164E-02  0.1184000E+00
        -11   -1    0    0    0    0  0.00000000000E+00  0.00000000000E+00  0.45593999997E+02  0.45594000000E+02  0.51100000000E-03 0. -1.
         11   -1    0    0    0    0 -0.00000000000E+00 -0.00000000000E+00 -0.45593999997E+02  0.45594000000E+02  0.51100000000E-03 0.  1.
         23    2    1    2    0    0  0.00000000000E+00 -0.88817841970E-15  0.00000000000E+00  0.91188000000E+02  0.91188000000E+02 0.  0.
    9900012    2    3    3    0    0  0.27723853683E+02  0.63601375221E+01  0.32780472285E+02  0.47787276785E+02  0.20000026175E+02 0.  0.
        -12    1    3    3    0    0 -0.27723853683E+02 -0.63601375221E+01 -0.32780472285E+02  0.43400723215E+02  0.00000000000E+00 0.  1.
         11    1    4    4    0    0  0.24164653550E+01 -0.84784160858E+00  0.14979181118E+02  0.15196513003E+02  0.51100000000E-03 0. -1.
        -11    1    4    4    0    0  0.14743006533E+02  0.30938425609E+01  0.59687132661E+01  0.16203507081E+02  0.51100000000E-03 0.  1.
         12    1    4    4    0    0  0.10564381795E+02  0.41141365699E+01  0.11832577901E+02  0.16387256702E+02  0.00000000000E+00 0. -1.
</event>
<event>
 8    1  0.8600524E-011  0.9118800E+02  0.7816164E-02  0.1184000E+00
        -11   -1    0    0    0    0  0.00000000000E+00  0.00000000000E+00  0.45593999997E+02  0.45594000000E+02  0.51100000000E-03 0. -1.
         11   -1    0    0    0    0 -0.00000000000E+00 -0.00000000000E+00 -0.45593999997E+02  0.45594000000E+02  0.51100000000E-03 0.  1.
         23    2    1    2    0    0  0.00000000000E+00  0.88817841970E-15  0.00000000000E+00  0.91188000000E+02  0.91188000000E+02 0.  0.
    9900012    2    3    3    0    0 -0.13612962955E+02  0.15173716177E+01 -0.41182613213E+02  0.47787276411E+02  0.20000024467E+02 0.  0.
         12    1    3    3    0    0  0.13612962955E+02 -0.15173716177E+01  0.41182613213E+02  0.43400723589E+02  0.00000000000E+00 0. -1.
         11    1    4    4    0    0 -0.12100214209E+02 -0.64863057570E+01 -0.20925535281E+02  0.25027292569E+02  0.51100000000E-03 0.  1.
        -11    1    4    4    0    0 -0.13608582374E+01  0.40273745740E+01 -0.17266918356E+02  0.17782523748E+02  0.51100000000E-03 0. -1.
         12    1    4    4    0    0 -0.15189050843E+00  0.39763028007E+01 -0.29901595756E+01  0.49774600930E+01  0.00000000000E+00 0. -1.
</event>
<event>
 8    1  0.8600524E-011  0.9118800E+02  0.7816164E-02  0.1184000E+00
        -11   -1    0    0    0    0  0.00000000000E+00  0.00000000000E+00  0.45593999997E+02  0.45594000000E+02  0.51100000000E-03 0.  1.
         11   -1    0    0    0    0 -0.00000000000E+00 -0.00000000000E+00 -0.45593999997E+02  0.45594000000E+02  0.51100000000E-03 0. -1.
         23    2    1    2    0    0  0.00000000000E+00 -0.17763568394E-14  0.00000000000E+00  0.91188000000E+02  0.91188000000E+02 0.  0.
    9900012    2    3    3    0    0 -0.36739485430E+02  0.10391420293E+02 -0.20636181883E+02  0.47787269498E+02  0.19999992950E+02 0.  0.
         12    1    3    3    0    0  0.36739485430E+02 -0.10391420293E+02  0.20636181883E+02  0.43400730502E+02  0.00000000000E+00 0. -1.
         11    1    4    4    0    0 -0.24558470873E+02  0.71760604607E+00 -0.78032347628E+01  0.25778361528E+02  0.51100000000E-03 0.  1.
        -11    1    4    4    0    0 -0.56483762398E+01  0.21062347216E+01 -0.98989786095E+01  0.11590088724E+02  0.51100000000E-03 0. -1.
         12    1    4    4    0    0 -0.65326383170E+01  0.75675795256E+01 -0.29339685111E+01  0.10418819246E+02  0.00000000000E+00 0. -1.
</event>
<event>
 8    1  0.8600524E-011  0.9118800E+02  0.7816164E-02  0.1184000E+00
        -11   -1    0    0    0    0  0.00000000000E+00  0.00000000000E+00  0.45593999997E+02  0.45594000000E+02  0.51100000000E-03 0.  1.
         11   -1    0    0    0    0 -0.00000000000E+00 -0.00000000000E+00 -0.45593999997E+02  0.45594000000E+02  0.51100000000E-03 0. -1.
         23    2    1    2    0    0  0.00000000000E+00 -0.35527136788E-14  0.00000000000E+00  0.91188000000E+02  0.91188000000E+02 0.  0.
    9900012    2    3    3    0    0 -0.33110207404E+02 -0.26242923527E+02 -0.99321127655E+01  0.47787265748E+02  0.19999975853E+02 0.  0.
         12    1    3    3    0    0  0.33110207404E+02  0.26242923527E+02  0.99321127655E+01  0.43400734252E+02  0.00000000000E+00 0. -1.
         11    1    4    4    0    0 -0.21044077912E+02 -0.96371583064E+01 -0.13523175596E+02  0.26806796038E+02  0.51100000000E-03 0. -1.
        -11    1    4    4    0    0 -0.11565241691E+02 -0.14840338702E+02  0.29985600419E+01  0.19052082058E+02  0.51100000000E-03 0.  1.
         12    1    4    4    0    0 -0.50088780192E+00 -0.17654265181E+01  0.59250278863E+00  0.19283876518E+01  0.00000000000E+00 0. -1.
</event>
<event>
 8    1  0.8600524E-011  0.9118800E+02  0.7816164E-02  0.1184000E+00
        -11   -1    0    0    0    0  0.00000000000E+00  0.00000000000E+00  0.45593999997E+02  0.45594000000E+02  0.51100000000E-03 0. -1.
         11   -1    0    0    0    0 -0.00000000000E+00 -0.00000000000E+00 -0.45593999997E+02  0.45594000000E+02  0.51100000000E-03 0.  1.
         23    2    1    2    0    0  0.00000000000E+00  0.00000000000E+00  0.00000000000E+00  0.91188000000E+02  0.91188000000E+02 0.  0.
    9900012    2    3    3    0    0  0.32341492473E+02 -0.15885041781E+02  0.24193292568E+02  0.47787284648E+02  0.20000062024E+02 0.  0.
        -12    1    3    3    0    0 -0.32341492473E+02  0.15885041781E+02 -0.24193292568E+02  0.43400715352E+02  0.00000000000E+00 0.  1.
         11    1    4    4    0    0  0.18963592631E+02 -0.13801064209E+02  0.21328428050E+02  0.31701562455E+02  0.51100000000E-03 0. -1.
        -11    1    4    4    0    0  0.11118191149E+02  0.96431031474E+00  0.43951896561E+01  0.11994238666E+02  0.51100000000E-03 0.  1.
        -12    1    4    4    0    0  0.22597086932E+01 -0.30482878867E+01 -0.15303251377E+01  0.40914835262E+01  0.00000000000E+00 0.  1.
</event>
<event>
 8    1  0.8600524E-011  0.9118800E+02  0.7816164E-02  0.1184000E+00
        -11   -1    0    0    0    0  0.00000000000E+00  0.00000000000E+00  0.45593999997E+02  0.45594000000E+02  0.51100000000E-03 0. -1.
         11   -1    0    0    0    0 -0.00000000000E+00 -0.00000000000E+00 -0.45593999997E+02  0.45594000000E+02  0.51100000000E-03 0.  1.
         23    2    1    2    0    0  0.17763568394E-14 -0.35527136788E-14  0.71054273576E-14  0.91188000000E+02  0.91188000000E+02 0.  0.
    9900012    2    3    3    0    0 -0.81664681739E+01  0.16290876740E+02 -0.39389584242E+02  0.47787271733E+02  0.20000003138E+02 0.  0.
         12    1    3    3    0    0  0.81664681739E+01 -0.16290876740E+02  0.39389584242E+02  0.43400728267E+02  0.00000000000E+00 0. -1.
         11    1    4    4    0    0  0.18070602169E+00  0.85847428253E+01 -0.46558621115E+01  0.97676771192E+01  0.51100000000E-03 0. -1.
        -11    1    4    4    0    0 -0.10102242052E+02  0.32219216340E+01 -0.25156239087E+02  0.27299678364E+02  0.51100000000E-03 0.  1.
        -12    1    4    4    0    0  0.17550678563E+01  0.44842122809E+01 -0.95774830431E+01  0.10719916250E+02  0.00000000000E+00 0.  1.
</event>
<event>
 8    1  0.8600524E-011  0.9118800E+02  0.7816164E-02  0.1184000E+00
        -11   -1    0    0    0    0  0.00000000000E+00  0.00000000000E+00  0.45593999997E+02  0.45594000000E+02  0.51100000000E-03 0.  1.
         11   -1    0    0    0    0 -0.00000000000E+00 -0.00000000000E+00 -0.45593999997E+02  0.45594000000E+02  0.51100000000E-03 0. -1.
         23    2    1    2    0    0  0.35527136788E-14  0.35527136788E-14 -0.35527136788E-14  0.91188000000E+02  0.91188000000E+02 0.  0.
    9900012    2    3    3    0    0  0.28293199802E+02  0.22808542662E+02 -0.23725277416E+02  0.47787267726E+02  0.19999984872E+02 0.  0.
         12    1    3    3    0    0 -0.28293199802E+02 -0.22808542662E+02  0.23725277416E+02  0.43400732274E+02  0.00000000000E+00 0. -1.
         11    1    4    4    0    0  0.66924188917E+01  0.28142601323E+01 -0.81285754194E+01  0.10898727876E+02  0.51100000000E-03 0. -1.
        -11    1    4    4    0    0  0.19937907442E+02  0.21341386779E+02 -0.17480591726E+02  0.34037421027E+02  0.51100000000E-03 0.  1.
        -12    1    4    4    0    0  0.16628734686E+01 -0.13471042499E+01  0.18838897287E+01  0.28511188229E+01  0.00000000000E+00 0.  1.
</event>
<event>
 8    1  0.8600524E-011  0.9118800E+02  0.7816164E-02  0.1184000E+00
        -11   -1    0    0    0    0  0.00000000000E+00  0.00000000000E+00  0.45593999997E+02  0.45594000000E+02  0.51100000000E-03 0.  1.
         11   -1    0    0    0    0 -0.00000000000E+00 -0.00000000000E+00 -0.45593999997E+02  0.45594000000E+02  0.51100000000E-03 0. -1.
         23    2    1    2    0    0  0.00000000000E+00  0.00000000000E+00  0.17763568394E-14  0.91188000000E+02  0.91188000000E+02 0.  0.
    9900012    2    3    3    0    0  0.20124977500E+02  0.36833672457E+02 -0.11040299675E+02  0.47787281539E+02  0.20000047847E+02 0.  0.
         12    1    3    3    0    0 -0.20124977500E+02 -0.36833672457E+02  0.11040299675E+02  0.43400718461E+02  0.00000000000E+00 0. -1.
         11    1    4    4    0    0  0.44476607554E+00  0.12032323350E+02 -0.79633758786E+01  0.14435718815E+02  0.51100000000E-03 0. -1.
        -11    1    4    4    0    0  0.17099735947E+02  0.15141587493E+02 -0.44183079188E+01  0.23263492566E+02  0.51100000000E-03 0.  1.
        -12    1    4    4    0    0  0.25804754777E+01  0.96597616141E+01  0.13413841224E+01  0.10088070157E+02  0.00000000000E+00 0.  1.
</event>
<event>
 8    1  0.8600524E-011  0.9118800E+02  0.7816164E-02  0.1184000E+00
        -11   -1    0    0    0    0  0.00000000000E+00  0.00000000000E+00  0.45593999997E+02  0.45594000000E+02  0.51100000000E-03 0. -1.
         11   -1    0    0    0    0 -0.00000000000E+00 -0.00000000000E+00 -0.45593999997E+02  0.45594000000E+02  0.51100000000E-03 0.  1.
         23    2    1    2    0    0 -0.88817841970E-15  0.00000000000E+00  0.00000000000E+00  0.91188000000E+02  0.91188000000E+02 0.  0.
    9900012    2    3    3    0    0  0.64924735495E+01 -0.92574788876E+01 -0.41901907982E+02  0.47787273961E+02  0.20000013299E+02 0.  0.
         12    1    3    3    0    0 -0.64924735495E+01  0.92574788876E+01  0.41901907982E+02  0.43400726039E+02  0.00000000000E+00 0. -1.
         11    1    4    4    0    0  0.22624293969E+01 -0.52165300869E+01 -0.57534120428E+01  0.80890372307E+01  0.51100000000E-03 0. -1.
        -11    1    4    4    0    0  0.67359878914E+01  0.37432116787E+01 -0.12594424806E+02  0.14764982323E+02  0.51100000000E-03 0.  1.
        -12    1    4    4    0    0 -0.25059437388E+01 -0.77841604794E+01 -0.23554071134E+02  0.24933254408E+02  0.00000000000E+00 0.  1.
</event>
<event>
 8    1  0.8600524E-011  0.9118800E+02  0.7816164E-02  0.1184000E+00
        -11   -1    0    0    0    0  0.00000000000E+00  0.00000000000E+00  0.45593999997E+02  0.45594000000E+02  0.51100000000E-03 0. -1.
         11   -1    0    0    0    0 -0.00000000000E+00 -0.00000000000E+00 -0.45593999997E+02  0.45594000000E+02  0.51100000000E-03 0.  1.
         23    2    1    2    0    0  0.00000000000E+00  0.00000000000E+00 -0.71054273576E-14  0.91188000000E+02  0.91188000000E+02 0.  0.
    9900012    2    3    3    0    0 -0.11397937956E+02 -0.51747147837E+01 -0.41556378869E+02  0.47787270889E+02  0.19999999290E+02 0.  0.
         12    1    3    3    0    0  0.11397937956E+02  0.51747147837E+01  0.41556378869E+02  0.43400729111E+02  0.00000000000E+00 0. -1.
         11    1    4    4    0    0 -0.92273409378E+01  0.34779068123E+01 -0.12733668273E+02  0.16105463810E+02  0.51100000000E-03 0. -1.
        -11    1    4    4    0    0 -0.45313346484E+01 -0.91392386435E+01 -0.26219848341E+02  0.28134305109E+02  0.51100000000E-03 0.  1.
        -12    1    4    4    0    0  0.23607376306E+01  0.48661704757E+00 -0.26028622547E+01  0.35475019702E+01  0.00000000000E+00 0.  1.
</event>
<event>
 8    1  0.8600524E-011  0.9118800E+02  0.7816164E-02  0.1184000E+00
        -11   -1    0    0    0    0  0.00000000000E+00  0.00000000000E+00  0.45593999997E+02  0.45594000000E+02  0.51100000000E-03 0. -1.
         11   -1    0    0    0    0 -0.00000000000E+00 -0.00000000000E+00 -0.45593999997E+02  0.45594000000E+02  0.51100000000E-03 0.  1.
         23    2    1    2    0    0 -0.35527136788E-14  0.00000000000E+00  0.00000000000E+00  0.91188000000E+02  0.91188000000E+02 0.  0.
    9900012    2    3    3    0    0 -0.23757649666E+02 -0.27408630493E+02  0.23832003887E+02  0.47787270140E+02  0.19999995875E+02 0.  0.
        -12    1    3    3    0    0  0.23757649666E+02  0.27408630493E+02 -0.23832003887E+02  0.43400729860E+02  0.00000000000E+00 0.  1.
         11    1    4    4    0    0 -0.12779789329E+02 -0.14483109499E+02  0.18820167098E+02  0.26968169495E+02  0.51100000000E-03 0. -1.
        -11    1    4    4    0    0 -0.12977428227E+01 -0.77824547268E+01  0.58551518180E+01  0.98251484000E+01  0.51100000000E-03 0.  1.
         12    1    4    4    0    0 -0.96801175149E+01 -0.51430662672E+01 -0.84331502897E+00  0.10993952245E+02  0.00000000000E+00 0. -1.
</event>
<event>
 8    1  0.8600524E-011  0.9118800E+02  0.7816164E-02  0.1184000E+00
        -11   -1    0    0    0    0  0.00000000000E+00  0.00000000000E+00  0.45593999997E+02  0.45594000000E+02  0.51100000000E-03 0. -1.
         11   -1    0    0    0    0 -0.00000000000E+00 -0.00000000000E+00 -0.45593999997E+02  0.45594000000E+02  0.51100000000E-03 0.  1.
         23    2    1    2    0    0 -0.35527136788E-14 -0.88817841970E-15  0.00000000000E+00  0.91188000000E+02  0.91188000000E+02 0.  0.
    9900012    2    3    3    0    0  0.16067038029E+02  0.46819659579E+01 -0.40044378401E+02  0.47787276990E+02  0.20000027109E+02 0.  0.
         12    1    3    3    0    0 -0.16067038029E+02 -0.46819659579E+01  0.40044378401E+02  0.43400723010E+02  0.00000000000E+00 0. -1.
         11    1    4    4    0    0 -0.17245057892E+01  0.27724899815E+01 -0.72070199569E+01  0.79121272635E+01  0.51100000000E-03 0. -1.
        -11    1    4    4    0    0  0.18381150574E+02 -0.30177931217E+00 -0.21404197010E+02  0.28215198335E+02  0.51100000000E-03 0.  1.
        -12    1    4    4    0    0 -0.58960675612E+00  0.22112552886E+01 -0.11433161434E+02  0.11659951391E+02  0.00000000000E+00 0.  1.
</event>
<event>
 8    1  0.8600524E-011  0.9118800E+02  0.7816164E-02  0.1184000E+00
        -11   -1    0    0    0    0  0.00000000000E+00  0.00000000000E+00  0.45593999997E+02  0.45594000000E+02  0.51100000000E-03 0. -1.
         11   -1    0    0    0    0 -0.00000000000E+00 -0.00000000000E+00 -0.45593999997E+02  0.45594000000E+02  0.51100000000E-03 0.  1.
         23    2    1    2    0    0  0.33306690739E-15 -0.17763568394E-14  0.00000000000E+00  0.91188000000E+02  0.91188000000E+02 0.  0.
    9900012    2    3    3    0    0  0.78562196018E+00  0.15673818925E+02 -0.40464033402E+02  0.47787264975E+02  0.19999972329E+02 0.  0.
         12    1    3    3    0    0 -0.78562196018E+00 -0.15673818925E+02  0.40464033402E+02  0.43400735025E+02  0.00000000000E+00 0. -1.
         11    1    4    4    0    0 -0.25644646868E+01  0.94164935182E+00 -0.88317901708E+00  0.28710952734E+01  0.51100000000E-03 0. -1.
        -11    1    4    4    0    0  0.72409951262E+01  0.15473581946E+02 -0.34255571278E+02  0.38279340544E+02  0.51100000000E-03 0.  1.
        -12    1    4    4    0    0 -0.38909084792E+01 -0.74141237343E+00 -0.53252831065E+01  0.66368291575E+01  0.00000000000E+00 0.  1.
</event>
<event>
 8    1  0.8600524E-011  0.9118800E+02  0.7816164E-02  0.1184000E+00
        -11   -1    0    0    0    0  0.00000000000E+00  0.00000000000E+00  0.45593999997E+02  0.45594000000E+02  0.51100000000E-03 0. -1.
         11   -1    0    0    0    0 -0.00000000000E+00 -0.00000000000E+00 -0.45593999997E+02  0.45594000000E+02  0.51100000000E-03 0.  1.
         23    2    1    2    0    0  0.00000000000E+00 -0.71054273576E-14 -0.35527136788E-14  0.91188000000E+02  0.91188000000E+02 0.  0.
    9900012    2    3    3    0    0  0.35308045418E+02  0.16326700563E+02  0.19245905248E+02  0.47787261626E+02  0.19999957060E+02 0.  0.
        -12    1    3    3    0    0 -0.35308045418E+02 -0.16326700563E+02 -0.19245905248E+02  0.43400738374E+02  0.00000000000E+00 0.  1.
         11    1    4    4    0    0  0.11852829363E+02 -0.27571138836E+01  0.88096808999E+01  0.15023372414E+02  0.51100000000E-03 0. -1.
        -11    1    4    4    0    0  0.36784664308E+00 -0.32564848619E+00  0.10758542433E+01  0.11827175078E+01  0.51100000000E-03 0.  1.
         12    1    4    4    0    0  0.23087369412E+02  0.19409462933E+02  0.93603701051E+01  0.31581171705E+02  0.00000000000E+00 0. -1.
</event>
<event>
 8    1  0.8600524E-011  0.9118800E+02  0.7816164E-02  0.1184000E+00
        -11   -1    0    0    0    0  0.00000000000E+00  0.00000000000E+00  0.45593999997E+02  0.45594000000E+02  0.51100000000E-03 0. -1.
         11   -1    0    0    0    0 -0.00000000000E+00 -0.00000000000E+00 -0.45593999997E+02  0.45594000000E+02  0.51100000000E-03 0.  1.
         23    2    1    2    0    0  0.00000000000E+00  0.00000000000E+00  0.00000000000E+00  0.91188000000E+02  0.91188000000E+02 0.  0.
    9900012    2    3    3    0    0  0.35298839488E+02  0.24296368436E+02  0.68776301389E+01  0.47787269768E+02  0.19999994179E+02 0.  0.
        -12    1    3    3    0    0 -0.35298839488E+02 -0.24296368436E+02 -0.68776301389E+01  0.43400730232E+02  0.00000000000E+00 0.  1.
         11    1    4    4    0    0  0.20152434369E+02  0.76528473243E+01  0.10220890540E+02  0.23856933727E+02  0.51100000000E-03 0. -1.
        -11    1    4    4    0    0  0.62856231472E+00  0.50029574062E+01 -0.11203018839E+00  0.50435329300E+01  0.51100000000E-03 0.  1.
         12    1    4    4    0    0  0.14517842804E+02  0.11640563706E+02 -0.32312302124E+01  0.18886803111E+02  0.00000000000E+00 0. -1.
</event>
<event>
 8    1  0.8600524E-011  0.9118800E+02  0.7816164E-02  0.1184000E+00
        -11   -1    0    0    0    0  0.00000000000E+00  0.00000000000E+00  0.45593999997E+02  0.45594000000E+02  0.51100000000E-03 0. -1.
         11   -1    0    0    0    0 -0.00000000000E+00 -0.00000000000E+00 -0.45593999997E+02  0.45594000000E+02  0.51100000000E-03 0.  1.
         23    2    1    2    0    0 -0.35527136788E-14  0.35527136788E-14  0.00000000000E+00  0.91188000000E+02  0.91188000000E+02 0.  0.
    9900012    2    3    3    0    0  0.28881357388E+02 -0.23235881607E+02 -0.22573972656E+02  0.47787271434E+02  0.20000001776E+02 0.  0.
         12    1    3    3    0    0 -0.28881357388E+02  0.23235881607E+02  0.22573972656E+02  0.43400728566E+02  0.00000000000E+00 0. -1.
         11    1    4    4    0    0  0.17058928019E+02 -0.11298090577E+02 -0.58931013296E+01  0.21292780922E+02  0.51100000000E-03 0. -1.
        -11    1    4    4    0    0  0.46669938667E+01 -0.28232354401E+01 -0.13374957167E+02  0.14444409631E+02  0.51100000000E-03 0.  1.
         12    1    4    4    0    0  0.71554355022E+01 -0.91145555894E+01 -0.33059141595E+01  0.12050080881E+02  0.00000000000E+00 0. -1.
</event>
<event>
 8    1  0.8600524E-011  0.9118800E+02  0.7816164E-02  0.1184000E+00
        -11   -1    0    0    0    0  0.00000000000E+00  0.00000000000E+00  0.45593999997E+02  0.45594000000E+02  0.51100000000E-03 0. -1.
         11   -1    0    0    0    0 -0.00000000000E+00 -0.00000000000E+00 -0.45593999997E+02  0.45594000000E+02  0.51100000000E-03 0.  1.
         23    2    1    2    0    0 -0.35527136788E-14 -0.35527136788E-14  0.00000000000E+00  0.91188000000E+02  0.91188000000E+02 0.  0.
    9900012    2    3    3    0    0  0.18470893290E+02  0.20292437772E+02 -0.33625382881E+02  0.47787270703E+02  0.19999998442E+02 0.  0.
         12    1    3    3    0    0 -0.18470893290E+02 -0.20292437772E+02  0.33625382881E+02  0.43400729297E+02  0.00000000000E+00 0. -1.
         11    1    4    4    0    0  0.58420917189E+01  0.10419614117E+02 -0.15934948624E+02  0.19915345387E+02  0.51100000000E-03 0. -1.
        -11    1    4    4    0    0 -0.25143337104E+01 -0.71979626994E+00 -0.43647953419E+01  0.50883611620E+01  0.51100000000E-03 0.  1.
        -12    1    4    4    0    0  0.15143135282E+02  0.10592619925E+02 -0.13325638915E+02  0.22783564153E+02  0.00000000000E+00 0.  1.
</event>
<event>
 8    1  0.8600524E-011  0.9118800E+02  0.7816164E-02  0.1184000E+00
        -11   -1    0    0    0    0  0.00000000000E+00  0.00000000000E+00  0.45593999997E+02  0.45594000000E+02  0.51100000000E-03 0. -1.
         11   -1    0    0    0    0 -0.00000000000E+00 -0.00000000000E+00 -0.45593999997E+02  0.45594000000E+02  0.51100000000E-03 0.  1.
         23    2    1    2    0    0  0.00000000000E+00 -0.83266726847E-16  0.00000000000E+00  0.91188000000E+02  0.91188000000E+02 0.  0.
    9900012    2    3    3    0    0  0.93629609393E+01  0.18021000572E+00  0.42378370081E+02  0.47787265399E+02  0.19999974259E+02 0.  0.
        -12    1    3    3    0    0 -0.93629609393E+01 -0.18021000572E+00 -0.42378370081E+02  0.43400734601E+02  0.00000000000E+00 0.  1.
         11    1    4    4    0    0  0.82702563515E+01  0.53417965671E+01  0.10483096249E+02  0.14381489419E+02  0.51100000000E-03 0. -1.
        -11    1    4    4    0    0 -0.33939266989E+01 -0.72006970883E+00  0.86887126575E+01  0.93557985618E+01  0.51100000000E-03 0.  1.
         12    1    4    4    0    0  0.44866312867E+01 -0.44415168526E+01  0.23206561175E+02  0.24049977418E+02  0.00000000000E+00 0. -1.
</event>
<event>
 8    1  0.8600524E-011  0.9118800E+02  0.7816164E-02  0.1184000E+00
        -11   -1    0    0    0    0  0.00000000000E+00  0.00000000000E+00  0.45593999997E+02  0.45594000000E+02  0.51100000000E-03 0. -1.
         11   -1    0    0    0    0 -0.00000000000E+00 -0.00000000000E+00 -0.45593999997E+02  0.45594000000E+02  0.51100000000E-03 0.  1.
         23    2    1    2    0    0  0.00000000000E+00  0.00000000000E+00  0.71054273576E-14  0.91188000000E+02  0.91188000000E+02 0.  0.
    9900012    2    3    3    0    0  0.67541113900E+01 -0.23305505229E+02 -0.35984135035E+02  0.47787279167E+02  0.20000037034E+02 0.  0.
         12    1    3    3    0    0 -0.67541113900E+01  0.23305505229E+02  0.35984135035E+02  0.43400720833E+02  0.00000000000E+00 0. -1.
         11    1    4    4    0    0 -0.53897982037E+01 -0.10367375132E+02 -0.76305983634E+01  0.13955587535E+02  0.51100000000E-03 0. -1.
        -11    1    4    4    0    0  0.85241332481E+01 -0.69497768637E+01 -0.20842382407E+02  0.23566186597E+02  0.51100000000E-03 0.  1.
         12    1    4    4    0    0  0.36197763456E+01 -0.59883532332E+01 -0.75111542644E+01  0.10265505035E+02  0.00000000000E+00 0. -1.
</event>
<event>
 8    1  0.8600524E-011  0.9118800E+02  0.7816164E-02  0.1184000E+00
        -11   -1    0    0    0    0  0.00000000000E+00  0.00000000000E+00  0.45593999997E+02  0.45594000000E+02  0.51100000000E-03 0. -1.
         11   -1    0    0    0    0 -0.00000000000E+00 -0.00000000000E+00 -0.45593999997E+02  0.45594000000E+02  0.51100000000E-03 0.  1.
         23    2    1    2    0    0  0.00000000000E+00 -0.17763568394E-14  0.00000000000E+00  0.91188000000E+02  0.91188000000E+02 0.  0.
    9900012    2    3    3    0    0 -0.20281353419E+02 -0.13514494222E+02  0.35911676876E+02  0.47787269745E+02  0.19999994077E+02 0.  0.
        -12    1    3    3    0    0  0.20281353419E+02  0.13514494222E+02 -0.35911676876E+02  0.43400730255E+02  0.00000000000E+00 0.  1.
         11    1    4    4    0    0 -0.13657221984E+01 -0.15768078976E+01  0.80577907250E+01  0.83234314977E+01  0.51100000000E-03 0. -1.
        -11    1    4    4    0    0 -0.11407751381E+02 -0.13939811358E+02  0.25730258677E+02  0.31408618946E+02  0.51100000000E-03 0.  1.
        -12    1    4    4    0    0 -0.75078798398E+01  0.20021250340E+01  0.21236274742E+01  0.80552193011E+01  0.00000000000E+00 0.  1.
</event>
<event>
 8    1  0.8600524E-011  0.9118800E+02  0.7816164E-02  0.1184000E+00
        -11   -1    0    0    0    0  0.00000000000E+00  0.00000000000E+00  0.45593999997E+02  0.45594000000E+02  0.51100000000E-03 0. -1.
         11   -1    0    0    0    0 -0.00000000000E+00 -0.00000000000E+00 -0.45593999997E+02  0.45594000000E+02  0.51100000000E-03 0.  1.
         23    2    1    2    0    0  0.44408920985E-15  0.00000000000E+00  0.00000000000E+00  0.91188000000E+02  0.91188000000E+02 0.  0.
    9900012    2    3    3    0    0  0.15326382569E+01  0.14809621257E+02  0.40767011403E+02  0.47787273272E+02  0.20000010155E+02 0.  0.
        -12    1    3    3    0    0 -0.15326382569E+01 -0.14809621257E+02 -0.40767011403E+02  0.43400726728E+02  0.00000000000E+00 0.  1.
         11    1    4    4    0    0 -0.68916140431E+01  0.43132527997E+01  0.12497232784E+02  0.14909034890E+02  0.51100000000E-03 0.  1.
        -11    1    4    4    0    0 -0.19405567636E+01  0.37911872054E+00  0.16590967387E+01  0.25811032151E+01  0.51100000000E-03 0. -1.
         12    1    4    4    0    0  0.10364809064E+02  0.10117249737E+02  0.26610681881E+02  0.30297135167E+02  0.00000000000E+00 0. -1.
</event>
<event>
 8    1  0.8600524E-011  0.9118800E+02  0.7816164E-02  0.1184000E+00
        -11   -1    0    0    0    0  0.00000000000E+00  0.00000000000E+00  0.45593999997E+02  0.45594000000E+02  0.51100000000E-03 0. -1.
         11   -1    0    0    0    0 -0.00000000000E+00 -0.00000000000E+00 -0.45593999997E+02  0.45594000000E+02  0.51100000000E-03 0.  1.
         23    2    1    2    0    0  0.00000000000E+00 -0.44408920985E-15 -0.71054273576E-14  0.91188000000E+02  0.91188000000E+02 0.  0.
    9900012    2    3    3    0    0 -0.19574958660E+02  0.33803340691E+01 -0.38587791402E+02  0.47787270625E+02  0.19999998089E+02 0.  0.
         12    1    3    3    0    0  0.19574958660E+02 -0.33803340691E+01  0.38587791402E+02  0.43400729375E+02  0.00000000000E+00 0. -1.
         11    1    4    4    0    0  0.33386154384E+01  0.63562537453E+00 -0.51664789187E+01  0.61840825787E+01  0.51100000000E-03 0. -1.
        -11    1    4    4    0    0 -0.20837560630E+02  0.27367924188E+01 -0.33476041466E+02  0.39526438218E+02  0.51100000000E-03 0.  1.
         12    1    4    4    0    0 -0.20760134682E+01  0.79162757806E-02  0.54728982020E-01  0.20767498282E+01  0.00000000000E+00 0. -1.
</event>
<event>
 8    1  0.8600524E-011  0.9118800E+02  0.7816164E-02  0.1184000E+00
        -11   -1    0    0    0    0  0.00000000000E+00  0.00000000000E+00  0.45593999997E+02  0.45594000000E+02  0.51100000000E-03 0.  1.
         11   -1    0    0    0    0 -0.00000000000E+00 -0.00000000000E+00 -0.45593999997E+02  0.45594000000E+02  0.51100000000E-03 0. -1.
         23    2    1    2    0    0  0.00000000000E+00 -0.88817841970E-15  0.00000000000E+00  0.91188000000E+02  0.91188000000E+02 0.  0.
    9900012    2    3    3    0    0 -0.41958272100E+02 -0.72032790316E+01  0.84403380598E+01  0.47787272668E+02  0.20000007402E+02 0.  0.
         12    1    3    3    0    0  0.41958272100E+02  0.72032790316E+01 -0.84403380598E+01  0.43400727332E+02  0.00000000000E+00 0. -1.
         11    1    4    4    0    0 -0.27418573302E+01 -0.33271857425E+00  0.33063086942E+01  0.43081504977E+01  0.51100000000E-03 0. -1.
        -11    1    4    4    0    0 -0.30883036220E+02  0.16392426115E+01  0.61256564469E+01  0.31527332740E+02  0.51100000000E-03 0.  1.
        -12    1    4    4    0    0 -0.83333785492E+01 -0.85098030688E+01 -0.99162708133E+00  0.11951789430E+02  0.00000000000E+00 0.  1.
</event>
<event>
 8    1  0.8600524E-011  0.9118800E+02  0.7816164E-02  0.1184000E+00
        -11   -1    0    0    0    0  0.00000000000E+00  0.00000000000E+00  0.45593999997E+02  0.45594000000E+02  0.51100000000E-03 0. -1.
         11   -1    0    0    0    0 -0.00000000000E+00 -0.00000000000E+00 -0.45593999997E+02  0.45594000000E+02  0.51100000000E-03 0.  1.
         23    2    1    2    0    0 -0.17763568394E-14 -0.44408920985E-15  0.00000000000E+00  0.91188000000E+02  0.91188000000E+02 0.  0.
    9900012    2    3    3    0    0 -0.13734148705E+02  0.35611079121E+01 -0.41016036986E+02  0.47787267054E+02  0.19999981805E+02 0.  0.
         12    1    3    3    0    0  0.13734148705E+02 -0.35611079121E+01  0.41016036986E+02  0.43400732946E+02  0.00000000000E+00 0. -1.
         11    1    4    4    0    0 -0.83165008477E+01  0.45045733371E+01 -0.81546789278E+01  0.12488160632E+02  0.51100000000E-03 0. -1.
        -11    1    4    4    0    0  0.84835947647E+00 -0.50875128114E+01 -0.16673427533E+02  0.17452956379E+02  0.51100000000E-03 0.  1.
        -12    1    4    4    0    0 -0.62660073334E+01  0.41440473864E+01 -0.16187930525E+02  0.17846150042E+02  0.00000000000E+00 0.  1.
</event>
<event>
 8    1  0.8600524E-011  0.9118800E+02  0.7816164E-02  0.1184000E+00
        -11   -1    0    0    0    0  0.00000000000E+00  0.00000000000E+00  0.45593999997E+02  0.45594000000E+02  0.51100000000E-03 0. -1.
         11   -1    0    0    0    0 -0.00000000000E+00 -0.00000000000E+00 -0.45593999997E+02  0.45594000000E+02  0.51100000000E-03 0.  1.
         23    2    1    2    0    0  0.00000000000E+00 -0.35527136788E-14  0.00000000000E+00  0.91188000000E+02  0.91188000000E+02 0.  0.
    9900012    2    3    3    0    0 -0.33787354032E+02 -0.24764826775E+02  0.11346406432E+02  0.47787275621E+02  0.20000020867E+02 0.  0.
        -12    1    3    3    0    0  0.33787354032E+02  0.24764826775E+02 -0.11346406432E+02  0.43400724379E+02  0.00000000000E+00 0.  1.
         11    1    4    4    0    0 -0.53835005693E+01 -0.10196548062E+02  0.99739864854E+01  0.15245723251E+02  0.51100000000E-03 0.  1.
        -11    1    4    4    0    0 -0.19236854707E+02 -0.94816319251E+01 -0.19725709096E+01  0.21537152998E+02  0.51100000000E-03 0. -1.
        -12    1    4    4    0    0 -0.91669987556E+01 -0.50866467876E+01  0.33449908559E+01  0.11004399373E+02  0.00000000000E+00 0.  1.
</event>
<event>
 8    1  0.8673440E-011  0.9118800E+02  0.7816164E-02  0.1184000E+00
        -11   -1    0    0    0    0  0.00000000000E+00  0.00000000000E+00  0.45593999997E+02  0.45594000000E+02  0.51100000000E-03 0. -1.
         11   -1    0    0    0    0 -0.00000000000E+00 -0.00000000000E+00 -0.45593999997E+02  0.45594000000E+02  0.51100000000E-03 0.  1.
         23    2    1    2    0    0  0.71054273576E-14  0.00000000000E+00  0.00000000000E+00  0.91188000000E+02  0.91188000000E+02 0.  0.
    9900012    2    3    3    0    0  0.35779499393E+02 -0.91581634814E+01  0.22794269565E+02  0.47787271202E+02  0.20000000720E+02 0.  0.
        -12    1    3    3    0    0 -0.35779499393E+02  0.91581634814E+01 -0.22794269565E+02  0.43400728798E+02  0.00000000000E+00 0.  1.
         11    1    4    4    0    0  0.25661127937E+02 -0.77155747109E+01  0.14183003792E+02  0.30318000873E+02  0.51100000000E-03 0. -1.
        -11    1    4    4    0    0 -0.18604142651E+00  0.48146596840E+00 -0.22890048929E+01  0.23464791821E+01  0.51100000000E-03 0.  1.
        -12    1    4    4    0    0  0.10304412882E+02 -0.19240547389E+01  0.10900270666E+02  0.15122791147E+02  0.00000000000E+00 0.  1.
</event>
<event>
 8    1  0.8600524E-011  0.9118800E+02  0.7816164E-02  0.1184000E+00
        -11   -1    0    0    0    0  0.00000000000E+00  0.00000000000E+00  0.45593999997E+02  0.45594000000E+02  0.51100000000E-03 0. -1.
         11   -1    0    0    0    0 -0.00000000000E+00 -0.00000000000E+00 -0.45593999997E+02  0.45594000000E+02  0.51100000000E-03 0.  1.
         23    2    1    2    0    0 -0.44408920985E-15  0.00000000000E+00 -0.35527136788E-14  0.91188000000E+02  0.91188000000E+02 0.  0.
    9900012    2    3    3    0    0 -0.25962346336E+01  0.34834725445E+02  0.25757033660E+02  0.47787270581E+02  0.19999997888E+02 0.  0.
        -12    1    3    3    0    0  0.25962346336E+01 -0.34834725445E+02 -0.25757033660E+02  0.43400729419E+02  0.00000000000E+00 0.  1.
         11    1    4    4    0    0 -0.55372738645E+01  0.13884724484E+02  0.15775644278E+02  0.21732876673E+02  0.51100000000E-03 0. -1.
        -11    1    4    4    0    0  0.45736362479E+01  0.20971072437E+02  0.11011576709E+02  0.24123823279E+02  0.51100000000E-03 0.  1.
        -12    1    4    4    0    0 -0.16325970170E+01 -0.21071476487E-01 -0.10301873264E+01  0.19305706292E+01  0.00000000000E+00 0.  1.
</event>
<event>
 8    1  0.8600524E-011  0.9118800E+02  0.7816164E-02  0.1184000E+00
        -11   -1    0    0    0    0  0.00000000000E+00  0.00000000000E+00  0.45593999997E+02  0.45594000000E+02  0.51100000000E-03 0.  1.
         11   -1    0    0    0    0 -0.00000000000E+00 -0.00000000000E+00 -0.45593999997E+02  0.45594000000E+02  0.51100000000E-03 0. -1.
         23    2    1    2    0    0  0.88817841970E-15  0.00000000000E+00  0.17763568394E-14  0.91188000000E+02  0.91188000000E+02 0.  0.
    9900012    2    3    3    0    0  0.57076396432E+01  0.41731909874E+02  0.10463919790E+02  0.47787273400E+02  0.20000010741E+02 0.  0.
         12    1    3    3    0    0 -0.57076396432E+01 -0.41731909874E+02 -0.10463919790E+02  0.43400726600E+02  0.00000000000E+00 0. -1.
         11    1    4    4    0    0  0.88982452223E+01  0.34156942092E+02  0.90168316261E+01  0.36430464092E+02  0.51100000000E-03 0. -1.
        -11    1    4    4    0    0 -0.28465039894E+01  0.20449634089E+01  0.39467243406E+01  0.52783608808E+01  0.51100000000E-03 0.  1.
         12    1    4    4    0    0 -0.34410158966E+00  0.55300043726E+01 -0.24996361770E+01  0.60784484272E+01  0.00000000000E+00 0. -1.
</event>
<event>
 8    1  0.8600524E-011  0.9118800E+02  0.7816164E-02  0.1184000E+00
        -11   -1    0    0    0    0  0.00000000000E+00  0.00000000000E+00  0.45593999997E+02  0.45594000000E+02  0.51100000000E-03 0. -1.
         11   -1    0    0    0    0 -0.00000000000E+00 -0.00000000000E+00 -0.45593999997E+02  0.45594000000E+02  0.51100000000E-03 0.  1.
         23    2    1    2    0    0 -0.35527136788E-14  0.11102230246E-15  0.00000000000E+00  0.91188000000E+02  0.91188000000E+02 0.  0.
    9900012    2    3    3    0    0 -0.17201478568E+02  0.93520701213E+00  0.39835390070E+02  0.47787265224E+02  0.19999973461E+02 0.  0.
        -12    1    3    3    0    0  0.17201478568E+02 -0.93520701213E+00 -0.39835390070E+02  0.43400734776E+02  0.00000000000E+00 0.  1.
         11    1    4    4    0    0 -0.10971839308E+02  0.12101143509E+01  0.17651581419E+02  0.20818836696E+02  0.51100000000E-03 0. -1.
        -11    1    4    4    0    0 -0.26892910330E+01  0.19987175971E+01 -0.92793355291E+00  0.34768116476E+01  0.51100000000E-03 0.  1.
        -12    1    4    4    0    0 -0.35403482277E+01 -0.22736249359E+01  0.23111742204E+02  0.23491616880E+02  0.00000000000E+00 0.  1.
</event>
<event>
 8    1  0.8600524E-011  0.9118800E+02  0.7816164E-02  0.1184000E+00
        -11   -1    0    0    0    0  0.00000000000E+00  0.00000000000E+00  0.45593999997E+02  0.45594000000E+02  0.51100000000E-03 0. -1.
         11   -1    0    0    0    0 -0.00000000000E+00 -0.00000000000E+00 -0.45593999997E+02  0.45594000000E+02  0.51100000000E-03 0.  1.
         23    2    1    2    0    0 -0.66613381478E-15  0.00000000000E+00  0.71054273576E-14  0.91188000000E+02  0.91188000000E+02 0.  0.
    9900012    2    3    3    0    0 -0.16344394134E+01 -0.20769716976E+01  0.43320181344E+02  0.47787270567E+02  0.19999997824E+02 0.  0.
        -12    1    3    3    0    0  0.16344394134E+01  0.20769716976E+01 -0.43320181344E+02  0.43400729433E+02  0.00000000000E+00 0.  1.
         11    1    4    4    0    0 -0.55583220058E+01 -0.77667439089E+01  0.31014240263E+02  0.32451507728E+02  0.51100000000E-03 0. -1.
        -11    1    4    4    0    0  0.48483044371E+01  0.35655647289E+01  0.11315278604E+02  0.12816194361E+02  0.51100000000E-03 0.  1.
         12    1    4    4    0    0 -0.92442184463E+00  0.21242074824E+01  0.99066247759E+00  0.25195684788E+01  0.00000000000E+00 0. -1.
</event>
<event>
 8    1  0.8600524E-011  0.9118800E+02  0.7816164E-02  0.1184000E+00
        -11   -1    0    0    0    0  0.00000000000E+00  0.00000000000E+00  0.45593999997E+02  0.45594000000E+02  0.51100000000E-03 0. -1.
         11   -1    0    0    0    0 -0.00000000000E+00 -0.00000000000E+00 -0.45593999997E+02  0.45594000000E+02  0.51100000000E-03 0.  1.
         23    2    1    2    0    0  0.00000000000E+00  0.00000000000E+00  0.00000000000E+00  0.91188000000E+02  0.91188000000E+02 0.  0.
    9900012    2    3    3    0    0  0.99682409162E+01  0.12467920837E+02  0.40358498430E+02  0.47787271060E+02  0.20000000072E+02 0.  0.
        -12    1    3    3    0    0 -0.99682409162E+01 -0.12467920837E+02 -0.40358498430E+02  0.43400728940E+02  0.00000000000E+00 0.  1.
         11    1    4    4    0    0  0.55002379780E+01 -0.99515410435E+00  0.92637090256E+01  0.10819392528E+02  0.51100000000E-03 0. -1.
        -11    1    4    4    0    0 -0.17112757290E+01  0.79069714528E+01  0.48352600121E+01  0.94248820588E+01  0.51100000000E-03 0.  1.
        -12    1    4    4    0    0  0.61792786673E+01  0.55561034889E+01  0.26259529392E+02  0.27542996473E+02  0.00000000000E+00 0.  1.
</event>
<event>
 8    1  0.8600524E-011  0.9118800E+02  0.7816164E-02  0.1184000E+00
        -11   -1    0    0    0    0  0.00000000000E+00  0.00000000000E+00  0.45593999997E+02  0.45594000000E+02  0.51100000000E-03 0. -1.
         11   -1    0    0    0    0 -0.00000000000E+00 -0.00000000000E+00 -0.45593999997E+02  0.45594000000E+02  0.51100000000E-03 0.  1.
         23    2    1    2    0    0  0.17763568394E-14  0.00000000000E+00  0.00000000000E+00  0.91188000000E+02  0.91188000000E+02 0.  0.
    9900012    2    3    3    0    0  0.13341803076E+02 -0.34114546994E+02  0.23276973092E+02  0.47787268414E+02  0.19999988006E+02 0.  0.
        -12    1    3    3    0    0 -0.13341803076E+02  0.34114546994E+02 -0.23276973092E+02  0.43400731586E+02  0.00000000000E+00 0.  1.
         11    1    4    4    0    0  0.12498999736E+02 -0.17177450527E+02  0.16709912692E+02  0.27027966690E+02  0.51100000000E-03 0. -1.
        -11    1    4    4    0    0 -0.35801650329E+01 -0.29118343828E+01  0.33576488206E+01  0.57070278604E+01  0.51100000000E-03 0.  1.
         12    1    4    4    0    0  0.44229683733E+01 -0.14025262084E+02  0.32094115793E+01  0.15052273863E+02  0.00000000000E+00 0. -1.
</event>
<event>
 8    1  0.8600524E-011  0.9118800E+02  0.7816164E-02  0.1184000E+00
        -11   -1    0    0    0    0  0.00000000000E+00  0.00000000000E+00  0.45593999997E+02  0.45594000000E+02  0.51100000000E-03 0. -1.
         11   -1    0    0    0    0 -0.00000000000E+00 -0.00000000000E+00 -0.45593999997E+02  0.45594000000E+02  0.51100000000E-03 0.  1.
         23    2    1    2    0    0  0.17763568394E-14  0.00000000000E+00  0.00000000000E+00  0.91188000000E+02  0.91188000000E+02 0.  0.
    9900012    2    3    3    0    0  0.95729914599E+01 -0.60960870591E+01  0.41890565845E+02  0.47787263258E+02  0.19999964501E+02 0.  0.
        -12    1    3    3    0    0 -0.95729914599E+01  0.60960870591E+01 -0.41890565845E+02  0.43400736742E+02  0.00000000000E+00 0.  1.
         11    1    4    4    0    0  0.37171722193E+01 -0.16912335327E+01  0.13766777830E+02  0.14359728836E+02  0.51100000000E-03 0. -1.
        -11    1    4    4    0    0 -0.34115539418E+01  0.19061277975E+01  0.17673468502E+02  0.18100373273E+02  0.51100000000E-03 0.  1.
        -12    1    4    4    0    0  0.92673731825E+01 -0.63109813239E+01  0.10450319513E+02  0.15327161149E+02  0.00000000000E+00 0.  1.
</event>
<event>
 8    1  0.8600524E-011  0.9118800E+02  0.7816164E-02  0.1184000E+00
        -11   -1    0    0    0    0  0.00000000000E+00  0.00000000000E+00  0.45593999997E+02  0.45594000000E+02  0.51100000000E-03 0.  1.
         11   -1    0    0    0    0 -0.00000000000E+00 -0.00000000000E+00 -0.45593999997E+02  0.45594000000E+02  0.51100000000E-03 0. -1.
         23    2    1    2    0    0  0.00000000000E+00  0.00000000000E+00  0.00000000000E+00  0.91188000000E+02  0.91188000000E+02 0.  0.
    9900012    2    3    3    0    0  0.28832456777E+02 -0.32393264014E+02 -0.17289746631E+01  0.47787268778E+02  0.19999989665E+02 0.  0.
        -12    1    3    3    0    0 -0.28832456777E+02  0.32393264014E+02  0.17289746631E+01  0.43400731222E+02  0.00000000000E+00 0.  1.
         11    1    4    4    0    0  0.82091052726E+01 -0.12620554751E+02  0.48120933026E+01  0.15805823415E+02  0.51100000000E-03 0. -1.
        -11    1    4    4    0    0  0.10408870052E+02 -0.16768582792E+02 -0.78780761544E+01  0.21250741840E+02  0.51100000000E-03 0.  1.
        -12    1    4    4    0    0  0.10214481452E+02 -0.30041264707E+01  0.13370081888E+01  0.10730703523E+02  0.00000000000E+00 0.  1.
</event>
<event>
 8    1  0.8600524E-011  0.9118800E+02  0.7816164E-02  0.1184000E+00
        -11   -1    0    0    0    0  0.00000000000E+00  0.00000000000E+00  0.45593999997E+02  0.45594000000E+02  0.51100000000E-03 0. -1.
         11   -1    0    0    0    0 -0.00000000000E+00 -0.00000000000E+00 -0.45593999997E+02  0.45594000000E+02  0.51100000000E-03 0.  1.
         23    2    1    2    0    0  0.35527136788E-14  0.00000000000E+00 -0.17763568394E-14  0.91188000000E+02  0.91188000000E+02 0.  0.
    9900012    2    3    3    0    0  0.28439614296E+02 -0.30542158096E+02 -0.11915878687E+02  0.47787271350E+02  0.20000001392E+02 0.  0.
         12    1    3    3    0    0 -0.28439614296E+02  0.30542158096E+02  0.11915878687E+02  0.43400728650E+02  0.00000000000E+00 0. -1.
         11    1    4    4    0    0  0.82938998119E+01 -0.29262579650E+01 -0.85414563957E+01  0.12260025995E+02  0.51100000000E-03 0. -1.
        -11    1    4    4    0    0  0.20824390315E+02 -0.27401497040E+02 -0.39080234102E+01  0.34637695063E+02  0.51100000000E-03 0.  1.
        -12    1    4    4    0    0 -0.67867583048E+00 -0.21440309083E+00  0.53360111916E+00  0.88955029234E+00  0.00000000000E+00 0.  1.
</event>
<event>
 8    1  0.8600524E-011  0.9118800E+02  0.7816164E-02  0.1184000E+00
        -11   -1    0    0    0    0  0.00000000000E+00  0.00000000000E+00  0.45593999997E+02  0.45594000000E+02  0.51100000000E-03 0. -1.
         11   -1    0    0    0    0 -0.00000000000E+00 -0.00000000000E+00 -0.45593999997E+02  0.45594000000E+02  0.51100000000E-03 0.  1.
         23    2    1    2    0    0  0.17763568394E-14  0.00000000000E+00  0.00000000000E+00  0.91188000000E+02  0.91188000000E+02 0.  0.
    9900012    2    3    3    0    0 -0.87814218616E+01 -0.35005061584E+02  0.24107169418E+02  0.47787270470E+02  0.19999997381E+02 0.  0.
        -12    1    3    3    0    0  0.87814218616E+01  0.35005061584E+02 -0.24107169418E+02  0.43400729530E+02  0.00000000000E+00 0.  1.
         11    1    4    4    0    0 -0.11850750220E+02 -0.21001388400E+02  0.20688712027E+02  0.31772966514E+02  0.51100000000E-03 0. -1.
        -11    1    4    4    0    0  0.49179175894E+01 -0.99452740188E+01  0.32101064403E+01  0.11549855945E+02  0.51100000000E-03 0.  1.
        -12    1    4    4    0    0 -0.18485892313E+01 -0.40583991647E+01  0.20835095056E+00  0.44644480112E+01  0.00000000000E+00 0.  1.
</event>
<event>
 8    1  0.8600524E-011  0.9118800E+02  0.7816164E-02  0.1184000E+00
        -11   -1    0    0    0    0  0.00000000000E+00  0.00000000000E+00  0.45593999997E+02  0.45594000000E+02  0.51100000000E-03 0.  1.
         11   -1    0    0    0    0 -0.00000000000E+00 -0.00000000000E+00 -0.45593999997E+02  0.45594000000E+02  0.51100000000E-03 0. -1.
         23    2    1    2    0    0  0.00000000000E+00  0.35527136788E-14  0.00000000000E+00  0.91188000000E+02  0.91188000000E+02 0.  0.
    9900012    2    3    3    0    0 -0.27210118492E+02  0.26374140588E+02 -0.21157443289E+02  0.47787271358E+02  0.20000001431E+02 0.  0.
         12    1    3    3    0    0  0.27210118492E+02 -0.26374140588E+02  0.21157443289E+02  0.43400728642E+02  0.00000000000E+00 0. -1.
         11    1    4    4    0    0  0.44993302751E+00 -0.63961191860E+00 -0.74201730065E+00  0.10780227601E+01  0.51100000000E-03 0. -1.
        -11    1    4    4    0    0 -0.47467984957E+01 -0.13628668633E+01 -0.52546526325E+01  0.72111633316E+01  0.51100000000E-03 0.  1.
        -12    1    4    4    0    0 -0.22913253024E+02  0.28376619370E+02 -0.15160773356E+02  0.39498085267E+02  0.00000000000E+00 0.  1.
</event>
<event>
 8    1  0.8600524E-011  0.9118800E+02  0.7816164E-02  0.1184000E+00
        -11   -1    0    0    0    0  0.00000000000E+00  0.00000000000E+00  0.45593999997E+02  0.45594000000E+02  0.51100000000E-03 0. -1.
         11   -1    0    0    0    0 -0.00000000000E+00 -0.00000000000E+00 -0.45593999997E+02  0.45594000000E+02  0.51100000000E-03 0.  1.
         23    2    1    2    0    0  0.00000000000E+00  0.00000000000E+00  0.00000000000E+00  0.91188000000E+02  0.91188000000E+02 0.  0.
    9900012    2    3    3    0    0 -0.13953203660E+02 -0.69854354142E+01 -0.40498586008E+02  0.47787266493E+02  0.19999979249E+02 0.  0.
         12    1    3    3    0    0  0.13953203660E+02  0.69854354142E+01  0.40498586008E+02  0.43400733507E+02  0.00000000000E+00 0. -1.
         11    1    4    4    0    0 -0.93647223003E+01 -0.13553617599E+02 -0.22620590012E+02  0.27983739324E+02  0.51100000000E-03 0. -1.
        -11    1    4    4    0    0 -0.41619149489E+01  0.38821905794E+01 -0.13484116417E+02  0.14636062843E+02  0.51100000000E-03 0.  1.
         12    1    4    4    0    0 -0.42656641111E+00  0.26859916060E+01 -0.43938795785E+01  0.51674643260E+01  0.00000000000E+00 0. -1.
</event>
<event>
 8    1  0.8600524E-011  0.9118800E+02  0.7816164E-02  0.1184000E+00
        -11   -1    0    0    0    0  0.00000000000E+00  0.00000000000E+00  0.45593999997E+02  0.45594000000E+02  0.51100000000E-03 0. -1.
         11   -1    0    0    0    0 -0.00000000000E+00 -0.00000000000E+00 -0.45593999997E+02  0.45594000000E+02  0.51100000000E-03 0.  1.
         23    2    1    2    0    0  0.00000000000E+00  0.35527136788E-14  0.00000000000E+00  0.91188000000E+02  0.91188000000E+02 0.  0.
    9900012    2    3    3    0    0 -0.20979222178E+02  0.17559325838E+02 -0.33692224335E+02  0.47787266507E+02  0.19999979312E+02 0.  0.
         12    1    3    3    0    0  0.20979222178E+02 -0.17559325838E+02  0.33692224335E+02  0.43400733493E+02  0.00000000000E+00 0. -1.
         11    1    4    4    0    0 -0.10644375788E+02 -0.15245277869E+01 -0.17979914120E+02  0.20950041358E+02  0.51100000000E-03 0. -1.
        -11    1    4    4    0    0 -0.67138036506E+01  0.12664027432E+02 -0.94809676645E+01  0.17185502564E+02  0.51100000000E-03 0.  1.
         12    1    4    4    0    0 -0.36210427396E+01  0.64198261935E+01 -0.62313425507E+01  0.96517225852E+01  0.00000000000E+00 0. -1.
</event>
<event>
 8    1  0.8600524E-011  0.9118800E+02  0.7816164E-02  0.1184000E+00
        -11   -1    0    0    0    0  0.00000000000E+00  0.00000000000E+00  0.45593999997E+02  0.45594000000E+02  0.51100000000E-03 0. -1.
         11   -1    0    0    0    0 -0.00000000000E+00 -0.00000000000E+00 -0.45593999997E+02  0.45594000000E+02  0.51100000000E-03 0.  1.
         23    2    1    2    0    0  0.00000000000E+00 -0.88817841970E-15 -0.71054273576E-14  0.91188000000E+02  0.91188000000E+02 0.  0.
    9900012    2    3    3    0    0  0.15694523924E+02  0.59295271129E+01  0.40026813185E+02  0.47787272509E+02  0.20000006678E+02 0.  0.
        -12    1    3    3    0    0 -0.15694523924E+02 -0.59295271129E+01 -0.40026813185E+02  0.43400727491E+02  0.00000000000E+00 0.  1.
         11    1    4    4    0    0 -0.27988165148E+01 -0.13012831987E+01  0.50004017001E+01  0.58762853292E+01  0.51100000000E-03 0.  1.
        -11    1    4    4    0    0  0.15554248296E+02  0.44941863891E+00  0.25163381874E+02  0.29586017048E+02  0.51100000000E-03 0. -1.
        -12    1    4    4    0    0  0.29390921427E+01  0.67813916727E+01  0.98630296109E+01  0.12324970132E+02  0.00000000000E+00 0.  1.
</event>
<event>
 8    1  0.8600524E-011  0.9118800E+02  0.7816164E-02  0.1184000E+00
        -11   -1    0    0    0    0  0.00000000000E+00  0.00000000000E+00  0.45593999997E+02  0.45594000000E+02  0.51100000000E-03 0.  1.
         11   -1    0    0    0    0 -0.00000000000E+00 -0.00000000000E+00 -0.45593999997E+02  0.45594000000E+02  0.51100000000E-03 0. -1.
         23    2    1    2    0    0  0.71054273576E-14  0.55511151231E-16  0.88817841970E-15  0.91188000000E+02  0.91188000000E+02 0.  0.
    9900012    2    3    3    0    0 -0.42919780502E+02  0.15287576862E+00 -0.64414158051E+01  0.47787276885E+02  0.20000026630E+02 0.  0.
         12    1    3    3    0    0  0.42919780502E+02 -0.15287576862E+00  0.64414158051E+01  0.43400723115E+02  0.00000000000E+00 0. -1.
         11    1    4    4    0    0 -0.22259135083E+01  0.18930023264E+01  0.52367558272E+00  0.29685661743E+01  0.51100000000E-03 0. -1.
        -11    1    4    4    0    0  0.13228335248E+01 -0.18213813690E-01  0.14179774517E+01  0.19392989950E+01  0.51100000000E-03 0.  1.
        -12    1    4    4    0    0 -0.42016700518E+02 -0.17219127441E+01 -0.83830688395E+01  0.42879411716E+02  0.00000000000E+00 0.  1.
</event>
<event>
 8    1  0.8600524E-011  0.9118800E+02  0.7816164E-02  0.1184000E+00
        -11   -1    0    0    0    0  0.00000000000E+00  0.00000000000E+00  0.45593999997E+02  0.45594000000E+02  0.51100000000E-03 0. -1.
         11   -1    0    0    0    0 -0.00000000000E+00 -0.00000000000E+00 -0.45593999997E+02  0.45594000000E+02  0.51100000000E-03 0.  1.
         23    2    1    2    0    0  0.00000000000E+00  0.00000000000E+00 -0.88817841970E-15  0.91188000000E+02  0.91188000000E+02 0.  0.
    9900012    2    3    3    0    0 -0.42593131804E+02 -0.28292056311E+01  0.78386238791E+01  0.47787270678E+02  0.19999998328E+02 0.  0.
        -12    1    3    3    0    0  0.42593131804E+02  0.28292056311E+01 -0.78386238791E+01  0.43400729322E+02  0.00000000000E+00 0.  1.
         11    1    4    4    0    0 -0.29275834363E+02 -0.13717134988E+01  0.10466283231E+02  0.31120719152E+02  0.51100000000E-03 0. -1.
        -11    1    4    4    0    0 -0.12808406772E+01  0.20706028510E+01 -0.33054724221E+01  0.41053741853E+01  0.51100000000E-03 0.  1.
        -12    1    4    4    0    0 -0.12036456763E+02 -0.35280949833E+01  0.67781307043E+00  0.12561177341E+02  0.00000000000E+00 0.  1.
</event>
<event>
 8    1  0.8600524E-011  0.9118800E+02  0.7816164E-02  0.1184000E+00
        -11   -1    0    0    0    0  0.00000000000E+00  0.00000000000E+00  0.45593999997E+02  0.45594000000E+02  0.51100000000E-03 0. -1.
         11   -1    0    0    0    0 -0.00000000000E+00 -0.00000000000E+00 -0.45593999997E+02  0.45594000000E+02  0.51100000000E-03 0.  1.
         23    2    1    2    0    0  0.00000000000E+00  0.00000000000E+00  0.00000000000E+00  0.91188000000E+02  0.91188000000E+02 0.  0.
    9900012    2    3    3    0    0  0.96307545607E+01  0.16945591355E+02  0.38777816907E+02  0.47787267473E+02  0.19999983716E+02 0.  0.
        -12    1    3    3    0    0 -0.96307545607E+01 -0.16945591355E+02 -0.38777816907E+02  0.43400732527E+02  0.00000000000E+00 0.  1.
         11    1    4    4    0    0  0.57145132185E+01  0.16418762312E+02  0.35952982269E+02  0.39935552475E+02  0.51100000000E-03 0. -1.
        -11    1    4    4    0    0 -0.40542365410E+00  0.18750034154E+01 -0.77387086171E+00  0.20685459915E+01  0.51100000000E-03 0.  1.
        -12    1    4    4    0    0  0.43216649964E+01 -0.13481743722E+01  0.35987054998E+01  0.57831690061E+01  0.00000000000E+00 0.  1.
</event>
<event>
 8    1  0.8600524E-011  0.9118800E+02  0.7816164E-02  0.1184000E+00
        -11   -1    0    0    0    0  0.00000000000E+00  0.00000000000E+00  0.45593999997E+02  0.45594000000E+02  0.51100000000E-03 0. -1.
         11   -1    0    0    0    0 -0.00000000000E+00 -0.00000000000E+00 -0.45593999997E+02  0.45594000000E+02  0.51100000000E-03 0.  1.
         23    2    1    2    0    0  0.00000000000E+00  0.00000000000E+00  0.00000000000E+00  0.91188000000E+02  0.91188000000E+02 0.  0.
    9900012    2    3    3    0    0  0.30264862532E+02 -0.20145239783E+02 -0.23702957581E+02  0.47787276641E+02  0.20000025518E+02 0.  0.
         12    1    3    3    0    0 -0.30264862532E+02  0.20145239783E+02  0.23702957581E+02  0.43400723359E+02  0.00000000000E+00 0. -1.
         11    1    4    4    0    0  0.43188713446E+01  0.31013668305E+01 -0.14161988958E+00  0.53189456063E+01  0.51100000000E-03 0. -1.
        -11    1    4    4    0    0  0.10632697011E+02 -0.12914458526E+02 -0.93715827102E+01  0.19174567727E+02  0.51100000000E-03 0.  1.
         12    1    4    4    0    0  0.15313294176E+02 -0.10332148088E+02 -0.14189754981E+02  0.23293763308E+02  0.00000000000E+00 0. -1.
</event>
<event>
 8    1  0.8600524E-011  0.9118800E+02  0.7816164E-02  0.1184000E+00
        -11   -1    0    0    0    0  0.00000000000E+00  0.00000000000E+00  0.45593999997E+02  0.45594000000E+02  0.51100000000E-03 0. -1.
         11   -1    0    0    0    0 -0.00000000000E+00 -0.00000000000E+00 -0.45593999997E+02  0.45594000000E+02  0.51100000000E-03 0.  1.
         23    2    1    2    0    0  0.22204460493E-15  0.00000000000E+00  0.00000000000E+00  0.91188000000E+02  0.91188000000E+02 0.  0.
    9900012    2    3    3    0    0 -0.95816398162E+00  0.18446000844E+02 -0.39274055817E+02  0.47787257084E+02  0.19999936348E+02 0.  0.
         12    1    3    3    0    0  0.95816398162E+00 -0.18446000844E+02  0.39274055817E+02  0.43400742916E+02  0.00000000000E+00 0. -1.
         11    1    4    4    0    0 -0.19075745441E+01  0.12614321432E+01 -0.35604080588E+01  0.42316140537E+01  0.51100000000E-03 0. -1.
        -11    1    4    4    0    0 -0.61565212335E+01  0.14314747080E+02 -0.30610461333E+02  0.34348436368E+02  0.51100000000E-03 0.  1.
        -12    1    4    4    0    0  0.71059317960E+01  0.28698216207E+01 -0.51031864251E+01  0.92072066618E+01  0.00000000000E+00 0.  1.
</event>
<event>
 8    1  0.8600524E-011  0.9118800E+02  0.7816164E-02  0.1184000E+00
        -11   -1    0    0    0    0  0.00000000000E+00  0.00000000000E+00  0.45593999997E+02  0.45594000000E+02  0.51100000000E-03 0. -1.
         11   -1    0    0    0    0 -0.00000000000E+00 -0.00000000000E+00 -0.45593999997E+02  0.45594000000E+02  0.51100000000E-03 0.  1.
         23    2    1    2    0    0 -0.35527136788E-14  0.00000000000E+00  0.00000000000E+00  0.91188000000E+02  0.91188000000E+02 0.  0.
    9900012    2    3    3    0    0 -0.18530446307E+02  0.11395297114E+02  0.37555205435E+02  0.47787266229E+02  0.19999978042E+02 0.  0.
        -12    1    3    3    0    0  0.18530446307E+02 -0.11395297114E+02 -0.37555205435E+02  0.43400733771E+02  0.00000000000E+00 0.  1.
         11    1    4    4    0    0 -0.11147643884E+02  0.11375255326E+02  0.30909254131E+02  0.34771373126E+02  0.51100000000E-03 0. -1.
        -11    1    4    4    0    0 -0.67230023482E+01  0.56855808911E-01  0.40005364394E+00  0.67351344705E+01  0.51100000000E-03 0.  1.
        -12    1    4    4    0    0 -0.65980007416E+00 -0.36814020698E-01  0.62458976599E+01  0.62807586316E+01  0.00000000000E+00 0.  1.
</event>
<event>
 8    1  0.8600524E-011  0.9118800E+02  0.7816164E-02  0.1184000E+00
        -11   -1    0    0    0    0  0.00000000000E+00  0.00000000000E+00  0.45593999997E+02  0.45594000000E+02  0.51100000000E-03 0. -1.
         11   -1    0    0    0    0 -0.00000000000E+00 -0.00000000000E+00 -0.45593999997E+02  0.45594000000E+02  0.51100000000E-03 0.  1.
         23    2    1    2    0    0 -0.44408920985E-15  0.88817841970E-15  0.00000000000E+00  0.91188000000E+02  0.91188000000E+02 0.  0.
    9900012    2    3    3    0    0  0.36054681924E+01 -0.64284358329E+01  0.42770305178E+02  0.47787271974E+02  0.20000004240E+02 0.  0.
        -12    1    3    3    0    0 -0.36054681924E+01  0.64284358329E+01 -0.42770305178E+02  0.43400728026E+02  0.00000000000E+00 0.  1.
         11    1    4    4    0    0 -0.28222476645E+01 -0.97457450708E+01  0.21823550395E+02  0.24066823242E+02  0.51100000000E-03 0. -1.
        -11    1    4    4    0    0  0.57256777864E+01 -0.17008257376E+00  0.57630181487E+01  0.81255579894E+01  0.51100000000E-03 0.  1.
         12    1    4    4    0    0  0.70203807050E+00  0.34873918116E+01  0.15183736634E+02  0.15594890743E+02  0.00000000000E+00 0. -1.
</event>
<event>
 8    1  0.8600524E-011  0.9118800E+02  0.7816164E-02  0.1184000E+00
        -11   -1    0    0    0    0  0.00000000000E+00  0.00000000000E+00  0.45593999997E+02  0.45594000000E+02  0.51100000000E-03 0. -1.
         11   -1    0    0    0    0 -0.00000000000E+00 -0.00000000000E+00 -0.45593999997E+02  0.45594000000E+02  0.51100000000E-03 0.  1.
         23    2    1    2    0    0 -0.35527136788E-14 -0.35527136788E-14  0.00000000000E+00  0.91188000000E+02  0.91188000000E+02 0.  0.
    9900012    2    3    3    0    0  0.22149290196E+02  0.52098138031E+01  0.36957938034E+02  0.47787281115E+02  0.20000045915E+02 0.  0.
        -12    1    3    3    0    0 -0.22149290196E+02 -0.52098138031E+01 -0.36957938034E+02  0.43400718885E+02  0.00000000000E+00 0.  1.
         11    1    4    4    0    0  0.31718210900E+01 -0.48106184996E+01  0.29519534554E+01  0.64742975557E+01  0.51100000000E-03 0. -1.
        -11    1    4    4    0    0  0.19688509051E+02  0.10424951031E+02  0.30852636093E+02  0.38055251238E+02  0.51100000000E-03 0.  1.
         12    1    4    4    0    0 -0.71103994502E+00 -0.40451872833E+00  0.31533484850E+01  0.32577323207E+01  0.00000000000E+00 0. -1.
</event>
<event>
 8    1  0.8600524E-011  0.9118800E+02  0.7816164E-02  0.1184000E+00
        -11   -1    0    0    0    0  0.00000000000E+00  0.00000000000E+00  0.45593999997E+02  0.45594000000E+02  0.51100000000E-03 0. -1.
         11   -1    0    0    0    0 -0.00000000000E+00 -0.00000000000E+00 -0.45593999997E+02  0.45594000000E+02  0.51100000000E-03 0.  1.
         23    2    1    2    0    0  0.00000000000E+00  0.71054273576E-14  0.00000000000E+00  0.91188000000E+02  0.91188000000E+02 0.  0.
    9900012    2    3    3    0    0  0.58170935572E+01  0.40184591176E+02 -0.15329160599E+02  0.47787272931E+02  0.20000008601E+02 0.  0.
         12    1    3    3    0    0 -0.58170935572E+01 -0.40184591176E+02  0.15329160599E+02  0.43400727069E+02  0.00000000000E+00 0. -1.
         11    1    4    4    0    0  0.65019732395E+01  0.76525165306E+01 -0.10789139665E+02  0.14739138382E+02  0.51100000000E-03 0. -1.
        -11    1    4    4    0    0 -0.39837626330E+00  0.21493300147E+02 -0.46986700620E+01  0.22004503072E+02  0.51100000000E-03 0.  1.
         12    1    4    4    0    0 -0.28650341903E+00  0.11038774499E+02  0.15864912878E+00  0.11043631477E+02  0.00000000000E+00 0. -1.
</event>
<event>
 8    1  0.8600524E-011  0.9118800E+02  0.7816164E-02  0.1184000E+00
        -11   -1    0    0    0    0  0.00000000000E+00  0.00000000000E+00  0.45593999997E+02  0.45594000000E+02  0.51100000000E-03 0. -1.
         11   -1    0    0    0    0 -0.00000000000E+00 -0.00000000000E+00 -0.45593999997E+02  0.45594000000E+02  0.51100000000E-03 0.  1.
         23    2    1    2    0    0 -0.35527136788E-14 -0.71054273576E-14 -0.17763568394E-14  0.91188000000E+02  0.91188000000E+02 0.  0.
    9900012    2    3    3    0    0  0.19652617651E+02  0.37690425286E+02  0.87652478406E+01  0.47787272950E+02  0.20000008688E+02 0.  0.
        -12    1    3    3    0    0 -0.19652617651E+02 -0.37690425286E+02 -0.87652478406E+01  0.43400727050E+02  0.00000000000E+00 0.  1.
         11    1    4    4    0    0  0.11496025321E+02  0.96513434466E+01  0.96020029428E+01  0.17818683714E+02  0.51100000000E-03 0. -1.
        -11    1    4    4    0    0  0.71794327431E+01  0.19714100241E+02 -0.32848009620E+01  0.21236287822E+02  0.51100000000E-03 0.  1.
        -12    1    4    4    0    0  0.97715958692E+00  0.83249815979E+01  0.24480458598E+01  0.87323014146E+01  0.00000000000E+00 0.  1.
</event>
<event>
 8    1  0.8600524E-011  0.9118800E+02  0.7816164E-02  0.1184000E+00
        -11   -1    0    0    0    0  0.00000000000E+00  0.00000000000E+00  0.45593999997E+02  0.45594000000E+02  0.51100000000E-03 0. -1.
         11   -1    0    0    0    0 -0.00000000000E+00 -0.00000000000E+00 -0.45593999997E+02  0.45594000000E+02  0.51100000000E-03 0.  1.
         23    2    1    2    0    0  0.71054273576E-14  0.00000000000E+00  0.00000000000E+00  0.91188000000E+02  0.91188000000E+02 0.  0.
    9900012    2    3    3    0    0 -0.38405245080E+02 -0.19540326919E+02 -0.51803452065E+01  0.47787271870E+02  0.20000003763E+02 0.  0.
         12    1    3    3    0    0  0.38405245080E+02  0.19540326919E+02  0.51803452065E+01  0.43400728130E+02  0.00000000000E+00 0. -1.
         11    1    4    4    0    0 -0.10044848522E+02 -0.13721172480E+02  0.18498836671E+01  0.17105309874E+02  0.51100000000E-03 0. -1.
        -11    1    4    4    0    0 -0.87353918941E+01  0.38007316066E+00 -0.48162505243E+01  0.99823742929E+01  0.51100000000E-03 0.  1.
         12    1    4    4    0    0 -0.19625004665E+02 -0.61992275997E+01 -0.22139783493E+01  0.20699587702E+02  0.00000000000E+00 0. -1.
</event>
<event>
 8    1  0.8600524E-011  0.9118800E+02  0.7816164E-02  0.1184000E+00
        -11   -1    0    0    0    0  0.00000000000E+00  0.00000000000E+00  0.45593999997E+02  0.45594000000E+02  0.51100000000E-03 0.  1.
         11   -1    0    0    0    0 -0.00000000000E+00 -0.00000000000E+00 -0.45593999997E+02  0.45594000000E+02  0.51100000000E-03 0. -1.
         23    2    1    2    0    0  0.00000000000E+00  0.00000000000E+00  0.00000000000E+00  0.91188000000E+02  0.91188000000E+02 0.  0.
    9900012    2    3    3    0    0  0.40051722209E+02 -0.13961973821E+02 -0.91948536265E+01  0.47787279982E+02  0.20000040750E+02 0.  0.
         12    1    3    3    0    0 -0.40051722209E+02  0.13961973821E+02  0.91948536265E+01  0.43400720018E+02  0.00000000000E+00 0. -1.
         11    1    4    4    0    0  0.29953221469E+02 -0.11749656369E+02 -0.26932468245E+01  0.32287822470E+02  0.51100000000E-03 0.  1.
        -11    1    4    4    0    0  0.16225337599E+01 -0.11244798189E+01 -0.66662237991E+01  0.69523816542E+01  0.51100000000E-03 0. -1.
         12    1    4    4    0    0  0.84759669801E+01 -0.10878376332E+01  0.16461699713E+00  0.85470758579E+01  0.00000000000E+00 0. -1.
</event>
<event>
 8    1  0.8600524E-011  0.9118800E+02  0.7816164E-02  0.1184000E+00
        -11   -1    0    0    0    0  0.00000000000E+00  0.00000000000E+00  0.45593999997E+02  0.45594000000E+02  0.51100000000E-03 0. -1.
         11   -1    0    0    0    0 -0.00000000000E+00 -0.00000000000E+00 -0.45593999997E+02  0.45594000000E+02  0.51100000000E-03 0.  1.
         23    2    1    2    0    0  0.00000000000E+00  0.00000000000E+00  0.00000000000E+00  0.91188000000E+02  0.91188000000E+02 0.  0.
    9900012    2    3    3    0    0 -0.14015062383E+01 -0.64621777386E+01 -0.42894045955E+02  0.47787272596E+02  0.20000007073E+02 0.  0.
         12    1    3    3    0    0  0.14015062383E+01  0.64621777386E+01  0.42894045955E+02  0.43400727404E+02  0.00000000000E+00 0. -1.
         11    1    4    4    0    0  0.47823552981E+01 -0.56873447810E+01 -0.29139512078E+02  0.30072046443E+02  0.51100000000E-03 0.  1.
        -11    1    4    4    0    0 -0.29736587108E+01  0.22435466311E+01 -0.12629655323E+02  0.13167548802E+02  0.51100000000E-03 0. -1.
         12    1    4    4    0    0 -0.32102028255E+01 -0.30183795886E+01 -0.11248785530E+01  0.45476773501E+01  0.00000000000E+00 0. -1.
</event>
<event>
 8    1  0.8600524E-011  0.9118800E+02  0.7816164E-02  0.1184000E+00
        -11   -1    0    0    0    0  0.00000000000E+00  0.00000000000E+00  0.45593999997E+02  0.45594000000E+02  0.51100000000E-03 0. -1.
         11   -1    0    0    0    0 -0.00000000000E+00 -0.00000000000E+00 -0.45593999997E+02  0.45594000000E+02  0.51100000000E-03 0.  1.
         23    2    1    2    0    0  0.35527136788E-14  0.53290705182E-14 -0.35527136788E-14  0.91188000000E+02  0.91188000000E+02 0.  0.
    9900012    2    3    3    0    0 -0.29779071607E+02 -0.10157402156E+02  0.29894101339E+02  0.47787271674E+02  0.20000002872E+02 0.  0.
        -12    1    3    3    0    0  0.29779071607E+02  0.10157402156E+02 -0.29894101339E+02  0.43400728326E+02  0.00000000000E+00 0.  1.
         11    1    4    4    0    0 -0.10351895287E+02 -0.43555323404E+01  0.83995780362E+01  0.14024453980E+02  0.51100000000E-03 0. -1.
        -11    1    4    4    0    0 -0.16339252949E+02  0.30075094241E+01  0.15074025598E+02  0.22433068178E+02  0.51100000000E-03 0.  1.
        -12    1    4    4    0    0 -0.30879233717E+01 -0.88093792398E+01  0.64204977039E+01  0.11329749516E+02  0.00000000000E+00 0.  1.
</event>
<event>
 8    1  0.8600524E-011  0.9118800E+02  0.7816164E-02  0.1184000E+00
        -11   -1    0    0    0    0  0.00000000000E+00  0.00000000000E+00  0.45593999997E+02  0.45594000000E+02  0.51100000000E-03 0. -1.
         11   -1    0    0    0    0 -0.00000000000E+00 -0.00000000000E+00 -0.45593999997E+02  0.45594000000E+02  0.51100000000E-03 0.  1.
         23    2    1    2    0    0 -0.88817841970E-15 -0.35527136788E-14 -0.71054273576E-14  0.91188000000E+02  0.91188000000E+02 0.  0.
    9900012    2    3    3    0    0 -0.58854959730E+01  0.18813757443E+02  0.38665554099E+02  0.47787290262E+02  0.20000087621E+02 0.  0.
        -12    1    3    3    0    0  0.58854959730E+01 -0.18813757443E+02 -0.38665554099E+02  0.43400709738E+02  0.00000000000E+00 0.  1.
         11    1    4    4    0    0  0.10119194148E+01  0.62176535674E+01  0.17307072396E+02  0.18417870451E+02  0.51100000000E-03 0. -1.
        -11    1    4    4    0    0  0.17651016492E+01  0.59638373259E+01  0.16097560506E+02  0.17257299731E+02  0.51100000000E-03 0.  1.
        -12    1    4    4    0    0 -0.86625170370E+01  0.66322665495E+01  0.52609211971E+01  0.12112120080E+02  0.00000000000E+00 0.  1.
</event>
<event>
 8    1  0.8600524E-011  0.9118800E+02  0.7816164E-02  0.1184000E+00
        -11   -1    0    0    0    0  0.00000000000E+00  0.00000000000E+00  0.45593999997E+02  0.45594000000E+02  0.51100000000E-03 0. -1.
         11   -1    0    0    0    0 -0.00000000000E+00 -0.00000000000E+00 -0.45593999997E+02  0.45594000000E+02  0.51100000000E-03 0.  1.
         23    2    1    2    0    0  0.00000000000E+00  0.00000000000E+00  0.00000000000E+00  0.91188000000E+02  0.91188000000E+02 0.  0.
    9900012    2    3    3    0    0  0.18579976190E+02 -0.84682957107E+01  0.38297462539E+02  0.47787272076E+02  0.20000004702E+02 0.  0.
        -12    1    3    3    0    0 -0.18579976190E+02  0.84682957107E+01 -0.38297462539E+02  0.43400727924E+02  0.00000000000E+00 0.  1.
         11    1    4    4    0    0  0.10259653492E+01  0.40847022383E+01  0.11945110700E+02  0.12665822799E+02  0.51100000000E-03 0. -1.
        -11    1    4    4    0    0  0.88663466089E+01 -0.73241845100E+01  0.75436300217E+01  0.13753622617E+02  0.51100000000E-03 0.  1.
        -12    1    4    4    0    0  0.86876642319E+01 -0.52288134390E+01  0.18808721817E+02  0.21367826660E+02  0.00000000000E+00 0.  1.
</event>
<event>
 8    1  0.1007903E-010  0.9118800E+02  0.7816164E-02  0.1184000E+00
        -11   -1    0    0    0    0  0.00000000000E+00  0.00000000000E+00  0.45593999997E+02  0.45594000000E+02  0.51100000000E-03 0. -1.
         11   -1    0    0    0    0 -0.00000000000E+00 -0.00000000000E+00 -0.45593999997E+02  0.45594000000E+02  0.51100000000E-03 0.  1.
         23    2    1    2    0    0  0.88817841970E-15 -0.44408920985E-15  0.00000000000E+00  0.91188000000E+02  0.91188000000E+02 0.  0.
    9900012    2    3    3    0    0  0.70837809339E+01 -0.30952790895E+01  0.42706699898E+02  0.47787275108E+02  0.20000018529E+02 0.  0.
        -12    1    3    3    0    0 -0.70837809339E+01  0.30952790895E+01 -0.42706699898E+02  0.43400724892E+02  0.00000000000E+00 0.  1.
         11    1    4    4    0    0  0.79146899568E+01 -0.81376281852E-01  0.22442134034E+02  0.23797023332E+02  0.51100000000E-03 0. -1.
        -11    1    4    4    0    0 -0.49881833417E-01  0.55227317731E+00 -0.16670547926E+01  0.17568624881E+01  0.51100000000E-03 0.  1.
        -12    1    4    4    0    0 -0.78102718947E+00 -0.35661759850E+01  0.21931620656E+02  0.22233389288E+02  0.00000000000E+00 0.  1.
</event>
<event>
 8    1  0.8600524E-011  0.9118800E+02  0.7816164E-02  0.1184000E+00
        -11   -1    0    0    0    0  0.00000000000E+00  0.00000000000E+00  0.45593999997E+02  0.45594000000E+02  0.51100000000E-03 0. -1.
         11   -1    0    0    0    0 -0.00000000000E+00 -0.00000000000E+00 -0.45593999997E+02  0.45594000000E+02  0.51100000000E-03 0.  1.
         23    2    1    2    0    0  0.71054273576E-14  0.00000000000E+00  0.35527136788E-14  0.91188000000E+02  0.91188000000E+02 0.  0.
    9900012    2    3    3    0    0  0.33000323311E+02  0.34643731893E+01  0.27974986796E+02  0.47787272973E+02  0.20000008792E+02 0.  0.
        -12    1    3    3    0    0 -0.33000323311E+02 -0.34643731893E+01 -0.27974986796E+02  0.43400727027E+02  0.00000000000E+00 0.  1.
         11    1    4    4    0    0  0.28247719942E+02 -0.99399420519E+00  0.22998138769E+02  0.36439485363E+02  0.51100000000E-03 0. -1.
        -11    1    4    4    0    0  0.45033938395E+01  0.12896195354E+01 -0.80191306199E+00  0.47525508351E+01  0.51100000000E-03 0.  1.
         12    1    4    4    0    0  0.24920952924E+00  0.31687478591E+01  0.57787610898E+01  0.65952367749E+01  0.00000000000E+00 0. -1.
</event>
<event>
 8    1  0.8600524E-011  0.9118800E+02  0.7816164E-02  0.1184000E+00
        -11   -1    0    0    0    0  0.00000000000E+00  0.00000000000E+00  0.45593999997E+02  0.45594000000E+02  0.51100000000E-03 0. -1.
         11   -1    0    0    0    0 -0.00000000000E+00 -0.00000000000E+00 -0.45593999997E+02  0.45594000000E+02  0.51100000000E-03 0.  1.
         23    2    1    2    0    0  0.35527136788E-14  0.00000000000E+00  0.35527136788E-14  0.91188000000E+02  0.91188000000E+02 0.  0.
    9900012    2    3    3    0    0  0.31069270426E+02  0.53668103287E+01  0.29824843272E+02  0.47787268507E+02  0.19999988431E+02 0.  0.
        -12    1    3    3    0    0 -0.31069270426E+02 -0.53668103287E+01 -0.29824843272E+02  0.43400731493E+02  0.00000000000E+00 0.  1.
         11    1    4    4    0    0  0.11756478086E+02 -0.22956206079E+01  0.78719303231E+01  0.14333594742E+02  0.51100000000E-03 0. -1.
        -11    1    4    4    0    0  0.68901469297E+00  0.31518192953E+01 -0.11617470613E+01  0.34290468957E+01  0.51100000000E-03 0.  1.
        -12    1    4    4    0    0  0.18623777647E+02  0.45106116413E+01  0.23114660010E+02  0.30024626869E+02  0.00000000000E+00 0.  1.
</event>
<event>
 8    1  0.8600524E-011  0.9118800E+02  0.7816164E-02  0.1184000E+00
        -11   -1    0    0    0    0  0.00000000000E+00  0.00000000000E+00  0.45593999997E+02  0.45594000000E+02  0.51100000000E-03 0. -1.
         11   -1    0    0    0    0 -0.00000000000E+00 -0.00000000000E+00 -0.45593999997E+02  0.45594000000E+02  0.51100000000E-03 0.  1.
         23    2    1    2    0    0  0.00000000000E+00  0.00000000000E+00  0.00000000000E+00  0.91188000000E+02  0.91188000000E+02 0.  0.
    9900012    2    3    3    0    0 -0.27711273471E+02 -0.95793246794E+01 -0.31999140745E+02  0.47787272505E+02  0.20000006660E+02 0.  0.
         12    1    3    3    0    0  0.27711273471E+02  0.95793246794E+01  0.31999140745E+02  0.43400727495E+02  0.00000000000E+00 0. -1.
         11    1    4    4    0    0 -0.90023659171E+01 -0.91791877605E+01 -0.23103210304E+02  0.26439712681E+02  0.51100000000E-03 0. -1.
        -11    1    4    4    0    0 -0.26828814158E+01 -0.15318078623E+01 -0.27827354223E+01  0.41578726183E+01  0.51100000000E-03 0.  1.
         12    1    4    4    0    0 -0.16026026138E+02  0.11316709434E+01 -0.61131950184E+01  0.17189687206E+02  0.00000000000E+00 0. -1.
</event>
<event>
 8    1  0.8600524E-011  0.9118800E+02  0.7816164E-02  0.1184000E+00
        -11   -1    0    0    0    0  0.00000000000E+00  0.00000000000E+00  0.45593999997E+02  0.45594000000E+02  0.51100000000E-03 0. -1.
         11   -1    0    0    0    0 -0.00000000000E+00 -0.00000000000E+00 -0.45593999997E+02  0.45594000000E+02  0.51100000000E-03 0.  1.
         23    2    1    2    0    0  0.00000000000E+00  0.71054273576E-14  0.35527136788E-14  0.91188000000E+02  0.91188000000E+02 0.  0.
    9900012    2    3    3    0    0 -0.26264598419E+02  0.27225200020E+02  0.21273982225E+02  0.47787274593E+02  0.20000016177E+02 0.  0.
         12    1    3    3    0    0  0.26264598419E+02 -0.27225200020E+02 -0.21273982225E+02  0.43400725407E+02  0.00000000000E+00 0. -1.
         11    1    4    4    0    0 -0.46105429663E+01 -0.10066642502E+01  0.21069871887E+01  0.51681596948E+01  0.51100000000E-03 0. -1.
        -11    1    4    4    0    0 -0.12245428896E+02  0.60208307685E+01  0.44049990679E+01  0.14338931238E+02  0.51100000000E-03 0.  1.
        -12    1    4    4    0    0 -0.94086265559E+01  0.22211033501E+02  0.14761995968E+02  0.28280183660E+02  0.00000000000E+00 0.  1.
</event>
<event>
 8    1  0.8600524E-011  0.9118800E+02  0.7816164E-02  0.1184000E+00
        -11   -1    0    0    0    0  0.00000000000E+00  0.00000000000E+00  0.45593999997E+02  0.45594000000E+02  0.51100000000E-03 0. -1.
         11   -1    0    0    0    0 -0.00000000000E+00 -0.00000000000E+00 -0.45593999997E+02  0.45594000000E+02  0.51100000000E-03 0.  1.
         23    2    1    2    0    0  0.00000000000E+00 -0.66613381478E-15  0.00000000000E+00  0.91188000000E+02  0.91188000000E+02 0.  0.
    9900012    2    3    3    0    0  0.34841777379E+02  0.13305013204E+01 -0.25843855859E+02  0.47787256109E+02  0.19999931902E+02 0.  0.
         12    1    3    3    0    0 -0.34841777379E+02 -0.13305013204E+01  0.25843855859E+02  0.43400743891E+02  0.00000000000E+00 0. -1.
         11    1    4    4    0    0  0.44198798376E+01  0.61490451075E+01 -0.57461159827E+01  0.95059950905E+01  0.51100000000E-03 0. -1.
        -11    1    4    4    0    0  0.15036414706E+02 -0.71739017706E+01 -0.13204763891E+02  0.21258514142E+02  0.51100000000E-03 0.  1.
         12    1    4    4    0    0  0.15385482835E+02  0.23553579834E+01 -0.68929759846E+01  0.17022746877E+02  0.00000000000E+00 0. -1.
</event>
<event>
 8    1  0.8600524E-011  0.9118800E+02  0.7816164E-02  0.1184000E+00
        -11   -1    0    0    0    0  0.00000000000E+00  0.00000000000E+00  0.45593999997E+02  0.45594000000E+02  0.51100000000E-03 0. -1.
         11   -1    0    0    0    0 -0.00000000000E+00 -0.00000000000E+00 -0.45593999997E+02  0.45594000000E+02  0.51100000000E-03 0.  1.
         23    2    1    2    0    0  0.00000000000E+00 -0.35527136788E-14  0.00000000000E+00  0.91188000000E+02  0.91188000000E+02 0.  0.
    9900012    2    3    3    0    0 -0.65298876508E+00  0.30633934240E+02 -0.30736930613E+02  0.47787271609E+02  0.20000002575E+02 0.  0.
         12    1    3    3    0    0  0.65298876508E+00 -0.30633934240E+02  0.30736930613E+02  0.43400728391E+02  0.00000000000E+00 0. -1.
         11    1    4    4    0    0  0.27502603355E+00  0.78245616586E+01 -0.54373213471E+00  0.78482513571E+01  0.51100000000E-03 0. -1.
        -11    1    4    4    0    0 -0.80406225795E+00  0.20595127008E+02 -0.31287385351E+02  0.37466068048E+02  0.51100000000E-03 0.  1.
        -12    1    4    4    0    0 -0.12395254068E+00  0.22142455736E+01  0.10941868730E+01  0.24729522045E+01  0.00000000000E+00 0.  1.
</event>
<event>
 8    1  0.8600524E-011  0.9118800E+02  0.7816164E-02  0.1184000E+00
        -11   -1    0    0    0    0  0.00000000000E+00  0.00000000000E+00  0.45593999997E+02  0.45594000000E+02  0.51100000000E-03 0. -1.
         11   -1    0    0    0    0 -0.00000000000E+00 -0.00000000000E+00 -0.45593999997E+02  0.45594000000E+02  0.51100000000E-03 0.  1.
         23    2    1    2    0    0 -0.35527136788E-14 -0.17763568394E-14  0.00000000000E+00  0.91188000000E+02  0.91188000000E+02 0.  0.
    9900012    2    3    3    0    0 -0.28423090141E+02 -0.11034248056E+02 -0.30886836777E+02  0.47787269944E+02  0.19999994981E+02 0.  0.
         12    1    3    3    0    0  0.28423090141E+02  0.11034248056E+02  0.30886836777E+02  0.43400730056E+02  0.00000000000E+00 0. -1.
         11    1    4    4    0    0 -0.63690936664E+01 -0.64517959416E+01 -0.16736841814E+02  0.19034518622E+02  0.51100000000E-03 0. -1.
        -11    1    4    4    0    0 -0.30475347263E+01  0.24822823020E+01  0.16157446214E+00  0.39338657708E+01  0.51100000000E-03 0.  1.
        -12    1    4    4    0    0 -0.19006461749E+02 -0.70647344164E+01 -0.14311569425E+02  0.24818885551E+02  0.00000000000E+00 0.  1.
</event>
<event>
 8    1  0.8600524E-011  0.9118800E+02  0.7816164E-02  0.1184000E+00
        -11   -1    0    0    0    0  0.00000000000E+00  0.00000000000E+00  0.45593999997E+02  0.45594000000E+02  0.51100000000E-03 0. -1.
         11   -1    0    0    0    0 -0.00000000000E+00 -0.00000000000E+00 -0.45593999997E+02  0.45594000000E+02  0.51100000000E-03 0.  1.
         23    2    1    2    0    0  0.00000000000E+00  0.00000000000E+00  0.00000000000E+00  0.91188000000E+02  0.91188000000E+02 0.  0.
    9900012    2    3    3    0    0  0.21671692776E+02 -0.12215598414E+02  0.35563185083E+02  0.47787271370E+02  0.20000001483E+02 0.  0.
        -12    1    3    3    0    0 -0.21671692776E+02  0.12215598414E+02 -0.35563185083E+02  0.43400728630E+02  0.00000000000E+00 0.  1.
         11    1    4    4    0    0  0.60790154334E+01  0.20531560066E+01  0.96283797526E+01  0.11570461320E+02  0.51100000000E-03 0. -1.
        -11    1    4    4    0    0  0.13429366107E+02 -0.14565079449E+02  0.14437220334E+02  0.24513725638E+02  0.51100000000E-03 0.  1.
        -12    1    4    4    0    0  0.21633112356E+01  0.29632502832E+00  0.11497584996E+02  0.11703084412E+02  0.00000000000E+00 0.  1.
</event>
<event>
 8    1  0.8600524E-011  0.9118800E+02  0.7816164E-02  0.1184000E+00
        -11   -1    0    0    0    0  0.00000000000E+00  0.00000000000E+00  0.45593999997E+02  0.45594000000E+02  0.51100000000E-03 0. -1.
         11   -1    0    0    0    0 -0.00000000000E+00 -0.00000000000E+00 -0.45593999997E+02  0.45594000000E+02  0.51100000000E-03 0.  1.
         23    2    1    2    0    0  0.00000000000E+00  0.00000000000E+00  0.00000000000E+00  0.91188000000E+02  0.91188000000E+02 0.  0.
    9900012    2    3    3    0    0 -0.33388779027E+01 -0.12646835134E+02  0.41382763616E+02  0.47787266491E+02  0.19999979241E+02 0.  0.
        -12    1    3    3    0    0  0.33388779027E+01  0.12646835134E+02 -0.41382763616E+02  0.43400733509E+02  0.00000000000E+00 0.  1.
         11    1    4    4    0    0 -0.91278718702E+01 -0.39945576191E+01  0.12422326599E+02  0.15924469656E+02  0.51100000000E-03 0. -1.
        -11    1    4    4    0    0 -0.91302422411E+00 -0.88647266868E+00  0.15085841639E+00  0.12814856804E+01  0.51100000000E-03 0.  1.
         12    1    4    4    0    0  0.67020181917E+01 -0.77658048464E+01  0.28809578601E+02  0.30581311155E+02  0.00000000000E+00 0. -1.
</event>
<event>
 8    1  0.8600524E-011  0.9118800E+02  0.7816164E-02  0.1184000E+00
        -11   -1    0    0    0    0  0.00000000000E+00  0.00000000000E+00  0.45593999997E+02  0.45594000000E+02  0.51100000000E-03 0. -1.
         11   -1    0    0    0    0 -0.00000000000E+00 -0.00000000000E+00 -0.45593999997E+02  0.45594000000E+02  0.51100000000E-03 0.  1.
         23    2    1    2    0    0  0.00000000000E+00  0.00000000000E+00 -0.35527136788E-14  0.91188000000E+02  0.91188000000E+02 0.  0.
    9900012    2    3    3    0    0 -0.32346964493E+02  0.17842934339E+02  0.22779984830E+02  0.47787261221E+02  0.19999955210E+02 0.  0.
        -12    1    3    3    0    0  0.32346964493E+02 -0.17842934339E+02 -0.22779984830E+02  0.43400738779E+02  0.00000000000E+00 0.  1.
         11    1    4    4    0    0 -0.79796093302E+01  0.63351558157E+01  0.11721186366E+02  0.15530440250E+02  0.51100000000E-03 0. -1.
        -11    1    4    4    0    0 -0.48899822378E+01  0.74718324648E+01 -0.10163603004E+01  0.89873909000E+01  0.51100000000E-03 0.  1.
        -12    1    4    4    0    0 -0.19477372925E+02  0.40359460583E+01  0.12075158764E+02  0.23269430071E+02  0.00000000000E+00 0.  1.
</event>
<event>
 8    1  0.9578719E-011  0.9118800E+02  0.7816164E-02  0.1184000E+00
        -11   -1    0    0    0    0  0.00000000000E+00  0.00000000000E+00  0.45593999997E+02  0.45594000000E+02  0.51100000000E-03 0. -1.
         11   -1    0    0    0    0 -0.00000000000E+00 -0.00000000000E+00 -0.45593999997E+02  0.45594000000E+02  0.51100000000E-03 0.  1.
         23    2    1    2    0    0 -0.88817841970E-15  0.35527136788E-14  0.00000000000E+00  0.91188000000E+02  0.91188000000E+02 0.  0.
    9900012    2    3    3    0    0 -0.48865827067E+01  0.25615216355E+02  0.34693013330E+02  0.47787272203E+02  0.20000005281E+02 0.  0.
        -12    1    3    3    0    0  0.48865827067E+01 -0.25615216355E+02 -0.34693013330E+02  0.43400727797E+02  0.00000000000E+00 0.  1.
         11    1    4    4    0    0 -0.22108763599E+01  0.10546715432E+02  0.20595569592E+02  0.23244325496E+02  0.51100000000E-03 0. -1.
        -11    1    4    4    0    0 -0.40867413926E+01  0.15464179186E+02  0.72872594623E+01  0.17576872414E+02  0.51100000000E-03 0.  1.
        -12    1    4    4    0    0  0.14110350459E+01 -0.39567826384E+00  0.68101842750E+01  0.69660742925E+01  0.00000000000E+00 0.  1.
</event>
<event>
 8    1  0.8600524E-011  0.9118800E+02  0.7816164E-02  0.1184000E+00
        -11   -1    0    0    0    0  0.00000000000E+00  0.00000000000E+00  0.45593999997E+02  0.45594000000E+02  0.51100000000E-03 0. -1.
         11   -1    0    0    0    0 -0.00000000000E+00 -0.00000000000E+00 -0.45593999997E+02  0.45594000000E+02  0.51100000000E-03 0.  1.
         23    2    1    2    0    0  0.00000000000E+00  0.00000000000E+00  0.00000000000E+00  0.91188000000E+02  0.91188000000E+02 0.  0.
    9900012    2    3    3    0    0  0.31608245555E+01 -0.11687058990E+02 -0.41677873530E+02  0.47787270724E+02  0.19999998541E+02 0.  0.
         12    1    3    3    0    0 -0.31608245555E+01  0.11687058990E+02  0.41677873530E+02  0.43400729276E+02  0.00000000000E+00 0. -1.
         11    1    4    4    0    0 -0.61363486616E+00  0.31179137997E+01  0.11698930972E+00  0.31798775088E+01  0.51100000000E-03 0. -1.
        -11    1    4    4    0    0  0.11687620839E+01 -0.52508898664E+01 -0.19162853769E+02  0.19903587969E+02  0.51100000000E-03 0.  1.
         12    1    4    4    0    0  0.26056973378E+01 -0.95540829229E+01 -0.22632009070E+02  0.24703805247E+02  0.00000000000E+00 0. -1.
</event>
<event>
 8    1  0.8600524E-011  0.9118800E+02  0.7816164E-02  0.1184000E+00
        -11   -1    0    0    0    0  0.00000000000E+00  0.00000000000E+00  0.45593999997E+02  0.45594000000E+02  0.51100000000E-03 0. -1.
         11   -1    0    0    0    0 -0.00000000000E+00 -0.00000000000E+00 -0.45593999997E+02  0.45594000000E+02  0.51100000000E-03 0.  1.
         23    2    1    2    0    0  0.35527136788E-14  0.35527136788E-14  0.71054273576E-14  0.91188000000E+02  0.91188000000E+02 0.  0.
    9900012    2    3    3    0    0  0.16780453987E+02  0.19995075979E+02  0.34673271697E+02  0.47787280311E+02  0.20000042248E+02 0.  0.
        -12    1    3    3    0    0 -0.16780453987E+02 -0.19995075979E+02 -0.34673271697E+02  0.43400719689E+02  0.00000000000E+00 0.  1.
         11    1    4    4    0    0  0.79790955558E+00 -0.20680009709E+01  0.59804723347E+01  0.63780355347E+01  0.51100000000E-03 0. -1.
        -11    1    4    4    0    0  0.21299694839E+01 -0.92338725575E+00  0.30171603084E+00  0.23410354228E+01  0.51100000000E-03 0.  1.
         12    1    4    4    0    0  0.13852574947E+02  0.22986464205E+02  0.28391083331E+02  0.39068209353E+02  0.00000000000E+00 0. -1.
</event>
<event>
 8    1  0.8600524E-011  0.9118800E+02  0.7816164E-02  0.1184000E+00
        -11   -1    0    0    0    0  0.00000000000E+00  0.00000000000E+00  0.45593999997E+02  0.45594000000E+02  0.51100000000E-03 0. -1.
         11   -1    0    0    0    0 -0.00000000000E+00 -0.00000000000E+00 -0.45593999997E+02  0.45594000000E+02  0.51100000000E-03 0.  1.
         23    2    1    2    0    0  0.00000000000E+00  0.00000000000E+00  0.00000000000E+00  0.91188000000E+02  0.91188000000E+02 0.  0.
    9900012    2    3    3    0    0 -0.19032278878E+02  0.23918808342E+02  0.30810491401E+02  0.47787269451E+02  0.19999992737E+02 0.  0.
        -12    1    3    3    0    0  0.19032278878E+02 -0.23918808342E+02 -0.30810491401E+02  0.43400730549E+02  0.00000000000E+00 0.  1.
         11    1    4    4    0    0 -0.12295282641E+00  0.69361570111E+01  0.15902382796E+02  0.17349673494E+02  0.51100000000E-03 0. -1.
        -11    1    4    4    0    0 -0.18437233373E+02  0.15078157641E+02  0.15464908704E+02  0.28397989608E+02  0.51100000000E-03 0.  1.
        -12    1    4    4    0    0 -0.47209267899E+00  0.19044936898E+01 -0.55680009914E+00  0.20396063499E+01  0.00000000000E+00 0.  1.
</event>
<event>
 8    1  0.8600524E-011  0.9118800E+02  0.7816164E-02  0.1184000E+00
        -11   -1    0    0    0    0  0.00000000000E+00  0.00000000000E+00  0.45593999997E+02  0.45594000000E+02  0.51100000000E-03 0.  1.
         11   -1    0    0    0    0 -0.00000000000E+00 -0.00000000000E+00 -0.45593999997E+02  0.45594000000E+02  0.51100000000E-03 0. -1.
         23    2    1    2    0    0  0.17763568394E-14 -0.71054273576E-14  0.35527136788E-14  0.91188000000E+02  0.91188000000E+02 0.  0.
    9900012    2    3    3    0    0  0.12285152434E+02 -0.37338904850E+02  0.18398491517E+02  0.47787271022E+02  0.19999999896E+02 0.  0.
        -12    1    3    3    0    0 -0.12285152434E+02  0.37338904850E+02 -0.18398491517E+02  0.43400728978E+02  0.00000000000E+00 0.  1.
         11    1    4    4    0    0  0.65819546216E+01 -0.19201685006E+02  0.17720623795E+02  0.26945265663E+02  0.51100000000E-03 0. -1.
        -11    1    4    4    0    0  0.70035232168E+01 -0.83614711378E+01  0.11588581706E+01  0.10968431499E+02  0.51100000000E-03 0.  1.
         12    1    4    4    0    0 -0.13003254044E+01 -0.97757487068E+01 -0.48099044879E+00  0.98735738589E+01  0.00000000000E+00 0. -1.
</event>
<event>
 8    1  0.8600524E-011  0.9118800E+02  0.7816164E-02  0.1184000E+00
        -11   -1    0    0    0    0  0.00000000000E+00  0.00000000000E+00  0.45593999997E+02  0.45594000000E+02  0.51100000000E-03 0. -1.
         11   -1    0    0    0    0 -0.00000000000E+00 -0.00000000000E+00 -0.45593999997E+02  0.45594000000E+02  0.51100000000E-03 0.  1.
         23    2    1    2    0    0 -0.17763568394E-14  0.00000000000E+00 -0.71054273576E-14  0.91188000000E+02  0.91188000000E+02 0.  0.
    9900012    2    3    3    0    0  0.99482870197E+01 -0.19184146866E+02  0.37638059488E+02  0.47787269273E+02  0.19999991924E+02 0.  0.
        -12    1    3    3    0    0 -0.99482870197E+01  0.19184146866E+02 -0.37638059488E+02  0.43400730727E+02  0.00000000000E+00 0.  1.
         11    1    4    4    0    0  0.11638992298E+01 -0.60172085996E+00  0.99689426754E+01  0.10054677903E+02  0.51100000000E-03 0. -1.
        -11    1    4    4    0    0 -0.43829630305E+01 -0.39338720237E+01  0.75713314173E+01  0.95922246491E+01  0.51100000000E-03 0.  1.
        -12    1    4    4    0    0  0.13167350820E+02 -0.14648553983E+02  0.20097785395E+02  0.28140366721E+02  0.00000000000E+00 0.  1.
</event>
<event>
 8    1  0.8600524E-011  0.9118800E+02  0.7816164E-02  0.1184000E+00
        -11   -1    0    0    0    0  0.00000000000E+00  0.00000000000E+00  0.45593999997E+02  0.45594000000E+02  0.51100000000E-03 0. -1.
         11   -1    0    0    0    0 -0.00000000000E+00 -0.00000000000E+00 -0.45593999997E+02  0.45594000000E+02  0.51100000000E-03 0.  1.
         23    2    1    2    0    0  0.00000000000E+00  0.00000000000E+00  0.00000000000E+00  0.91188000000E+02  0.91188000000E+02 0.  0.
    9900012    2    3    3    0    0  0.83843487764E+01 -0.38491108064E+02 -0.18214296101E+02  0.47787270895E+02  0.19999999317E+02 0.  0.
         12    1    3    3    0    0 -0.83843487764E+01  0.38491108064E+02  0.18214296101E+02  0.43400729105E+02  0.00000000000E+00 0. -1.
         11    1    4    4    0    0  0.44126168232E+01 -0.36829754805E+01 -0.23909433871E+00  0.57526221832E+01  0.51100000000E-03 0. -1.
        -11    1    4    4    0    0  0.37955243939E+00 -0.32408861855E+02 -0.11786988203E+02  0.34487845365E+02  0.51100000000E-03 0.  1.
        -12    1    4    4    0    0  0.35921795138E+01 -0.23992707291E+01 -0.61882135598E+01  0.75468033467E+01  0.00000000000E+00 0.  1.
</event>
<event>
 8    1  0.8600524E-011  0.9118800E+02  0.7816164E-02  0.1184000E+00
        -11   -1    0    0    0    0  0.00000000000E+00  0.00000000000E+00  0.45593999997E+02  0.45594000000E+02  0.51100000000E-03 0. -1.
         11   -1    0    0    0    0 -0.00000000000E+00 -0.00000000000E+00 -0.45593999997E+02  0.45594000000E+02  0.51100000000E-03 0.  1.
         23    2    1    2    0    0  0.00000000000E+00  0.00000000000E+00  0.00000000000E+00  0.91188000000E+02  0.91188000000E+02 0.  0.
    9900012    2    3    3    0    0  0.22151181946E+02  0.19185878086E+02  0.32013284235E+02  0.47787272506E+02  0.20000006663E+02 0.  0.
        -12    1    3    3    0    0 -0.22151181946E+02 -0.19185878086E+02 -0.32013284235E+02  0.43400727494E+02  0.00000000000E+00 0.  1.
         11    1    4    4    0    0  0.90035522578E+01  0.52525325763E+01  0.19353137718E+02  0.21981742231E+02  0.51100000000E-03 0. -1.
        -11    1    4    4    0    0  0.11707800610E+02  0.14844338634E+02  0.74445213801E+01  0.20318658505E+02  0.51100000000E-03 0.  1.
        -12    1    4    4    0    0  0.14398290773E+01 -0.91099312452E+00  0.52156251369E+01  0.54868717694E+01  0.00000000000E+00 0.  1.
</event>
<event>
 8    1  0.8600524E-011  0.9118800E+02  0.7816164E-02  0.1184000E+00
        -11   -1    0    0    0    0  0.00000000000E+00  0.00000000000E+00  0.45593999997E+02  0.45594000000E+02  0.51100000000E-03 0. -1.
         11   -1    0    0    0    0 -0.00000000000E+00 -0.00000000000E+00 -0.45593999997E+02  0.45594000000E+02  0.51100000000E-03 0.  1.
         23    2    1    2    0    0  0.35527136788E-14  0.71054273576E-14  0.00000000000E+00  0.91188000000E+02  0.91188000000E+02 0.  0.
    9900012    2    3    3    0    0  0.22568678739E+02  0.36789922357E+02 -0.45584415302E+01  0.47787273782E+02  0.20000012483E+02 0.  0.
         12    1    3    3    0    0 -0.22568678739E+02 -0.36789922357E+02  0.45584415302E+01  0.43400726218E+02  0.00000000000E+00 0. -1.
         11    1    4    4    0    0  0.17002300069E+02  0.35426611172E+02 -0.25003458303E+01  0.39374797984E+02  0.51100000000E-03 0. -1.
        -11    1    4    4    0    0  0.52467868115E+01  0.17146383591E+01 -0.37381877447E+01  0.66665436639E+01  0.51100000000E-03 0.  1.
         12    1    4    4    0    0  0.31959185898E+00 -0.35132717394E+00  0.16800920448E+01  0.17459321346E+01  0.00000000000E+00 0. -1.
</event>
<event>
 8    1  0.8600524E-011  0.9118800E+02  0.7816164E-02  0.1184000E+00
        -11   -1    0    0    0    0  0.00000000000E+00  0.00000000000E+00  0.45593999997E+02  0.45594000000E+02  0.51100000000E-03 0. -1.
         11   -1    0    0    0    0 -0.00000000000E+00 -0.00000000000E+00 -0.45593999997E+02  0.45594000000E+02  0.51100000000E-03 0.  1.
         23    2    1    2    0    0 -0.27755575616E-15 -0.26645352591E-14  0.71054273576E-14  0.91188000000E+02  0.91188000000E+02 0.  0.
    9900012    2    3    3    0    0 -0.29822936169E+00 -0.54829281616E+01  0.43051967949E+02  0.47787269750E+02  0.19999994096E+02 0.  0.
        -12    1    3    3    0    0  0.29822936169E+00  0.54829281616E+01 -0.43051967949E+02  0.43400730250E+02  0.00000000000E+00 0.  1.
         11    1    4    4    0    0 -0.22029429605E+00  0.20165946603E+01 -0.10173701076E+01  0.22694108923E+01  0.51100000000E-03 0.  1.
        -11    1    4    4    0    0 -0.22531020427E+01 -0.43914266411E+01  0.91787579574E+01  0.10421645487E+02  0.51100000000E-03 0. -1.
         12    1    4    4    0    0  0.21751669771E+01 -0.31080961808E+01  0.34890580099E+02  0.35096213370E+02  0.00000000000E+00 0. -1.
</event>
<event>
 8    1  0.8600524E-011  0.9118800E+02  0.7816164E-02  0.1184000E+00
        -11   -1    0    0    0    0  0.00000000000E+00  0.00000000000E+00  0.45593999997E+02  0.45594000000E+02  0.51100000000E-03 0. -1.
         11   -1    0    0    0    0 -0.00000000000E+00 -0.00000000000E+00 -0.45593999997E+02  0.45594000000E+02  0.51100000000E-03 0.  1.
         23    2    1    2    0    0  0.00000000000E+00  0.00000000000E+00  0.00000000000E+00  0.91188000000E+02  0.91188000000E+02 0.  0.
    9900012    2    3    3    0    0 -0.24021625807E+02 -0.11723540177E+02 -0.34192745085E+02  0.47787265938E+02  0.19999976718E+02 0.  0.
         12    1    3    3    0    0  0.24021625807E+02  0.11723540177E+02  0.34192745085E+02  0.43400734062E+02  0.00000000000E+00 0. -1.
         11    1    4    4    0    0 -0.35531746135E+01  0.26546497013E+01 -0.89348086886E+01  0.99751201212E+01  0.51100000000E-03 0. -1.
        -11    1    4    4    0    0 -0.33560301898E+01 -0.68833073251E+01 -0.18774576041E+01  0.78846500038E+01  0.51100000000E-03 0.  1.
        -12    1    4    4    0    0 -0.17112421004E+02 -0.74948825531E+01 -0.23380478792E+02  0.29927495813E+02  0.00000000000E+00 0.  1.
</event>
<event>
 8    1  0.8600524E-011  0.9118800E+02  0.7816164E-02  0.1184000E+00
        -11   -1    0    0    0    0  0.00000000000E+00  0.00000000000E+00  0.45593999997E+02  0.45594000000E+02  0.51100000000E-03 0. -1.
         11   -1    0    0    0    0 -0.00000000000E+00 -0.00000000000E+00 -0.45593999997E+02  0.45594000000E+02  0.51100000000E-03 0.  1.
         23    2    1    2    0    0  0.66613381478E-15  0.00000000000E+00 -0.71054273576E-14  0.91188000000E+02  0.91188000000E+02 0.  0.
    9900012    2    3    3    0    0 -0.16825327049E+01  0.81908917923E+01 -0.42587576518E+02  0.47787270762E+02  0.19999998714E+02 0.  0.
         12    1    3    3    0    0  0.16825327049E+01 -0.81908917923E+01  0.42587576518E+02  0.43400729238E+02  0.00000000000E+00 0. -1.
         11    1    4    4    0    0 -0.37637483782E+01 -0.39212620898E+01 -0.87255715498E+01  0.10279965825E+02  0.51100000000E-03 0. -1.
        -11    1    4    4    0    0 -0.25038937331E+01  0.11160846447E+02 -0.23464677711E+02  0.26104119935E+02  0.51100000000E-03 0.  1.
        -12    1    4    4    0    0  0.45851094063E+01  0.95130743515E+00 -0.10397327257E+02  0.11403185002E+02  0.00000000000E+00 0.  1.
</event>
<event>
 8    1  0.8600524E-011  0.9118800E+02  0.7816164E-02  0.1184000E+00
        -11   -1    0    0    0    0  0.00000000000E+00  0.00000000000E+00  0.45593999997E+02  0.45594000000E+02  0.51100000000E-03 0. -1.
         11   -1    0    0    0    0 -0.00000000000E+00 -0.00000000000E+00 -0.45593999997E+02  0.45594000000E+02  0.51100000000E-03 0.  1.
         23    2    1    2    0    0  0.00000000000E+00  0.35527136788E-14  0.00000000000E+00  0.91188000000E+02  0.91188000000E+02 0.  0.
    9900012    2    3    3    0    0  0.12807374053E+02  0.30361860645E+02  0.28244502165E+02  0.47787270577E+02  0.19999997867E+02 0.  0.
        -12    1    3    3    0    0 -0.12807374053E+02 -0.30361860645E+02 -0.28244502165E+02  0.43400729423E+02  0.00000000000E+00 0.  1.
         11    1    4    4    0    0 -0.23844859156E+01  0.13453636050E+02  0.70367349913E+01  0.15368856029E+02  0.51100000000E-03 0. -1.
        -11    1    4    4    0    0 -0.91496137057E+00  0.25681714784E+01  0.11224463604E+01  0.29483122537E+01  0.51100000000E-03 0.  1.
         12    1    4    4    0    0  0.16106821339E+02  0.14340053117E+02  0.20085320813E+02  0.29470102294E+02  0.00000000000E+00 0. -1.
</event>
<event>
 8    1  0.8600524E-011  0.9118800E+02  0.7816164E-02  0.1184000E+00
        -11   -1    0    0    0    0  0.00000000000E+00  0.00000000000E+00  0.45593999997E+02  0.45594000000E+02  0.51100000000E-03 0. -1.
         11   -1    0    0    0    0 -0.00000000000E+00 -0.00000000000E+00 -0.45593999997E+02  0.45594000000E+02  0.51100000000E-03 0.  1.
         23    2    1    2    0    0  0.00000000000E+00 -0.35527136788E-14 -0.35527136788E-14  0.91188000000E+02  0.91188000000E+02 0.  0.
    9900012    2    3    3    0    0  0.41220073728E+01  0.30086792266E+02  0.31006736477E+02  0.47787265898E+02  0.19999976535E+02 0.  0.
        -12    1    3    3    0    0 -0.41220073728E+01 -0.30086792266E+02 -0.31006736477E+02  0.43400734102E+02  0.00000000000E+00 0.  1.
         11    1    4    4    0    0 -0.27536429935E+01  0.15852403084E+02  0.20576122951E+02  0.26120070238E+02  0.51100000000E-03 0. -1.
        -11    1    4    4    0    0  0.58130281605E+01  0.13911775091E+02  0.46460904446E+01  0.15777038355E+02  0.51100000000E-03 0.  1.
        -12    1    4    4    0    0  0.10626222058E+01  0.32261409198E+00  0.57845230812E+01  0.58901573053E+01  0.00000000000E+00 0.  1.
</event>
<event>
 8    1  0.8600524E-011  0.9118800E+02  0.7816164E-02  0.1184000E+00
        -11   -1    0    0    0    0  0.00000000000E+00  0.00000000000E+00  0.45593999997E+02  0.45594000000E+02  0.51100000000E-03 0. -1.
         11   -1    0    0    0    0 -0.00000000000E+00 -0.00000000000E+00 -0.45593999997E+02  0.45594000000E+02  0.51100000000E-03 0.  1.
         23    2    1    2    0    0 -0.88817841970E-15  0.17763568394E-14 -0.71054273576E-14  0.91188000000E+02  0.91188000000E+02 0.  0.
    9900012    2    3    3    0    0 -0.45037428854E+01  0.10007848816E+02 -0.41990268674E+02  0.47787269578E+02  0.19999993312E+02 0.  0.
         12    1    3    3    0    0  0.45037428854E+01 -0.10007848816E+02  0.41990268674E+02  0.43400730422E+02  0.00000000000E+00 0. -1.
         11    1    4    4    0    0 -0.17745725690E+01  0.52371332577E+00 -0.85905197317E+00  0.20399397060E+01  0.51100000000E-03 0. -1.
        -11    1    4    4    0    0 -0.16849681916E+01 -0.17396187847E+01  0.62102916231E+00  0.25002137517E+01  0.51100000000E-03 0.  1.
        -12    1    4    4    0    0 -0.10442021248E+01  0.11223754275E+02 -0.41752245863E+02  0.43247116120E+02  0.00000000000E+00 0.  1.
</event>
<event>
 8    1  0.8600524E-011  0.9118800E+02  0.7816164E-02  0.1184000E+00
        -11   -1    0    0    0    0  0.00000000000E+00  0.00000000000E+00  0.45593999997E+02  0.45594000000E+02  0.51100000000E-03 0. -1.
         11   -1    0    0    0    0 -0.00000000000E+00 -0.00000000000E+00 -0.45593999997E+02  0.45594000000E+02  0.51100000000E-03 0.  1.
         23    2    1    2    0    0  0.00000000000E+00  0.00000000000E+00  0.00000000000E+00  0.91188000000E+02  0.91188000000E+02 0.  0.
    9900012    2    3    3    0    0  0.19674010812E+02  0.38211305770E+02  0.60376419583E+01  0.47787266014E+02  0.19999977065E+02 0.  0.
        -12    1    3    3    0    0 -0.19674010812E+02 -0.38211305770E+02 -0.60376419583E+01  0.43400733986E+02  0.00000000000E+00 0.  1.
         11    1    4    4    0    0 -0.10209236217E+01  0.15495903358E+02 -0.11132558390E+01  0.15569349528E+02  0.51100000000E-03 0. -1.
        -11    1    4    4    0    0  0.19121003819E+02  0.17373794425E+02  0.55651684844E+01  0.26427875819E+02  0.51100000000E-03 0.  1.
        -12    1    4    4    0    0  0.15739306148E+01  0.53416079874E+01  0.15857293129E+01  0.57900406670E+01  0.00000000000E+00 0.  1.
</event>
<event>
 8    1  0.8600524E-011  0.9118800E+02  0.7816164E-02  0.1184000E+00
        -11   -1    0    0    0    0  0.00000000000E+00  0.00000000000E+00  0.45593999997E+02  0.45594000000E+02  0.51100000000E-03 0.  1.
         11   -1    0    0    0    0 -0.00000000000E+00 -0.00000000000E+00 -0.45593999997E+02  0.45594000000E+02  0.51100000000E-03 0. -1.
         23    2    1    2    0    0  0.00000000000E+00  0.00000000000E+00  0.00000000000E+00  0.91188000000E+02  0.91188000000E+02 0.  0.
    9900012    2    3    3    0    0  0.26838624325E+02 -0.25691842600E+02 -0.22433027538E+02  0.47787271246E+02  0.20000000921E+02 0.  0.
        -12    1    3    3    0    0 -0.26838624325E+02  0.25691842600E+02  0.22433027538E+02  0.43400728754E+02  0.00000000000E+00 0.  1.
         11    1    4    4    0    0 -0.77299042309E+00 -0.64100966253E+01 -0.50307453986E+01  0.81850627649E+01  0.51100000000E-03 0.  1.
        -11    1    4    4    0    0  0.26472780969E+02 -0.20282541304E+02 -0.14577596024E+02  0.36396372347E+02  0.51100000000E-03 0. -1.
        -12    1    4    4    0    0  0.11388337793E+01  0.10007953291E+01 -0.28246861156E+01  0.32058361342E+01  0.00000000000E+00 0.  1.
</event>
<event>
 8    1  0.8600524E-011  0.9118800E+02  0.7816164E-02  0.1184000E+00
        -11   -1    0    0    0    0  0.00000000000E+00  0.00000000000E+00  0.45593999997E+02  0.45594000000E+02  0.51100000000E-03 0. -1.
         11   -1    0    0    0    0 -0.00000000000E+00 -0.00000000000E+00 -0.45593999997E+02  0.45594000000E+02  0.51100000000E-03 0.  1.
         23    2    1    2    0    0  0.35527136788E-14  0.35527136788E-14  0.00000000000E+00  0.91188000000E+02  0.91188000000E+02 0.  0.
    9900012    2    3    3    0    0  0.26191989245E+02 -0.24825750103E+02  0.24109853826E+02  0.47787271662E+02  0.20000002815E+02 0.  0.
        -12    1    3    3    0    0 -0.26191989245E+02  0.24825750103E+02 -0.24109853826E+02  0.43400728338E+02  0.00000000000E+00 0.  1.
         11    1    4    4    0    0  0.18940780442E+02 -0.10005676592E+02  0.18124344500E+02  0.28059910756E+02  0.51100000000E-03 0. -1.
        -11    1    4    4    0    0  0.33323636803E+01 -0.13114330258E+02  0.71411770413E+01  0.15299892666E+02  0.51100000000E-03 0.  1.
        -12    1    4    4    0    0  0.39188451232E+01 -0.17057432530E+01 -0.11556677156E+01  0.44274682397E+01  0.00000000000E+00 0.  1.
</event>
<event>
 8    1  0.8600524E-011  0.9118800E+02  0.7816164E-02  0.1184000E+00
        -11   -1    0    0    0    0  0.00000000000E+00  0.00000000000E+00  0.45593999997E+02  0.45594000000E+02  0.51100000000E-03 0. -1.
         11   -1    0    0    0    0 -0.00000000000E+00 -0.00000000000E+00 -0.45593999997E+02  0.45594000000E+02  0.51100000000E-03 0.  1.
         23    2    1    2    0    0  0.00000000000E+00  0.00000000000E+00  0.00000000000E+00  0.91188000000E+02  0.91188000000E+02 0.  0.
    9900012    2    3    3    0    0  0.12398944391E+02 -0.23206625721E+02 -0.34515822443E+02  0.47787270763E+02  0.19999998717E+02 0.  0.
         12    1    3    3    0    0 -0.12398944391E+02  0.23206625721E+02  0.34515822443E+02  0.43400729237E+02  0.00000000000E+00 0. -1.
         11    1    4    4    0    0  0.11037552691E+02 -0.63773877246E+01 -0.15760582726E+02  0.20270535556E+02  0.51100000000E-03 0. -1.
        -11    1    4    4    0    0  0.43045351569E+00 -0.17614106806E+02 -0.13705458153E+02  0.22322222834E+02  0.51100000000E-03 0.  1.
        -12    1    4    4    0    0  0.93093818390E+00  0.78486880914E+00 -0.50497815639E+01  0.51945123729E+01  0.00000000000E+00 0.  1.
</event>
<event>
 8    1  0.8600524E-011  0.9118800E+02  0.7816164E-02  0.1184000E+00
        -11   -1    0    0    0    0  0.00000000000E+00  0.00000000000E+00  0.45593999997E+02  0.45594000000E+02  0.51100000000E-03 0. -1.
         11   -1    0    0    0    0 -0.00000000000E+00 -0.00000000000E+00 -0.45593999997E+02  0.45594000000E+02  0.51100000000E-03 0.  1.
         23    2    1    2    0    0 -0.44408920985E-15  0.00000000000E+00  0.00000000000E+00  0.91188000000E+02  0.91188000000E+02 0.  0.
    9900012    2    3    3    0    0  0.19457456601E+01 -0.26432780874E+02 -0.34367788650E+02  0.47787277338E+02  0.20000028694E+02 0.  0.
         12    1    3    3    0    0 -0.19457456601E+01  0.26432780874E+02  0.34367788650E+02  0.43400722662E+02  0.00000000000E+00 0. -1.
         11    1    4    4    0    0 -0.13673653952E+00  0.62375132266E+00 -0.67867016707E+00  0.93185623921E+00  0.51100000000E-03 0. -1.
        -11    1    4    4    0    0 -0.26463893047E+01 -0.15813183138E+02 -0.30161668496E+02  0.34158254991E+02  0.51100000000E-03 0.  1.
        -12    1    4    4    0    0  0.47288715043E+01 -0.11243349058E+02 -0.35274499872E+01  0.12697166108E+02  0.00000000000E+00 0.  1.
</event>
<event>
 8    1  0.8600524E-011  0.9118800E+02  0.7816164E-02  0.1184000E+00
        -11   -1    0    0    0    0  0.00000000000E+00  0.00000000000E+00  0.45593999997E+02  0.45594000000E+02  0.51100000000E-03 0. -1.
         11   -1    0    0    0    0 -0.00000000000E+00 -0.00000000000E+00 -0.45593999997E+02  0.45594000000E+02  0.51100000000E-03 0.  1.
         23    2    1    2    0    0  0.00000000000E+00  0.00000000000E+00 -0.71054273576E-14  0.91188000000E+02  0.91188000000E+02 0.  0.
    9900012    2    3    3    0    0  0.74797953734E+01 -0.23252815585E+02 -0.35874534977E+02  0.47787273839E+02  0.20000012742E+02 0.  0.
         12    1    3    3    0    0 -0.74797953734E+01  0.23252815585E+02  0.35874534977E+02  0.43400726161E+02  0.00000000000E+00 0. -1.
         11    1    4    4    0    0 -0.14669552042E+01  0.48643605508E+00  0.13332696510E+01  0.20411236685E+01  0.51100000000E-03 0. -1.
        -11    1    4    4    0    0  0.19633086472E+01 -0.52456824531E+01 -0.33118417329E+01  0.65069240942E+01  0.51100000000E-03 0.  1.
         12    1    4    4    0    0  0.69834419304E+01 -0.18493569187E+02 -0.33895962895E+02  0.39239226076E+02  0.00000000000E+00 0. -1.
</event>
<event>
 8    1  0.8600524E-011  0.9118800E+02  0.7816164E-02  0.1184000E+00
        -11   -1    0    0    0    0  0.00000000000E+00  0.00000000000E+00  0.45593999997E+02  0.45594000000E+02  0.51100000000E-03 0. -1.
         11   -1    0    0    0    0 -0.00000000000E+00 -0.00000000000E+00 -0.45593999997E+02  0.45594000000E+02  0.51100000000E-03 0.  1.
         23    2    1    2    0    0  0.35527136788E-14  0.00000000000E+00  0.35527136788E-14  0.91188000000E+02  0.91188000000E+02 0.  0.
    9900012    2    3    3    0    0  0.24950764397E+02  0.16845118219E+02  0.31262192663E+02  0.47787270260E+02  0.19999996425E+02 0.  0.
        -12    1    3    3    0    0 -0.24950764397E+02 -0.16845118219E+02 -0.31262192663E+02  0.43400729740E+02  0.00000000000E+00 0.  1.
         11    1    4    4    0    0  0.48021950857E+01  0.71528204515E+00  0.31530797649E+00  0.48654008495E+01  0.51100000000E-03 0. -1.
        -11    1    4    4    0    0  0.62010088132E+01  0.11960982274E+02  0.77709170255E+01  0.15553287721E+02  0.51100000000E-03 0.  1.
        -12    1    4    4    0    0  0.13947560498E+02  0.41688539005E+01  0.23175967661E+02  0.27368581690E+02  0.00000000000E+00 0.  1.
</event>
<event>
 8    1  0.8600524E-011  0.9118800E+02  0.7816164E-02  0.1184000E+00
        -11   -1    0    0    0    0  0.00000000000E+00  0.00000000000E+00  0.45593999997E+02  0.45594000000E+02  0.51100000000E-03 0. -1.
         11   -1    0    0    0    0 -0.00000000000E+00 -0.00000000000E+00 -0.45593999997E+02  0.45594000000E+02  0.51100000000E-03 0.  1.
         23    2    1    2    0    0  0.35527136788E-14  0.00000000000E+00  0.00000000000E+00  0.91188000000E+02  0.91188000000E+02 0.  0.
    9900012    2    3    3    0    0 -0.28298968324E+02 -0.20422905394E+02  0.25801100925E+02  0.47787268648E+02  0.19999989076E+02 0.  0.
        -12    1    3    3    0    0  0.28298968324E+02  0.20422905394E+02 -0.25801100925E+02  0.43400731352E+02  0.00000000000E+00 0.  1.
         11    1    4    4    0    0  0.17923083854E+00 -0.44469638613E+00  0.18927590967E+00  0.51546503317E+00  0.51100000000E-03 0. -1.
        -11    1    4    4    0    0 -0.21486592857E+02 -0.23536478850E+02  0.19975076891E+02  0.37611742931E+02  0.51100000000E-03 0.  1.
        -12    1    4    4    0    0 -0.69916063050E+01  0.35582698428E+01  0.56367481244E+01  0.96600606839E+01  0.00000000000E+00 0.  1.
</event>
<event>
 8    1  0.8600524E-011  0.9118800E+02  0.7816164E-02  0.1184000E+00
        -11   -1    0    0    0    0  0.00000000000E+00  0.00000000000E+00  0.45593999997E+02  0.45594000000E+02  0.51100000000E-03 0. -1.
         11   -1    0    0    0    0 -0.00000000000E+00 -0.00000000000E+00 -0.45593999997E+02  0.45594000000E+02  0.51100000000E-03 0.  1.
         23    2    1    2    0    0  0.35527136788E-14  0.00000000000E+00  0.00000000000E+00  0.91188000000E+02  0.91188000000E+02 0.  0.
    9900012    2    3    3    0    0  0.17506962913E+02  0.33350101271E+02 -0.21561545306E+02  0.47787271420E+02  0.20000001713E+02 0.  0.
         12    1    3    3    0    0 -0.17506962913E+02 -0.33350101271E+02  0.21561545306E+02  0.43400728580E+02  0.00000000000E+00 0. -1.
         11    1    4    4    0    0 -0.20829361226E+01  0.44312998464E+01 -0.95070681035E+01  0.10693894772E+02  0.51100000000E-03 0. -1.
        -11    1    4    4    0    0  0.11941387081E+02  0.16953212324E+02 -0.55067880592E+01  0.21455368757E+02  0.51100000000E-03 0.  1.
         12    1    4    4    0    0  0.76485119551E+01  0.11965589101E+02 -0.65476891437E+01  0.15638007891E+02  0.00000000000E+00 0. -1.
</event>
<event>
 8    1  0.8600524E-011  0.9118800E+02  0.7816164E-02  0.1184000E+00
        -11   -1    0    0    0    0  0.00000000000E+00  0.00000000000E+00  0.45593999997E+02  0.45594000000E+02  0.51100000000E-03 0. -1.
         11   -1    0    0    0    0 -0.00000000000E+00 -0.00000000000E+00 -0.45593999997E+02  0.45594000000E+02  0.51100000000E-03 0.  1.
         23    2    1    2    0    0  0.71054273576E-14  0.00000000000E+00 -0.35527136788E-14  0.91188000000E+02  0.91188000000E+02 0.  0.
    9900012    2    3    3    0    0 -0.39699295139E+02 -0.64730081355E+01  0.16299990359E+02  0.47787267810E+02  0.19999985255E+02 0.  0.
        -12    1    3    3    0    0  0.39699295139E+02  0.64730081355E+01 -0.16299990359E+02  0.43400732190E+02  0.00000000000E+00 0.  1.
         11    1    4    4    0    0 -0.30248573498E+02 -0.97140901768E+01  0.14359615547E+02  0.34864570921E+02  0.51100000000E-03 0. -1.
        -11    1    4    4    0    0 -0.10771940792E+02  0.29859555669E+01  0.88600153366E+00  0.11213190360E+02  0.51100000000E-03 0.  1.
         12    1    4    4    0    0  0.13212191507E+01  0.25512647430E+00  0.10543732783E+01  0.17095065288E+01  0.00000000000E+00 0. -1.
</event>
<event>
 8    1  0.8600524E-011  0.9118800E+02  0.7816164E-02  0.1184000E+00
        -11   -1    0    0    0    0  0.00000000000E+00  0.00000000000E+00  0.45593999997E+02  0.45594000000E+02  0.51100000000E-03 0. -1.
         11   -1    0    0    0    0 -0.00000000000E+00 -0.00000000000E+00 -0.45593999997E+02  0.45594000000E+02  0.51100000000E-03 0.  1.
         23    2    1    2    0    0  0.00000000000E+00  0.00000000000E+00  0.00000000000E+00  0.91188000000E+02  0.91188000000E+02 0.  0.
    9900012    2    3    3    0    0  0.78616145471E+01  0.17949153977E+02 -0.38725265484E+02  0.47787270760E+02  0.19999998703E+02 0.  0.
         12    1    3    3    0    0 -0.78616145471E+01 -0.17949153977E+02  0.38725265484E+02  0.43400729240E+02  0.00000000000E+00 0. -1.
         11    1    4    4    0    0  0.88965285435E+01  0.15281577547E+02 -0.21213439815E+02  0.27616749654E+02  0.51100000000E-03 0. -1.
        -11    1    4    4    0    0 -0.38186713814E+00  0.62720676826E+01 -0.99484981521E+01  0.11766786786E+02  0.51100000000E-03 0.  1.
         12    1    4    4    0    0 -0.65304685834E+00 -0.36044912518E+01 -0.75633275171E+01  0.84037343196E+01  0.00000000000E+00 0. -1.
</event>
<event>
 8    1  0.8600524E-011  0.9118800E+02  0.7816164E-02  0.1184000E+00
        -11   -1    0    0    0    0  0.00000000000E+00  0.00000000000E+00  0.45593999997E+02  0.45594000000E+02  0.51100000000E-03 0. -1.
         11   -1    0    0    0    0 -0.00000000000E+00 -0.00000000000E+00 -0.45593999997E+02  0.45594000000E+02  0.51100000000E-03 0.  1.
         23    2    1    2    0    0  0.00000000000E+00  0.00000000000E+00  0.00000000000E+00  0.91188000000E+02  0.91188000000E+02 0.  0.
    9900012    2    3    3    0    0  0.84880550643E+01 -0.24732145314E+01  0.42490697311E+02  0.47787271586E+02  0.20000002468E+02 0.  0.
        -12    1    3    3    0    0 -0.84880550643E+01  0.24732145314E+01 -0.42490697311E+02  0.43400728414E+02  0.00000000000E+00 0.  1.
         11    1    4    4    0    0  0.13078219238E+01 -0.89756751290E+01  0.18324327550E+02  0.20446371869E+02  0.51100000000E-03 0. -1.
        -11    1    4    4    0    0  0.85941867767E+01  0.71364276895E+01  0.22045890731E+02  0.24714569486E+02  0.51100000000E-03 0.  1.
        -12    1    4    4    0    0 -0.14139536362E+01 -0.63396709183E+00  0.21204790306E+01  0.26263302302E+01  0.00000000000E+00 0.  1.
</event>
<event>
 8    1  0.8600524E-011  0.9118800E+02  0.7816164E-02  0.1184000E+00
        -11   -1    0    0    0    0  0.00000000000E+00  0.00000000000E+00  0.45593999997E+02  0.45594000000E+02  0.51100000000E-03 0. -1.
         11   -1    0    0    0    0 -0.00000000000E+00 -0.00000000000E+00 -0.45593999997E+02  0.45594000000E+02  0.51100000000E-03 0.  1.
         23    2    1    2    0    0  0.41633363423E-15 -0.35527136788E-14  0.00000000000E+00  0.91188000000E+02  0.91188000000E+02 0.  0.
    9900012    2    3    3    0    0  0.56910986584E-01 -0.26797068331E+02 -0.34139965340E+02  0.47787270243E+02  0.19999996347E+02 0.  0.
         12    1    3    3    0    0 -0.56910986584E-01  0.26797068331E+02  0.34139965340E+02  0.43400729757E+02  0.00000000000E+00 0. -1.
         11    1    4    4    0    0  0.77544830304E+00 -0.95254133570E+01 -0.36953592225E+01  0.10246487190E+02  0.51100000000E-03 0. -1.
        -11    1    4    4    0    0 -0.29222811733E+01 -0.42420636196E+00 -0.12436457936E+02  0.12782220643E+02  0.51100000000E-03 0.  1.
        -12    1    4    4    0    0  0.22037438569E+01 -0.16847448612E+02 -0.18008148181E+02  0.24758562410E+02  0.00000000000E+00 0.  1.
</event>
<event>
 8    1  0.8600524E-011  0.9118800E+02  0.7816164E-02  0.1184000E+00
        -11   -1    0    0    0    0  0.00000000000E+00  0.00000000000E+00  0.45593999997E+02  0.45594000000E+02  0.51100000000E-03 0. -1.
         11   -1    0    0    0    0 -0.00000000000E+00 -0.00000000000E+00 -0.45593999997E+02  0.45594000000E+02  0.51100000000E-03 0.  1.
         23    2    1    2    0    0 -0.35527136788E-14  0.00000000000E+00  0.44408920985E-15  0.91188000000E+02  0.91188000000E+02 0.  0.
    9900012    2    3    3    0    0  0.24259902708E+02  0.35910661334E+02 -0.23462170063E+01  0.47787271768E+02  0.20000003297E+02 0.  0.
         12    1    3    3    0    0 -0.24259902708E+02 -0.35910661334E+02  0.23462170063E+01  0.43400728232E+02  0.00000000000E+00 0. -1.
         11    1    4    4    0    0 -0.31895073390E+01  0.43752390505E+01  0.38870544441E+00  0.54283299456E+01  0.51100000000E-03 0. -1.
        -11    1    4    4    0    0  0.26146706412E+02  0.27649042954E+02 -0.15230150758E+01  0.38084634798E+02  0.51100000000E-03 0.  1.
        -12    1    4    4    0    0  0.13027036342E+01  0.38863793297E+01 -0.12119073748E+01  0.42743070243E+01  0.00000000000E+00 0.  1.
</event>
<event>
 8    1  0.8600524E-011  0.9118800E+02  0.7816164E-02  0.1184000E+00
        -11   -1    0    0    0    0  0.00000000000E+00  0.00000000000E+00  0.45593999997E+02  0.45594000000E+02  0.51100000000E-03 0. -1.
         11   -1    0    0    0    0 -0.00000000000E+00 -0.00000000000E+00 -0.45593999997E+02  0.45594000000E+02  0.51100000000E-03 0.  1.
         23    2    1    2    0    0  0.35527136788E-14  0.17763568394E-14  0.00000000000E+00  0.91188000000E+02  0.91188000000E+02 0.  0.
    9900012    2    3    3    0    0 -0.26915069358E+02 -0.12994843041E+02 -0.31469615194E+02  0.47787267464E+02  0.19999983677E+02 0.  0.
         12    1    3    3    0    0  0.26915069358E+02  0.12994843041E+02  0.31469615194E+02  0.43400732536E+02  0.00000000000E+00 0. -1.
         11    1    4    4    0    0 -0.11286229003E+02  0.43064743103E+01 -0.12069742576E+02  0.17076398104E+02  0.51100000000E-03 0. -1.
        -11    1    4    4    0    0 -0.11506739572E+02 -0.14390032796E+02 -0.12946782557E+02  0.22518820535E+02  0.51100000000E-03 0.  1.
         12    1    4    4    0    0 -0.41221007829E+01 -0.29112845556E+01 -0.64530900614E+01  0.81920488260E+01  0.00000000000E+00 0. -1.
</event>
<event>
 8    1  0.8600524E-011  0.9118800E+02  0.7816164E-02  0.1184000E+00
        -11   -1    0    0    0    0  0.00000000000E+00  0.00000000000E+00  0.45593999997E+02  0.45594000000E+02  0.51100000000E-03 0. -1.
         11   -1    0    0    0    0 -0.00000000000E+00 -0.00000000000E+00 -0.45593999997E+02  0.45594000000E+02  0.51100000000E-03 0.  1.
         23    2    1    2    0    0  0.00000000000E+00  0.00000000000E+00  0.00000000000E+00  0.91188000000E+02  0.91188000000E+02 0.  0.
    9900012    2    3    3    0    0  0.28289245902E+02 -0.28715711387E+02  0.16085701308E+02  0.47787270735E+02  0.19999998588E+02 0.  0.
        -12    1    3    3    0    0 -0.28289245902E+02  0.28715711387E+02 -0.16085701308E+02  0.43400729265E+02  0.00000000000E+00 0.  1.
         11    1    4    4    0    0  0.14173582192E+02 -0.67471067932E+01  0.68808207059E+01  0.17139415862E+02  0.51100000000E-03 0. -1.
        -11    1    4    4    0    0  0.13611460003E+02 -0.92510083019E+01  0.60564431908E+01  0.17536633154E+02  0.51100000000E-03 0.  1.
        -12    1    4    4    0    0  0.50420370743E+00 -0.12717596292E+02  0.31484374110E+01  0.13111221719E+02  0.00000000000E+00 0.  1.
</event>
<event>
 8    1  0.8600524E-011  0.9118800E+02  0.7816164E-02  0.1184000E+00
        -11   -1    0    0    0    0  0.00000000000E+00  0.00000000000E+00  0.45593999997E+02  0.45594000000E+02  0.51100000000E-03 0. -1.
         11   -1    0    0    0    0 -0.00000000000E+00 -0.00000000000E+00 -0.45593999997E+02  0.45594000000E+02  0.51100000000E-03 0.  1.
         23    2    1    2    0    0  0.00000000000E+00  0.00000000000E+00  0.00000000000E+00  0.91188000000E+02  0.91188000000E+02 0.  0.
    9900012    2    3    3    0    0 -0.63069184137E+01  0.30809207407E+02  0.29910509486E+02  0.47787273524E+02  0.20000011306E+02 0.  0.
        -12    1    3    3    0    0  0.63069184137E+01 -0.30809207407E+02 -0.29910509486E+02  0.43400726476E+02  0.00000000000E+00 0.  1.
         11    1    4    4    0    0  0.18186363587E+01  0.89691597464E+01  0.23901612315E+01  0.94586540128E+01  0.51100000000E-03 0. -1.
        -11    1    4    4    0    0 -0.11328623099E+02  0.13339265685E+02  0.16568436650E+02  0.24099518742E+02  0.51100000000E-03 0.  1.
        -12    1    4    4    0    0  0.32030683264E+01  0.85007819760E+01  0.10951911605E+02  0.14229100769E+02  0.00000000000E+00 0.  1.
</event>
<event>
 8    1  0.1105333E-010  0.9118800E+02  0.7816164E-02  0.1184000E+00
        -11   -1    0    0    0    0  0.00000000000E+00  0.00000000000E+00  0.45593999997E+02  0.45594000000E+02  0.51100000000E-03 0. -1.
         11   -1    0    0    0    0 -0.00000000000E+00 -0.00000000000E+00 -0.45593999997E+02  0.45594000000E+02  0.51100000000E-03 0.  1.
         23    2    1    2    0    0  0.00000000000E+00 -0.71054273576E-14  0.00000000000E+00  0.91188000000E+02  0.91188000000E+02 0.  0.
    9900012    2    3    3    0    0  0.78986557650E+01  0.26624964213E+02  0.33351821256E+02  0.47787291903E+02  0.20000095103E+02 0.  0.
        -12    1    3    3    0    0 -0.78986557650E+01 -0.26624964213E+02 -0.33351821256E+02  0.43400708097E+02  0.00000000000E+00 0.  1.
         11    1    4    4    0    0  0.50543055180E+01  0.21273883138E+02  0.30892758893E+02  0.37848205510E+02  0.51100000000E-03 0. -1.
        -11    1    4    4    0    0  0.74340227978E+00 -0.19091847733E+01  0.24548049476E+00  0.20634665935E+01  0.51100000000E-03 0.  1.
        -12    1    4    4    0    0  0.21009479672E+01  0.72602658479E+01  0.22135818682E+01  0.78756197998E+01  0.00000000000E+00 0.  1.
</event>
<event>
 8    1  0.8799979E-011  0.9118800E+02  0.7816164E-02  0.1184000E+00
        -11   -1    0    0    0    0  0.00000000000E+00  0.00000000000E+00  0.45593999997E+02  0.45594000000E+02  0.51100000000E-03 0. -1.
         11   -1    0    0    0    0 -0.00000000000E+00 -0.00000000000E+00 -0.45593999997E+02  0.45594000000E+02  0.51100000000E-03 0.  1.
         23    2    1    2    0    0  0.17763568394E-14  0.26367796835E-15  0.00000000000E+00  0.91188000000E+02  0.91188000000E+02 0.  0.
    9900012    2    3    3    0    0  0.13662077889E+02  0.76894350763E-01  0.41194238107E+02  0.47787267999E+02  0.19999986114E+02 0.  0.
        -12    1    3    3    0    0 -0.13662077889E+02 -0.76894350763E-01 -0.41194238107E+02  0.43400732001E+02  0.00000000000E+00 0.  1.
         11    1    4    4    0    0  0.13296850863E+02 -0.16975634233E+01  0.28934743647E+02  0.31888984848E+02  0.51100000000E-03 0. -1.
        -11    1    4    4    0    0 -0.95640915267E+00 -0.30423446756E+01  0.64277608913E+00  0.32532661979E+01  0.51100000000E-03 0.  1.
        -12    1    4    4    0    0  0.13216361793E+01  0.48168024497E+01  0.11616718371E+02  0.12645016953E+02  0.00000000000E+00 0.  1.
</event>
<event>
 8    1  0.8600524E-011  0.9118800E+02  0.7816164E-02  0.1184000E+00
        -11   -1    0    0    0    0  0.00000000000E+00  0.00000000000E+00  0.45593999997E+02  0.45594000000E+02  0.51100000000E-03 0. -1.
         11   -1    0    0    0    0 -0.00000000000E+00 -0.00000000000E+00 -0.45593999997E+02  0.45594000000E+02  0.51100000000E-03 0.  1.
         23    2    1    2    0    0  0.88817841970E-15  0.17763568394E-14  0.00000000000E+00  0.91188000000E+02  0.91188000000E+02 0.  0.
    9900012    2    3    3    0    0  0.33893459434E+01  0.86948421473E+01 -0.42385553498E+02  0.47787273149E+02  0.20000009596E+02 0.  0.
         12    1    3    3    0    0 -0.33893459434E+01 -0.86948421473E+01  0.42385553498E+02  0.43400726851E+02  0.00000000000E+00 0. -1.
         11    1    4    4    0    0 -0.37185161000E+01  0.81460662446E+00 -0.75611469893E+00  0.38810637250E+01  0.51100000000E-03 0. -1.
        -11    1    4    4    0    0 -0.10917467272E+01  0.33609115300E+01 -0.51593809839E+01  0.62535469637E+01  0.51100000000E-03 0.  1.
         12    1    4    4    0    0  0.81996087705E+01  0.45193239928E+01 -0.36470057815E+02  0.37652662460E+02  0.00000000000E+00 0. -1.
</event>
<event>
 8    1  0.8600524E-011  0.9118800E+02  0.7816164E-02  0.1184000E+00
        -11   -1    0    0    0    0  0.00000000000E+00  0.00000000000E+00  0.45593999997E+02  0.45594000000E+02  0.51100000000E-03 0. -1.
         11   -1    0    0    0    0 -0.00000000000E+00 -0.00000000000E+00 -0.45593999997E+02  0.45594000000E+02  0.51100000000E-03 0.  1.
         23    2    1    2    0    0  0.00000000000E+00  0.72164496601E-15  0.00000000000E+00  0.91188000000E+02  0.91188000000E+02 0.  0.
    9900012    2    3    3    0    0  0.26586883525E+02 -0.43765237101E+00 -0.34301239327E+02  0.47787205831E+02  0.19999702662E+02 0.  0.
         12    1    3    3    0    0 -0.26586883525E+02  0.43765237101E+00  0.34301239327E+02  0.43400794169E+02  0.00000000000E+00 0. -1.
         11    1    4    4    0    0  0.13164483968E+02 -0.89578582888E+01 -0.23481904507E+02  0.28371582663E+02  0.51100000000E-03 0. -1.
        -11    1    4    4    0    0  0.87567117493E+01  0.69850568869E+01 -0.72282019755E+01  0.13331088644E+02  0.51100000000E-03 0.  1.
         12    1    4    4    0    0  0.46656878075E+01  0.15351490309E+01 -0.35911328438E+01  0.60845345234E+01  0.00000000000E+00 0. -1.
</event>
<event>
 8    1  0.8600524E-011  0.9118800E+02  0.7816164E-02  0.1184000E+00
        -11   -1    0    0    0    0  0.00000000000E+00  0.00000000000E+00  0.45593999997E+02  0.45594000000E+02  0.51100000000E-03 0. -1.
         11   -1    0    0    0    0 -0.00000000000E+00 -0.00000000000E+00 -0.45593999997E+02  0.45594000000E+02  0.51100000000E-03 0.  1.
         23    2    1    2    0    0  0.00000000000E+00  0.00000000000E+00  0.00000000000E+00  0.91188000000E+02  0.91188000000E+02 0.  0.
    9900012    2    3    3    0    0 -0.12604979782E+02  0.11459170053E+02 -0.39917730453E+02  0.47787270765E+02  0.19999998726E+02 0.  0.
         12    1    3    3    0    0  0.12604979782E+02 -0.11459170053E+02  0.39917730453E+02  0.43400729235E+02  0.00000000000E+00 0. -1.
         11    1    4    4    0    0  0.14562859055E+00  0.86513038912E+01 -0.39396064572E+01  0.95071954857E+01  0.51100000000E-03 0. -1.
        -11    1    4    4    0    0 -0.97236751414E+01  0.21001253344E+01 -0.28239695305E+02  0.29940620833E+02  0.51100000000E-03 0.  1.
         12    1    4    4    0    0 -0.30269332309E+01  0.70774082716E+00 -0.77384286909E+01  0.83394544466E+01  0.00000000000E+00 0. -1.
</event>
<event>
 8    1  0.8600524E-011  0.9118800E+02  0.7816164E-02  0.1184000E+00
        -11   -1    0    0    0    0  0.00000000000E+00  0.00000000000E+00  0.45593999997E+02  0.45594000000E+02  0.51100000000E-03 0. -1.
         11   -1    0    0    0    0 -0.00000000000E+00 -0.00000000000E+00 -0.45593999997E+02  0.45594000000E+02  0.51100000000E-03 0.  1.
         23    2    1    2    0    0 -0.44408920985E-15  0.00000000000E+00  0.00000000000E+00  0.91188000000E+02  0.91188000000E+02 0.  0.
    9900012    2    3    3    0    0 -0.37034597492E+01  0.33136988703E+02  0.27782140541E+02  0.47787274575E+02  0.20000016096E+02 0.  0.
        -12    1    3    3    0    0  0.37034597492E+01 -0.33136988703E+02 -0.27782140541E+02  0.43400725425E+02  0.00000000000E+00 0.  1.
         11    1    4    4    0    0 -0.87937951394E+01  0.93656622616E+01  0.12652343490E+02  0.18031313280E+02  0.51100000000E-03 0. -1.
        -11    1    4    4    0    0  0.21869611472E+01  0.56869674870E+01  0.15064587427E+00  0.60948414826E+01  0.51100000000E-03 0.  1.
         12    1    4    4    0    0  0.29033742429E+01  0.18084358954E+02  0.14979151176E+02  0.23661119812E+02  0.00000000000E+00 0. -1.
</event>
<event>
 8    1  0.8600524E-011  0.9118800E+02  0.7816164E-02  0.1184000E+00
        -11   -1    0    0    0    0  0.00000000000E+00  0.00000000000E+00  0.45593999997E+02  0.45594000000E+02  0.51100000000E-03 0. -1.
         11   -1    0    0    0    0 -0.00000000000E+00 -0.00000000000E+00 -0.45593999997E+02  0.45594000000E+02  0.51100000000E-03 0.  1.
         23    2    1    2    0    0  0.00000000000E+00  0.00000000000E+00  0.00000000000E+00  0.91188000000E+02  0.91188000000E+02 0.  0.
    9900012    2    3    3    0    0  0.58893945156E+01  0.38389098378E+02  0.19370471031E+02  0.47787274314E+02  0.20000014909E+02 0.  0.
        -12    1    3    3    0    0 -0.58893945156E+01 -0.38389098378E+02 -0.19370471031E+02  0.43400725686E+02  0.00000000000E+00 0.  1.
         11    1    4    4    0    0  0.62662093838E+01  0.11176037529E+02  0.20742789741E+01  0.12979669811E+02  0.51100000000E-03 0. -1.
        -11    1    4    4    0    0 -0.35184762372E+01  0.35838808784E+01  0.75215969111E+01  0.90442411255E+01  0.51100000000E-03 0.  1.
         12    1    4    4    0    0  0.31416613690E+01  0.23629179971E+02  0.97745951458E+01  0.25763363377E+02  0.00000000000E+00 0. -1.
</event>
<event>
 8    1  0.8600524E-011  0.9118800E+02  0.7816164E-02  0.1184000E+00
        -11   -1    0    0    0    0  0.00000000000E+00  0.00000000000E+00  0.45593999997E+02  0.45594000000E+02  0.51100000000E-03 0. -1.
         11   -1    0    0    0    0 -0.00000000000E+00 -0.00000000000E+00 -0.45593999997E+02  0.45594000000E+02  0.51100000000E-03 0.  1.
         23    2    1    2    0    0 -0.17763568394E-14  0.00000000000E+00  0.00000000000E+00  0.91188000000E+02  0.91188000000E+02 0.  0.
    9900012    2    3    3    0    0 -0.13262910214E+02  0.75793094121E+01 -0.40623545993E+02  0.47787271808E+02  0.20000003481E+02 0.  0.
         12    1    3    3    0    0  0.13262910214E+02 -0.75793094121E+01  0.40623545993E+02  0.43400728192E+02  0.00000000000E+00 0. -1.
         11    1    4    4    0    0 -0.71776660456E+01  0.14468714622E+01 -0.21396323140E+01  0.76282601942E+01  0.51100000000E-03 0. -1.
        -11    1    4    4    0    0 -0.43704871493E+01  0.74821557214E+01 -0.24098340330E+02  0.25608862120E+02  0.51100000000E-03 0.  1.
        -12    1    4    4    0    0 -0.17147570195E+01 -0.13497177716E+01 -0.14385573350E+02  0.14550149494E+02  0.00000000000E+00 0.  1.
</event>
<event>
 8    1  0.8600524E-011  0.9118800E+02  0.7816164E-02  0.1184000E+00
        -11   -1    0    0    0    0  0.00000000000E+00  0.00000000000E+00  0.45593999997E+02  0.45594000000E+02  0.51100000000E-03 0. -1.
         11   -1    0    0    0    0 -0.00000000000E+00 -0.00000000000E+00 -0.45593999997E+02  0.45594000000E+02  0.51100000000E-03 0.  1.
         23    2    1    2    0    0  0.88817841970E-15  0.00000000000E+00  0.88817841970E-15  0.91188000000E+02  0.91188000000E+02 0.  0.
    9900012    2    3    3    0    0 -0.29957631436E+01  0.42737380115E+02  0.69400729408E+01  0.47787275717E+02  0.20000021304E+02 0.  0.
        -12    1    3    3    0    0  0.29957631436E+01 -0.42737380115E+02 -0.69400729408E+01  0.43400724283E+02  0.00000000000E+00 0.  1.
         11    1    4    4    0    0  0.17411581991E+01  0.18710208643E+02  0.95122168719E+01  0.21061476905E+02  0.51100000000E-03 0. -1.
        -11    1    4    4    0    0  0.22035624738E+01  0.11578718125E+02 -0.38915093696E+01  0.12412342504E+02  0.51100000000E-03 0.  1.
         12    1    4    4    0    0 -0.69404838165E+01  0.12448453346E+02  0.13193654385E+01  0.14313456308E+02  0.00000000000E+00 0. -1.
</event>
<event>
 8    1  0.8600524E-011  0.9118800E+02  0.7816164E-02  0.1184000E+00
        -11   -1    0    0    0    0  0.00000000000E+00  0.00000000000E+00  0.45593999997E+02  0.45594000000E+02  0.51100000000E-03 0. -1.
         11   -1    0    0    0    0 -0.00000000000E+00 -0.00000000000E+00 -0.45593999997E+02  0.45594000000E+02  0.51100000000E-03 0.  1.
         23    2    1    2    0    0  0.00000000000E+00  0.17763568394E-14  0.71054273576E-14  0.91188000000E+02  0.91188000000E+02 0.  0.
    9900012    2    3    3    0    0  0.10592309383E+02 -0.15641937728E+02 -0.39073723680E+02  0.47787272861E+02  0.20000008282E+02 0.  0.
         12    1    3    3    0    0 -0.10592309383E+02  0.15641937728E+02  0.39073723680E+02  0.43400727139E+02  0.00000000000E+00 0. -1.
         11    1    4    4    0    0  0.16349350823E+01  0.45229509227E-01  0.16154234654E+01  0.22988370246E+01  0.51100000000E-03 0. -1.
        -11    1    4    4    0    0  0.10738802905E+02 -0.14704662408E+02 -0.37774355783E+02  0.41933887722E+02  0.51100000000E-03 0.  1.
        -12    1    4    4    0    0 -0.17814286042E+01 -0.98250482948E+00 -0.29147913624E+01  0.35545481145E+01  0.00000000000E+00 0.  1.
</event>
<event>
 8    1  0.8600524E-011  0.9118800E+02  0.7816164E-02  0.1184000E+00
        -11   -1    0    0    0    0  0.00000000000E+00  0.00000000000E+00  0.45593999997E+02  0.45594000000E+02  0.51100000000E-03 0. -1.
         11   -1    0    0    0    0 -0.00000000000E+00 -0.00000000000E+00 -0.45593999997E+02  0.45594000000E+02  0.51100000000E-03 0.  1.
         23    2    1    2    0    0  0.00000000000E+00 -0.88817841970E-15  0.00000000000E+00  0.91188000000E+02  0.91188000000E+02 0.  0.
    9900012    2    3    3    0    0  0.28453265738E+02 -0.78326266183E+01  0.31822709835E+02  0.47787271525E+02  0.20000002192E+02 0.  0.
        -12    1    3    3    0    0 -0.28453265738E+02  0.78326266183E+01 -0.31822709835E+02  0.43400728475E+02  0.00000000000E+00 0.  1.
         11    1    4    4    0    0  0.30090008845E+02 -0.75735295551E+01  0.28457568175E+02  0.42102258477E+02  0.51100000000E-03 0. -1.
        -11    1    4    4    0    0 -0.26378499852E+01  0.72560530218E+00  0.32898491073E+01  0.42787688660E+01  0.51100000000E-03 0.  1.
         12    1    4    4    0    0  0.10011068788E+01 -0.98470236543E+00  0.75292553096E-01  0.14062441822E+01  0.00000000000E+00 0. -1.
</event>
<event>
 8    1  0.8600524E-011  0.9118800E+02  0.7816164E-02  0.1184000E+00
        -11   -1    0    0    0    0  0.00000000000E+00  0.00000000000E+00  0.45593999997E+02  0.45594000000E+02  0.51100000000E-03 0.  1.
         11   -1    0    0    0    0 -0.00000000000E+00 -0.00000000000E+00 -0.45593999997E+02  0.45594000000E+02  0.51100000000E-03 0. -1.
         23    2    1    2    0    0  0.00000000000E+00  0.00000000000E+00  0.00000000000E+00  0.91188000000E+02  0.91188000000E+02 0.  0.
    9900012    2    3    3    0    0  0.73344660967E+01 -0.42457017625E+02  0.52183068572E+01  0.47787268843E+02  0.19999989961E+02 0.  0.
        -12    1    3    3    0    0 -0.73344660967E+01  0.42457017625E+02 -0.52183068572E+01  0.43400731157E+02  0.00000000000E+00 0.  1.
         11    1    4    4    0    0 -0.41976099390E+01 -0.12065377902E+02  0.56510230734E+01  0.13968798630E+02  0.51100000000E-03 0. -1.
        -11    1    4    4    0    0  0.10236684653E+02 -0.14773652785E+02 -0.19228495998E+01  0.18076168846E+02  0.51100000000E-03 0.  1.
         12    1    4    4    0    0  0.12953913826E+01 -0.15617986938E+02  0.14901333837E+01  0.15742301367E+02  0.00000000000E+00 0. -1.
</event>
<event>
 8    1  0.8600524E-011  0.9118800E+02  0.7816164E-02  0.1184000E+00
        -11   -1    0    0    0    0  0.00000000000E+00  0.00000000000E+00  0.45593999997E+02  0.45594000000E+02  0.51100000000E-03 0. -1.
         11   -1    0    0    0    0 -0.00000000000E+00 -0.00000000000E+00 -0.45593999997E+02  0.45594000000E+02  0.51100000000E-03 0.  1.
         23    2    1    2    0    0  0.00000000000E+00 -0.22204460493E-15  0.00000000000E+00  0.91188000000E+02  0.91188000000E+02 0.  0.
    9900012    2    3    3    0    0  0.17398728989E+02 -0.16307075875E+01 -0.39727176864E+02  0.47787267757E+02  0.19999985010E+02 0.  0.
         12    1    3    3    0    0 -0.17398728989E+02  0.16307075875E+01  0.39727176864E+02  0.43400732243E+02  0.00000000000E+00 0. -1.
         11    1    4    4    0    0  0.87424359016E+01  0.48912430784E+01 -0.21523210837E+02  0.23740325384E+02  0.51100000000E-03 0. -1.
        -11    1    4    4    0    0  0.89595495567E+00 -0.58975402449E+01 -0.13957372077E+02  0.15178667655E+02  0.51100000000E-03 0.  1.
         12    1    4    4    0    0  0.77603381317E+01 -0.62441042100E+00 -0.42465939497E+01  0.88682747176E+01  0.00000000000E+00 0. -1.
</event>
<event>
 8    1  0.8600524E-011  0.9118800E+02  0.7816164E-02  0.1184000E+00
        -11   -1    0    0    0    0  0.00000000000E+00  0.00000000000E+00  0.45593999997E+02  0.45594000000E+02  0.51100000000E-03 0. -1.
         11   -1    0    0    0    0 -0.00000000000E+00 -0.00000000000E+00 -0.45593999997E+02  0.45594000000E+02  0.51100000000E-03 0.  1.
         23    2    1    2    0    0 -0.35527136788E-14  0.00000000000E+00  0.00000000000E+00  0.91188000000E+02  0.91188000000E+02 0.  0.
    9900012    2    3    3    0    0 -0.29369163114E+02 -0.13982391133E+02  0.28732704200E+02  0.47787270807E+02  0.19999998920E+02 0.  0.
        -12    1    3    3    0    0  0.29369163114E+02  0.13982391133E+02 -0.28732704200E+02  0.43400729193E+02  0.00000000000E+00 0.  1.
         11    1    4    4    0    0 -0.19488048666E+02 -0.65196096139E+01  0.24178810008E+02  0.31731753875E+02  0.51100000000E-03 0. -1.
        -11    1    4    4    0    0 -0.47021610089E+01 -0.56822531388E+01  0.68979046046E+01  0.10098485386E+02  0.51100000000E-03 0.  1.
         12    1    4    4    0    0 -0.51789534392E+01 -0.17805283799E+01 -0.23440104126E+01  0.59570315470E+01  0.00000000000E+00 0. -1.
</event>
<event>
 8    1  0.8600524E-011  0.9118800E+02  0.7816164E-02  0.1184000E+00
        -11   -1    0    0    0    0  0.00000000000E+00  0.00000000000E+00  0.45593999997E+02  0.45594000000E+02  0.51100000000E-03 0. -1.
         11   -1    0    0    0    0 -0.00000000000E+00 -0.00000000000E+00 -0.45593999997E+02  0.45594000000E+02  0.51100000000E-03 0.  1.
         23    2    1    2    0    0  0.00000000000E+00 -0.88817841970E-15  0.00000000000E+00  0.91188000000E+02  0.91188000000E+02 0.  0.
    9900012    2    3    3    0    0 -0.35528098238E+02  0.46763646000E+01  0.24484836309E+02  0.47787293101E+02  0.20000100564E+02 0.  0.
        -12    1    3    3    0    0  0.35528098238E+02 -0.46763646000E+01 -0.24484836309E+02  0.43400706899E+02  0.00000000000E+00 0.  1.
         11    1    4    4    0    0 -0.15261479876E+01 -0.34839996735E+01  0.20068902837E+01  0.43005802256E+01  0.51100000000E-03 0.  1.
        -11    1    4    4    0    0 -0.30361492450E+02  0.24599737490E+01  0.18212578990E+02  0.35490417416E+02  0.51100000000E-03 0. -1.
        -12    1    4    4    0    0 -0.36404577998E+01  0.57003905245E+01  0.42653670354E+01  0.79962954592E+01  0.00000000000E+00 0.  1.
</event>
<event>
 8    1  0.8600524E-011  0.9118800E+02  0.7816164E-02  0.1184000E+00
        -11   -1    0    0    0    0  0.00000000000E+00  0.00000000000E+00  0.45593999997E+02  0.45594000000E+02  0.51100000000E-03 0. -1.
         11   -1    0    0    0    0 -0.00000000000E+00 -0.00000000000E+00 -0.45593999997E+02  0.45594000000E+02  0.51100000000E-03 0.  1.
         23    2    1    2    0    0  0.00000000000E+00 -0.35527136788E-14  0.00000000000E+00  0.91188000000E+02  0.91188000000E+02 0.  0.
    9900012    2    3    3    0    0  0.24324295063E+02  0.22061531463E+02  0.28376759831E+02  0.47787274207E+02  0.20000014421E+02 0.  0.
        -12    1    3    3    0    0 -0.24324295063E+02 -0.22061531463E+02 -0.28376759831E+02  0.43400725793E+02  0.00000000000E+00 0.  1.
         11    1    4    4    0    0  0.44233132453E+01  0.42362260886E+01  0.61783283657E+01  0.86996007492E+01  0.51100000000E-03 0. -1.
        -11    1    4    4    0    0 -0.44237749617E+00 -0.20157382831E+01  0.60735360140E+01  0.64145723669E+01  0.51100000000E-03 0.  1.
        -12    1    4    4    0    0  0.20343359314E+02  0.19841043658E+02  0.16124895451E+02  0.32673101091E+02  0.00000000000E+00 0.  1.
</event>
<event>
 8    1  0.8600524E-011  0.9118800E+02  0.7816164E-02  0.1184000E+00
        -11   -1    0    0    0    0  0.00000000000E+00  0.00000000000E+00  0.45593999997E+02  0.45594000000E+02  0.51100000000E-03 0. -1.
         11   -1    0    0    0    0 -0.00000000000E+00 -0.00000000000E+00 -0.45593999997E+02  0.45594000000E+02  0.51100000000E-03 0.  1.
         23    2    1    2    0    0  0.00000000000E+00  0.00000000000E+00  0.00000000000E+00  0.91188000000E+02  0.91188000000E+02 0.  0.
    9900012    2    3    3    0    0 -0.70048686655E+01 -0.32271243809E+02  0.28162421284E+02  0.47787270345E+02  0.19999996809E+02 0.  0.
        -12    1    3    3    0    0  0.70048686655E+01  0.32271243809E+02 -0.28162421284E+02  0.43400729655E+02  0.00000000000E+00 0.  1.
         11    1    4    4    0    0  0.15251735006E+01 -0.23279069468E+02  0.14017077240E+02  0.27216165860E+02  0.51100000000E-03 0. -1.
        -11    1    4    4    0    0 -0.84265524517E+01 -0.90505527257E+01  0.86890881268E+01  0.15113554962E+02  0.51100000000E-03 0.  1.
         12    1    4    4    0    0 -0.10348971443E+00  0.58378384032E-01  0.54562559174E+01  0.54575495227E+01  0.00000000000E+00 0. -1.
</event>
<event>
 8    1  0.8600524E-011  0.9118800E+02  0.7816164E-02  0.1184000E+00
        -11   -1    0    0    0    0  0.00000000000E+00  0.00000000000E+00  0.45593999997E+02  0.45594000000E+02  0.51100000000E-03 0. -1.
         11   -1    0    0    0    0 -0.00000000000E+00 -0.00000000000E+00 -0.45593999997E+02  0.45594000000E+02  0.51100000000E-03 0.  1.
         23    2    1    2    0    0 -0.17763568394E-14  0.00000000000E+00 -0.35527136788E-14  0.91188000000E+02  0.91188000000E+02 0.  0.
    9900012    2    3    3    0    0  0.13988557019E+02 -0.30290294096E+02 -0.27756828897E+02  0.47787271961E+02  0.20000004178E+02 0.  0.
         12    1    3    3    0    0 -0.13988557019E+02  0.30290294096E+02  0.27756828897E+02  0.43400728039E+02  0.00000000000E+00 0. -1.
         11    1    4    4    0    0  0.38369179208E+01 -0.23091112236E+00  0.10392109873E+01  0.39818612250E+01  0.51100000000E-03 0. -1.
        -11    1    4    4    0    0  0.81176465208E+01 -0.24123451651E+02 -0.27359828084E+02  0.37368399720E+02  0.51100000000E-03 0.  1.
        -12    1    4    4    0    0  0.20339925776E+01 -0.59359313234E+01 -0.14362118001E+01  0.64370110157E+01  0.00000000000E+00 0.  1.
</event>
<event>
 8    1  0.8600524E-011  0.9118800E+02  0.7816164E-02  0.1184000E+00
        -11   -1    0    0    0    0  0.00000000000E+00  0.00000000000E+00  0.45593999997E+02  0.45594000000E+02  0.51100000000E-03 0. -1.
         11   -1    0    0    0    0 -0.00000000000E+00 -0.00000000000E+00 -0.45593999997E+02  0.45594000000E+02  0.51100000000E-03 0.  1.
         23    2    1    2    0    0 -0.71054273576E-14  0.00000000000E+00  0.00000000000E+00  0.91188000000E+02  0.91188000000E+02 0.  0.
    9900012    2    3    3    0    0 -0.38297830310E+02  0.73357037655E+01 -0.19054834514E+02  0.47787273341E+02  0.20000010470E+02 0.  0.
         12    1    3    3    0    0  0.38297830310E+02 -0.73357037655E+01  0.19054834514E+02  0.43400726659E+02  0.00000000000E+00 0. -1.
         11    1    4    4    0    0 -0.59648150710E+01  0.14586272802E-01  0.40532275232E+01  0.72116492709E+01  0.51100000000E-03 0. -1.
        -11    1    4    4    0    0 -0.27637107566E+02  0.69843705885E+01 -0.21058791067E+02  0.35440990796E+02  0.51100000000E-03 0.  1.
        -12    1    4    4    0    0 -0.46959076730E+01  0.33674690419E+00 -0.20492709697E+01  0.51346332739E+01  0.00000000000E+00 0.  1.
</event>
<event>
 8    1  0.8600524E-011  0.9118800E+02  0.7816164E-02  0.1184000E+00
        -11   -1    0    0    0    0  0.00000000000E+00  0.00000000000E+00  0.45593999997E+02  0.45594000000E+02  0.51100000000E-03 0.  1.
         11   -1    0    0    0    0 -0.00000000000E+00 -0.00000000000E+00 -0.45593999997E+02  0.45594000000E+02  0.51100000000E-03 0. -1.
         23    2    1    2    0    0  0.00000000000E+00  0.00000000000E+00  0.00000000000E+00  0.91188000000E+02  0.91188000000E+02 0.  0.
    9900012    2    3    3    0    0 -0.55037205514E+01 -0.42127227394E+02 -0.88672676509E+01  0.47787278078E+02  0.20000032067E+02 0.  0.
        -12    1    3    3    0    0  0.55037205514E+01  0.42127227394E+02  0.88672676509E+01  0.43400721922E+02  0.00000000000E+00 0.  1.
         11    1    4    4    0    0  0.53377345069E+01 -0.20576927074E+02 -0.28990826384E+01  0.21454743482E+02  0.51100000000E-03 0. -1.
        -11    1    4    4    0    0 -0.10547455933E+02 -0.15434515819E+02 -0.72957585217E+01  0.20067416323E+02  0.51100000000E-03 0.  1.
        -12    1    4    4    0    0 -0.29399912570E+00 -0.61157845008E+01  0.13275735091E+01  0.62651182724E+01  0.00000000000E+00 0.  1.
</event>
<event>
 8    1  0.8600524E-011  0.9118800E+02  0.7816164E-02  0.1184000E+00
        -11   -1    0    0    0    0  0.00000000000E+00  0.00000000000E+00  0.45593999997E+02  0.45594000000E+02  0.51100000000E-03 0. -1.
         11   -1    0    0    0    0 -0.00000000000E+00 -0.00000000000E+00 -0.45593999997E+02  0.45594000000E+02  0.51100000000E-03 0.  1.
         23    2    1    2    0    0 -0.28449465006E-15  0.00000000000E+00 -0.71054273576E-14  0.91188000000E+02  0.91188000000E+02 0.  0.
    9900012    2    3    3    0    0 -0.32336039334E-01 -0.28700865446E+02  0.32555835076E+02  0.47787272812E+02  0.20000008057E+02 0.  0.
        -12    1    3    3    0    0  0.32336039334E-01  0.28700865446E+02 -0.32555835076E+02  0.43400727188E+02  0.00000000000E+00 0.  1.
         11    1    4    4    0    0  0.24022159481E+01 -0.12014829420E+02  0.13193782505E+02  0.18005628690E+02  0.51100000000E-03 0. -1.
        -11    1    4    4    0    0 -0.67568496500E+01 -0.13058328748E+02  0.71933822988E+01  0.16368253299E+02  0.51100000000E-03 0.  1.
        -12    1    4    4    0    0  0.43222976626E+01 -0.36277072777E+01  0.12168670273E+02  0.13413390823E+02  0.00000000000E+00 0.  1.
</event>
<event>
 8    1  0.8600524E-011  0.9118800E+02  0.7816164E-02  0.1184000E+00
        -11   -1    0    0    0    0  0.00000000000E+00  0.00000000000E+00  0.45593999997E+02  0.45594000000E+02  0.51100000000E-03 0. -1.
         11   -1    0    0    0    0 -0.00000000000E+00 -0.00000000000E+00 -0.45593999997E+02  0.45594000000E+02  0.51100000000E-03 0.  1.
         23    2    1    2    0    0  0.00000000000E+00 -0.35527136788E-14  0.00000000000E+00  0.91188000000E+02  0.91188000000E+02 0.  0.
    9900012    2    3    3    0    0 -0.28419192856E+02  0.18192478031E+02  0.27294801500E+02  0.47787274563E+02  0.20000016043E+02 0.  0.
        -12    1    3    3    0    0  0.28419192856E+02 -0.18192478031E+02 -0.27294801500E+02  0.43400725437E+02  0.00000000000E+00 0.  1.
         11    1    4    4    0    0 -0.15005766024E+02  0.44546644407E+01  0.10811322533E+02  0.19023715316E+02  0.51100000000E-03 0. -1.
        -11    1    4    4    0    0 -0.89874637107E+01  0.46208766575E+01  0.86178540331E+00  0.10142469097E+02  0.51100000000E-03 0.  1.
         12    1    4    4    0    0 -0.44259631213E+01  0.91169369327E+01  0.15621693564E+02  0.18621090150E+02  0.00000000000E+00 0. -1.
</event>
<event>
 8    1  0.8600524E-011  0.9118800E+02  0.7816164E-02  0.1184000E+00
        -11   -1    0    0    0    0  0.00000000000E+00  0.00000000000E+00  0.45593999997E+02  0.45594000000E+02  0.51100000000E-03 0. -1.
         11   -1    0    0    0    0 -0.00000000000E+00 -0.00000000000E+00 -0.45593999997E+02  0.45594000000E+02  0.51100000000E-03 0.  1.
         23    2    1    2    0    0  0.00000000000E+00  0.00000000000E+00  0.00000000000E+00  0.91188000000E+02  0.91188000000E+02 0.  0.
    9900012    2    3    3    0    0  0.71180724217E+01  0.31449288718E+02 -0.29049924636E+02  0.47787276075E+02  0.20000022936E+02 0.  0.
         12    1    3    3    0    0 -0.71180724217E+01 -0.31449288718E+02  0.29049924636E+02  0.43400723925E+02  0.00000000000E+00 0. -1.
         11    1    4    4    0    0  0.23585138687E+01 -0.60025285681E+00  0.86158011283E-01  0.24352237320E+01  0.51100000000E-03 0. -1.
        -11    1    4    4    0    0  0.82600913432E+01  0.22504869494E+02 -0.24152184344E+02  0.34029785024E+02  0.51100000000E-03 0.  1.
        -12    1    4    4    0    0 -0.35005327901E+01  0.95446720802E+01 -0.49838983038E+01  0.11322267319E+02  0.00000000000E+00 0.  1.
</event>
<event>
 8    1  0.8600524E-011  0.9118800E+02  0.7816164E-02  0.1184000E+00
        -11   -1    0    0    0    0  0.00000000000E+00  0.00000000000E+00  0.45593999997E+02  0.45594000000E+02  0.51100000000E-03 0. -1.
         11   -1    0    0    0    0 -0.00000000000E+00 -0.00000000000E+00 -0.45593999997E+02  0.45594000000E+02  0.51100000000E-03 0.  1.
         23    2    1    2    0    0  0.35527136788E-14  0.00000000000E+00 -0.35527136788E-14  0.91188000000E+02  0.91188000000E+02 0.  0.
    9900012    2    3    3    0    0 -0.24426353685E+02 -0.19925128813E+02  0.29832292363E+02  0.47787272124E+02  0.20000004922E+02 0.  0.
        -12    1    3    3    0    0  0.24426353685E+02  0.19925128813E+02 -0.29832292363E+02  0.43400727876E+02  0.00000000000E+00 0.  1.
         11    1    4    4    0    0 -0.15644546241E+01  0.30592048127E+01  0.75642024398E+00  0.35182984813E+01  0.51100000000E-03 0. -1.
        -11    1    4    4    0    0 -0.15113360609E+01 -0.24460968658E+01  0.62173180171E+01  0.68500051206E+01  0.51100000000E-03 0.  1.
         12    1    4    4    0    0 -0.21350563000E+02 -0.20538236760E+02  0.22858554102E+02  0.37418968522E+02  0.00000000000E+00 0. -1.
</event>
<event>
 8    1  0.8600524E-011  0.9118800E+02  0.7816164E-02  0.1184000E+00
        -11   -1    0    0    0    0  0.00000000000E+00  0.00000000000E+00  0.45593999997E+02  0.45594000000E+02  0.51100000000E-03 0. -1.
         11   -1    0    0    0    0 -0.00000000000E+00 -0.00000000000E+00 -0.45593999997E+02  0.45594000000E+02  0.51100000000E-03 0.  1.
         23    2    1    2    0    0  0.00000000000E+00  0.00000000000E+00 -0.35527136788E-14  0.91188000000E+02  0.91188000000E+02 0.  0.
    9900012    2    3    3    0    0  0.29207684891E+02 -0.15435100620E+02  0.28147683197E+02  0.47787271237E+02  0.20000000877E+02 0.  0.
        -12    1    3    3    0    0 -0.29207684891E+02  0.15435100620E+02 -0.28147683197E+02  0.43400728763E+02  0.00000000000E+00 0.  1.
         11    1    4    4    0    0  0.19413112203E+02 -0.11436464975E+02  0.75085034137E+01  0.23749511159E+02  0.51100000000E-03 0. -1.
        -11    1    4    4    0    0  0.45709601317E+01 -0.18219743620E+01  0.15939467363E+02  0.16681723148E+02  0.51100000000E-03 0.  1.
         12    1    4    4    0    0  0.52236125561E+01 -0.21766612828E+01  0.46997124201E+01  0.73560369295E+01  0.00000000000E+00 0. -1.
</event>
<event>
 8    1  0.8600524E-011  0.9118800E+02  0.7816164E-02  0.1184000E+00
        -11   -1    0    0    0    0  0.00000000000E+00  0.00000000000E+00  0.45593999997E+02  0.45594000000E+02  0.51100000000E-03 0. -1.
         11   -1    0    0    0    0 -0.00000000000E+00 -0.00000000000E+00 -0.45593999997E+02  0.45594000000E+02  0.51100000000E-03 0.  1.
         23    2    1    2    0    0 -0.44408920985E-15  0.00000000000E+00  0.00000000000E+00  0.91188000000E+02  0.91188000000E+02 0.  0.
    9900012    2    3    3    0    0 -0.33400064676E+01 -0.11143386566E+02  0.41812581291E+02  0.47787278098E+02  0.20000032162E+02 0.  0.
        -12    1    3    3    0    0  0.33400064676E+01  0.11143386566E+02 -0.41812581291E+02  0.43400721902E+02  0.00000000000E+00 0.  1.
         11    1    4    4    0    0 -0.65174254014E+01 -0.13117491177E+02  0.34552098770E+02  0.37528561634E+02  0.51100000000E-03 0. -1.
        -11    1    4    4    0    0  0.43475377801E+01  0.10313886218E+01  0.22011439331E+01  0.49809519285E+01  0.51100000000E-03 0.  1.
         12    1    4    4    0    0 -0.11701188464E+01  0.94271598882E+00  0.50593385883E+01  0.52777645363E+01  0.00000000000E+00 0. -1.
</event>
<event>
 8    1  0.8600524E-011  0.9118800E+02  0.7816164E-02  0.1184000E+00
        -11   -1    0    0    0    0  0.00000000000E+00  0.00000000000E+00  0.45593999997E+02  0.45594000000E+02  0.51100000000E-03 0. -1.
         11   -1    0    0    0    0 -0.00000000000E+00 -0.00000000000E+00 -0.45593999997E+02  0.45594000000E+02  0.51100000000E-03 0.  1.
         23    2    1    2    0    0  0.00000000000E+00  0.17763568394E-14  0.71054273576E-14  0.91188000000E+02  0.91188000000E+02 0.  0.
    9900012    2    3    3    0    0  0.16694480151E+02 -0.82604468179E+01 -0.39200545978E+02  0.47787268968E+02  0.19999990532E+02 0.  0.
         12    1    3    3    0    0 -0.16694480151E+02  0.82604468179E+01  0.39200545978E+02  0.43400731032E+02  0.00000000000E+00 0. -1.
         11    1    4    4    0    0  0.84123653674E+01 -0.50717401148E+00 -0.63505657792E+01  0.10552478502E+02  0.51100000000E-03 0. -1.
        -11    1    4    4    0    0  0.63823797808E+01 -0.89022456101E+01 -0.33224195435E+02  0.34983309037E+02  0.51100000000E-03 0.  1.
        -12    1    4    4    0    0  0.18997350026E+01  0.11489728036E+01  0.37421523629E+00  0.22514814293E+01  0.00000000000E+00 0.  1.
</event>
<event>
 8    1  0.8600524E-011  0.9118800E+02  0.7816164E-02  0.1184000E+00
        -11   -1    0    0    0    0  0.00000000000E+00  0.00000000000E+00  0.45593999997E+02  0.45594000000E+02  0.51100000000E-03 0. -1.
         11   -1    0    0    0    0 -0.00000000000E+00 -0.00000000000E+00 -0.45593999997E+02  0.45594000000E+02  0.51100000000E-03 0.  1.
         23    2    1    2    0    0  0.00000000000E+00  0.00000000000E+00  0.00000000000E+00  0.91188000000E+02  0.91188000000E+02 0.  0.
    9900012    2    3    3    0    0 -0.10655867863E+02 -0.23684020884E+02  0.34772731708E+02  0.47787271486E+02  0.20000002013E+02 0.  0.
        -12    1    3    3    0    0  0.10655867863E+02  0.23684020884E+02 -0.34772731708E+02  0.43400728514E+02  0.00000000000E+00 0.  1.
         11    1    4    4    0    0 -0.15215422642E+02 -0.13085370836E+02  0.18028996746E+02  0.26977411662E+02  0.51100000000E-03 0. -1.
        -11    1    4    4    0    0  0.40463022282E+01 -0.86465008508E+01  0.10238315402E+02  0.13998487105E+02  0.51100000000E-03 0.  1.
         12    1    4    4    0    0  0.51325255052E+00 -0.19521491970E+01  0.65054195597E+01  0.68113727189E+01  0.00000000000E+00 0. -1.
</event>
<event>
 8    1  0.8600524E-011  0.9118800E+02  0.7816164E-02  0.1184000E+00
        -11   -1    0    0    0    0  0.00000000000E+00  0.00000000000E+00  0.45593999997E+02  0.45594000000E+02  0.51100000000E-03 0. -1.
         11   -1    0    0    0    0 -0.00000000000E+00 -0.00000000000E+00 -0.45593999997E+02  0.45594000000E+02  0.51100000000E-03 0.  1.
         23    2    1    2    0    0  0.35527136788E-14 -0.71054273576E-14  0.00000000000E+00  0.91188000000E+02  0.91188000000E+02 0.  0.
    9900012    2    3    3    0    0  0.25145012417E+02 -0.26292649518E+02  0.23665335398E+02  0.47787272269E+02  0.20000005582E+02 0.  0.
        -12    1    3    3    0    0 -0.25145012417E+02  0.26292649518E+02 -0.23665335398E+02  0.43400727731E+02  0.00000000000E+00 0.  1.
         11    1    4    4    0    0  0.20982918656E+01 -0.33764504022E+01  0.55738931583E+01  0.68462786441E+01  0.51100000000E-03 0. -1.
        -11    1    4    4    0    0 -0.21478418861E+01 -0.28847497275E+00 -0.61624704989E+00  0.22530431121E+01  0.51100000000E-03 0.  1.
        -12    1    4    4    0    0  0.25194562437E+02 -0.22627724143E+02  0.18707689290E+02  0.38687950512E+02  0.00000000000E+00 0.  1.
</event>
<event>
 8    1  0.8600524E-011  0.9118800E+02  0.7816164E-02  0.1184000E+00
        -11   -1    0    0    0    0  0.00000000000E+00  0.00000000000E+00  0.45593999997E+02  0.45594000000E+02  0.51100000000E-03 0. -1.
         11   -1    0    0    0    0 -0.00000000000E+00 -0.00000000000E+00 -0.45593999997E+02  0.45594000000E+02  0.51100000000E-03 0.  1.
         23    2    1    2    0    0 -0.71054273576E-14  0.00000000000E+00  0.00000000000E+00  0.91188000000E+02  0.91188000000E+02 0.  0.
    9900012    2    3    3    0    0 -0.41336772279E+02 -0.21839748593E+01 -0.13043209885E+02  0.47787264836E+02  0.19999971694E+02 0.  0.
         12    1    3    3    0    0  0.41336772279E+02  0.21839748593E+01  0.13043209885E+02  0.43400735164E+02  0.00000000000E+00 0. -1.
         11    1    4    4    0    0 -0.20337677848E+02  0.88396028011E+00  0.70692427269E+00  0.20369149914E+02  0.51100000000E-03 0. -1.
        -11    1    4    4    0    0 -0.96267952864E+01 -0.14112890743E+01 -0.12525838528E+02  0.15860755197E+02  0.51100000000E-03 0.  1.
        -12    1    4    4    0    0 -0.11372299145E+02 -0.16566460651E+01 -0.12242956297E+01  0.11557359725E+02  0.00000000000E+00 0.  1.
</event>
<event>
 8    1  0.8600524E-011  0.9118800E+02  0.7816164E-02  0.1184000E+00
        -11   -1    0    0    0    0  0.00000000000E+00  0.00000000000E+00  0.45593999997E+02  0.45594000000E+02  0.51100000000E-03 0. -1.
         11   -1    0    0    0    0 -0.00000000000E+00 -0.00000000000E+00 -0.45593999997E+02  0.45594000000E+02  0.51100000000E-03 0.  1.
         23    2    1    2    0    0  0.00000000000E+00  0.00000000000E+00 -0.35527136788E-14  0.91188000000E+02  0.91188000000E+02 0.  0.
    9900012    2    3    3    0    0  0.39898807109E+00 -0.37551416084E+02  0.21756726728E+02  0.47787271903E+02  0.20000003916E+02 0.  0.
        -12    1    3    3    0    0 -0.39898807109E+00  0.37551416084E+02 -0.21756726728E+02  0.43400728097E+02  0.00000000000E+00 0.  1.
         11    1    4    4    0    0  0.93573015212E+00 -0.36745405466E+02  0.20184342072E+02  0.41934569020E+02  0.51100000000E-03 0. -1.
        -11    1    4    4    0    0 -0.26083031709E+00 -0.25262719837E+01 -0.10136630293E+01  0.27345192609E+01  0.51100000000E-03 0.  1.
         12    1    4    4    0    0 -0.27591176394E+00  0.17202613657E+01  0.25860476858E+01  0.31181836221E+01  0.00000000000E+00 0. -1.
</event>
<event>
 8    1  0.8600524E-011  0.9118800E+02  0.7816164E-02  0.1184000E+00
        -11   -1    0    0    0    0  0.00000000000E+00  0.00000000000E+00  0.45593999997E+02  0.45594000000E+02  0.51100000000E-03 0.  1.
         11   -1    0    0    0    0 -0.00000000000E+00 -0.00000000000E+00 -0.45593999997E+02  0.45594000000E+02  0.51100000000E-03 0. -1.
         23    2    1    2    0    0  0.00000000000E+00  0.88817841970E-15  0.00000000000E+00  0.91188000000E+02  0.91188000000E+02 0.  0.
    9900012    2    3    3    0    0 -0.42596780134E+02 -0.54434888778E+01 -0.62853134801E+01  0.47787280945E+02  0.20000045141E+02 0.  0.
        -12    1    3    3    0    0  0.42596780134E+02  0.54434888778E+01  0.62853134801E+01  0.43400719055E+02  0.00000000000E+00 0.  1.
         11    1    4    4    0    0 -0.11961982148E+02 -0.13880542776E+01 -0.62684106866E+01  0.13576033456E+02  0.51100000000E-03 0. -1.
        -11    1    4    4    0    0 -0.18836123191E+02  0.20461134789E+01  0.56478312930E+01  0.19770789459E+02  0.51100000000E-03 0.  1.
        -12    1    4    4    0    0 -0.11798674794E+02 -0.61015480791E+01 -0.56647340865E+01  0.14440458031E+02  0.00000000000E+00 0.  1.
</event>
<event>
 8    1  0.8600524E-011  0.9118800E+02  0.7816164E-02  0.1184000E+00
        -11   -1    0    0    0    0  0.00000000000E+00  0.00000000000E+00  0.45593999997E+02  0.45594000000E+02  0.51100000000E-03 0.  1.
         11   -1    0    0    0    0 -0.00000000000E+00 -0.00000000000E+00 -0.45593999997E+02  0.45594000000E+02  0.51100000000E-03 0. -1.
         23    2    1    2    0    0  0.00000000000E+00 -0.44408920985E-15  0.88817841970E-15  0.91188000000E+02  0.91188000000E+02 0.  0.
    9900012    2    3    3    0    0 -0.42682155751E+02 -0.20225822831E+01  0.76003975416E+01  0.47787270727E+02  0.19999998553E+02 0.  0.
         12    1    3    3    0    0  0.42682155751E+02  0.20225822831E+01 -0.76003975416E+01  0.43400729273E+02  0.00000000000E+00 0. -1.
         11    1    4    4    0    0 -0.23239429384E+02  0.81107497732E+01  0.31706694570E+01  0.24817503602E+02  0.51100000000E-03 0. -1.
        -11    1    4    4    0    0 -0.15465155639E+02 -0.59319644827E+01  0.19608135567E+01  0.16679449380E+02  0.51100000000E-03 0.  1.
         12    1    4    4    0    0 -0.39775707283E+01 -0.42013675736E+01  0.24689145279E+01  0.62903177451E+01  0.00000000000E+00 0. -1.
</event>
<event>
 8    1  0.8600524E-011  0.9118800E+02  0.7816164E-02  0.1184000E+00
        -11   -1    0    0    0    0  0.00000000000E+00  0.00000000000E+00  0.45593999997E+02  0.45594000000E+02  0.51100000000E-03 0. -1.
         11   -1    0    0    0    0 -0.00000000000E+00 -0.00000000000E+00 -0.45593999997E+02  0.45594000000E+02  0.51100000000E-03 0.  1.
         23    2    1    2    0    0 -0.17763568394E-14  0.00000000000E+00  0.00000000000E+00  0.91188000000E+02  0.91188000000E+02 0.  0.
    9900012    2    3    3    0    0  0.84511689074E+01 -0.30971745902E+02  0.29205343175E+02  0.47787269936E+02  0.19999994948E+02 0.  0.
        -12    1    3    3    0    0 -0.84511689074E+01  0.30971745902E+02 -0.29205343175E+02  0.43400730064E+02  0.00000000000E+00 0.  1.
         11    1    4    4    0    0  0.30833941001E+01 -0.99467504546E+01  0.20535540383E+02  0.23025064231E+02  0.51100000000E-03 0. -1.
        -11    1    4    4    0    0  0.14764132454E+01 -0.17779765354E+01 -0.13920771181E+01  0.26979391385E+01  0.51100000000E-03 0.  1.
         12    1    4    4    0    0  0.38913615618E+01 -0.19247018912E+02  0.10061879910E+02  0.22064266566E+02  0.00000000000E+00 0. -1.
</event>
<event>
 8    1  0.8600524E-011  0.9118800E+02  0.7816164E-02  0.1184000E+00
        -11   -1    0    0    0    0  0.00000000000E+00  0.00000000000E+00  0.45593999997E+02  0.45594000000E+02  0.51100000000E-03 0. -1.
         11   -1    0    0    0    0 -0.00000000000E+00 -0.00000000000E+00 -0.45593999997E+02  0.45594000000E+02  0.51100000000E-03 0.  1.
         23    2    1    2    0    0  0.00000000000E+00  0.00000000000E+00  0.00000000000E+00  0.91188000000E+02  0.91188000000E+02 0.  0.
    9900012    2    3    3    0    0  0.57727578411E+01  0.12080548817E+02  0.41283881141E+02  0.47787271494E+02  0.20000002049E+02 0.  0.
        -12    1    3    3    0    0 -0.57727578411E+01 -0.12080548817E+02 -0.41283881141E+02  0.43400728506E+02  0.00000000000E+00 0.  1.
         11    1    4    4    0    0  0.42660710991E+01  0.26462404707E+01  0.18599912544E+02  0.19265479442E+02  0.51100000000E-03 0. -1.
        -11    1    4    4    0    0  0.70957268422E+01  0.84267989235E+01  0.18248184329E+02  0.21315640058E+02  0.51100000000E-03 0.  1.
        -12    1    4    4    0    0 -0.55890401002E+01  0.10075094227E+01  0.44357842686E+01  0.72061519937E+01  0.00000000000E+00 0.  1.
</event>
<event>
 8    1  0.8600524E-011  0.9118800E+02  0.7816164E-02  0.1184000E+00
        -11   -1    0    0    0    0  0.00000000000E+00  0.00000000000E+00  0.45593999997E+02  0.45594000000E+02  0.51100000000E-03 0. -1.
         11   -1    0    0    0    0 -0.00000000000E+00 -0.00000000000E+00 -0.45593999997E+02  0.45594000000E+02  0.51100000000E-03 0.  1.
         23    2    1    2    0    0  0.00000000000E+00  0.17763568394E-14  0.00000000000E+00  0.91188000000E+02  0.91188000000E+02 0.  0.
    9900012    2    3    3    0    0  0.15624356469E+02  0.13405141481E+02  0.38207396177E+02  0.47787268948E+02  0.19999990442E+02 0.  0.
        -12    1    3    3    0    0 -0.15624356469E+02 -0.13405141481E+02 -0.38207396177E+02  0.43400731052E+02  0.00000000000E+00 0.  1.
         11    1    4    4    0    0  0.13802169776E+02  0.45488879493E+01  0.20208969588E+02  0.24891659731E+02  0.51100000000E-03 0. -1.
        -11    1    4    4    0    0 -0.19517364413E+01  0.99926011414E+01  0.13614616031E+02  0.17000562421E+02  0.51100000000E-03 0.  1.
         12    1    4    4    0    0  0.37739231343E+01 -0.11363476098E+01  0.43838105588E+01  0.58950467962E+01  0.00000000000E+00 0. -1.
</event>
<event>
 8    1  0.8600524E-011  0.9118800E+02  0.7816164E-02  0.1184000E+00
        -11   -1    0    0    0    0  0.00000000000E+00  0.00000000000E+00  0.45593999997E+02  0.45594000000E+02  0.51100000000E-03 0. -1.
         11   -1    0    0    0    0 -0.00000000000E+00 -0.00000000000E+00 -0.45593999997E+02  0.45594000000E+02  0.51100000000E-03 0.  1.
         23    2    1    2    0    0 -0.35527136788E-14  0.00000000000E+00  0.00000000000E+00  0.91188000000E+02  0.91188000000E+02 0.  0.
    9900012    2    3    3    0    0  0.25697310088E+02 -0.23863788187E+02 -0.25569345158E+02  0.47787267930E+02  0.19999985802E+02 0.  0.
         12    1    3    3    0    0 -0.25697310088E+02  0.23863788187E+02  0.25569345158E+02  0.43400732070E+02  0.00000000000E+00 0. -1.
         11    1    4    4    0    0  0.12607915919E+02 -0.17632950733E+02 -0.89575528170E+01  0.23454599722E+02  0.51100000000E-03 0.  1.
        -11    1    4    4    0    0  0.12552638221E+02 -0.13829642018E+01 -0.13785452508E+02  0.18695454458E+02  0.51100000000E-03 0. -1.
         12    1    4    4    0    0  0.53675594746E+00 -0.48478732521E+01 -0.28263398324E+01  0.56372137501E+01  0.00000000000E+00 0. -1.
</event>
<event>
 8    1  0.8600524E-011  0.9118800E+02  0.7816164E-02  0.1184000E+00
        -11   -1    0    0    0    0  0.00000000000E+00  0.00000000000E+00  0.45593999997E+02  0.45594000000E+02  0.51100000000E-03 0. -1.
         11   -1    0    0    0    0 -0.00000000000E+00 -0.00000000000E+00 -0.45593999997E+02  0.45594000000E+02  0.51100000000E-03 0.  1.
         23    2    1    2    0    0 -0.35527136788E-14 -0.35527136788E-14  0.00000000000E+00  0.91188000000E+02  0.91188000000E+02 0.  0.
    9900012    2    3    3    0    0  0.17719304312E+02  0.29035988205E+02 -0.26954798572E+02  0.47787268181E+02  0.19999986946E+02 0.  0.
         12    1    3    3    0    0 -0.17719304312E+02 -0.29035988205E+02  0.26954798572E+02  0.43400731819E+02  0.00000000000E+00 0. -1.
         11    1    4    4    0    0  0.49695385190E+01  0.44597309590E+01  0.22487380284E+01  0.70457317789E+01  0.51100000000E-03 0. -1.
        -11    1    4    4    0    0  0.62901789582E+01  0.18496552127E+02 -0.19954983308E+02  0.27926513406E+02  0.51100000000E-03 0.  1.
        -12    1    4    4    0    0  0.64595868351E+01  0.60797051194E+01 -0.92485532919E+01  0.12815022997E+02  0.00000000000E+00 0.  1.
</event>
<event>
 8    1  0.8600524E-011  0.9118800E+02  0.7816164E-02  0.1184000E+00
        -11   -1    0    0    0    0  0.00000000000E+00  0.00000000000E+00  0.45593999997E+02  0.45594000000E+02  0.51100000000E-03 0. -1.
         11   -1    0    0    0    0 -0.00000000000E+00 -0.00000000000E+00 -0.45593999997E+02  0.45594000000E+02  0.51100000000E-03 0.  1.
         23    2    1    2    0    0  0.00000000000E+00  0.00000000000E+00  0.00000000000E+00  0.91188000000E+02  0.91188000000E+02 0.  0.
    9900012    2    3    3    0    0  0.41345806335E+02 -0.12268021771E+01  0.13139331956E+02  0.47787276627E+02  0.20000025453E+02 0.  0.
        -12    1    3    3    0    0 -0.41345806335E+02  0.12268021771E+01 -0.13139331956E+02  0.43400723373E+02  0.00000000000E+00 0.  1.
         11    1    4    4    0    0  0.10763264699E+02  0.13734154547E+01  0.13581506183E+01  0.10935205090E+02  0.51100000000E-03 0. -1.
        -11    1    4    4    0    0  0.12767405411E+02  0.52214155840E+01  0.10533034206E+02  0.17355536047E+02  0.51100000000E-03 0.  1.
        -12    1    4    4    0    0  0.17815136224E+02 -0.78216332158E+01  0.12481471320E+01  0.19496535490E+02  0.00000000000E+00 0.  1.
</event>
<event>
 8    1  0.8600524E-011  0.9118800E+02  0.7816164E-02  0.1184000E+00
        -11   -1    0    0    0    0  0.00000000000E+00  0.00000000000E+00  0.45593999997E+02  0.45594000000E+02  0.51100000000E-03 0. -1.
         11   -1    0    0    0    0 -0.00000000000E+00 -0.00000000000E+00 -0.45593999997E+02  0.45594000000E+02  0.51100000000E-03 0.  1.
         23    2    1    2    0    0  0.00000000000E+00  0.00000000000E+00  0.00000000000E+00  0.91188000000E+02  0.91188000000E+02 0.  0.
    9900012    2    3    3    0    0 -0.38764586045E+02 -0.54329871331E+01  0.18746008167E+02  0.47787270713E+02  0.19999998491E+02 0.  0.
        -12    1    3    3    0    0  0.38764586045E+02  0.54329871331E+01 -0.18746008167E+02  0.43400729287E+02  0.00000000000E+00 0.  1.
         11    1    4    4    0    0 -0.10717944957E+02 -0.31526985415E+01  0.15560984435E+02  0.19156150162E+02  0.51100000000E-03 0. -1.
        -11    1    4    4    0    0 -0.11437244517E+02 -0.30100064786E+01  0.14588047652E+01  0.11916325472E+02  0.51100000000E-03 0.  1.
         12    1    4    4    0    0 -0.16609396570E+02  0.72971788704E+00  0.17262189675E+01  0.16714795080E+02  0.00000000000E+00 0. -1.
</event>
<event>
 8    1  0.8600524E-011  0.9118800E+02  0.7816164E-02  0.1184000E+00
        -11   -1    0    0    0    0  0.00000000000E+00  0.00000000000E+00  0.45593999997E+02  0.45594000000E+02  0.51100000000E-03 0. -1.
         11   -1    0    0    0    0 -0.00000000000E+00 -0.00000000000E+00 -0.45593999997E+02  0.45594000000E+02  0.51100000000E-03 0.  1.
         23    2    1    2    0    0  0.16653345369E-15  0.00000000000E+00  0.00000000000E+00  0.91188000000E+02  0.91188000000E+02 0.  0.
    9900012    2    3    3    0    0 -0.45085001340E+00 -0.40992518231E+02  0.14248879546E+02  0.47787304326E+02  0.20000151743E+02 0.  0.
        -12    1    3    3    0    0  0.45085001340E+00  0.40992518231E+02 -0.14248879546E+02  0.43400695674E+02  0.00000000000E+00 0.  1.
         11    1    4    4    0    0  0.14408320138E+01 -0.80950434150E-01  0.47876635989E+01  0.50004272680E+01  0.51100000000E-03 0.  1.
        -11    1    4    4    0    0 -0.42651770795E+01 -0.33538957958E+02  0.91946142549E+01  0.35037042797E+02  0.51100000000E-03 0. -1.
        -12    1    4    4    0    0  0.23734950523E+01 -0.73726098395E+01  0.26660169216E+00  0.77498342609E+01  0.00000000000E+00 0.  1.
</event>
<event>
 8    1  0.8600524E-011  0.9118800E+02  0.7816164E-02  0.1184000E+00
        -11   -1    0    0    0    0  0.00000000000E+00  0.00000000000E+00  0.45593999997E+02  0.45594000000E+02  0.51100000000E-03 0.  1.
         11   -1    0    0    0    0 -0.00000000000E+00 -0.00000000000E+00 -0.45593999997E+02  0.45594000000E+02  0.51100000000E-03 0. -1.
         23    2    1    2    0    0  0.35527136788E-14  0.00000000000E+00  0.00000000000E+00  0.91188000000E+02  0.91188000000E+02 0.  0.
    9900012    2    3    3    0    0 -0.25086707446E+02  0.23908602157E+02 -0.26127749524E+02  0.47787269099E+02  0.19999991129E+02 0.  0.
         12    1    3    3    0    0  0.25086707446E+02 -0.23908602157E+02  0.26127749524E+02  0.43400730901E+02  0.00000000000E+00 0. -1.
         11    1    4    4    0    0 -0.12874589257E+01 -0.27860860153E+01 -0.16369549449E+01  0.34784260123E+01  0.51100000000E-03 0. -1.
        -11    1    4    4    0    0 -0.21602315605E+02  0.22133002880E+02 -0.24140056544E+02  0.39233559438E+02  0.51100000000E-03 0.  1.
         12    1    4    4    0    0 -0.21969329146E+01  0.45616852928E+01 -0.35073803537E+00  0.50752836483E+01  0.00000000000E+00 0. -1.
</event>
<event>
 8    1  0.8600524E-011  0.9118800E+02  0.7816164E-02  0.1184000E+00
        -11   -1    0    0    0    0  0.00000000000E+00  0.00000000000E+00  0.45593999997E+02  0.45594000000E+02  0.51100000000E-03 0. -1.
         11   -1    0    0    0    0 -0.00000000000E+00 -0.00000000000E+00 -0.45593999997E+02  0.45594000000E+02  0.51100000000E-03 0.  1.
         23    2    1    2    0    0  0.00000000000E+00  0.00000000000E+00  0.00000000000E+00  0.91188000000E+02  0.91188000000E+02 0.  0.
    9900012    2    3    3    0    0  0.43082404869E+02 -0.77494084079E+00  0.51893705271E+01  0.47787266031E+02  0.19999977140E+02 0.  0.
        -12    1    3    3    0    0 -0.43082404869E+02  0.77494084079E+00 -0.51893705271E+01  0.43400733969E+02  0.00000000000E+00 0.  1.
         11    1    4    4    0    0  0.19244514074E+02 -0.36219487091E+01 -0.26282837983E+01  0.19757978398E+02  0.51100000000E-03 0. -1.
        -11    1    4    4    0    0  0.12414920512E+02  0.74875009189E+01  0.30851125916E+01  0.14822646231E+02  0.51100000000E-03 0.  1.
        -12    1    4    4    0    0  0.11422970283E+02 -0.46404930506E+01  0.47325417338E+01  0.13206641401E+02  0.00000000000E+00 0.  1.
</event>
<event>
 8    1  0.8600524E-011  0.9118800E+02  0.7816164E-02  0.1184000E+00
        -11   -1    0    0    0    0  0.00000000000E+00  0.00000000000E+00  0.45593999997E+02  0.45594000000E+02  0.51100000000E-03 0. -1.
         11   -1    0    0    0    0 -0.00000000000E+00 -0.00000000000E+00 -0.45593999997E+02  0.45594000000E+02  0.51100000000E-03 0.  1.
         23    2    1    2    0    0 -0.35527136788E-14 -0.17763568394E-14 -0.71054273576E-14  0.91188000000E+02  0.91188000000E+02 0.  0.
    9900012    2    3    3    0    0  0.25442412718E+02  0.11677332814E+02  0.33165435974E+02  0.47787278694E+02  0.20000034877E+02 0.  0.
        -12    1    3    3    0    0 -0.25442412718E+02 -0.11677332814E+02 -0.33165435974E+02  0.43400721306E+02  0.00000000000E+00 0.  1.
         11    1    4    4    0    0 -0.23304739913E+00  0.53219505517E+01  0.40924558634E+01  0.67175638456E+01  0.51100000000E-03 0. -1.
        -11    1    4    4    0    0  0.24285617689E+02  0.30071192124E+01  0.28206750994E+02  0.37342399420E+02  0.51100000000E-03 0.  1.
         12    1    4    4    0    0  0.13898424280E+01  0.33482630494E+01  0.86622911576E+00  0.37273154285E+01  0.00000000000E+00 0. -1.
</event>
<event>
 8    1  0.8600524E-011  0.9118800E+02  0.7816164E-02  0.1184000E+00
        -11   -1    0    0    0    0  0.00000000000E+00  0.00000000000E+00  0.45593999997E+02  0.45594000000E+02  0.51100000000E-03 0. -1.
         11   -1    0    0    0    0 -0.00000000000E+00 -0.00000000000E+00 -0.45593999997E+02  0.45594000000E+02  0.51100000000E-03 0.  1.
         23    2    1    2    0    0 -0.44408920985E-15  0.00000000000E+00  0.71054273576E-14  0.91188000000E+02  0.91188000000E+02 0.  0.
    9900012    2    3    3    0    0  0.16311623135E+01  0.15499619007E+02  0.40505826108E+02  0.47787299216E+02  0.20000128445E+02 0.  0.
        -12    1    3    3    0    0 -0.16311623135E+01 -0.15499619007E+02 -0.40505826108E+02  0.43400700784E+02  0.00000000000E+00 0.  1.
         11    1    4    4    0    0 -0.30544473752E+01  0.50172036082E+00  0.77200944157E+01  0.83175254816E+01  0.51100000000E-03 0. -1.
        -11    1    4    4    0    0  0.70133716974E+01  0.12235307744E+02  0.12438770071E+02  0.18804604205E+02  0.51100000000E-03 0.  1.
        -12    1    4    4    0    0 -0.23277620086E+01  0.27625909016E+01  0.20346961621E+02  0.20665169529E+02  0.00000000000E+00 0.  1.
</event>
<event>
 8    1  0.8600524E-011  0.9118800E+02  0.7816164E-02  0.1184000E+00
        -11   -1    0    0    0    0  0.00000000000E+00  0.00000000000E+00  0.45593999997E+02  0.45594000000E+02  0.51100000000E-03 0. -1.
         11   -1    0    0    0    0 -0.00000000000E+00 -0.00000000000E+00 -0.45593999997E+02  0.45594000000E+02  0.51100000000E-03 0.  1.
         23    2    1    2    0    0 -0.17763568394E-14  0.00000000000E+00  0.71054273576E-14  0.91188000000E+02  0.91188000000E+02 0.  0.
    9900012    2    3    3    0    0  0.13198358415E+02 -0.92368294857E+01 -0.40300221280E+02  0.47787268220E+02  0.19999987123E+02 0.  0.
         12    1    3    3    0    0 -0.13198358415E+02  0.92368294857E+01  0.40300221280E+02  0.43400731780E+02  0.00000000000E+00 0. -1.
         11    1    4    4    0    0  0.24386273089E+01 -0.75411523314E+01 -0.29905514540E+01  0.84710849303E+01  0.51100000000E-03 0. -1.
        -11    1    4    4    0    0  0.17603650371E+01  0.10793957419E+01 -0.14385981307E+02  0.14533424877E+02  0.51100000000E-03 0.  1.
         12    1    4    4    0    0  0.89993660689E+01 -0.27750728962E+01 -0.22923688520E+02  0.24782758413E+02  0.00000000000E+00 0. -1.
</event>
<event>
 8    1  0.8600524E-011  0.9118800E+02  0.7816164E-02  0.1184000E+00
        -11   -1    0    0    0    0  0.00000000000E+00  0.00000000000E+00  0.45593999997E+02  0.45594000000E+02  0.51100000000E-03 0. -1.
         11   -1    0    0    0    0 -0.00000000000E+00 -0.00000000000E+00 -0.45593999997E+02  0.45594000000E+02  0.51100000000E-03 0.  1.
         23    2    1    2    0    0  0.00000000000E+00  0.00000000000E+00  0.00000000000E+00  0.91188000000E+02  0.91188000000E+02 0.  0.
    9900012    2    3    3    0    0  0.16648090049E+02 -0.14535005992E+02  0.37352346121E+02  0.47787273483E+02  0.20000011117E+02 0.  0.
        -12    1    3    3    0    0 -0.16648090049E+02  0.14535005992E+02 -0.37352346121E+02  0.43400726517E+02  0.00000000000E+00 0.  1.
         11    1    4    4    0    0  0.72201633273E+01 -0.14453187002E+01  0.40944765336E+01  0.84252265823E+01  0.51100000000E-03 0. -1.
        -11    1    4    4    0    0 -0.29544209219E+00 -0.64588044393E+01  0.22522544470E+02  0.23432209680E+02  0.51100000000E-03 0.  1.
        -12    1    4    4    0    0  0.97233688144E+01 -0.66308828523E+01  0.10735325118E+02  0.15929837221E+02  0.00000000000E+00 0.  1.
</event>
<event>
 8    1  0.8600524E-011  0.9118800E+02  0.7816164E-02  0.1184000E+00
        -11   -1    0    0    0    0  0.00000000000E+00  0.00000000000E+00  0.45593999997E+02  0.45594000000E+02  0.51100000000E-03 0. -1.
         11   -1    0    0    0    0 -0.00000000000E+00 -0.00000000000E+00 -0.45593999997E+02  0.45594000000E+02  0.51100000000E-03 0.  1.
         23    2    1    2    0    0  0.00000000000E+00 -0.35527136788E-14  0.00000000000E+00  0.91188000000E+02  0.91188000000E+02 0.  0.
    9900012    2    3    3    0    0 -0.43008393921E+01  0.19235890933E+02  0.38666598687E+02  0.47787279113E+02  0.20000036787E+02 0.  0.
        -12    1    3    3    0    0  0.43008393921E+01 -0.19235890933E+02 -0.38666598687E+02  0.43400720887E+02  0.00000000000E+00 0.  1.
         11    1    4    4    0    0 -0.37857903372E+01  0.12014536827E+02  0.12308198734E+02  0.17611730749E+02  0.51100000000E-03 0. -1.
        -11    1    4    4    0    0  0.40220039232E+01 -0.75703333746E+00  0.29875396701E+01  0.50670512701E+01  0.51100000000E-03 0.  1.
        -12    1    4    4    0    0 -0.45370529781E+01  0.79783874440E+01  0.23370860283E+02  0.25108497093E+02  0.00000000000E+00 0.  1.
</event>
<event>
 8    1  0.8600524E-011  0.9118800E+02  0.7816164E-02  0.1184000E+00
        -11   -1    0    0    0    0  0.00000000000E+00  0.00000000000E+00  0.45593999997E+02  0.45594000000E+02  0.51100000000E-03 0. -1.
         11   -1    0    0    0    0 -0.00000000000E+00 -0.00000000000E+00 -0.45593999997E+02  0.45594000000E+02  0.51100000000E-03 0.  1.
         23    2    1    2    0    0  0.00000000000E+00 -0.17763568394E-14  0.00000000000E+00  0.91188000000E+02  0.91188000000E+02 0.  0.
    9900012    2    3    3    0    0 -0.13235604811E+02 -0.11267910063E+02  0.39767781151E+02  0.47787269020E+02  0.19999990770E+02 0.  0.
        -12    1    3    3    0    0  0.13235604811E+02  0.11267910063E+02 -0.39767781151E+02  0.43400730980E+02  0.00000000000E+00 0.  1.
         11    1    4    4    0    0 -0.86486412676E+01 -0.12081063638E+01  0.24549522271E+02  0.26056430315E+02  0.51100000000E-03 0. -1.
        -11    1    4    4    0    0  0.17986740259E+01 -0.87281140719E+01  0.77006896454E+01  0.11777768243E+02  0.51100000000E-03 0.  1.
        -12    1    4    4    0    0 -0.63856375689E+01 -0.13316896271E+01  0.75175692349E+01  0.99530704622E+01  0.00000000000E+00 0.  1.
</event>
<event>
 8    1  0.8600524E-011  0.9118800E+02  0.7816164E-02  0.1184000E+00
        -11   -1    0    0    0    0  0.00000000000E+00  0.00000000000E+00  0.45593999997E+02  0.45594000000E+02  0.51100000000E-03 0. -1.
         11   -1    0    0    0    0 -0.00000000000E+00 -0.00000000000E+00 -0.45593999997E+02  0.45594000000E+02  0.51100000000E-03 0.  1.
         23    2    1    2    0    0  0.00000000000E+00  0.71054273576E-14 -0.35527136788E-14  0.91188000000E+02  0.91188000000E+02 0.  0.
    9900012    2    3    3    0    0 -0.17417766832E+02  0.35060339616E+02 -0.18735451239E+02  0.47787272488E+02  0.20000006583E+02 0.  0.
         12    1    3    3    0    0  0.17417766832E+02 -0.35060339616E+02  0.18735451239E+02  0.43400727512E+02  0.00000000000E+00 0. -1.
         11    1    4    4    0    0 -0.63884773997E+01  0.89780498270E+01 -0.28383411001E+01  0.11378673150E+02  0.51100000000E-03 0. -1.
        -11    1    4    4    0    0 -0.33005407264E+01  0.35489250059E+01  0.32586701722E+01  0.58401514823E+01  0.51100000000E-03 0.  1.
        -12    1    4    4    0    0 -0.77287487062E+01  0.22533364783E+02 -0.19155780312E+02  0.30568447856E+02  0.00000000000E+00 0.  1.
</event>
<event>
 8    1  0.8600524E-011  0.9118800E+02  0.7816164E-02  0.1184000E+00
        -11   -1    0    0    0    0  0.00000000000E+00  0.00000000000E+00  0.45593999997E+02  0.45594000000E+02  0.51100000000E-03 0. -1.
         11   -1    0    0    0    0 -0.00000000000E+00 -0.00000000000E+00 -0.45593999997E+02  0.45594000000E+02  0.51100000000E-03 0.  1.
         23    2    1    2    0    0  0.00000000000E+00  0.00000000000E+00  0.00000000000E+00  0.91188000000E+02  0.91188000000E+02 0.  0.
    9900012    2    3    3    0    0 -0.20618722584E+02 -0.73253102284E+01 -0.37481155800E+02  0.47787205871E+02  0.19999702845E+02 0.  0.
         12    1    3    3    0    0  0.20618722584E+02  0.73253102284E+01  0.37481155800E+02  0.43400794129E+02  0.00000000000E+00 0. -1.
         11    1    4    4    0    0  0.75178189722E-01  0.15306799253E+01 -0.69701847849E+01  0.71366735242E+01  0.51100000000E-03 0. -1.
        -11    1    4    4    0    0 -0.53087104222E+01 -0.85985844752E+01 -0.61278768581E+01  0.11818161294E+02  0.51100000000E-03 0.  1.
        -12    1    4    4    0    0 -0.15385190352E+02 -0.25740567841E+00 -0.24383094157E+02  0.28832371053E+02  0.00000000000E+00 0.  1.
</event>
<event>
 8    1  0.8600524E-011  0.9118800E+02  0.7816164E-02  0.1184000E+00
        -11   -1    0    0    0    0  0.00000000000E+00  0.00000000000E+00  0.45593999997E+02  0.45594000000E+02  0.51100000000E-03 0. -1.
         11   -1    0    0    0    0 -0.00000000000E+00 -0.00000000000E+00 -0.45593999997E+02  0.45594000000E+02  0.51100000000E-03 0.  1.
         23    2    1    2    0    0  0.00000000000E+00  0.00000000000E+00  0.00000000000E+00  0.91188000000E+02  0.91188000000E+02 0.  0.
    9900012    2    3    3    0    0 -0.54864458934E+01  0.13046058525E+02 -0.41028312773E+02  0.47787272119E+02  0.20000004901E+02 0.  0.
         12    1    3    3    0    0  0.54864458934E+01 -0.13046058525E+02  0.41028312773E+02  0.43400727881E+02  0.00000000000E+00 0. -1.
         11    1    4    4    0    0 -0.51753526464E+01  0.10017824200E+02 -0.11188686627E+02  0.15884828781E+02  0.51100000000E-03 0. -1.
        -11    1    4    4    0    0 -0.14660505179E+01  0.12437647070E+01 -0.29710783668E+02  0.29772922618E+02  0.51100000000E-03 0.  1.
        -12    1    4    4    0    0  0.11549572709E+01  0.17844696176E+01 -0.12884247817E+00  0.21295207202E+01  0.00000000000E+00 0.  1.
</event>
<event>
 8    1  0.8600524E-011  0.9118800E+02  0.7816164E-02  0.1184000E+00
        -11   -1    0    0    0    0  0.00000000000E+00  0.00000000000E+00  0.45593999997E+02  0.45594000000E+02  0.51100000000E-03 0. -1.
         11   -1    0    0    0    0 -0.00000000000E+00 -0.00000000000E+00 -0.45593999997E+02  0.45594000000E+02  0.51100000000E-03 0.  1.
         23    2    1    2    0    0  0.00000000000E+00 -0.17763568394E-14  0.35527136788E-14  0.91188000000E+02  0.91188000000E+02 0.  0.
    9900012    2    3    3    0    0  0.25833937016E+02  0.14945057386E+02  0.31509934053E+02  0.47787274361E+02  0.20000015119E+02 0.  0.
        -12    1    3    3    0    0 -0.25833937016E+02 -0.14945057386E+02 -0.31509934053E+02  0.43400725639E+02  0.00000000000E+00 0.  1.
         11    1    4    4    0    0  0.12981368490E+02  0.21596487340E+01  0.77150859963E+01  0.15254591529E+02  0.51100000000E-03 0. -1.
        -11    1    4    4    0    0  0.24282026126E+01  0.10942973439E+02  0.91900739254E+01  0.14494905817E+02  0.51100000000E-03 0.  1.
        -12    1    4    4    0    0  0.10424365913E+02  0.18424352127E+01  0.14604774132E+02  0.18037777015E+02  0.00000000000E+00 0.  1.
</event>
<event>
 8    1  0.8600524E-011  0.9118800E+02  0.7816164E-02  0.1184000E+00
        -11   -1    0    0    0    0  0.00000000000E+00  0.00000000000E+00  0.45593999997E+02  0.45594000000E+02  0.51100000000E-03 0. -1.
         11   -1    0    0    0    0 -0.00000000000E+00 -0.00000000000E+00 -0.45593999997E+02  0.45594000000E+02  0.51100000000E-03 0.  1.
         23    2    1    2    0    0  0.00000000000E+00 -0.35527136788E-14  0.00000000000E+00  0.91188000000E+02  0.91188000000E+02 0.  0.
    9900012    2    3    3    0    0 -0.54892525036E+00 -0.20023987502E+02  0.38501448082E+02  0.47787275365E+02  0.20000019701E+02 0.  0.
        -12    1    3    3    0    0  0.54892525036E+00  0.20023987502E+02 -0.38501448082E+02  0.43400724635E+02  0.00000000000E+00 0.  1.
         11    1    4    4    0    0  0.32967729730E+01 -0.96633472066E+01  0.97016108855E+01  0.14084397229E+02  0.51100000000E-03 0. -1.
        -11    1    4    4    0    0 -0.51148549655E+01 -0.11851086290E+02  0.28992303716E+02  0.31735841924E+02  0.51100000000E-03 0.  1.
        -12    1    4    4    0    0  0.12691567421E+01  0.14904459951E+01 -0.19246651980E+00  0.19670362126E+01  0.00000000000E+00 0.  1.
</event>
<event>
 8    1  0.8600524E-011  0.9118800E+02  0.7816164E-02  0.1184000E+00
        -11   -1    0    0    0    0  0.00000000000E+00  0.00000000000E+00  0.45593999997E+02  0.45594000000E+02  0.51100000000E-03 0. -1.
         11   -1    0    0    0    0 -0.00000000000E+00 -0.00000000000E+00 -0.45593999997E+02  0.45594000000E+02  0.51100000000E-03 0.  1.
         23    2    1    2    0    0 -0.88817841970E-15 -0.71054273576E-14  0.00000000000E+00  0.91188000000E+02  0.91188000000E+02 0.  0.
    9900012    2    3    3    0    0 -0.66079739762E+01 -0.42319779613E+02  0.69995968435E+01  0.47787269332E+02  0.19999992193E+02 0.  0.
        -12    1    3    3    0    0  0.66079739762E+01  0.42319779613E+02 -0.69995968435E+01  0.43400730668E+02  0.00000000000E+00 0.  1.
         11    1    4    4    0    0 -0.11818595995E+01 -0.34605959505E+02  0.53550191581E+01  0.35037771844E+02  0.51100000000E-03 0. -1.
        -11    1    4    4    0    0 -0.12671370954E+00 -0.53562549888E+01 -0.21989457198E+01  0.57914494222E+01  0.51100000000E-03 0.  1.
         12    1    4    4    0    0 -0.52994006671E+01 -0.23575651191E+01  0.38435234051E+01  0.69580480659E+01  0.00000000000E+00 0. -1.
</event>
<event>
 8    1  0.8600524E-011  0.9118800E+02  0.7816164E-02  0.1184000E+00
        -11   -1    0    0    0    0  0.00000000000E+00  0.00000000000E+00  0.45593999997E+02  0.45594000000E+02  0.51100000000E-03 0. -1.
         11   -1    0    0    0    0 -0.00000000000E+00 -0.00000000000E+00 -0.45593999997E+02  0.45594000000E+02  0.51100000000E-03 0.  1.
         23    2    1    2    0    0  0.00000000000E+00  0.00000000000E+00  0.00000000000E+00  0.91188000000E+02  0.91188000000E+02 0.  0.
    9900012    2    3    3    0    0  0.40152025195E+02  0.47140701508E+01  0.15786409961E+02  0.47787328068E+02  0.20000259992E+02 0.  0.
        -12    1    3    3    0    0 -0.40152025195E+02 -0.47140701508E+01 -0.15786409961E+02  0.43400671932E+02  0.00000000000E+00 0.  1.
         11    1    4    4    0    0  0.73081353308E+01  0.92197021918E+01  0.41357505976E+01  0.12470612807E+02  0.51100000000E-03 0. -1.
        -11    1    4    4    0    0  0.20394024787E+02 -0.24757769451E+01  0.54153015802E+01  0.21245498581E+02  0.51100000000E-03 0.  1.
         12    1    4    4    0    0  0.12449865078E+02 -0.20298550958E+01  0.62353577837E+01  0.14071216680E+02  0.00000000000E+00 0. -1.
</event>
<event>
 8    1  0.8600524E-011  0.9118800E+02  0.7816164E-02  0.1184000E+00
        -11   -1    0    0    0    0  0.00000000000E+00  0.00000000000E+00  0.45593999997E+02  0.45594000000E+02  0.51100000000E-03 0. -1.
         11   -1    0    0    0    0 -0.00000000000E+00 -0.00000000000E+00 -0.45593999997E+02  0.45594000000E+02  0.51100000000E-03 0.  1.
         23    2    1    2    0    0 -0.18041124150E-15  0.17763568394E-14 -0.71054273576E-14  0.91188000000E+02  0.91188000000E+02 0.  0.
    9900012    2    3    3    0    0 -0.80475280060E-01  0.84884292545E+01 -0.42562462488E+02  0.47787272812E+02  0.20000008057E+02 0.  0.
         12    1    3    3    0    0  0.80475280060E-01 -0.84884292545E+01  0.42562462488E+02  0.43400727188E+02  0.00000000000E+00 0. -1.
         11    1    4    4    0    0  0.59494199180E+01 -0.20008782897E+01 -0.14435672424E+02  0.15741275358E+02  0.51100000000E-03 0. -1.
        -11    1    4    4    0    0 -0.52459716759E+01  0.69276712645E+01 -0.87605434550E+01  0.12339366672E+02  0.51100000000E-03 0.  1.
        -12    1    4    4    0    0 -0.78392352215E+00  0.35616362797E+01 -0.19366246608E+02  0.19706630782E+02  0.00000000000E+00 0.  1.
</event>
<event>
 8    1  0.8600524E-011  0.9118800E+02  0.7816164E-02  0.1184000E+00
        -11   -1    0    0    0    0  0.00000000000E+00  0.00000000000E+00  0.45593999997E+02  0.45594000000E+02  0.51100000000E-03 0. -1.
         11   -1    0    0    0    0 -0.00000000000E+00 -0.00000000000E+00 -0.45593999997E+02  0.45594000000E+02  0.51100000000E-03 0.  1.
         23    2    1    2    0    0  0.35527136788E-14  0.17763568394E-14 -0.71054273576E-14  0.91188000000E+02  0.91188000000E+02 0.  0.
    9900012    2    3    3    0    0 -0.29407848443E+02 -0.15005276189E+02  0.28171674984E+02  0.47787272645E+02  0.20000007298E+02 0.  0.
        -12    1    3    3    0    0  0.29407848443E+02  0.15005276189E+02 -0.28171674984E+02  0.43400727355E+02  0.00000000000E+00 0.  1.
         11    1    4    4    0    0 -0.67713885506E+01 -0.53286142931E+01  0.16742819059E+02  0.18829971415E+02  0.51100000000E-03 0. -1.
        -11    1    4    4    0    0 -0.56720616405E+01 -0.96963281523E+00 -0.14660226951E+01  0.59381557620E+01  0.51100000000E-03 0.  1.
        -12    1    4    4    0    0 -0.16964398252E+02 -0.87070290803E+01  0.12894878620E+02  0.23019145468E+02  0.00000000000E+00 0.  1.
</event>
<event>
 8    1  0.8600524E-011  0.9118800E+02  0.7816164E-02  0.1184000E+00
        -11   -1    0    0    0    0  0.00000000000E+00  0.00000000000E+00  0.45593999997E+02  0.45594000000E+02  0.51100000000E-03 0. -1.
         11   -1    0    0    0    0 -0.00000000000E+00 -0.00000000000E+00 -0.45593999997E+02  0.45594000000E+02  0.51100000000E-03 0.  1.
         23    2    1    2    0    0  0.00000000000E+00  0.00000000000E+00  0.00000000000E+00  0.91188000000E+02  0.91188000000E+02 0.  0.
    9900012    2    3    3    0    0  0.87191825805E+01  0.49563370906E+01  0.42225987981E+02  0.47787268633E+02  0.19999989004E+02 0.  0.
        -12    1    3    3    0    0 -0.87191825805E+01 -0.49563370906E+01 -0.42225987981E+02  0.43400731367E+02  0.00000000000E+00 0.  1.
         11    1    4    4    0    0  0.12069182100E+02  0.37304960868E+01  0.24748826335E+02  0.27786438470E+02  0.51100000000E-03 0. -1.
        -11    1    4    4    0    0  0.23245802939E+01 -0.15574018805E+01  0.90123975916E+01  0.94367624093E+01  0.51100000000E-03 0.  1.
         12    1    4    4    0    0 -0.56745798130E+01  0.27832428842E+01  0.84647640542E+01  0.10564067753E+02  0.00000000000E+00 0. -1.
</event>
<event>
 8    1  0.8600524E-011  0.9118800E+02  0.7816164E-02  0.1184000E+00
        -11   -1    0    0    0    0  0.00000000000E+00  0.00000000000E+00  0.45593999997E+02  0.45594000000E+02  0.51100000000E-03 0. -1.
         11   -1    0    0    0    0 -0.00000000000E+00 -0.00000000000E+00 -0.45593999997E+02  0.45594000000E+02  0.51100000000E-03 0.  1.
         23    2    1    2    0    0  0.00000000000E+00  0.00000000000E+00  0.00000000000E+00  0.91188000000E+02  0.91188000000E+02 0.  0.
    9900012    2    3    3    0    0 -0.11066706272E+02 -0.27795868115E+02  0.31441082438E+02  0.47787263407E+02  0.19999965177E+02 0.  0.
        -12    1    3    3    0    0  0.11066706272E+02  0.27795868115E+02 -0.31441082438E+02  0.43400736593E+02  0.00000000000E+00 0.  1.
         11    1    4    4    0    0 -0.14824288569E+02 -0.23060840501E+02  0.25010430370E+02  0.37109076029E+02  0.51100000000E-03 0. -1.
        -11    1    4    4    0    0  0.35298745855E+01 -0.61257981642E+01  0.49277641088E+01  0.86179044501E+01  0.51100000000E-03 0.  1.
         12    1    4    4    0    0  0.22770771153E+00  0.13907705499E+01  0.15028879591E+01  0.20602829277E+01  0.00000000000E+00 0. -1.
</event>
<event>
 8    1  0.8600524E-011  0.9118800E+02  0.7816164E-02  0.1184000E+00
        -11   -1    0    0    0    0  0.00000000000E+00  0.00000000000E+00  0.45593999997E+02  0.45594000000E+02  0.51100000000E-03 0. -1.
         11   -1    0    0    0    0 -0.00000000000E+00 -0.00000000000E+00 -0.45593999997E+02  0.45594000000E+02  0.51100000000E-03 0.  1.
         23    2    1    2    0    0  0.00000000000E+00  0.00000000000E+00  0.35527136788E-14  0.91188000000E+02  0.91188000000E+02 0.  0.
    9900012    2    3    3    0    0  0.32896247595E+02 -0.20923691449E+02  0.19069850031E+02  0.47787272473E+02  0.20000006512E+02 0.  0.
        -12    1    3    3    0    0 -0.32896247595E+02  0.20923691449E+02 -0.19069850031E+02  0.43400727527E+02  0.00000000000E+00 0.  1.
         11    1    4    4    0    0 -0.93453547246E-01 -0.75883608858E+01  0.38550119066E+01  0.85119370040E+01  0.51100000000E-03 0. -1.
        -11    1    4    4    0    0  0.20981030191E+02 -0.67373695885E+01  0.62650982148E+01  0.22909544577E+02  0.51100000000E-03 0.  1.
        -12    1    4    4    0    0  0.12008670952E+02 -0.65979609749E+01  0.89497399091E+01  0.16365790891E+02  0.00000000000E+00 0.  1.
</event>
<event>
 8    1  0.8600524E-011  0.9118800E+02  0.7816164E-02  0.1184000E+00
        -11   -1    0    0    0    0  0.00000000000E+00  0.00000000000E+00  0.45593999997E+02  0.45594000000E+02  0.51100000000E-03 0.  1.
         11   -1    0    0    0    0 -0.00000000000E+00 -0.00000000000E+00 -0.45593999997E+02  0.45594000000E+02  0.51100000000E-03 0. -1.
         23    2    1    2    0    0  0.35527136788E-14  0.00000000000E+00 -0.35527136788E-14  0.91188000000E+02  0.91188000000E+02 0.  0.
    9900012    2    3    3    0    0 -0.31180540182E+02 -0.21281117481E+02  0.21412820675E+02  0.47787297972E+02  0.20000122775E+02 0.  0.
        -12    1    3    3    0    0  0.31180540182E+02  0.21281117481E+02 -0.21412820675E+02  0.43400702028E+02  0.00000000000E+00 0.  1.
         11    1    4    4    0    0 -0.26949880592E+02 -0.11929317961E+02  0.13572227239E+02  0.32447034431E+02  0.51100000000E-03 0. -1.
        -11    1    4    4    0    0 -0.63196883152E+00  0.96895897958E-01  0.47138693906E+01  0.47570304089E+01  0.51100000000E-03 0.  1.
         12    1    4    4    0    0 -0.35986907585E+01 -0.94486954178E+01  0.31267240457E+01  0.10583233132E+02  0.00000000000E+00 0. -1.
</event>
<event>
 8    1  0.8600524E-011  0.9118800E+02  0.7816164E-02  0.1184000E+00
        -11   -1    0    0    0    0  0.00000000000E+00  0.00000000000E+00  0.45593999997E+02  0.45594000000E+02  0.51100000000E-03 0. -1.
         11   -1    0    0    0    0 -0.00000000000E+00 -0.00000000000E+00 -0.45593999997E+02  0.45594000000E+02  0.51100000000E-03 0.  1.
         23    2    1    2    0    0  0.35527136788E-14  0.00000000000E+00 -0.71054273576E-14  0.91188000000E+02  0.91188000000E+02 0.  0.
    9900012    2    3    3    0    0 -0.19133214731E+02  0.82457062053E+01  0.38072972409E+02  0.47787276448E+02  0.20000024636E+02 0.  0.
        -12    1    3    3    0    0  0.19133214731E+02 -0.82457062053E+01 -0.38072972409E+02  0.43400723552E+02  0.00000000000E+00 0.  1.
         11    1    4    4    0    0 -0.94988642452E+01  0.61149008611E+01  0.29813033572E+02  0.31881615479E+02  0.51100000000E-03 0. -1.
        -11    1    4    4    0    0  0.29928291176E+00  0.35458637383E+01  0.21099153662E+01  0.41369630196E+01  0.51100000000E-03 0.  1.
         12    1    4    4    0    0 -0.99336333974E+01 -0.14150583941E+01  0.61500234710E+01  0.11768697950E+02  0.00000000000E+00 0. -1.
</event>
<event>
 8    1  0.8600524E-011  0.9118800E+02  0.7816164E-02  0.1184000E+00
        -11   -1    0    0    0    0  0.00000000000E+00  0.00000000000E+00  0.45593999997E+02  0.45594000000E+02  0.51100000000E-03 0. -1.
         11   -1    0    0    0    0 -0.00000000000E+00 -0.00000000000E+00 -0.45593999997E+02  0.45594000000E+02  0.51100000000E-03 0.  1.
         23    2    1    2    0    0  0.00000000000E+00  0.00000000000E+00  0.00000000000E+00  0.91188000000E+02  0.91188000000E+02 0.  0.
    9900012    2    3    3    0    0 -0.28378898292E+02 -0.12562446150E+02 -0.30338857832E+02  0.47787271710E+02  0.20000003034E+02 0.  0.
         12    1    3    3    0    0  0.28378898292E+02  0.12562446150E+02  0.30338857832E+02  0.43400728290E+02  0.00000000000E+00 0. -1.
         11    1    4    4    0    0 -0.14752872174E+02 -0.37409392352E+01 -0.40642420635E+01  0.15753092634E+02  0.51100000000E-03 0. -1.
        -11    1    4    4    0    0 -0.59124229874E+01 -0.37280615786E+01 -0.19082247624E+02  0.20322090526E+02  0.51100000000E-03 0.  1.
         12    1    4    4    0    0 -0.77136031312E+01 -0.50934453363E+01 -0.71923681450E+01  0.11712088550E+02  0.00000000000E+00 0. -1.
</event>
<event>
 8    1  0.8600524E-011  0.9118800E+02  0.7816164E-02  0.1184000E+00
        -11   -1    0    0    0    0  0.00000000000E+00  0.00000000000E+00  0.45593999997E+02  0.45594000000E+02  0.51100000000E-03 0.  1.
         11   -1    0    0    0    0 -0.00000000000E+00 -0.00000000000E+00 -0.45593999997E+02  0.45594000000E+02  0.51100000000E-03 0. -1.
         23    2    1    2    0    0  0.00000000000E+00  0.00000000000E+00 -0.17763568394E-14  0.91188000000E+02  0.91188000000E+02 0.  0.
    9900012    2    3    3    0    0  0.40704703314E+02 -0.11355493719E+02 -0.98895694448E+01  0.47787266213E+02  0.19999977972E+02 0.  0.
        -12    1    3    3    0    0 -0.40704703314E+02  0.11355493719E+02  0.98895694448E+01  0.43400733787E+02  0.00000000000E+00 0.  1.
         11    1    4    4    0    0  0.79783639471E+01 -0.56642860088E+01 -0.70016278853E+01  0.12031675717E+02  0.51100000000E-03 0. -1.
        -11    1    4    4    0    0  0.31649132573E+02 -0.33397239016E+01  0.71821888807E-01  0.31824935303E+02  0.51100000000E-03 0.  1.
        -12    1    4    4    0    0  0.10772067934E+01 -0.23514838085E+01 -0.29597634483E+01  0.39306551932E+01  0.00000000000E+00 0.  1.
</event>
<event>
 8    1  0.1217039E-010  0.9118800E+02  0.7816164E-02  0.1184000E+00
        -11   -1    0    0    0    0  0.00000000000E+00  0.00000000000E+00  0.45593999997E+02  0.45594000000E+02  0.51100000000E-03 0. -1.
         11   -1    0    0    0    0 -0.00000000000E+00 -0.00000000000E+00 -0.45593999997E+02  0.45594000000E+02  0.51100000000E-03 0.  1.
         23    2    1    2    0    0  0.88817841970E-15  0.00000000000E+00  0.00000000000E+00  0.91188000000E+02  0.91188000000E+02 0.  0.
    9900012    2    3    3    0    0 -0.41415134902E+01  0.20603893674E+02  0.37973026535E+02  0.47787270597E+02  0.19999997959E+02 0.  0.
        -12    1    3    3    0    0  0.41415134902E+01 -0.20603893674E+02 -0.37973026535E+02  0.43400729403E+02  0.00000000000E+00 0.  1.
         11    1    4    4    0    0 -0.36637589339E+01  0.12546858712E+02  0.20788015125E+02  0.24555821431E+02  0.51100000000E-03 0. -1.
        -11    1    4    4    0    0  0.63343200802E+01  0.51636462095E+01  0.80068686059E+01  0.11441013862E+02  0.51100000000E-03 0.  1.
        -12    1    4    4    0    0 -0.68120746365E+01  0.28933887527E+01  0.91781428043E+01  0.11790435304E+02  0.00000000000E+00 0.  1.
</event>
<event>
 8    1  0.8600524E-011  0.9118800E+02  0.7816164E-02  0.1184000E+00
        -11   -1    0    0    0    0  0.00000000000E+00  0.00000000000E+00  0.45593999997E+02  0.45594000000E+02  0.51100000000E-03 0. -1.
         11   -1    0    0    0    0 -0.00000000000E+00 -0.00000000000E+00 -0.45593999997E+02  0.45594000000E+02  0.51100000000E-03 0.  1.
         23    2    1    2    0    0  0.17763568394E-14 -0.88817841970E-15  0.00000000000E+00  0.91188000000E+02  0.91188000000E+02 0.  0.
    9900012    2    3    3    0    0  0.96273449249E+01  0.41266829519E+01  0.42117788807E+02  0.47787269402E+02  0.19999992509E+02 0.  0.
        -12    1    3    3    0    0 -0.96273449249E+01 -0.41266829519E+01 -0.42117788807E+02  0.43400730598E+02  0.00000000000E+00 0.  1.
         11    1    4    4    0    0  0.71305271691E+01  0.14572469223E+01  0.11446206380E+02  0.13564056438E+02  0.51100000000E-03 0. -1.
        -11    1    4    4    0    0 -0.45070108093E+01 -0.27308216799E+01  0.18106232231E+02  0.18857523150E+02  0.51100000000E-03 0.  1.
        -12    1    4    4    0    0  0.70038285651E+01  0.54002577095E+01  0.12565350196E+02  0.15365689814E+02  0.00000000000E+00 0.  1.
</event>
<event>
 8    1  0.8600524E-011  0.9118800E+02  0.7816164E-02  0.1184000E+00
        -11   -1    0    0    0    0  0.00000000000E+00  0.00000000000E+00  0.45593999997E+02  0.45594000000E+02  0.51100000000E-03 0. -1.
         11   -1    0    0    0    0 -0.00000000000E+00 -0.00000000000E+00 -0.45593999997E+02  0.45594000000E+02  0.51100000000E-03 0.  1.
         23    2    1    2    0    0  0.00000000000E+00  0.00000000000E+00  0.17763568394E-14  0.91188000000E+02  0.91188000000E+02 0.  0.
    9900012    2    3    3    0    0  0.73948869833E+01  0.41606740856E+02  0.98902927975E+01  0.47787272704E+02  0.20000007568E+02 0.  0.
        -12    1    3    3    0    0 -0.73948869833E+01 -0.41606740856E+02 -0.98902927975E+01  0.43400727296E+02  0.00000000000E+00 0.  1.
         11    1    4    4    0    0 -0.20348664868E+01  0.17644635527E+02 -0.25368138514E+01  0.17941830154E+02  0.51100000000E-03 0. -1.
        -11    1    4    4    0    0  0.62248529799E+00  0.65236773038E+00  0.31171225591E+01  0.32449229438E+01  0.51100000000E-03 0.  1.
         12    1    4    4    0    0  0.88072681721E+01  0.23309737598E+02  0.93099840898E+01  0.26600519606E+02  0.00000000000E+00 0. -1.
</event>
<event>
 8    1  0.8600524E-011  0.9118800E+02  0.7816164E-02  0.1184000E+00
        -11   -1    0    0    0    0  0.00000000000E+00  0.00000000000E+00  0.45593999997E+02  0.45594000000E+02  0.51100000000E-03 0. -1.
         11   -1    0    0    0    0 -0.00000000000E+00 -0.00000000000E+00 -0.45593999997E+02  0.45594000000E+02  0.51100000000E-03 0.  1.
         23    2    1    2    0    0 -0.35527136788E-14  0.35527136788E-14  0.00000000000E+00  0.91188000000E+02  0.91188000000E+02 0.  0.
    9900012    2    3    3    0    0  0.29796911443E+02 -0.19517485468E+02  0.24795867376E+02  0.47787271786E+02  0.20000003381E+02 0.  0.
        -12    1    3    3    0    0 -0.29796911443E+02  0.19517485468E+02 -0.24795867376E+02  0.43400728214E+02  0.00000000000E+00 0.  1.
         11    1    4    4    0    0  0.67961314095E+01 -0.18140397359E+01  0.14067848771E+02  0.15728398253E+02  0.51100000000E-03 0. -1.
        -11    1    4    4    0    0  0.51108836503E+01 -0.84447471386E+01  0.18378783198E+01  0.10040551922E+02  0.51100000000E-03 0.  1.
         12    1    4    4    0    0  0.17889896384E+02 -0.92586985935E+01  0.88901402854E+01  0.22018321611E+02  0.00000000000E+00 0. -1.
</event>
<event>
 8    1  0.8600524E-011  0.9118800E+02  0.7816164E-02  0.1184000E+00
        -11   -1    0    0    0    0  0.00000000000E+00  0.00000000000E+00  0.45593999997E+02  0.45594000000E+02  0.51100000000E-03 0. -1.
         11   -1    0    0    0    0 -0.00000000000E+00 -0.00000000000E+00 -0.45593999997E+02  0.45594000000E+02  0.51100000000E-03 0.  1.
         23    2    1    2    0    0  0.00000000000E+00  0.00000000000E+00  0.71054273576E-14  0.91188000000E+02  0.91188000000E+02 0.  0.
    9900012    2    3    3    0    0  0.15412458853E+01  0.77898573769E+01 -0.42668089141E+02  0.47787272497E+02  0.20000006623E+02 0.  0.
         12    1    3    3    0    0 -0.15412458853E+01 -0.77898573769E+01  0.42668089141E+02  0.43400727503E+02  0.00000000000E+00 0. -1.
         11    1    4    4    0    0  0.35166109579E+01  0.33272683367E+01 -0.35645841560E+01  0.60119487423E+01  0.51100000000E-03 0. -1.
        -11    1    4    4    0    0 -0.96400739482E-02  0.90892496217E+01 -0.19138484490E+02  0.21187169241E+02  0.51100000000E-03 0.  1.
         12    1    4    4    0    0 -0.19657249987E+01 -0.46266605814E+01 -0.19965020495E+02  0.20588154513E+02  0.00000000000E+00 0. -1.
</event>
<event>
 8    1  0.8600524E-011  0.9118800E+02  0.7816164E-02  0.1184000E+00
        -11   -1    0    0    0    0  0.00000000000E+00  0.00000000000E+00  0.45593999997E+02  0.45594000000E+02  0.51100000000E-03 0. -1.
         11   -1    0    0    0    0 -0.00000000000E+00 -0.00000000000E+00 -0.45593999997E+02  0.45594000000E+02  0.51100000000E-03 0.  1.
         23    2    1    2    0    0  0.00000000000E+00  0.00000000000E+00  0.35527136788E-14  0.91188000000E+02  0.91188000000E+02 0.  0.
    9900012    2    3    3    0    0  0.35610646424E+02 -0.16381523284E+02  0.18631985202E+02  0.47787270555E+02  0.19999997768E+02 0.  0.
        -12    1    3    3    0    0 -0.35610646424E+02  0.16381523284E+02 -0.18631985202E+02  0.43400729445E+02  0.00000000000E+00 0.  1.
         11    1    4    4    0    0  0.47306133180E+01 -0.35374608641E+01  0.11363028136E+02  0.12806667811E+02  0.51100000000E-03 0.  1.
        -11    1    4    4    0    0  0.24310201248E+02 -0.72166168763E+01  0.70780594856E+01  0.26328014931E+02  0.51100000000E-03 0. -1.
         12    1    4    4    0    0  0.65698318576E+01 -0.56274455433E+01  0.19089758023E+00  0.86525878133E+01  0.00000000000E+00 0. -1.
</event>
<event>
 8    1  0.8600524E-011  0.9118800E+02  0.7816164E-02  0.1184000E+00
        -11   -1    0    0    0    0  0.00000000000E+00  0.00000000000E+00  0.45593999997E+02  0.45594000000E+02  0.51100000000E-03 0. -1.
         11   -1    0    0    0    0 -0.00000000000E+00 -0.00000000000E+00 -0.45593999997E+02  0.45594000000E+02  0.51100000000E-03 0.  1.
         23    2    1    2    0    0  0.00000000000E+00  0.00000000000E+00  0.00000000000E+00  0.91188000000E+02  0.91188000000E+02 0.  0.
    9900012    2    3    3    0    0  0.34942971727E+01 -0.41229815115E+02  0.13096390728E+02  0.47787271696E+02  0.20000002973E+02 0.  0.
        -12    1    3    3    0    0 -0.34942971727E+01  0.41229815115E+02 -0.13096390728E+02  0.43400728304E+02  0.00000000000E+00 0.  1.
         11    1    4    4    0    0  0.36354970183E+01 -0.95027986125E+00 -0.11885226421E+01  0.39411237885E+01  0.51100000000E-03 0. -1.
        -11    1    4    4    0    0 -0.49224040748E+01 -0.17745138080E+02  0.65928819712E+01  0.19559807777E+02  0.51100000000E-03 0.  1.
         12    1    4    4    0    0  0.47812042292E+01 -0.22534397174E+02  0.76920313991E+01  0.24286340131E+02  0.00000000000E+00 0. -1.
</event>
<event>
 8    1  0.8600524E-011  0.9118800E+02  0.7816164E-02  0.1184000E+00
        -11   -1    0    0    0    0  0.00000000000E+00  0.00000000000E+00  0.45593999997E+02  0.45594000000E+02  0.51100000000E-03 0. -1.
         11   -1    0    0    0    0 -0.00000000000E+00 -0.00000000000E+00 -0.45593999997E+02  0.45594000000E+02  0.51100000000E-03 0.  1.
         23    2    1    2    0    0  0.00000000000E+00  0.00000000000E+00  0.00000000000E+00  0.91188000000E+02  0.91188000000E+02 0.  0.
    9900012    2    3    3    0    0  0.13240178788E+02  0.18912267112E+02  0.36751152449E+02  0.47787269730E+02  0.19999994007E+02 0.  0.
        -12    1    3    3    0    0 -0.13240178788E+02 -0.18912267112E+02 -0.36751152449E+02  0.43400730270E+02  0.00000000000E+00 0.  1.
         11    1    4    4    0    0 -0.11376660221E+01  0.12090686334E+02  0.98786797453E+01  0.15654625316E+02  0.51100000000E-03 0.  1.
        -11    1    4    4    0    0  0.10578249958E+02  0.20499021632E+01  0.12401053498E+02  0.16428256121E+02  0.51100000000E-03 0. -1.
         12    1    4    4    0    0  0.37995948523E+01  0.47716786146E+01  0.14471419206E+02  0.15704388293E+02  0.00000000000E+00 0. -1.
</event>
<event>
 8    1  0.8600524E-011  0.9118800E+02  0.7816164E-02  0.1184000E+00
        -11   -1    0    0    0    0  0.00000000000E+00  0.00000000000E+00  0.45593999997E+02  0.45594000000E+02  0.51100000000E-03 0. -1.
         11   -1    0    0    0    0 -0.00000000000E+00 -0.00000000000E+00 -0.45593999997E+02  0.45594000000E+02  0.51100000000E-03 0.  1.
         23    2    1    2    0    0  0.71054273576E-14  0.35527136788E-14  0.00000000000E+00  0.91188000000E+02  0.91188000000E+02 0.  0.
    9900012    2    3    3    0    0 -0.30514397292E+02 -0.29739585489E+02 -0.82493556672E+01  0.47787271249E+02  0.20000000933E+02 0.  0.
         12    1    3    3    0    0  0.30514397292E+02  0.29739585489E+02  0.82493556672E+01  0.43400728751E+02  0.00000000000E+00 0. -1.
         11    1    4    4    0    0 -0.27758118491E+02 -0.23234430842E+02 -0.82658338492E+01  0.37130525558E+02  0.51100000000E-03 0. -1.
        -11    1    4    4    0    0 -0.15284288599E+01 -0.20039418763E+01 -0.38470362263E+01  0.45990831490E+01  0.51100000000E-03 0.  1.
         12    1    4    4    0    0 -0.12278499409E+01 -0.45012127709E+01  0.38635144083E+01  0.60576625417E+01  0.00000000000E+00 0. -1.
</event>
<event>
 8    1  0.8600524E-011  0.9118800E+02  0.7816164E-02  0.1184000E+00
        -11   -1    0    0    0    0  0.00000000000E+00  0.00000000000E+00  0.45593999997E+02  0.45594000000E+02  0.51100000000E-03 0. -1.
         11   -1    0    0    0    0 -0.00000000000E+00 -0.00000000000E+00 -0.45593999997E+02  0.45594000000E+02  0.51100000000E-03 0.  1.
         23    2    1    2    0    0  0.00000000000E+00  0.00000000000E+00  0.00000000000E+00  0.91188000000E+02  0.91188000000E+02 0.  0.
    9900012    2    3    3    0    0  0.10553555719E+02  0.11232074216E+02  0.40571993894E+02  0.47787265927E+02  0.19999976669E+02 0.  0.
        -12    1    3    3    0    0 -0.10553555719E+02 -0.11232074216E+02 -0.40571993894E+02  0.43400734073E+02  0.00000000000E+00 0.  1.
         11    1    4    4    0    0  0.66210500885E+01  0.13962557952E+01  0.29532091707E+02  0.30297397171E+02  0.51100000000E-03 0. -1.
        -11    1    4    4    0    0 -0.55637863969E+00  0.80017962346E+01  0.94312593024E+01  0.12380910809E+02  0.51100000000E-03 0.  1.
         12    1    4    4    0    0  0.44888842701E+01  0.18340221866E+01  0.16086428849E+01  0.51089579468E+01  0.00000000000E+00 0. -1.
</event>
<event>
 8    1  0.8600524E-011  0.9118800E+02  0.7816164E-02  0.1184000E+00
        -11   -1    0    0    0    0  0.00000000000E+00  0.00000000000E+00  0.45593999997E+02  0.45594000000E+02  0.51100000000E-03 0. -1.
         11   -1    0    0    0    0 -0.00000000000E+00 -0.00000000000E+00 -0.45593999997E+02  0.45594000000E+02  0.51100000000E-03 0.  1.
         23    2    1    2    0    0  0.00000000000E+00  0.35527136788E-14  0.00000000000E+00  0.91188000000E+02  0.91188000000E+02 0.  0.
    9900012    2    3    3    0    0 -0.36015275862E+02  0.20939666066E+02  0.12167780879E+02  0.47787255745E+02  0.19999930245E+02 0.  0.
        -12    1    3    3    0    0  0.36015275862E+02 -0.20939666066E+02 -0.12167780879E+02  0.43400744255E+02  0.00000000000E+00 0.  1.
         11    1    4    4    0    0 -0.22517496037E+02  0.88359488995E+01  0.74914207459E+01  0.25322578972E+02  0.51100000000E-03 0. -1.
        -11    1    4    4    0    0 -0.31569411466E+01  0.86632523556E+01  0.66772434772E+01  0.11384366451E+02  0.51100000000E-03 0.  1.
        -12    1    4    4    0    0 -0.10340838678E+02  0.34404648109E+01 -0.20008833443E+01  0.11080310323E+02  0.00000000000E+00 0.  1.
</event>
<event>
 8    1  0.8600524E-011  0.9118800E+02  0.7816164E-02  0.1184000E+00
        -11   -1    0    0    0    0  0.00000000000E+00  0.00000000000E+00  0.45593999997E+02  0.45594000000E+02  0.51100000000E-03 0.  1.
         11   -1    0    0    0    0 -0.00000000000E+00 -0.00000000000E+00 -0.45593999997E+02  0.45594000000E+02  0.51100000000E-03 0. -1.
         23    2    1    2    0    0  0.17763568394E-14  0.00000000000E+00  0.00000000000E+00  0.91188000000E+02  0.91188000000E+02 0.  0.
    9900012    2    3    3    0    0 -0.13363209372E+02 -0.37923641882E+02 -0.16335394409E+02  0.47787273176E+02  0.20000009720E+02 0.  0.
        -12    1    3    3    0    0  0.13363209372E+02  0.37923641882E+02  0.16335394409E+02  0.43400726824E+02  0.00000000000E+00 0.  1.
         11    1    4    4    0    0 -0.15899363016E+02 -0.17255705264E+02 -0.74446426225E+01  0.24616494724E+02  0.51100000000E-03 0. -1.
        -11    1    4    4    0    0  0.17852080268E+01 -0.11798824916E+02 -0.76727623482E+01  0.14186984155E+02  0.51100000000E-03 0.  1.
        -12    1    4    4    0    0  0.75094561696E+00 -0.88691117021E+01 -0.12179894385E+01  0.89837942973E+01  0.00000000000E+00 0.  1.
</event>
<event>
 8    1  0.8600524E-011  0.9118800E+02  0.7816164E-02  0.1184000E+00
        -11   -1    0    0    0    0  0.00000000000E+00  0.00000000000E+00  0.45593999997E+02  0.45594000000E+02  0.51100000000E-03 0. -1.
         11   -1    0    0    0    0 -0.00000000000E+00 -0.00000000000E+00 -0.45593999997E+02  0.45594000000E+02  0.51100000000E-03 0.  1.
         23    2    1    2    0    0  0.17763568394E-14  0.00000000000E+00  0.00000000000E+00  0.91188000000E+02  0.91188000000E+02 0.  0.
    9900012    2    3    3    0    0  0.13063422800E+02 -0.36511731855E+02  0.19490083735E+02  0.47787274865E+02  0.20000017417E+02 0.  0.
        -12    1    3    3    0    0 -0.13063422800E+02  0.36511731855E+02 -0.19490083735E+02  0.43400725135E+02  0.00000000000E+00 0.  1.
         11    1    4    4    0    0 -0.12336685183E+01 -0.96912840713E+00  0.58671123279E+01  0.60732326821E+01  0.51100000000E-03 0. -1.
        -11    1    4    4    0    0  0.47839077307E+01 -0.21691643810E+02  0.47622197213E+01  0.22717656597E+02  0.51100000000E-03 0.  1.
         12    1    4    4    0    0  0.95131835873E+01 -0.13850959638E+02  0.88607516853E+01  0.18996385585E+02  0.00000000000E+00 0. -1.
</event>
<event>
 8    1  0.8600524E-011  0.9118800E+02  0.7816164E-02  0.1184000E+00
        -11   -1    0    0    0    0  0.00000000000E+00  0.00000000000E+00  0.45593999997E+02  0.45594000000E+02  0.51100000000E-03 0. -1.
         11   -1    0    0    0    0 -0.00000000000E+00 -0.00000000000E+00 -0.45593999997E+02  0.45594000000E+02  0.51100000000E-03 0.  1.
         23    2    1    2    0    0  0.00000000000E+00  0.35527136788E-14  0.00000000000E+00  0.91188000000E+02  0.91188000000E+02 0.  0.
    9900012    2    3    3    0    0  0.18116387833E+02  0.24182072078E+02  0.31155219645E+02  0.47787264646E+02  0.19999970828E+02 0.  0.
        -12    1    3    3    0    0 -0.18116387833E+02 -0.24182072078E+02 -0.31155219645E+02  0.43400735354E+02  0.00000000000E+00 0.  1.
         11    1    4    4    0    0  0.16609699673E+02  0.22369506498E+02  0.30938798966E+02  0.41635156129E+02  0.51100000000E-03 0. -1.
        -11    1    4    4    0    0 -0.18513414540E+01  0.80836545676E-01 -0.10953325087E+01  0.21526154539E+01  0.51100000000E-03 0.  1.
         12    1    4    4    0    0  0.33580296137E+01  0.17317290343E+01  0.13117531885E+01  0.39994930632E+01  0.00000000000E+00 0. -1.
</event>
<event>
 8    1  0.8600524E-011  0.9118800E+02  0.7816164E-02  0.1184000E+00
        -11   -1    0    0    0    0  0.00000000000E+00  0.00000000000E+00  0.45593999997E+02  0.45594000000E+02  0.51100000000E-03 0. -1.
         11   -1    0    0    0    0 -0.00000000000E+00 -0.00000000000E+00 -0.45593999997E+02  0.45594000000E+02  0.51100000000E-03 0.  1.
         23    2    1    2    0    0  0.88817841970E-15  0.00000000000E+00  0.00000000000E+00  0.91188000000E+02  0.91188000000E+02 0.  0.
    9900012    2    3    3    0    0 -0.23643019682E+01 -0.16538245274E+02  0.40056459779E+02  0.47787269009E+02  0.19999990720E+02 0.  0.
        -12    1    3    3    0    0  0.23643019682E+01  0.16538245274E+02 -0.40056459779E+02  0.43400730991E+02  0.00000000000E+00 0.  1.
         11    1    4    4    0    0  0.33884299652E+01 -0.39952493312E+00  0.13798280621E+02  0.14213853319E+02  0.51100000000E-03 0. -1.
        -11    1    4    4    0    0 -0.87011166427E+01 -0.72302503574E+01  0.11887082295E+02  0.16410017575E+02  0.51100000000E-03 0.  1.
        -12    1    4    4    0    0  0.29483847092E+01 -0.89084699838E+01  0.14371096862E+02  0.17163398115E+02  0.00000000000E+00 0.  1.
</event>
<event>
 8    1  0.8600524E-011  0.9118800E+02  0.7816164E-02  0.1184000E+00
        -11   -1    0    0    0    0  0.00000000000E+00  0.00000000000E+00  0.45593999997E+02  0.45594000000E+02  0.51100000000E-03 0. -1.
         11   -1    0    0    0    0 -0.00000000000E+00 -0.00000000000E+00 -0.45593999997E+02  0.45594000000E+02  0.51100000000E-03 0.  1.
         23    2    1    2    0    0  0.00000000000E+00 -0.35527136788E-14  0.00000000000E+00  0.91188000000E+02  0.91188000000E+02 0.  0.
    9900012    2    3    3    0    0 -0.24374320669E+02 -0.30989876941E+02 -0.18142303311E+02  0.47787272468E+02  0.20000006490E+02 0.  0.
         12    1    3    3    0    0  0.24374320669E+02  0.30989876941E+02  0.18142303311E+02  0.43400727532E+02  0.00000000000E+00 0. -1.
         11    1    4    4    0    0 -0.73019542593E+01 -0.17601677017E+02 -0.65415036093E+00  0.19067393182E+02  0.51100000000E-03 0. -1.
        -11    1    4    4    0    0 -0.16001357531E+02 -0.13545129936E+02 -0.17895028169E+02  0.27563490731E+02  0.51100000000E-03 0.  1.
        -12    1    4    4    0    0 -0.10710088781E+01  0.15693001219E+00  0.40687521881E+00  0.11563885547E+01  0.00000000000E+00 0.  1.
</event>
<event>
 8    1  0.8600524E-011  0.9118800E+02  0.7816164E-02  0.1184000E+00
        -11   -1    0    0    0    0  0.00000000000E+00  0.00000000000E+00  0.45593999997E+02  0.45594000000E+02  0.51100000000E-03 0. -1.
         11   -1    0    0    0    0 -0.00000000000E+00 -0.00000000000E+00 -0.45593999997E+02  0.45594000000E+02  0.51100000000E-03 0.  1.
         23    2    1    2    0    0  0.00000000000E+00  0.00000000000E+00  0.00000000000E+00  0.91188000000E+02  0.91188000000E+02 0.  0.
    9900012    2    3    3    0    0 -0.29989042572E+02  0.18034294927E+02 -0.25671864078E+02  0.47787273357E+02  0.20000010546E+02 0.  0.
         12    1    3    3    0    0  0.29989042572E+02 -0.18034294927E+02  0.25671864078E+02  0.43400726643E+02  0.00000000000E+00 0. -1.
         11    1    4    4    0    0 -0.19132729687E+01  0.53196208936E+00  0.17504544819E+01  0.26472038591E+01  0.51100000000E-03 0. -1.
        -11    1    4    4    0    0 -0.23912575989E+02  0.14419470575E+02 -0.28444264087E+02  0.39859861789E+02  0.51100000000E-03 0.  1.
        -12    1    4    4    0    0 -0.41631936143E+01  0.30828622623E+01  0.10219455274E+01  0.52802077098E+01  0.00000000000E+00 0.  1.
</event>
<event>
 8    1  0.8600524E-011  0.9118800E+02  0.7816164E-02  0.1184000E+00
        -11   -1    0    0    0    0  0.00000000000E+00  0.00000000000E+00  0.45593999997E+02  0.45594000000E+02  0.51100000000E-03 0. -1.
         11   -1    0    0    0    0 -0.00000000000E+00 -0.00000000000E+00 -0.45593999997E+02  0.45594000000E+02  0.51100000000E-03 0.  1.
         23    2    1    2    0    0 -0.88817841970E-15  0.88817841970E-15  0.71054273576E-14  0.91188000000E+02  0.91188000000E+02 0.  0.
    9900012    2    3    3    0    0 -0.37231606122E+01 -0.33886831714E+01 -0.43107749539E+02  0.47787272254E+02  0.20000005513E+02 0.  0.
         12    1    3    3    0    0  0.37231606122E+01  0.33886831714E+01  0.43107749539E+02  0.43400727746E+02  0.00000000000E+00 0. -1.
         11    1    4    4    0    0 -0.21932932630E+00  0.62599800705E+01 -0.92780876898E+01  0.11194568651E+02  0.51100000000E-03 0. -1.
        -11    1    4    4    0    0  0.22140517160E+01 -0.72694854000E+01 -0.21323204378E+02  0.22636839183E+02  0.51100000000E-03 0.  1.
        -12    1    4    4    0    0 -0.57178830018E+01 -0.23791778419E+01 -0.12506457472E+02  0.13955864420E+02  0.00000000000E+00 0.  1.
</event>
<event>
 8    1  0.8600524E-011  0.9118800E+02  0.7816164E-02  0.1184000E+00
        -11   -1    0    0    0    0  0.00000000000E+00  0.00000000000E+00  0.45593999997E+02  0.45594000000E+02  0.51100000000E-03 0. -1.
         11   -1    0    0    0    0 -0.00000000000E+00 -0.00000000000E+00 -0.45593999997E+02  0.45594000000E+02  0.51100000000E-03 0.  1.
         23    2    1    2    0    0  0.00000000000E+00 -0.35527136788E-14  0.00000000000E+00  0.91188000000E+02  0.91188000000E+02 0.  0.
    9900012    2    3    3    0    0  0.26332546859E+02 -0.17445778059E+02 -0.29763483167E+02  0.47787272744E+02  0.20000007750E+02 0.  0.
         12    1    3    3    0    0 -0.26332546859E+02  0.17445778059E+02  0.29763483167E+02  0.43400727256E+02  0.00000000000E+00 0. -1.
         11    1    4    4    0    0  0.18860036468E+02 -0.10127812194E+02 -0.10125871942E+02  0.23681360566E+02  0.51100000000E-03 0. -1.
        -11    1    4    4    0    0  0.55556001812E+01 -0.77159183640E+01 -0.19972078686E+02  0.22119765299E+02  0.51100000000E-03 0.  1.
        -12    1    4    4    0    0  0.19169102099E+01  0.39795249905E+00  0.33446746197E+00  0.19861468796E+01  0.00000000000E+00 0.  1.
</event>
<event>
 8    1  0.8600524E-011  0.9118800E+02  0.7816164E-02  0.1184000E+00
        -11   -1    0    0    0    0  0.00000000000E+00  0.00000000000E+00  0.45593999997E+02  0.45594000000E+02  0.51100000000E-03 0. -1.
         11   -1    0    0    0    0 -0.00000000000E+00 -0.00000000000E+00 -0.45593999997E+02  0.45594000000E+02  0.51100000000E-03 0.  1.
         23    2    1    2    0    0 -0.71054273576E-14 -0.17763568394E-14 -0.35527136788E-14  0.91188000000E+02  0.91188000000E+02 0.  0.
    9900012    2    3    3    0    0  0.32172444799E+02  0.78260781095E+01  0.28059048866E+02  0.47787263530E+02  0.19999965737E+02 0.  0.
        -12    1    3    3    0    0 -0.32172444799E+02 -0.78260781095E+01 -0.28059048866E+02  0.43400736470E+02  0.00000000000E+00 0.  1.
         11    1    4    4    0    0  0.66065530359E+01 -0.39874089253E+01  0.10074024308E+02  0.12689836050E+02  0.51100000000E-03 0. -1.
        -11    1    4    4    0    0  0.20993189721E+02  0.11198818579E+02  0.18908902678E+02  0.30392008044E+02  0.51100000000E-03 0.  1.
        -12    1    4    4    0    0  0.45727020429E+01  0.61466845615E+00 -0.92387812040E+00  0.47054194356E+01  0.00000000000E+00 0.  1.
</event>
<event>
 8    1  0.8600524E-011  0.9118800E+02  0.7816164E-02  0.1184000E+00
        -11   -1    0    0    0    0  0.00000000000E+00  0.00000000000E+00  0.45593999997E+02  0.45594000000E+02  0.51100000000E-03 0. -1.
         11   -1    0    0    0    0 -0.00000000000E+00 -0.00000000000E+00 -0.45593999997E+02  0.45594000000E+02  0.51100000000E-03 0.  1.
         23    2    1    2    0    0  0.35527136788E-14 -0.17763568394E-14 -0.71054273576E-14  0.91188000000E+02  0.91188000000E+02 0.  0.
    9900012    2    3    3    0    0  0.20119204716E+02  0.13930715538E+02  0.35843777518E+02  0.47787267050E+02  0.19999981790E+02 0.  0.
        -12    1    3    3    0    0 -0.20119204716E+02 -0.13930715538E+02 -0.35843777518E+02  0.43400732950E+02  0.00000000000E+00 0.  1.
         11    1    4    4    0    0  0.18402206494E+02  0.34528155998E+01  0.28687293398E+02  0.34256735720E+02  0.51100000000E-03 0. -1.
        -11    1    4    4    0    0  0.31343933793E+01  0.75062142588E+01  0.44730713980E+01  0.92831052104E+01  0.51100000000E-03 0.  1.
         12    1    4    4    0    0 -0.14173951578E+01  0.29716856792E+01  0.26834127226E+01  0.42474261205E+01  0.00000000000E+00 0. -1.
</event>
<event>
 8    1  0.8600524E-011  0.9118800E+02  0.7816164E-02  0.1184000E+00
        -11   -1    0    0    0    0  0.00000000000E+00  0.00000000000E+00  0.45593999997E+02  0.45594000000E+02  0.51100000000E-03 0. -1.
         11   -1    0    0    0    0 -0.00000000000E+00 -0.00000000000E+00 -0.45593999997E+02  0.45594000000E+02  0.51100000000E-03 0.  1.
         23    2    1    2    0    0  0.00000000000E+00  0.00000000000E+00  0.00000000000E+00  0.91188000000E+02  0.91188000000E+02 0.  0.
    9900012    2    3    3    0    0  0.59806913739E+00  0.37012798833E+02  0.22656588651E+02  0.47787239943E+02  0.19999858197E+02 0.  0.
        -12    1    3    3    0    0 -0.59806913739E+00 -0.37012798833E+02 -0.22656588651E+02  0.43400760057E+02  0.00000000000E+00 0.  1.
         11    1    4    4    0    0  0.13725222164E+01  0.31193466374E+02  0.18542543570E+02  0.36314488623E+02  0.51100000000E-03 0. -1.
        -11    1    4    4    0    0 -0.28272443195E+01  0.17688275015E+01  0.57491022118E+01  0.66463702631E+01  0.51100000000E-03 0.  1.
        -12    1    4    4    0    0  0.20527912405E+01  0.40505049582E+01 -0.16350571301E+01  0.48263810575E+01  0.00000000000E+00 0.  1.
</event>
<event>
 8    1  0.8600524E-011  0.9118800E+02  0.7816164E-02  0.1184000E+00
        -11   -1    0    0    0    0  0.00000000000E+00  0.00000000000E+00  0.45593999997E+02  0.45594000000E+02  0.51100000000E-03 0. -1.
         11   -1    0    0    0    0 -0.00000000000E+00 -0.00000000000E+00 -0.45593999997E+02  0.45594000000E+02  0.51100000000E-03 0.  1.
         23    2    1    2    0    0 -0.71054273576E-14  0.17763568394E-14  0.00000000000E+00  0.91188000000E+02  0.91188000000E+02 0.  0.
    9900012    2    3    3    0    0  0.39748052949E+02 -0.12057957403E+02 -0.12582578400E+02  0.47787270408E+02  0.19999997098E+02 0.  0.
         12    1    3    3    0    0 -0.39748052949E+02  0.12057957403E+02  0.12582578400E+02  0.43400729592E+02  0.00000000000E+00 0. -1.
         11    1    4    4    0    0  0.14382752939E+02 -0.38582761959E+01  0.31751587155E+00  0.14894653199E+02  0.51100000000E-03 0. -1.
        -11    1    4    4    0    0  0.15553868115E+02 -0.45846829219E+00 -0.93171248330E+00  0.15588492388E+02  0.51100000000E-03 0.  1.
        -12    1    4    4    0    0  0.98114318946E+01 -0.77412129146E+01 -0.11968381789E+02  0.17304124822E+02  0.00000000000E+00 0.  1.
</event>
<event>
 8    1  0.8600524E-011  0.9118800E+02  0.7816164E-02  0.1184000E+00
        -11   -1    0    0    0    0  0.00000000000E+00  0.00000000000E+00  0.45593999997E+02  0.45594000000E+02  0.51100000000E-03 0.  1.
         11   -1    0    0    0    0 -0.00000000000E+00 -0.00000000000E+00 -0.45593999997E+02  0.45594000000E+02  0.51100000000E-03 0. -1.
         23    2    1    2    0    0 -0.44408920985E-15 -0.35527136788E-14  0.00000000000E+00  0.91188000000E+02  0.91188000000E+02 0.  0.
    9900012    2    3    3    0    0 -0.13338773535E+01 -0.28841063185E+02 -0.32404274237E+02  0.47787272549E+02  0.20000006861E+02 0.  0.
         12    1    3    3    0    0  0.13338773535E+01  0.28841063185E+02  0.32404274237E+02  0.43400727451E+02  0.00000000000E+00 0. -1.
         11    1    4    4    0    0 -0.68332073102E+01 -0.11057639814E+02 -0.58456821286E+01  0.14252582931E+02  0.51100000000E-03 0.  1.
        -11    1    4    4    0    0  0.47295615527E+01 -0.14990003180E+02 -0.26282332589E+02  0.30624009444E+02  0.51100000000E-03 0. -1.
         12    1    4    4    0    0  0.76976840395E+00 -0.27934201909E+01 -0.27625951965E+00  0.29106801750E+01  0.00000000000E+00 0. -1.
</event>
<event>
 8    1  0.8600524E-011  0.9118800E+02  0.7816164E-02  0.1184000E+00
        -11   -1    0    0    0    0  0.00000000000E+00  0.00000000000E+00  0.45593999997E+02  0.45594000000E+02  0.51100000000E-03 0. -1.
         11   -1    0    0    0    0 -0.00000000000E+00 -0.00000000000E+00 -0.45593999997E+02  0.45594000000E+02  0.51100000000E-03 0.  1.
         23    2    1    2    0    0 -0.22204460493E-15  0.00000000000E+00  0.00000000000E+00  0.91188000000E+02  0.91188000000E+02 0.  0.
    9900012    2    3    3    0    0  0.15574221533E+01  0.57258057732E+01  0.42993168445E+02  0.47787274793E+02  0.20000017093E+02 0.  0.
        -12    1    3    3    0    0 -0.15574221533E+01 -0.57258057732E+01 -0.42993168445E+02  0.43400725207E+02  0.00000000000E+00 0.  1.
         11    1    4    4    0    0 -0.11237916930E+01  0.96148804715E+01  0.16126961919E+02  0.18809246004E+02  0.51100000000E-03 0. -1.
        -11    1    4    4    0    0  0.13890686546E+01 -0.57896265213E+01  0.80003537667E+01  0.99727101451E+01  0.51100000000E-03 0.  1.
        -12    1    4    4    0    0  0.12921451917E+01  0.19005518231E+01  0.18865852760E+02  0.19005318644E+02  0.00000000000E+00 0.  1.
</event>
<event>
 8    1  0.8600524E-011  0.9118800E+02  0.7816164E-02  0.1184000E+00
        -11   -1    0    0    0    0  0.00000000000E+00  0.00000000000E+00  0.45593999997E+02  0.45594000000E+02  0.51100000000E-03 0. -1.
         11   -1    0    0    0    0 -0.00000000000E+00 -0.00000000000E+00 -0.45593999997E+02  0.45594000000E+02  0.51100000000E-03 0.  1.
         23    2    1    2    0    0 -0.17763568394E-14  0.00000000000E+00  0.00000000000E+00  0.91188000000E+02  0.91188000000E+02 0.  0.
    9900012    2    3    3    0    0 -0.14418844769E+02 -0.40733494561E+02  0.40625692579E+01  0.47787249631E+02  0.19999902367E+02 0.  0.
        -12    1    3    3    0    0  0.14418844769E+02  0.40733494561E+02 -0.40625692579E+01  0.43400750369E+02  0.00000000000E+00 0.  1.
         11    1    4    4    0    0 -0.11147116827E+02 -0.22971556579E+02  0.87475592481E+01  0.26990191150E+02  0.51100000000E-03 0. -1.
        -11    1    4    4    0    0  0.22285292415E+01 -0.12107858067E+02 -0.36530856958E+01  0.12841791343E+02  0.51100000000E-03 0.  1.
        -12    1    4    4    0    0 -0.55002571831E+01 -0.56540799152E+01 -0.10319042944E+01  0.79552671382E+01  0.00000000000E+00 0.  1.
</event>
<event>
 8    1  0.8600524E-011  0.9118800E+02  0.7816164E-02  0.1184000E+00
        -11   -1    0    0    0    0  0.00000000000E+00  0.00000000000E+00  0.45593999997E+02  0.45594000000E+02  0.51100000000E-03 0. -1.
         11   -1    0    0    0    0 -0.00000000000E+00 -0.00000000000E+00 -0.45593999997E+02  0.45594000000E+02  0.51100000000E-03 0.  1.
         23    2    1    2    0    0  0.00000000000E+00  0.00000000000E+00  0.00000000000E+00  0.91188000000E+02  0.91188000000E+02 0.  0.
    9900012    2    3    3    0    0 -0.21650544330E+02 -0.26993168153E+02  0.26196260860E+02  0.47787294018E+02  0.20000104744E+02 0.  0.
        -12    1    3    3    0    0  0.21650544330E+02  0.26993168153E+02 -0.26196260860E+02  0.43400705982E+02  0.00000000000E+00 0.  1.
         11    1    4    4    0    0 -0.22533256568E+02 -0.21772883560E+02  0.24040605164E+02  0.39493756557E+02  0.51100000000E-03 0. -1.
        -11    1    4    4    0    0  0.23289637856E+01  0.92855120363E-02  0.16290470140E+01  0.28421739866E+01  0.51100000000E-03 0.  1.
         12    1    4    4    0    0 -0.14462515475E+01 -0.52295701050E+01  0.52660868217E+00  0.54513634741E+01  0.00000000000E+00 0. -1.
</event>
<event>
 8    1  0.8600524E-011  0.9118800E+02  0.7816164E-02  0.1184000E+00
        -11   -1    0    0    0    0  0.00000000000E+00  0.00000000000E+00  0.45593999997E+02  0.45594000000E+02  0.51100000000E-03 0. -1.
         11   -1    0    0    0    0 -0.00000000000E+00 -0.00000000000E+00 -0.45593999997E+02  0.45594000000E+02  0.51100000000E-03 0.  1.
         23    2    1    2    0    0  0.00000000000E+00 -0.44408920985E-15  0.00000000000E+00  0.91188000000E+02  0.91188000000E+02 0.  0.
    9900012    2    3    3    0    0 -0.25891099319E+02  0.27319602403E+01 -0.34724785067E+02  0.47787270413E+02  0.19999997122E+02 0.  0.
         12    1    3    3    0    0  0.25891099319E+02 -0.27319602403E+01  0.34724785067E+02  0.43400729587E+02  0.00000000000E+00 0. -1.
         11    1    4    4    0    0 -0.59209031867E+01 -0.25599254532E+01 -0.18369398812E+02  0.19469081279E+02  0.51100000000E-03 0. -1.
        -11    1    4    4    0    0 -0.18486336985E+02  0.10950412719E+01 -0.11855535829E+02  0.21988576593E+02  0.51100000000E-03 0.  1.
        -12    1    4    4    0    0 -0.14838591469E+01  0.41968444216E+01 -0.44998504258E+01  0.63296125411E+01  0.00000000000E+00 0.  1.
</event>
<event>
 8    1  0.8600524E-011  0.9118800E+02  0.7816164E-02  0.1184000E+00
        -11   -1    0    0    0    0  0.00000000000E+00  0.00000000000E+00  0.45593999997E+02  0.45594000000E+02  0.51100000000E-03 0.  1.
         11   -1    0    0    0    0 -0.00000000000E+00 -0.00000000000E+00 -0.45593999997E+02  0.45594000000E+02  0.51100000000E-03 0. -1.
         23    2    1    2    0    0  0.00000000000E+00 -0.35527136788E-14  0.00000000000E+00  0.91188000000E+02  0.91188000000E+02 0.  0.
    9900012    2    3    3    0    0 -0.25336188426E+02 -0.26938904263E+02 -0.22715555581E+02  0.47787268759E+02  0.19999989581E+02 0.  0.
         12    1    3    3    0    0  0.25336188426E+02  0.26938904263E+02  0.22715555581E+02  0.43400731241E+02  0.00000000000E+00 0. -1.
         11    1    4    4    0    0 -0.37318929891E+01 -0.77542785678E+01  0.31897010613E+00  0.86114809167E+01  0.51100000000E-03 0.  1.
        -11    1    4    4    0    0  0.54983109768E+00 -0.32153438162E+00  0.11670489384E+01  0.13295495780E+01  0.51100000000E-03 0. -1.
         12    1    4    4    0    0 -0.22154126535E+02 -0.18863091314E+02 -0.24201574625E+02  0.37846238265E+02  0.00000000000E+00 0. -1.
</event>
<event>
 8    1  0.8600524E-011  0.9118800E+02  0.7816164E-02  0.1184000E+00
        -11   -1    0    0    0    0  0.00000000000E+00  0.00000000000E+00  0.45593999997E+02  0.45594000000E+02  0.51100000000E-03 0. -1.
         11   -1    0    0    0    0 -0.00000000000E+00 -0.00000000000E+00 -0.45593999997E+02  0.45594000000E+02  0.51100000000E-03 0.  1.
         23    2    1    2    0    0 -0.71054273576E-14 -0.88817841970E-15  0.00000000000E+00  0.91188000000E+02  0.91188000000E+02 0.  0.
    9900012    2    3    3    0    0  0.40614765850E+02  0.63623116077E+01  0.13913524192E+02  0.47787258422E+02  0.19999942450E+02 0.  0.
        -12    1    3    3    0    0 -0.40614765850E+02 -0.63623116077E+01 -0.13913524192E+02  0.43400741578E+02  0.00000000000E+00 0.  1.
         11    1    4    4    0    0  0.35028883932E+02  0.92215649833E+01  0.10682783616E+02  0.37764822737E+02  0.51100000000E-03 0. -1.
        -11    1    4    4    0    0  0.87439719633E-01 -0.14546175386E+01  0.40355813877E+01  0.42906264445E+01  0.51100000000E-03 0.  1.
         12    1    4    4    0    0  0.54984421984E+01 -0.14046358370E+01 -0.80484081138E+00  0.57318092410E+01  0.00000000000E+00 0. -1.
</event>
<event>
 8    1  0.8600524E-011  0.9118800E+02  0.7816164E-02  0.1184000E+00
        -11   -1    0    0    0    0  0.00000000000E+00  0.00000000000E+00  0.45593999997E+02  0.45594000000E+02  0.51100000000E-03 0. -1.
         11   -1    0    0    0    0 -0.00000000000E+00 -0.00000000000E+00 -0.45593999997E+02  0.45594000000E+02  0.51100000000E-03 0.  1.
         23    2    1    2    0    0  0.00000000000E+00  0.00000000000E+00  0.00000000000E+00  0.91188000000E+02  0.91188000000E+02 0.  0.
    9900012    2    3    3    0    0  0.30437527782E+02  0.17334906530E+02  0.25625808414E+02  0.47787261081E+02  0.19999954571E+02 0.  0.
        -12    1    3    3    0    0 -0.30437527782E+02 -0.17334906530E+02 -0.25625808414E+02  0.43400738919E+02  0.00000000000E+00 0.  1.
         11    1    4    4    0    0  0.15894146357E+02  0.10170883932E+02  0.19710372325E+02  0.27286801678E+02  0.51100000000E-03 0. -1.
        -11    1    4    4    0    0  0.54266911679E+01 -0.26312377168E+00 -0.25593289281E+01  0.60056952948E+01  0.51100000000E-03 0.  1.
         12    1    4    4    0    0  0.91166902571E+01  0.74271463696E+01  0.84747650167E+01  0.14494764107E+02  0.00000000000E+00 0. -1.
</event>
<event>
 8    1  0.8600524E-011  0.9118800E+02  0.7816164E-02  0.1184000E+00
        -11   -1    0    0    0    0  0.00000000000E+00  0.00000000000E+00  0.45593999997E+02  0.45594000000E+02  0.51100000000E-03 0. -1.
         11   -1    0    0    0    0 -0.00000000000E+00 -0.00000000000E+00 -0.45593999997E+02  0.45594000000E+02  0.51100000000E-03 0.  1.
         23    2    1    2    0    0  0.00000000000E+00  0.00000000000E+00  0.35527136788E-14  0.91188000000E+02  0.91188000000E+02 0.  0.
    9900012    2    3    3    0    0  0.27364741423E+02 -0.18480034309E+02  0.28165271230E+02  0.47787271381E+02  0.20000001536E+02 0.  0.
        -12    1    3    3    0    0 -0.27364741423E+02  0.18480034309E+02 -0.28165271230E+02  0.43400728619E+02  0.00000000000E+00 0.  1.
         11    1    4    4    0    0  0.73243363940E+01 -0.68846060277E+01 -0.98092238203E+00  0.10099797659E+02  0.51100000000E-03 0. -1.
        -11    1    4    4    0    0  0.16806180689E+02 -0.11953556155E+02  0.24707106639E+02  0.32183479191E+02  0.51100000000E-03 0.  1.
        -12    1    4    4    0    0  0.32342243398E+01  0.35812787357E+00  0.44390869727E+01  0.55039945317E+01  0.00000000000E+00 0.  1.
</event>
<event>
 8    1  0.8600524E-011  0.9118800E+02  0.7816164E-02  0.1184000E+00
        -11   -1    0    0    0    0  0.00000000000E+00  0.00000000000E+00  0.45593999997E+02  0.45594000000E+02  0.51100000000E-03 0. -1.
         11   -1    0    0    0    0 -0.00000000000E+00 -0.00000000000E+00 -0.45593999997E+02  0.45594000000E+02  0.51100000000E-03 0.  1.
         23    2    1    2    0    0  0.35527136788E-14  0.00000000000E+00  0.35527136788E-14  0.91188000000E+02  0.91188000000E+02 0.  0.
    9900012    2    3    3    0    0 -0.19752538835E+02 -0.22511013399E+02 -0.31411993656E+02  0.47787287331E+02  0.20000074259E+02 0.  0.
         12    1    3    3    0    0  0.19752538835E+02  0.22511013399E+02  0.31411993656E+02  0.43400712669E+02  0.00000000000E+00 0. -1.
         11    1    4    4    0    0  0.30435787047E+01 -0.32891969989E+01 -0.12568133281E+01  0.46542204752E+01  0.51100000000E-03 0. -1.
        -11    1    4    4    0    0 -0.85235282729E+01 -0.85948879721E+01 -0.17577849213E+02  0.21342526014E+02  0.51100000000E-03 0.  1.
         12    1    4    4    0    0 -0.14272589267E+02 -0.10626928428E+02 -0.12577331115E+02  0.21790540842E+02  0.00000000000E+00 0. -1.
</event>
<event>
 8    1  0.8600524E-011  0.9118800E+02  0.7816164E-02  0.1184000E+00
        -11   -1    0    0    0    0  0.00000000000E+00  0.00000000000E+00  0.45593999997E+02  0.45594000000E+02  0.51100000000E-03 0. -1.
         11   -1    0    0    0    0 -0.00000000000E+00 -0.00000000000E+00 -0.45593999997E+02  0.45594000000E+02  0.51100000000E-03 0.  1.
         23    2    1    2    0    0  0.00000000000E+00 -0.35527136788E-14  0.00000000000E+00  0.91188000000E+02  0.91188000000E+02 0.  0.
    9900012    2    3    3    0    0 -0.33267382475E+02 -0.27610238863E+02 -0.38183767274E+01  0.47787262360E+02  0.19999960404E+02 0.  0.
        -12    1    3    3    0    0  0.33267382475E+02  0.27610238863E+02  0.38183767274E+01  0.43400737640E+02  0.00000000000E+00 0.  1.
         11    1    4    4    0    0 -0.85246413171E+01 -0.63292249453E+01 -0.31288879316E+01  0.11068809238E+02  0.51100000000E-03 0. -1.
        -11    1    4    4    0    0 -0.17997818998E+02 -0.43920644066E+01 -0.35754219390E+00  0.18529424036E+02  0.51100000000E-03 0.  1.
        -12    1    4    4    0    0 -0.67449221607E+01 -0.16888949511E+02 -0.33194660185E+00  0.18189029086E+02  0.00000000000E+00 0.  1.
</event>
<event>
 8    1  0.8600524E-011  0.9118800E+02  0.7816164E-02  0.1184000E+00
        -11   -1    0    0    0    0  0.00000000000E+00  0.00000000000E+00  0.45593999997E+02  0.45594000000E+02  0.51100000000E-03 0.  1.
         11   -1    0    0    0    0 -0.00000000000E+00 -0.00000000000E+00 -0.45593999997E+02  0.45594000000E+02  0.51100000000E-03 0. -1.
         23    2    1    2    0    0  0.00000000000E+00 -0.88817841970E-15  0.00000000000E+00  0.91188000000E+02  0.91188000000E+02 0.  0.
    9900012    2    3    3    0    0 -0.32829274026E+02 -0.49632426296E+01 -0.27950469541E+02  0.47787265467E+02  0.19999974570E+02 0.  0.
         12    1    3    3    0    0  0.32829274026E+02  0.49632426296E+01  0.27950469541E+02  0.43400734533E+02  0.00000000000E+00 0. -1.
         11    1    4    4    0    0 -0.45862440473E+01 -0.41554702515E+01 -0.81916250837E+01  0.10266659108E+02  0.51100000000E-03 0. -1.
        -11    1    4    4    0    0 -0.15686067793E+02  0.64433222787E+01 -0.75396920504E+01  0.18558450401E+02  0.51100000000E-03 0.  1.
        -12    1    4    4    0    0 -0.12556962185E+02 -0.72510946568E+01 -0.12219152407E+02  0.18962155958E+02  0.00000000000E+00 0.  1.
</event>
<event>
 8    1  0.8600524E-011  0.9118800E+02  0.7816164E-02  0.1184000E+00
        -11   -1    0    0    0    0  0.00000000000E+00  0.00000000000E+00  0.45593999997E+02  0.45594000000E+02  0.51100000000E-03 0. -1.
         11   -1    0    0    0    0 -0.00000000000E+00 -0.00000000000E+00 -0.45593999997E+02  0.45594000000E+02  0.51100000000E-03 0.  1.
         23    2    1    2    0    0  0.00000000000E+00  0.00000000000E+00  0.00000000000E+00  0.91188000000E+02  0.91188000000E+02 0.  0.
    9900012    2    3    3    0    0 -0.15309456165E+02 -0.90659943343E+01 -0.39586003724E+02  0.47787269682E+02  0.19999993787E+02 0.  0.
         12    1    3    3    0    0  0.15309456165E+02  0.90659943343E+01  0.39586003724E+02  0.43400730318E+02  0.00000000000E+00 0. -1.
         11    1    4    4    0    0 -0.47913660361E+01  0.46330288088E+01 -0.11475199807E+02  0.13270356262E+02  0.51100000000E-03 0. -1.
        -11    1    4    4    0    0 -0.10917266293E+02 -0.14366831873E+02 -0.22449040573E+02  0.28801944106E+02  0.51100000000E-03 0.  1.
         12    1    4    4    0    0  0.39917616320E+00  0.66780872953E+00 -0.56617633428E+01  0.57149693139E+01  0.00000000000E+00 0. -1.
</event>
<event>
 8    1  0.8600524E-011  0.9118800E+02  0.7816164E-02  0.1184000E+00
        -11   -1    0    0    0    0  0.00000000000E+00  0.00000000000E+00  0.45593999997E+02  0.45594000000E+02  0.51100000000E-03 0. -1.
         11   -1    0    0    0    0 -0.00000000000E+00 -0.00000000000E+00 -0.45593999997E+02  0.45594000000E+02  0.51100000000E-03 0.  1.
         23    2    1    2    0    0  0.00000000000E+00 -0.17763568394E-14  0.00000000000E+00  0.91188000000E+02  0.91188000000E+02 0.  0.
    9900012    2    3    3    0    0  0.19891524925E+02 -0.95559760358E+01  0.37371563931E+02  0.47787271522E+02  0.20000002176E+02 0.  0.
        -12    1    3    3    0    0 -0.19891524925E+02  0.95559760358E+01 -0.37371563931E+02  0.43400728478E+02  0.00000000000E+00 0.  1.
         11    1    4    4    0    0  0.55699692095E+01 -0.10482481912E+02  0.13114363866E+02  0.17688796565E+02  0.51100000000E-03 0. -1.
        -11    1    4    4    0    0  0.42499214711E+01  0.44456462269E+01  0.44180858223E+01  0.75726537938E+01  0.51100000000E-03 0.  1.
        -12    1    4    4    0    0  0.10071634244E+02 -0.35191403503E+01  0.19839114242E+02  0.22525821163E+02  0.00000000000E+00 0.  1.
</event>
<event>
 8    1  0.8600524E-011  0.9118800E+02  0.7816164E-02  0.1184000E+00
        -11   -1    0    0    0    0  0.00000000000E+00  0.00000000000E+00  0.45593999997E+02  0.45594000000E+02  0.51100000000E-03 0. -1.
         11   -1    0    0    0    0 -0.00000000000E+00 -0.00000000000E+00 -0.45593999997E+02  0.45594000000E+02  0.51100000000E-03 0.  1.
         23    2    1    2    0    0  0.00000000000E+00  0.17763568394E-14 -0.71054273576E-14  0.91188000000E+02  0.91188000000E+02 0.  0.
    9900012    2    3    3    0    0  0.85112299377E+01  0.11093401344E+02 -0.41086706231E+02  0.47787285520E+02  0.20000066002E+02 0.  0.
         12    1    3    3    0    0 -0.85112299377E+01 -0.11093401344E+02  0.41086706231E+02  0.43400714480E+02  0.00000000000E+00 0. -1.
         11    1    4    4    0    0  0.36067018098E+01 -0.27561770842E+01 -0.40611057869E+01  0.60907627221E+01  0.51100000000E-03 0. -1.
        -11    1    4    4    0    0 -0.20248539426E+01  0.10912822688E+02 -0.26736242762E+02  0.28948513084E+02  0.51100000000E-03 0.  1.
        -12    1    4    4    0    0  0.69293820705E+01  0.29367557403E+01 -0.10289357682E+02  0.12748009714E+02  0.00000000000E+00 0.  1.
</event>
<event>
 8    1  0.8600524E-011  0.9118800E+02  0.7816164E-02  0.1184000E+00
        -11   -1    0    0    0    0  0.00000000000E+00  0.00000000000E+00  0.45593999997E+02  0.45594000000E+02  0.51100000000E-03 0. -1.
         11   -1    0    0    0    0 -0.00000000000E+00 -0.00000000000E+00 -0.45593999997E+02  0.45594000000E+02  0.51100000000E-03 0.  1.
         23    2    1    2    0    0 -0.35527136788E-14  0.44408920985E-15  0.00000000000E+00  0.91188000000E+02  0.91188000000E+02 0.  0.
    9900012    2    3    3    0    0  0.20070636349E+02  0.23506346936E+01 -0.38409213355E+02  0.47787267317E+02  0.19999983003E+02 0.  0.
         12    1    3    3    0    0 -0.20070636349E+02 -0.23506346936E+01  0.38409213355E+02  0.43400732683E+02  0.00000000000E+00 0. -1.
         11    1    4    4    0    0  0.70519554835E+01  0.86719215781E+01 -0.10062186464E+02  0.15039278463E+02  0.51100000000E-03 0. -1.
        -11    1    4    4    0    0  0.98268220038E+01 -0.60528559514E+01 -0.14485346918E+02  0.18521035917E+02  0.51100000000E-03 0.  1.
         12    1    4    4    0    0  0.31918588613E+01 -0.26843093312E+00 -0.13861679974E+02  0.14226952936E+02  0.00000000000E+00 0. -1.
</event>
<event>
 8    1  0.8600524E-011  0.9118800E+02  0.7816164E-02  0.1184000E+00
        -11   -1    0    0    0    0  0.00000000000E+00  0.00000000000E+00  0.45593999997E+02  0.45594000000E+02  0.51100000000E-03 0. -1.
         11   -1    0    0    0    0 -0.00000000000E+00 -0.00000000000E+00 -0.45593999997E+02  0.45594000000E+02  0.51100000000E-03 0.  1.
         23    2    1    2    0    0  0.35527136788E-14  0.00000000000E+00 -0.71054273576E-14  0.91188000000E+02  0.91188000000E+02 0.  0.
    9900012    2    3    3    0    0 -0.20493830266E+02  0.99257100054E+01  0.36947348582E+02  0.47787269991E+02  0.19999995195E+02 0.  0.
        -12    1    3    3    0    0  0.20493830266E+02 -0.99257100054E+01 -0.36947348582E+02  0.43400730009E+02  0.00000000000E+00 0.  1.
         11    1    4    4    0    0 -0.13068424048E+02  0.26814557749E+01  0.12230749029E+02  0.18098760572E+02  0.51100000000E-03 0. -1.
        -11    1    4    4    0    0 -0.25842055683E+00  0.67726160371E+01  0.19946035246E+02  0.21066072996E+02  0.51100000000E-03 0.  1.
        -12    1    4    4    0    0 -0.71669856615E+01  0.47163819336E+00  0.47705643067E+01  0.86224364226E+01  0.00000000000E+00 0.  1.
</event>
<event>
 8    1  0.8600524E-011  0.9118800E+02  0.7816164E-02  0.1184000E+00
        -11   -1    0    0    0    0  0.00000000000E+00  0.00000000000E+00  0.45593999997E+02  0.45594000000E+02  0.51100000000E-03 0. -1.
         11   -1    0    0    0    0 -0.00000000000E+00 -0.00000000000E+00 -0.45593999997E+02  0.45594000000E+02  0.51100000000E-03 0.  1.
         23    2    1    2    0    0  0.11102230246E-15  0.00000000000E+00  0.00000000000E+00  0.91188000000E+02  0.91188000000E+02 0.  0.
    9900012    2    3    3    0    0  0.18266907929E+00  0.42216781099E+02 -0.10066480921E+02  0.47787262535E+02  0.19999961204E+02 0.  0.
         12    1    3    3    0    0 -0.18266907929E+00 -0.42216781099E+02  0.10066480921E+02  0.43400737465E+02  0.00000000000E+00 0. -1.
         11    1    4    4    0    0  0.70050633178E+01  0.10849581595E+02 -0.43362445377E+01  0.13623044807E+02  0.51100000000E-03 0. -1.
        -11    1    4    4    0    0 -0.76229816574E+01  0.31570893774E+02 -0.46577382750E+01  0.32810451218E+02  0.51100000000E-03 0.  1.
         12    1    4    4    0    0  0.80058741888E+00 -0.20369427007E+00 -0.10724981084E+01  0.13537665100E+01  0.00000000000E+00 0. -1.
</event>
<event>
 8    1  0.8600524E-011  0.9118800E+02  0.7816164E-02  0.1184000E+00
        -11   -1    0    0    0    0  0.00000000000E+00  0.00000000000E+00  0.45593999997E+02  0.45594000000E+02  0.51100000000E-03 0. -1.
         11   -1    0    0    0    0 -0.00000000000E+00 -0.00000000000E+00 -0.45593999997E+02  0.45594000000E+02  0.51100000000E-03 0.  1.
         23    2    1    2    0    0  0.88817841970E-15 -0.35527136788E-14  0.00000000000E+00  0.91188000000E+02  0.91188000000E+02 0.  0.
    9900012    2    3    3    0    0  0.46947779205E+01  0.26045374525E+02 -0.34397971152E+02  0.47787275429E+02  0.20000019993E+02 0.  0.
         12    1    3    3    0    0 -0.46947779205E+01 -0.26045374525E+02  0.34397971152E+02  0.43400724571E+02  0.00000000000E+00 0. -1.
         11    1    4    4    0    0  0.74799105502E+01  0.77060193928E+01 -0.11452247235E+02  0.15699865086E+02  0.51100000000E-03 0. -1.
        -11    1    4    4    0    0 -0.32946167496E+01  0.12593584587E+02 -0.22873968549E+02  0.26318649466E+02  0.51100000000E-03 0.  1.
        -12    1    4    4    0    0  0.50948411993E+00  0.57457705450E+01 -0.71755367688E-01  0.57687608771E+01  0.00000000000E+00 0.  1.
</event>
<event>
 8    1  0.8600524E-011  0.9118800E+02  0.7816164E-02  0.1184000E+00
        -11   -1    0    0    0    0  0.00000000000E+00  0.00000000000E+00  0.45593999997E+02  0.45594000000E+02  0.51100000000E-03 0. -1.
         11   -1    0    0    0    0 -0.00000000000E+00 -0.00000000000E+00 -0.45593999997E+02  0.45594000000E+02  0.51100000000E-03 0.  1.
         23    2    1    2    0    0  0.44408920985E-15 -0.17763568394E-14  0.00000000000E+00  0.91188000000E+02  0.91188000000E+02 0.  0.
    9900012    2    3    3    0    0  0.24201614760E+01 -0.13215702926E+02 -0.41268768564E+02  0.47787271387E+02  0.20000001561E+02 0.  0.
         12    1    3    3    0    0 -0.24201614760E+01  0.13215702926E+02  0.41268768564E+02  0.43400728613E+02  0.00000000000E+00 0. -1.
         11    1    4    4    0    0 -0.19592732202E+01 -0.74289862964E+00 -0.59246855147E+01  0.62843097182E+01  0.51100000000E-03 0. -1.
        -11    1    4    4    0    0 -0.24822034788E+01  0.15590549320E+01 -0.17688745358E+02  0.17929966508E+02  0.51100000000E-03 0.  1.
        -12    1    4    4    0    0  0.68616381750E+01 -0.14031859228E+02 -0.17655337691E+02  0.23572995160E+02  0.00000000000E+00 0.  1.
</event>
<event>
 8    1  0.8600524E-011  0.9118800E+02  0.7816164E-02  0.1184000E+00
        -11   -1    0    0    0    0  0.00000000000E+00  0.00000000000E+00  0.45593999997E+02  0.45594000000E+02  0.51100000000E-03 0.  1.
         11   -1    0    0    0    0 -0.00000000000E+00 -0.00000000000E+00 -0.45593999997E+02  0.45594000000E+02  0.51100000000E-03 0. -1.
         23    2    1    2    0    0  0.00000000000E+00  0.00000000000E+00 -0.17763568394E-14  0.91188000000E+02  0.91188000000E+02 0.  0.
    9900012    2    3    3    0    0 -0.33172802011E+02 -0.25928373068E+02 -0.10531283488E+02  0.47787271261E+02  0.20000000985E+02 0.  0.
        -12    1    3    3    0    0  0.33172802011E+02  0.25928373068E+02  0.10531283488E+02  0.43400728739E+02  0.00000000000E+00 0.  1.
         11    1    4    4    0    0 -0.38599879189E+01 -0.89183279883E+01 -0.64984817563E+01  0.11690438240E+02  0.51100000000E-03 0. -1.
        -11    1    4    4    0    0 -0.15055277634E+02 -0.92837252331E+01  0.37947992411E+01  0.18090037048E+02  0.51100000000E-03 0.  1.
         12    1    4    4    0    0 -0.14257536458E+02 -0.77263198467E+01 -0.78276009733E+01  0.18006795973E+02  0.00000000000E+00 0. -1.
</event>
<event>
 8    1  0.8600524E-011  0.9118800E+02  0.7816164E-02  0.1184000E+00
        -11   -1    0    0    0    0  0.00000000000E+00  0.00000000000E+00  0.45593999997E+02  0.45594000000E+02  0.51100000000E-03 0. -1.
         11   -1    0    0    0    0 -0.00000000000E+00 -0.00000000000E+00 -0.45593999997E+02  0.45594000000E+02  0.51100000000E-03 0.  1.
         23    2    1    2    0    0 -0.88817841970E-15  0.00000000000E+00  0.00000000000E+00  0.91188000000E+02  0.91188000000E+02 0.  0.
    9900012    2    3    3    0    0 -0.52143788742E+01 -0.15922175882E+02 -0.40036459754E+02  0.47787267961E+02  0.19999985942E+02 0.  0.
         12    1    3    3    0    0  0.52143788742E+01  0.15922175882E+02  0.40036459754E+02  0.43400732039E+02  0.00000000000E+00 0. -1.
         11    1    4    4    0    0 -0.33067244902E+01  0.23889932456E+01 -0.66100968401E+01  0.77675669342E+01  0.51100000000E-03 0. -1.
        -11    1    4    4    0    0  0.21217207701E+00 -0.19437987308E+02 -0.31108329858E+02  0.36682537458E+02  0.51100000000E-03 0.  1.
        -12    1    4    4    0    0 -0.21198264611E+01  0.11268181797E+01 -0.23180330564E+01  0.33371635689E+01  0.00000000000E+00 0.  1.
</event>
<event>
 8    1  0.8600524E-011  0.9118800E+02  0.7816164E-02  0.1184000E+00
        -11   -1    0    0    0    0  0.00000000000E+00  0.00000000000E+00  0.45593999997E+02  0.45594000000E+02  0.51100000000E-03 0. -1.
         11   -1    0    0    0    0 -0.00000000000E+00 -0.00000000000E+00 -0.45593999997E+02  0.45594000000E+02  0.51100000000E-03 0.  1.
         23    2    1    2    0    0 -0.35527136788E-14  0.00000000000E+00  0.00000000000E+00  0.91188000000E+02  0.91188000000E+02 0.  0.
    9900012    2    3    3    0    0  0.22750453316E+02  0.94420224868E+01  0.35733570735E+02  0.47787274290E+02  0.20000014798E+02 0.  0.
        -12    1    3    3    0    0 -0.22750453316E+02 -0.94420224868E+01 -0.35733570735E+02  0.43400725710E+02  0.00000000000E+00 0.  1.
         11    1    4    4    0    0  0.63044641778E+01  0.96084639256E+01  0.18833116857E+02  0.22062527923E+02  0.51100000000E-03 0. -1.
        -11    1    4    4    0    0  0.12153896173E+02 -0.41970317176E+01  0.14462883997E+02  0.19352190605E+02  0.51100000000E-03 0.  1.
         12    1    4    4    0    0  0.42920929650E+01  0.40305902788E+01  0.24375698809E+01  0.63725557620E+01  0.00000000000E+00 0. -1.
</event>
<event>
 8    1  0.8600524E-011  0.9118800E+02  0.7816164E-02  0.1184000E+00
        -11   -1    0    0    0    0  0.00000000000E+00  0.00000000000E+00  0.45593999997E+02  0.45594000000E+02  0.51100000000E-03 0. -1.
         11   -1    0    0    0    0 -0.00000000000E+00 -0.00000000000E+00 -0.45593999997E+02  0.45594000000E+02  0.51100000000E-03 0.  1.
         23    2    1    2    0    0  0.00000000000E+00  0.00000000000E+00  0.00000000000E+00  0.91188000000E+02  0.91188000000E+02 0.  0.
    9900012    2    3    3    0    0  0.35081974596E+02  0.64990015075E+01 -0.24711159680E+02  0.47787269881E+02  0.19999994697E+02 0.  0.
         12    1    3    3    0    0 -0.35081974596E+02 -0.64990015075E+01  0.24711159680E+02  0.43400730119E+02  0.00000000000E+00 0. -1.
         11    1    4    4    0    0  0.67725635087E+01  0.28033139134E+01 -0.70117232655E+01  0.10143492928E+02  0.51100000000E-03 0. -1.
        -11    1    4    4    0    0  0.14484663531E+02  0.90495869901E+01 -0.14664517437E+02  0.22511076701E+02  0.51100000000E-03 0.  1.
        -12    1    4    4    0    0  0.13824747556E+02 -0.53538993961E+01 -0.30349189769E+01  0.15132700252E+02  0.00000000000E+00 0.  1.
</event>
<event>
 8    1  0.8600524E-011  0.9118800E+02  0.7816164E-02  0.1184000E+00
        -11   -1    0    0    0    0  0.00000000000E+00  0.00000000000E+00  0.45593999997E+02  0.45594000000E+02  0.51100000000E-03 0. -1.
         11   -1    0    0    0    0 -0.00000000000E+00 -0.00000000000E+00 -0.45593999997E+02  0.45594000000E+02  0.51100000000E-03 0.  1.
         23    2    1    2    0    0  0.00000000000E+00  0.35527136788E-14  0.00000000000E+00  0.91188000000E+02  0.91188000000E+02 0.  0.
    9900012    2    3    3    0    0 -0.96353509085E+01  0.24386724211E+02 -0.34584259401E+02  0.47787270706E+02  0.19999998458E+02 0.  0.
         12    1    3    3    0    0  0.96353509085E+01 -0.24386724211E+02  0.34584259401E+02  0.43400729294E+02  0.00000000000E+00 0. -1.
         11    1    4    4    0    0 -0.12146439090E-01 -0.28941357418E+01 -0.16531970497E+01  0.33330511509E+01  0.51100000000E-03 0. -1.
        -11    1    4    4    0    0 -0.37866202932E+01  0.19560065820E+02 -0.19316836491E+02  0.27750222349E+02  0.51100000000E-03 0.  1.
         12    1    4    4    0    0 -0.58365841762E+01  0.77207941330E+01 -0.13614225861E+02  0.16703997207E+02  0.00000000000E+00 0. -1.
</event>
<event>
 8    1  0.8600524E-011  0.9118800E+02  0.7816164E-02  0.1184000E+00
        -11   -1    0    0    0    0  0.00000000000E+00  0.00000000000E+00  0.45593999997E+02  0.45594000000E+02  0.51100000000E-03 0. -1.
         11   -1    0    0    0    0 -0.00000000000E+00 -0.00000000000E+00 -0.45593999997E+02  0.45594000000E+02  0.51100000000E-03 0.  1.
         23    2    1    2    0    0  0.00000000000E+00 -0.17763568394E-14  0.00000000000E+00  0.91188000000E+02  0.91188000000E+02 0.  0.
    9900012    2    3    3    0    0  0.15208423203E+02 -0.73269190532E+01  0.39983038257E+02  0.47787271580E+02  0.20000002442E+02 0.  0.
        -12    1    3    3    0    0 -0.15208423203E+02  0.73269190532E+01 -0.39983038257E+02  0.43400728420E+02  0.00000000000E+00 0.  1.
         11    1    4    4    0    0  0.40197135536E+01 -0.95053422802E+01  0.16158317570E+02  0.19172919858E+02  0.51100000000E-03 0. -1.
        -11    1    4    4    0    0  0.88800478744E+01  0.64493550692E+01  0.15874392208E+02  0.19298853833E+02  0.51100000000E-03 0.  1.
        -12    1    4    4    0    0  0.23086617749E+01 -0.42709318422E+01  0.79503284791E+01  0.93154978889E+01  0.00000000000E+00 0.  1.
</event>
<event>
 8    1  0.8600524E-011  0.9118800E+02  0.7816164E-02  0.1184000E+00
        -11   -1    0    0    0    0  0.00000000000E+00  0.00000000000E+00  0.45593999997E+02  0.45594000000E+02  0.51100000000E-03 0. -1.
         11   -1    0    0    0    0 -0.00000000000E+00 -0.00000000000E+00 -0.45593999997E+02  0.45594000000E+02  0.51100000000E-03 0.  1.
         23    2    1    2    0    0  0.00000000000E+00  0.35527136788E-14 -0.35527136788E-14  0.91188000000E+02  0.91188000000E+02 0.  0.
    9900012    2    3    3    0    0 -0.14384504109E+02  0.31701497726E+02 -0.25917631155E+02  0.47787279715E+02  0.20000039535E+02 0.  0.
         12    1    3    3    0    0  0.14384504109E+02 -0.31701497726E+02  0.25917631155E+02  0.43400720285E+02  0.00000000000E+00 0. -1.
         11    1    4    4    0    0 -0.13970369405E+02  0.26354004643E+02 -0.14281991366E+02  0.33070833973E+02  0.51100000000E-03 0. -1.
        -11    1    4    4    0    0 -0.29369468302E+01  0.21592236875E+01 -0.93879603714E+01  0.10070834316E+02  0.51100000000E-03 0.  1.
         12    1    4    4    0    0  0.25228121263E+01  0.31882693954E+01 -0.22476794173E+01  0.46456114264E+01  0.00000000000E+00 0. -1.
</event>
<event>
 8    1  0.8600524E-011  0.9118800E+02  0.7816164E-02  0.1184000E+00
        -11   -1    0    0    0    0  0.00000000000E+00  0.00000000000E+00  0.45593999997E+02  0.45594000000E+02  0.51100000000E-03 0. -1.
         11   -1    0    0    0    0 -0.00000000000E+00 -0.00000000000E+00 -0.45593999997E+02  0.45594000000E+02  0.51100000000E-03 0.  1.
         23    2    1    2    0    0  0.35527136788E-14  0.88817841970E-15  0.35527136788E-14  0.91188000000E+02  0.91188000000E+02 0.  0.
    9900012    2    3    3    0    0  0.29950916791E+02  0.76602281420E+01  0.30461232842E+02  0.47787271688E+02  0.20000002932E+02 0.  0.
        -12    1    3    3    0    0 -0.29950916791E+02 -0.76602281420E+01 -0.30461232842E+02  0.43400728312E+02  0.00000000000E+00 0.  1.
         11    1    4    4    0    0  0.20158277166E+02  0.36268308968E+01  0.76210244334E+01  0.21853833859E+02  0.51100000000E-03 0. -1.
        -11    1    4    4    0    0  0.10095904253E+02  0.21892778235E+01  0.18140576396E+02  0.20875840877E+02  0.51100000000E-03 0.  1.
         12    1    4    4    0    0 -0.30326462790E+00  0.18441194218E+01  0.46996320119E+01  0.50575969514E+01  0.00000000000E+00 0. -1.
</event>
<event>
 8    1  0.8600524E-011  0.9118800E+02  0.7816164E-02  0.1184000E+00
        -11   -1    0    0    0    0  0.00000000000E+00  0.00000000000E+00  0.45593999997E+02  0.45594000000E+02  0.51100000000E-03 0. -1.
         11   -1    0    0    0    0 -0.00000000000E+00 -0.00000000000E+00 -0.45593999997E+02  0.45594000000E+02  0.51100000000E-03 0.  1.
         23    2    1    2    0    0  0.00000000000E+00  0.00000000000E+00  0.00000000000E+00  0.91188000000E+02  0.91188000000E+02 0.  0.
    9900012    2    3    3    0    0  0.23787862563E+02 -0.32498335666E+02  0.16174571961E+02  0.47787297189E+02  0.20000119202E+02 0.  0.
        -12    1    3    3    0    0 -0.23787862563E+02  0.32498335666E+02 -0.16174571961E+02  0.43400702811E+02  0.00000000000E+00 0.  1.
         11    1    4    4    0    0  0.11142157096E+02 -0.32220724880E+01 -0.56948930141E+00  0.11612654055E+02  0.51100000000E-03 0.  1.
        -11    1    4    4    0    0  0.11262692897E+02 -0.23513340719E+02  0.14537117785E+02  0.29850514850E+02  0.51100000000E-03 0. -1.
        -12    1    4    4    0    0  0.13830125703E+01 -0.57629224591E+01  0.22069434773E+01  0.63241282839E+01  0.00000000000E+00 0.  1.
</event>
<event>
 8    1  0.8600524E-011  0.9118800E+02  0.7816164E-02  0.1184000E+00
        -11   -1    0    0    0    0  0.00000000000E+00  0.00000000000E+00  0.45593999997E+02  0.45594000000E+02  0.51100000000E-03 0.  1.
         11   -1    0    0    0    0 -0.00000000000E+00 -0.00000000000E+00 -0.45593999997E+02  0.45594000000E+02  0.51100000000E-03 0. -1.
         23    2    1    2    0    0 -0.71054273576E-14  0.00000000000E+00 -0.17763568394E-14  0.91188000000E+02  0.91188000000E+02 0.  0.
    9900012    2    3    3    0    0  0.22926229534E+02  0.33434094997E+02  0.15497481734E+02  0.47787278243E+02  0.20000032820E+02 0.  0.
        -12    1    3    3    0    0 -0.22926229534E+02 -0.33434094997E+02 -0.15497481734E+02  0.43400721757E+02  0.00000000000E+00 0.  1.
         11    1    4    4    0    0 -0.13736829612E+01  0.83119117496E+01  0.29294117286E+01  0.89194358089E+01  0.51100000000E-03 0. -1.
        -11    1    4    4    0    0  0.20144483916E+02  0.14959204860E+02  0.12154706913E+02  0.27880368410E+02  0.51100000000E-03 0.  1.
         12    1    4    4    0    0  0.41554285798E+01  0.10162978387E+02  0.41336309318E+00  0.10987474024E+02  0.00000000000E+00 0. -1.
</event>
<event>
 8    1  0.8600524E-011  0.9118800E+02  0.7816164E-02  0.1184000E+00
        -11   -1    0    0    0    0  0.00000000000E+00  0.00000000000E+00  0.45593999997E+02  0.45594000000E+02  0.51100000000E-03 0. -1.
         11   -1    0    0    0    0 -0.00000000000E+00 -0.00000000000E+00 -0.45593999997E+02  0.45594000000E+02  0.51100000000E-03 0.  1.
         23    2    1    2    0    0  0.71054273576E-14  0.88817841970E-15 -0.88817841970E-15  0.91188000000E+02  0.91188000000E+02 0.  0.
    9900012    2    3    3    0    0  0.42448214311E+02  0.52778415917E+01 -0.73425112926E+01  0.47787320488E+02  0.20000225430E+02 0.  0.
         12    1    3    3    0    0 -0.42448214311E+02 -0.52778415917E+01  0.73425112926E+01  0.43400679512E+02  0.00000000000E+00 0. -1.
         11    1    4    4    0    0  0.13390018630E+01 -0.13201273280E+01 -0.86068500173E+00  0.20679557744E+01  0.51100000000E-03 0. -1.
        -11    1    4    4    0    0  0.40750149282E+02  0.21664923322E+01 -0.60222162365E+01  0.41249672050E+02  0.51100000000E-03 0.  1.
        -12    1    4    4    0    0  0.35906316559E+00  0.44314765875E+01 -0.45961005433E+00  0.44696926634E+01  0.00000000000E+00 0.  1.
</event>
<event>
 8    1  0.8600524E-011  0.9118800E+02  0.7816164E-02  0.1184000E+00
        -11   -1    0    0    0    0  0.00000000000E+00  0.00000000000E+00  0.45593999997E+02  0.45594000000E+02  0.51100000000E-03 0. -1.
         11   -1    0    0    0    0 -0.00000000000E+00 -0.00000000000E+00 -0.45593999997E+02  0.45594000000E+02  0.51100000000E-03 0.  1.
         23    2    1    2    0    0  0.00000000000E+00  0.00000000000E+00  0.00000000000E+00  0.91188000000E+02  0.91188000000E+02 0.  0.
    9900012    2    3    3    0    0  0.14051437587E+01  0.17497400096E+02 -0.39692442629E+02  0.47787269119E+02  0.19999991222E+02 0.  0.
         12    1    3    3    0    0 -0.14051437587E+01 -0.17497400096E+02  0.39692442629E+02  0.43400730881E+02  0.00000000000E+00 0. -1.
         11    1    4    4    0    0  0.14524329197E+01 -0.46953100745E+00  0.71439545690E+00  0.16853432538E+01  0.51100000000E-03 0. -1.
        -11    1    4    4    0    0  0.14395297848E+01  0.14432825179E+02 -0.39615102553E+02  0.42186906016E+02  0.51100000000E-03 0.  1.
        -12    1    4    4    0    0 -0.14868189458E+01  0.35341059250E+01 -0.79173553294E+00  0.39150198494E+01  0.00000000000E+00 0.  1.
</event>
<event>
 8    1  0.8600524E-011  0.9118800E+02  0.7816164E-02  0.1184000E+00
        -11   -1    0    0    0    0  0.00000000000E+00  0.00000000000E+00  0.45593999997E+02  0.45594000000E+02  0.51100000000E-03 0. -1.
         11   -1    0    0    0    0 -0.00000000000E+00 -0.00000000000E+00 -0.45593999997E+02  0.45594000000E+02  0.51100000000E-03 0.  1.
         23    2    1    2    0    0 -0.71054273576E-14  0.00000000000E+00  0.00000000000E+00  0.91188000000E+02  0.91188000000E+02 0.  0.
    9900012    2    3    3    0    0 -0.36844948756E+02 -0.16475743887E+02  0.15956895139E+02  0.47787275490E+02  0.20000020270E+02 0.  0.
        -12    1    3    3    0    0  0.36844948756E+02  0.16475743887E+02 -0.15956895139E+02  0.43400724510E+02  0.00000000000E+00 0.  1.
         11    1    4    4    0    0 -0.13672381586E+02 -0.93405934208E+01  0.12418597444E+02  0.20697880723E+02  0.51100000000E-03 0. -1.
        -11    1    4    4    0    0 -0.38469476610E+01 -0.37189207253E+01 -0.33238891010E+01  0.62990171205E+01  0.51100000000E-03 0.  1.
        -12    1    4    4    0    0 -0.19325619510E+02 -0.34162297414E+01  0.68621867957E+01  0.20790377647E+02  0.00000000000E+00 0.  1.
</event>
<event>
 8    1  0.8600524E-011  0.9118800E+02  0.7816164E-02  0.1184000E+00
        -11   -1    0    0    0    0  0.00000000000E+00  0.00000000000E+00  0.45593999997E+02  0.45594000000E+02  0.51100000000E-03 0. -1.
         11   -1    0    0    0    0 -0.00000000000E+00 -0.00000000000E+00 -0.45593999997E+02  0.45594000000E+02  0.51100000000E-03 0.  1.
         23    2    1    2    0    0  0.17763568394E-14  0.00000000000E+00  0.00000000000E+00  0.91188000000E+02  0.91188000000E+02 0.  0.
    9900012    2    3    3    0    0  0.93251182605E+01 -0.30461022536E+02  0.29475269301E+02  0.47787271609E+02  0.20000002574E+02 0.  0.
        -12    1    3    3    0    0 -0.93251182605E+01  0.30461022536E+02 -0.29475269301E+02  0.43400728391E+02  0.00000000000E+00 0.  1.
         11    1    4    4    0    0  0.51637454149E+01 -0.23629551789E+02  0.25405160148E+02  0.35077658800E+02  0.51100000000E-03 0. -1.
        -11    1    4    4    0    0  0.23723844586E+01 -0.39627703867E+01 -0.25502710295E+01  0.52759491792E+01  0.51100000000E-03 0.  1.
         12    1    4    4    0    0  0.17889883870E+01 -0.28687003604E+01  0.66203801821E+01  0.74336636298E+01  0.00000000000E+00 0. -1.
</event>
<event>
 8    1  0.8600524E-011  0.9118800E+02  0.7816164E-02  0.1184000E+00
        -11   -1    0    0    0    0  0.00000000000E+00  0.00000000000E+00  0.45593999997E+02  0.45594000000E+02  0.51100000000E-03 0. -1.
         11   -1    0    0    0    0 -0.00000000000E+00 -0.00000000000E+00 -0.45593999997E+02  0.45594000000E+02  0.51100000000E-03 0.  1.
         23    2    1    2    0    0  0.00000000000E+00  0.00000000000E+00  0.00000000000E+00  0.91188000000E+02  0.91188000000E+02 0.  0.
    9900012    2    3    3    0    0  0.10531133352E+02  0.38455906611E+02 -0.17142395132E+02  0.47787271505E+02  0.20000002102E+02 0.  0.
         12    1    3    3    0    0 -0.10531133352E+02 -0.38455906611E+02  0.17142395132E+02  0.43400728495E+02  0.00000000000E+00 0. -1.
         11    1    4    4    0    0 -0.29720801997E+01  0.17940347512E+00 -0.21288154908E+01  0.36602325029E+01  0.51100000000E-03 0. -1.
        -11    1    4    4    0    0  0.97826144850E+01  0.35058907496E+02 -0.11849794528E+02  0.38278507959E+02  0.51100000000E-03 0.  1.
        -12    1    4    4    0    0  0.37205990668E+01  0.32175956406E+01 -0.31637851136E+01  0.58485310436E+01  0.00000000000E+00 0.  1.
</event>
<event>
 8    1  0.8600524E-011  0.9118800E+02  0.7816164E-02  0.1184000E+00
        -11   -1    0    0    0    0  0.00000000000E+00  0.00000000000E+00  0.45593999997E+02  0.45594000000E+02  0.51100000000E-03 0. -1.
         11   -1    0    0    0    0 -0.00000000000E+00 -0.00000000000E+00 -0.45593999997E+02  0.45594000000E+02  0.51100000000E-03 0.  1.
         23    2    1    2    0    0 -0.35527136788E-14  0.00000000000E+00  0.00000000000E+00  0.91188000000E+02  0.91188000000E+02 0.  0.
    9900012    2    3    3    0    0  0.22462216493E+02  0.36908377838E+02  0.41041078916E+01  0.47787271596E+02  0.20000002514E+02 0.  0.
        -12    1    3    3    0    0 -0.22462216493E+02 -0.36908377838E+02 -0.41041078916E+01  0.43400728404E+02  0.00000000000E+00 0.  1.
         11    1    4    4    0    0  0.12398075580E+01  0.63339809656E+01 -0.52863329310E-01  0.64543963657E+01  0.51100000000E-03 0. -1.
        -11    1    4    4    0    0 -0.42577091096E+00  0.27036613325E+01 -0.42497634785E+01  0.50548546323E+01  0.51100000000E-03 0.  1.
        -12    1    4    4    0    0  0.21648179846E+02  0.27870735540E+02  0.84067346993E+01  0.36278020598E+02  0.00000000000E+00 0.  1.
</event>
<event>
 8    1  0.8600524E-011  0.9118800E+02  0.7816164E-02  0.1184000E+00
        -11   -1    0    0    0    0  0.00000000000E+00  0.00000000000E+00  0.45593999997E+02  0.45594000000E+02  0.51100000000E-03 0.  1.
         11   -1    0    0    0    0 -0.00000000000E+00 -0.00000000000E+00 -0.45593999997E+02  0.45594000000E+02  0.51100000000E-03 0. -1.
         23    2    1    2    0    0  0.44408920985E-15  0.00000000000E+00  0.00000000000E+00  0.91188000000E+02  0.91188000000E+02 0.  0.
    9900012    2    3    3    0    0 -0.28764358203E+01 -0.42450983905E+02 -0.85593948223E+01  0.47787272388E+02  0.20000006127E+02 0.  0.
         12    1    3    3    0    0  0.28764358203E+01  0.42450983905E+02  0.85593948223E+01  0.43400727612E+02  0.00000000000E+00 0. -1.
         11    1    4    4    0    0  0.62136943940E+01 -0.99570343757E+01 -0.39570801129E+01  0.12385920025E+02  0.51100000000E-03 0. -1.
        -11    1    4    4    0    0 -0.79268220645E+01 -0.20358486445E+02 -0.70705465113E+01  0.22962907190E+02  0.51100000000E-03 0.  1.
         12    1    4    4    0    0 -0.11633081497E+01 -0.12135463084E+02  0.24682318019E+01  0.12438445173E+02  0.00000000000E+00 0. -1.
</event>
<event>
 8    1  0.8600524E-011  0.9118800E+02  0.7816164E-02  0.1184000E+00
        -11   -1    0    0    0    0  0.00000000000E+00  0.00000000000E+00  0.45593999997E+02  0.45594000000E+02  0.51100000000E-03 0. -1.
         11   -1    0    0    0    0 -0.00000000000E+00 -0.00000000000E+00 -0.45593999997E+02  0.45594000000E+02  0.51100000000E-03 0.  1.
         23    2    1    2    0    0 -0.35527136788E-14 -0.44408920985E-15  0.00000000000E+00  0.91188000000E+02  0.91188000000E+02 0.  0.
    9900012    2    3    3    0    0  0.29456695537E+02  0.29527520342E+01 -0.31736575518E+02  0.47787240996E+02  0.19999862996E+02 0.  0.
         12    1    3    3    0    0 -0.29456695537E+02 -0.29527520342E+01  0.31736575518E+02  0.43400759004E+02  0.00000000000E+00 0. -1.
         11    1    4    4    0    0  0.43219582478E+01  0.52842924703E+01 -0.88563568941E-01  0.68272185972E+01  0.51100000000E-03 0. -1.
        -11    1    4    4    0    0  0.86756951452E+01  0.52397525283E+00 -0.15242881339E+02  0.17546728131E+02  0.51100000000E-03 0.  1.
         12    1    4    4    0    0  0.16459042144E+02 -0.28555156889E+01 -0.16405130610E+02  0.23413294268E+02  0.00000000000E+00 0. -1.
</event>
<event>
 8    1  0.8600524E-011  0.9118800E+02  0.7816164E-02  0.1184000E+00
        -11   -1    0    0    0    0  0.00000000000E+00  0.00000000000E+00  0.45593999997E+02  0.45594000000E+02  0.51100000000E-03 0. -1.
         11   -1    0    0    0    0 -0.00000000000E+00 -0.00000000000E+00 -0.45593999997E+02  0.45594000000E+02  0.51100000000E-03 0.  1.
         23    2    1    2    0    0  0.00000000000E+00  0.00000000000E+00  0.00000000000E+00  0.91188000000E+02  0.91188000000E+02 0.  0.
    9900012    2    3    3    0    0 -0.68064018298E+01  0.38157832551E+02 -0.19526302218E+02  0.47787265338E+02  0.19999973982E+02 0.  0.
         12    1    3    3    0    0  0.68064018298E+01 -0.38157832551E+02  0.19526302218E+02  0.43400734662E+02  0.00000000000E+00 0. -1.
         11    1    4    4    0    0 -0.14777691289E+01  0.44041685820E+01 -0.10308043894E+02  0.11306470345E+02  0.51100000000E-03 0. -1.
        -11    1    4    4    0    0 -0.74118607538E+01  0.30470894758E+02 -0.75847372042E+01  0.32263591646E+02  0.51100000000E-03 0.  1.
        -12    1    4    4    0    0  0.20832280529E+01  0.32827692116E+01 -0.16335211201E+01  0.42172033467E+01  0.00000000000E+00 0.  1.
</event>
<event>
 8    1  0.8600524E-011  0.9118800E+02  0.7816164E-02  0.1184000E+00
        -11   -1    0    0    0    0  0.00000000000E+00  0.00000000000E+00  0.45593999997E+02  0.45594000000E+02  0.51100000000E-03 0. -1.
         11   -1    0    0    0    0 -0.00000000000E+00 -0.00000000000E+00 -0.45593999997E+02  0.45594000000E+02  0.51100000000E-03 0.  1.
         23    2    1    2    0    0  0.00000000000E+00 -0.88817841970E-15  0.35527136788E-14  0.91188000000E+02  0.91188000000E+02 0.  0.
    9900012    2    3    3    0    0  0.40332081380E+02 -0.63112916611E+01 -0.14734795771E+02  0.47787269623E+02  0.19999993520E+02 0.  0.
         12    1    3    3    0    0 -0.40332081380E+02  0.63112916611E+01  0.14734795771E+02  0.43400730377E+02  0.00000000000E+00 0. -1.
         11    1    4    4    0    0  0.13050425886E+02 -0.75075971843E+01  0.27063296648E+00  0.15058249359E+02  0.51100000000E-03 0.  1.
        -11    1    4    4    0    0  0.24083334668E+02  0.84392281436E+00 -0.16475120997E+02  0.29191588284E+02  0.51100000000E-03 0. -1.
         12    1    4    4    0    0  0.31983208253E+01  0.35238270883E+00  0.14696922595E+01  0.35374319799E+01  0.00000000000E+00 0. -1.
</event>
<event>
 8    1  0.8600524E-011  0.9118800E+02  0.7816164E-02  0.1184000E+00
        -11   -1    0    0    0    0  0.00000000000E+00  0.00000000000E+00  0.45593999997E+02  0.45594000000E+02  0.51100000000E-03 0. -1.
         11   -1    0    0    0    0 -0.00000000000E+00 -0.00000000000E+00 -0.45593999997E+02  0.45594000000E+02  0.51100000000E-03 0.  1.
         23    2    1    2    0    0  0.00000000000E+00 -0.35527136788E-14 -0.26645352591E-14  0.91188000000E+02  0.91188000000E+02 0.  0.
    9900012    2    3    3    0    0 -0.33251111685E+02  0.26727043749E+02  0.79782236829E+01  0.47787270179E+02  0.19999996053E+02 0.  0.
        -12    1    3    3    0    0  0.33251111685E+02 -0.26727043749E+02 -0.79782236829E+01  0.43400729821E+02  0.00000000000E+00 0.  1.
         11    1    4    4    0    0 -0.94696105830E+01  0.12981140925E+02 -0.42433118779E+01  0.16618942212E+02  0.51100000000E-03 0. -1.
        -11    1    4    4    0    0 -0.72231027028E-01 -0.56613680125E+00 -0.43652264106E+00  0.71852660095E+00  0.51100000000E-03 0.  1.
         12    1    4    4    0    0 -0.23709270075E+02  0.14312039626E+02  0.12658058202E+02  0.30449801365E+02  0.00000000000E+00 0. -1.
</event>
<event>
 8    1  0.8600524E-011  0.9118800E+02  0.7816164E-02  0.1184000E+00
        -11   -1    0    0    0    0  0.00000000000E+00  0.00000000000E+00  0.45593999997E+02  0.45594000000E+02  0.51100000000E-03 0. -1.
         11   -1    0    0    0    0 -0.00000000000E+00 -0.00000000000E+00 -0.45593999997E+02  0.45594000000E+02  0.51100000000E-03 0.  1.
         23    2    1    2    0    0 -0.44408920985E-15  0.00000000000E+00  0.00000000000E+00  0.91188000000E+02  0.91188000000E+02 0.  0.
    9900012    2    3    3    0    0 -0.24310542760E+01  0.30734883574E+02 -0.30546344571E+02  0.47787282726E+02  0.20000053263E+02 0.  0.
         12    1    3    3    0    0  0.24310542760E+01 -0.30734883574E+02  0.30546344571E+02  0.43400717274E+02  0.00000000000E+00 0. -1.
         11    1    4    4    0    0  0.38230900176E+01  0.33807642834E+00 -0.65580768186E+01  0.75985975531E+01  0.51100000000E-03 0. -1.
        -11    1    4    4    0    0 -0.42208834440E+01  0.21011702579E+02 -0.21301882527E+02  0.30217175609E+02  0.51100000000E-03 0.  1.
        -12    1    4    4    0    0 -0.20332608496E+01  0.93851045668E+01 -0.26863852250E+01  0.99715095643E+01  0.00000000000E+00 0.  1.
</event>
<event>
 8    1  0.8600524E-011  0.9118800E+02  0.7816164E-02  0.1184000E+00
        -11   -1    0    0    0    0  0.00000000000E+00  0.00000000000E+00  0.45593999997E+02  0.45594000000E+02  0.51100000000E-03 0. -1.
         11   -1    0    0    0    0 -0.00000000000E+00 -0.00000000000E+00 -0.45593999997E+02  0.45594000000E+02  0.51100000000E-03 0.  1.
         23    2    1    2    0    0  0.35527136788E-14  0.00000000000E+00  0.00000000000E+00  0.91188000000E+02  0.91188000000E+02 0.  0.
    9900012    2    3    3    0    0  0.16537992980E+02  0.28642122541E+02  0.28102437682E+02  0.47787269601E+02  0.19999993420E+02 0.  0.
        -12    1    3    3    0    0 -0.16537992980E+02 -0.28642122541E+02 -0.28102437682E+02  0.43400730399E+02  0.00000000000E+00 0.  1.
         11    1    4    4    0    0  0.71886649929E+01  0.20140742624E+01  0.11199667182E+02  0.13459789923E+02  0.51100000000E-03 0. -1.
        -11    1    4    4    0    0  0.10128129859E+02  0.23121852421E+02  0.17460024745E+02  0.30692858097E+02  0.51100000000E-03 0.  1.
        -12    1    4    4    0    0 -0.77880187144E+00  0.35061958577E+01 -0.55725424466E+00  0.36346215815E+01  0.00000000000E+00 0.  1.
</event>
<event>
 8    1  0.8600524E-011  0.9118800E+02  0.7816164E-02  0.1184000E+00
        -11   -1    0    0    0    0  0.00000000000E+00  0.00000000000E+00  0.45593999997E+02  0.45594000000E+02  0.51100000000E-03 0. -1.
         11   -1    0    0    0    0 -0.00000000000E+00 -0.00000000000E+00 -0.45593999997E+02  0.45594000000E+02  0.51100000000E-03 0.  1.
         23    2    1    2    0    0  0.00000000000E+00 -0.17763568394E-14  0.00000000000E+00  0.91188000000E+02  0.91188000000E+02 0.  0.
    9900012    2    3    3    0    0  0.40981263655E+01 -0.11843189608E+02 -0.41551994651E+02  0.47787262227E+02  0.19999959798E+02 0.  0.
         12    1    3    3    0    0 -0.40981263655E+01  0.11843189608E+02  0.41551994651E+02  0.43400737773E+02  0.00000000000E+00 0. -1.
         11    1    4    4    0    0  0.31508306396E+01  0.12452687231E+01 -0.12060195976E+01  0.35962357324E+01  0.51100000000E-03 0. -1.
        -11    1    4    4    0    0  0.41276517462E+01 -0.45290439300E+01 -0.28933019717E+02  0.29574809857E+02  0.51100000000E-03 0.  1.
         12    1    4    4    0    0 -0.31803560203E+01 -0.85594144010E+01 -0.11412955335E+02  0.14616216637E+02  0.00000000000E+00 0. -1.
</event>
<event>
 8    1  0.8600524E-011  0.9118800E+02  0.7816164E-02  0.1184000E+00
        -11   -1    0    0    0    0  0.00000000000E+00  0.00000000000E+00  0.45593999997E+02  0.45594000000E+02  0.51100000000E-03 0. -1.
         11   -1    0    0    0    0 -0.00000000000E+00 -0.00000000000E+00 -0.45593999997E+02  0.45594000000E+02  0.51100000000E-03 0.  1.
         23    2    1    2    0    0  0.00000000000E+00  0.00000000000E+00  0.35527136788E-14  0.91188000000E+02  0.91188000000E+02 0.  0.
    9900012    2    3    3    0    0 -0.18189650696E+02  0.34235915248E+02 -0.19510499395E+02  0.47787298716E+02  0.20000126165E+02 0.  0.
         12    1    3    3    0    0  0.18189650696E+02 -0.34235915248E+02  0.19510499395E+02  0.43400701284E+02  0.00000000000E+00 0. -1.
         11    1    4    4    0    0 -0.29295695119E+01  0.14868364409E+02 -0.15694191339E+02  0.21816468086E+02  0.51100000000E-03 0. -1.
        -11    1    4    4    0    0 -0.76554308193E+00  0.41886702889E+01 -0.25090527329E+01  0.49423031956E+01  0.51100000000E-03 0.  1.
         12    1    4    4    0    0 -0.14494538102E+02  0.15178880551E+02 -0.13072553224E+01  0.21028527434E+02  0.00000000000E+00 0. -1.
</event>
<event>
 8    1  0.8600524E-011  0.9118800E+02  0.7816164E-02  0.1184000E+00
        -11   -1    0    0    0    0  0.00000000000E+00  0.00000000000E+00  0.45593999997E+02  0.45594000000E+02  0.51100000000E-03 0. -1.
         11   -1    0    0    0    0 -0.00000000000E+00 -0.00000000000E+00 -0.45593999997E+02  0.45594000000E+02  0.51100000000E-03 0.  1.
         23    2    1    2    0    0  0.00000000000E+00  0.00000000000E+00  0.00000000000E+00  0.91188000000E+02  0.91188000000E+02 0.  0.
    9900012    2    3    3    0    0  0.24047210584E+02 -0.13526089329E+02  0.33502239590E+02  0.47787268590E+02  0.19999988808E+02 0.  0.
        -12    1    3    3    0    0 -0.24047210584E+02  0.13526089329E+02 -0.33502239590E+02  0.43400731410E+02  0.00000000000E+00 0.  1.
         11    1    4    4    0    0  0.79230829508E+01  0.16552409081E+01  0.12984880956E+02  0.15301052239E+02  0.51100000000E-03 0. -1.
        -11    1    4    4    0    0  0.18022968904E+02 -0.13187990025E+02  0.19117376544E+02  0.29397696767E+02  0.51100000000E-03 0.  1.
        -12    1    4    4    0    0 -0.18988412705E+01 -0.19933402120E+01  0.13999820900E+01  0.30885195845E+01  0.00000000000E+00 0.  1.
</event>
<event>
 8    1  0.8600524E-011  0.9118800E+02  0.7816164E-02  0.1184000E+00
        -11   -1    0    0    0    0  0.00000000000E+00  0.00000000000E+00  0.45593999997E+02  0.45594000000E+02  0.51100000000E-03 0. -1.
         11   -1    0    0    0    0 -0.00000000000E+00 -0.00000000000E+00 -0.45593999997E+02  0.45594000000E+02  0.51100000000E-03 0.  1.
         23    2    1    2    0    0 -0.88817841970E-15  0.88817841970E-15  0.71054273576E-14  0.91188000000E+02  0.91188000000E+02 0.  0.
    9900012    2    3    3    0    0  0.78894281324E+01 -0.72649779605E+01 -0.42054726825E+02  0.47787273862E+02  0.20000012844E+02 0.  0.
         12    1    3    3    0    0 -0.78894281324E+01  0.72649779605E+01  0.42054726825E+02  0.43400726138E+02  0.00000000000E+00 0. -1.
         11    1    4    4    0    0  0.63341274834E+01 -0.11619695662E+01 -0.68181996796E+01  0.93786561606E+01  0.51100000000E-03 0. -1.
        -11    1    4    4    0    0 -0.56565641161E+01 -0.35801358529E+01 -0.23246055934E+02  0.24190766980E+02  0.51100000000E-03 0.  1.
         12    1    4    4    0    0  0.72118647652E+01 -0.25228725413E+01 -0.11990471211E+02  0.14217850721E+02  0.00000000000E+00 0. -1.
</event>
<event>
 8    1  0.8600524E-011  0.9118800E+02  0.7816164E-02  0.1184000E+00
        -11   -1    0    0    0    0  0.00000000000E+00  0.00000000000E+00  0.45593999997E+02  0.45594000000E+02  0.51100000000E-03 0. -1.
         11   -1    0    0    0    0 -0.00000000000E+00 -0.00000000000E+00 -0.45593999997E+02  0.45594000000E+02  0.51100000000E-03 0.  1.
         23    2    1    2    0    0  0.00000000000E+00  0.00000000000E+00 -0.35527136788E-14  0.91188000000E+02  0.91188000000E+02 0.  0.
    9900012    2    3    3    0    0 -0.29053663676E+02 -0.58416813964E+01  0.31707760125E+02  0.47787278040E+02  0.20000031896E+02 0.  0.
        -12    1    3    3    0    0  0.29053663676E+02  0.58416813964E+01 -0.31707760125E+02  0.43400721960E+02  0.00000000000E+00 0.  1.
         11    1    4    4    0    0 -0.29658906908E+01 -0.60190105658E+01  0.36095747839E+01  0.76193192716E+01  0.51100000000E-03 0. -1.
        -11    1    4    4    0    0 -0.26815389788E+02  0.77230991452E+00  0.28505448184E+02  0.39143609549E+02  0.51100000000E-03 0.  1.
        -12    1    4    4    0    0  0.72761680328E+00 -0.59498074514E+00 -0.40726284349E+00  0.10243492194E+01  0.00000000000E+00 0.  1.
</event>
<event>
 8    1  0.8600524E-011  0.9118800E+02  0.7816164E-02  0.1184000E+00
        -11   -1    0    0    0    0  0.00000000000E+00  0.00000000000E+00  0.45593999997E+02  0.45594000000E+02  0.51100000000E-03 0. -1.
         11   -1    0    0    0    0 -0.00000000000E+00 -0.00000000000E+00 -0.45593999997E+02  0.45594000000E+02  0.51100000000E-03 0.  1.
         23    2    1    2    0    0  0.00000000000E+00  0.00000000000E+00  0.00000000000E+00  0.91188000000E+02  0.91188000000E+02 0.  0.
    9900012    2    3    3    0    0  0.90341649096E+01 -0.24435148573E+02 -0.34712110745E+02  0.47787271276E+02  0.20000001055E+02 0.  0.
         12    1    3    3    0    0 -0.90341649096E+01  0.24435148573E+02  0.34712110745E+02  0.43400728724E+02  0.00000000000E+00 0. -1.
         11    1    4    4    0    0  0.10594203848E+02 -0.14901926956E+02 -0.13042449932E+02  0.22459075730E+02  0.51100000000E-03 0. -1.
        -11    1    4    4    0    0  0.33966485114E+01 -0.54764811026E+01 -0.83416276574E+01  0.10540959094E+02  0.51100000000E-03 0.  1.
         12    1    4    4    0    0 -0.49566874503E+01 -0.40567405150E+01 -0.13328033156E+02  0.14787236452E+02  0.00000000000E+00 0. -1.
</event>
<event>
 8    1  0.8600524E-011  0.9118800E+02  0.7816164E-02  0.1184000E+00
        -11   -1    0    0    0    0  0.00000000000E+00  0.00000000000E+00  0.45593999997E+02  0.45594000000E+02  0.51100000000E-03 0. -1.
         11   -1    0    0    0    0 -0.00000000000E+00 -0.00000000000E+00 -0.45593999997E+02  0.45594000000E+02  0.51100000000E-03 0.  1.
         23    2    1    2    0    0  0.00000000000E+00  0.00000000000E+00 -0.35527136788E-14  0.91188000000E+02  0.91188000000E+02 0.  0.
    9900012    2    3    3    0    0  0.75197417778E+01  0.32021689803E+02 -0.28314099609E+02  0.47787269927E+02  0.19999994905E+02 0.  0.
         12    1    3    3    0    0 -0.75197417778E+01 -0.32021689803E+02  0.28314099609E+02  0.43400730073E+02  0.00000000000E+00 0. -1.
         11    1    4    4    0    0  0.34146781921E+01  0.20047226800E+02 -0.80622415032E+01  0.21875810107E+02  0.51100000000E-03 0. -1.
        -11    1    4    4    0    0  0.69538333130E+01  0.10947899329E+02 -0.17750118372E+02  0.21983607528E+02  0.51100000000E-03 0.  1.
         12    1    4    4    0    0 -0.28487697272E+01  0.10265636742E+01 -0.25017397334E+01  0.39278522923E+01  0.00000000000E+00 0. -1.
</event>
<event>
 8    1  0.8600524E-011  0.9118800E+02  0.7816164E-02  0.1184000E+00
        -11   -1    0    0    0    0  0.00000000000E+00  0.00000000000E+00  0.45593999997E+02  0.45594000000E+02  0.51100000000E-03 0. -1.
         11   -1    0    0    0    0 -0.00000000000E+00 -0.00000000000E+00 -0.45593999997E+02  0.45594000000E+02  0.51100000000E-03 0.  1.
         23    2    1    2    0    0  0.11102230246E-15 -0.71054273576E-14  0.35527136788E-14  0.91188000000E+02  0.91188000000E+02 0.  0.
    9900012    2    3    3    0    0  0.74387235149E+00  0.34573749068E+02 -0.26224515685E+02  0.47787277729E+02  0.20000030480E+02 0.  0.
         12    1    3    3    0    0 -0.74387235149E+00 -0.34573749068E+02  0.26224515685E+02  0.43400722271E+02  0.00000000000E+00 0. -1.
         11    1    4    4    0    0  0.20316771148E-01  0.38373343936E+01  0.17008711345E+01  0.41974409938E+01  0.51100000000E-03 0. -1.
        -11    1    4    4    0    0  0.39018897076E+01  0.28560151499E+02 -0.27273370286E+02  0.39683040760E+02  0.51100000000E-03 0.  1.
        -12    1    4    4    0    0 -0.31783341272E+01  0.21762631755E+01 -0.65201653261E+00  0.39067959752E+01  0.00000000000E+00 0.  1.
</event>
<event>
 8    1  0.8600524E-011  0.9118800E+02  0.7816164E-02  0.1184000E+00
        -11   -1    0    0    0    0  0.00000000000E+00  0.00000000000E+00  0.45593999997E+02  0.45594000000E+02  0.51100000000E-03 0. -1.
         11   -1    0    0    0    0 -0.00000000000E+00 -0.00000000000E+00 -0.45593999997E+02  0.45594000000E+02  0.51100000000E-03 0.  1.
         23    2    1    2    0    0  0.00000000000E+00 -0.88817841970E-15  0.00000000000E+00  0.91188000000E+02  0.91188000000E+02 0.  0.
    9900012    2    3    3    0    0 -0.22122942018E+01  0.65047115910E+01 -0.42853446070E+02  0.47787270068E+02  0.19999995549E+02 0.  0.
         12    1    3    3    0    0  0.22122942018E+01 -0.65047115910E+01  0.42853446070E+02  0.43400729932E+02  0.00000000000E+00 0. -1.
         11    1    4    4    0    0  0.28865487419E+01  0.11603079107E+02 -0.24301616069E+02  0.27083798704E+02  0.51100000000E-03 0. -1.
        -11    1    4    4    0    0 -0.12489934046E+01  0.11558341468E+01 -0.22272390815E+01  0.28029504610E+01  0.51100000000E-03 0.  1.
         12    1    4    4    0    0 -0.38498495391E+01 -0.62542016628E+01 -0.16324590919E+02  0.17900520903E+02  0.00000000000E+00 0. -1.
</event>
<event>
 8    1  0.8600524E-011  0.9118800E+02  0.7816164E-02  0.1184000E+00
        -11   -1    0    0    0    0  0.00000000000E+00  0.00000000000E+00  0.45593999997E+02  0.45594000000E+02  0.51100000000E-03 0. -1.
         11   -1    0    0    0    0 -0.00000000000E+00 -0.00000000000E+00 -0.45593999997E+02  0.45594000000E+02  0.51100000000E-03 0.  1.
         23    2    1    2    0    0  0.17763568394E-14 -0.35527136788E-14  0.71054273576E-14  0.91188000000E+02  0.91188000000E+02 0.  0.
    9900012    2    3    3    0    0 -0.12434720602E+02  0.14411898623E+02 -0.39003819726E+02  0.47787273605E+02  0.20000011676E+02 0.  0.
         12    1    3    3    0    0  0.12434720602E+02 -0.14411898623E+02  0.39003819726E+02  0.43400726395E+02  0.00000000000E+00 0. -1.
         11    1    4    4    0    0 -0.92942231599E+01  0.15391117233E+01 -0.86931368509E+01  0.12818817325E+02  0.51100000000E-03 0. -1.
        -11    1    4    4    0    0  0.14064865790E+01  0.66200077671E+01 -0.24157115295E+02  0.25087226370E+02  0.51100000000E-03 0.  1.
         12    1    4    4    0    0 -0.45469840209E+01  0.62527791328E+01 -0.61535675803E+01  0.98812299100E+01  0.00000000000E+00 0. -1.
</event>
<event>
 8    1  0.8600524E-011  0.9118800E+02  0.7816164E-02  0.1184000E+00
        -11   -1    0    0    0    0  0.00000000000E+00  0.00000000000E+00  0.45593999997E+02  0.45594000000E+02  0.51100000000E-03 0. -1.
         11   -1    0    0    0    0 -0.00000000000E+00 -0.00000000000E+00 -0.45593999997E+02  0.45594000000E+02  0.51100000000E-03 0.  1.
         23    2    1    2    0    0  0.22204460493E-15  0.00000000000E+00  0.00000000000E+00  0.91188000000E+02  0.91188000000E+02 0.  0.
    9900012    2    3    3    0    0  0.12477410831E+01 -0.89683650665E+01  0.42445665019E+02  0.47787275251E+02  0.20000019181E+02 0.  0.
        -12    1    3    3    0    0 -0.12477410831E+01  0.89683650665E+01 -0.42445665019E+02  0.43400724749E+02  0.00000000000E+00 0.  1.
         11    1    4    4    0    0 -0.61418378834E+00 -0.61476737153E+01  0.78236109817E+01  0.99689519454E+01  0.51100000000E-03 0. -1.
        -11    1    4    4    0    0  0.32027836227E+01  0.47218968114E+00  0.34066243599E+02  0.34219727340E+02  0.51100000000E-03 0.  1.
        -12    1    4    4    0    0 -0.13408587512E+01 -0.32928810323E+01  0.55581043884E+00  0.35985959661E+01  0.00000000000E+00 0.  1.
</event>
<event>
 8    1  0.8600524E-011  0.9118800E+02  0.7816164E-02  0.1184000E+00
        -11   -1    0    0    0    0  0.00000000000E+00  0.00000000000E+00  0.45593999997E+02  0.45594000000E+02  0.51100000000E-03 0. -1.
         11   -1    0    0    0    0 -0.00000000000E+00 -0.00000000000E+00 -0.45593999997E+02  0.45594000000E+02  0.51100000000E-03 0.  1.
         23    2    1    2    0    0  0.00000000000E+00 -0.88817841970E-15  0.00000000000E+00  0.91188000000E+02  0.91188000000E+02 0.  0.
    9900012    2    3    3    0    0  0.36193789841E+02  0.43289612238E+01 -0.23556167407E+02  0.47787270153E+02  0.19999995934E+02 0.  0.
         12    1    3    3    0    0 -0.36193789841E+02 -0.43289612238E+01  0.23556167407E+02  0.43400729847E+02  0.00000000000E+00 0. -1.
         11    1    4    4    0    0  0.15461569291E+02 -0.63477224117E+01 -0.15725771348E+02  0.22948934387E+02  0.51100000000E-03 0. -1.
        -11    1    4    4    0    0  0.17797045176E+02  0.98591880675E+01 -0.57277575247E+01  0.21136357606E+02  0.51100000000E-03 0.  1.
         12    1    4    4    0    0  0.29351753745E+01  0.81749556812E+00 -0.21026385348E+01  0.37019781592E+01  0.00000000000E+00 0. -1.
</event>
<event>
 8    1  0.8600524E-011  0.9118800E+02  0.7816164E-02  0.1184000E+00
        -11   -1    0    0    0    0  0.00000000000E+00  0.00000000000E+00  0.45593999997E+02  0.45594000000E+02  0.51100000000E-03 0. -1.
         11   -1    0    0    0    0 -0.00000000000E+00 -0.00000000000E+00 -0.45593999997E+02  0.45594000000E+02  0.51100000000E-03 0.  1.
         23    2    1    2    0    0 -0.88817841970E-15  0.00000000000E+00  0.71054273576E-14  0.91188000000E+02  0.91188000000E+02 0.  0.
    9900012    2    3    3    0    0 -0.45424213902E+01 -0.11327617350E+02  0.41649427286E+02  0.47787270742E+02  0.19999998619E+02 0.  0.
        -12    1    3    3    0    0  0.45424213902E+01  0.11327617350E+02 -0.41649427286E+02  0.43400729258E+02  0.00000000000E+00 0.  1.
         11    1    4    4    0    0 -0.12289729560E+01  0.26223432500E+01  0.14405378562E+02  0.14693603725E+02  0.51100000000E-03 0. -1.
        -11    1    4    4    0    0 -0.49063196781E+01 -0.40134516906E+00  0.96233078523E+01  0.10809306407E+02  0.51100000000E-03 0.  1.
         12    1    4    4    0    0  0.15928712440E+01 -0.13548615431E+02  0.17620740872E+02  0.22284360609E+02  0.00000000000E+00 0. -1.
</event>
<event>
 8    1  0.8600524E-011  0.9118800E+02  0.7816164E-02  0.1184000E+00
        -11   -1    0    0    0    0  0.00000000000E+00  0.00000000000E+00  0.45593999997E+02  0.45594000000E+02  0.51100000000E-03 0. -1.
         11   -1    0    0    0    0 -0.00000000000E+00 -0.00000000000E+00 -0.45593999997E+02  0.45594000000E+02  0.51100000000E-03 0.  1.
         23    2    1    2    0    0  0.00000000000E+00 -0.17763568394E-14  0.00000000000E+00  0.91188000000E+02  0.91188000000E+02 0.  0.
    9900012    2    3    3    0    0  0.32392738948E+02  0.11663265967E+02  0.26425403228E+02  0.47787271373E+02  0.20000001499E+02 0.  0.
        -12    1    3    3    0    0 -0.32392738948E+02 -0.11663265967E+02 -0.26425403228E+02  0.43400728627E+02  0.00000000000E+00 0.  1.
         11    1    4    4    0    0  0.43799484485E+01 -0.14649059394E+01  0.12077670181E+02  0.12930584483E+02  0.51100000000E-03 0. -1.
        -11    1    4    4    0    0  0.17791274533E+02  0.11515930286E+02  0.76556127326E+01  0.22533408673E+02  0.51100000000E-03 0.  1.
         12    1    4    4    0    0  0.10221515967E+02  0.16122416199E+01  0.66921203154E+01  0.12323278217E+02  0.00000000000E+00 0. -1.
</event>
<event>
 8    1  0.8600524E-011  0.9118800E+02  0.7816164E-02  0.1184000E+00
        -11   -1    0    0    0    0  0.00000000000E+00  0.00000000000E+00  0.45593999997E+02  0.45594000000E+02  0.51100000000E-03 0. -1.
         11   -1    0    0    0    0 -0.00000000000E+00 -0.00000000000E+00 -0.45593999997E+02  0.45594000000E+02  0.51100000000E-03 0.  1.
         23    2    1    2    0    0  0.00000000000E+00  0.00000000000E+00  0.00000000000E+00  0.91188000000E+02  0.91188000000E+02 0.  0.
    9900012    2    3    3    0    0  0.23054443151E+02  0.27519203202E+02 -0.24388715273E+02  0.47787270438E+02  0.19999997234E+02 0.  0.
         12    1    3    3    0    0 -0.23054443151E+02 -0.27519203202E+02  0.24388715273E+02  0.43400729562E+02  0.00000000000E+00 0. -1.
         11    1    4    4    0    0  0.17304898404E+02  0.24691081047E+02 -0.16800430087E+02  0.34516133089E+02  0.51100000000E-03 0.  1.
        -11    1    4    4    0    0 -0.11531851856E+00 -0.89510498343E+00  0.15491209716E+01  0.17928433668E+01  0.51100000000E-03 0. -1.
         12    1    4    4    0    0  0.58648632661E+01  0.37232271380E+01 -0.91374061576E+01  0.11478293982E+02  0.00000000000E+00 0. -1.
</event>
<event>
 8    1  0.8600524E-011  0.9118800E+02  0.7816164E-02  0.1184000E+00
        -11   -1    0    0    0    0  0.00000000000E+00  0.00000000000E+00  0.45593999997E+02  0.45594000000E+02  0.51100000000E-03 0. -1.
         11   -1    0    0    0    0 -0.00000000000E+00 -0.00000000000E+00 -0.45593999997E+02  0.45594000000E+02  0.51100000000E-03 0.  1.
         23    2    1    2    0    0  0.00000000000E+00  0.00000000000E+00  0.00000000000E+00  0.91188000000E+02  0.91188000000E+02 0.  0.
    9900012    2    3    3    0    0  0.80134922081E+01 -0.52429172559E+01  0.42331060773E+02  0.47787274834E+02  0.20000017278E+02 0.  0.
        -12    1    3    3    0    0 -0.80134922081E+01  0.52429172559E+01 -0.42331060773E+02  0.43400725166E+02  0.00000000000E+00 0.  1.
         11    1    4    4    0    0 -0.34482655854E+01 -0.29758050684E+01  0.16186566903E+02  0.16815198474E+02  0.51100000000E-03 0. -1.
        -11    1    4    4    0    0  0.53563296687E+01 -0.10692276613E+01  0.16589153136E+01  0.57083724117E+01  0.51100000000E-03 0.  1.
        -12    1    4    4    0    0  0.61054281248E+01 -0.11978845262E+01  0.24485578557E+02  0.25263703948E+02  0.00000000000E+00 0.  1.
</event>
<event>
 8    1  0.8600524E-011  0.9118800E+02  0.7816164E-02  0.1184000E+00
        -11   -1    0    0    0    0  0.00000000000E+00  0.00000000000E+00  0.45593999997E+02  0.45594000000E+02  0.51100000000E-03 0. -1.
         11   -1    0    0    0    0 -0.00000000000E+00 -0.00000000000E+00 -0.45593999997E+02  0.45594000000E+02  0.51100000000E-03 0.  1.
         23    2    1    2    0    0 -0.17763568394E-14 -0.35527136788E-14  0.35527136788E-14  0.91188000000E+02  0.91188000000E+02 0.  0.
    9900012    2    3    3    0    0 -0.15901912993E+02 -0.28786291814E+02 -0.28321408330E+02  0.47787267252E+02  0.19999982710E+02 0.  0.
         12    1    3    3    0    0  0.15901912993E+02  0.28786291814E+02  0.28321408330E+02  0.43400732748E+02  0.00000000000E+00 0. -1.
         11    1    4    4    0    0 -0.16528432605E+02 -0.22308410696E+02 -0.16631511324E+02  0.32364508977E+02  0.51100000000E-03 0.  1.
        -11    1    4    4    0    0  0.36857598012E+01 -0.38524372360E+01 -0.93451782917E+01  0.10759110350E+02  0.51100000000E-03 0. -1.
         12    1    4    4    0    0 -0.30592401895E+01 -0.26254438824E+01 -0.23447187145E+01  0.46636479249E+01  0.00000000000E+00 0. -1.
</event>
<event>
 8    1  0.8600524E-011  0.9118800E+02  0.7816164E-02  0.1184000E+00
        -11   -1    0    0    0    0  0.00000000000E+00  0.00000000000E+00  0.45593999997E+02  0.45594000000E+02  0.51100000000E-03 0. -1.
         11   -1    0    0    0    0 -0.00000000000E+00 -0.00000000000E+00 -0.45593999997E+02  0.45594000000E+02  0.51100000000E-03 0.  1.
         23    2    1    2    0    0  0.00000000000E+00  0.35527136788E-14  0.00000000000E+00  0.91188000000E+02  0.91188000000E+02 0.  0.
    9900012    2    3    3    0    0  0.24783314889E+02 -0.25221326218E+02  0.25165357407E+02  0.47787271821E+02  0.20000003540E+02 0.  0.
        -12    1    3    3    0    0 -0.24783314889E+02  0.25221326218E+02 -0.25165357407E+02  0.43400728179E+02  0.00000000000E+00 0.  1.
         11    1    4    4    0    0  0.15196379262E+02 -0.99474513199E+01  0.17767669508E+02  0.25408105212E+02  0.51100000000E-03 0. -1.
        -11    1    4    4    0    0  0.34008783272E+01  0.10745829673E+00  0.43499971874E+01  0.55226801893E+01  0.51100000000E-03 0.  1.
         12    1    4    4    0    0  0.61860572993E+01 -0.15381333194E+02  0.30476907118E+01  0.16856486420E+02  0.00000000000E+00 0. -1.
</event>
<event>
 8    1  0.8600524E-011  0.9118800E+02  0.7816164E-02  0.1184000E+00
        -11   -1    0    0    0    0  0.00000000000E+00  0.00000000000E+00  0.45593999997E+02  0.45594000000E+02  0.51100000000E-03 0. -1.
         11   -1    0    0    0    0 -0.00000000000E+00 -0.00000000000E+00 -0.45593999997E+02  0.45594000000E+02  0.51100000000E-03 0.  1.
         23    2    1    2    0    0  0.00000000000E+00  0.00000000000E+00  0.00000000000E+00  0.91188000000E+02  0.91188000000E+02 0.  0.
    9900012    2    3    3    0    0  0.20003517738E+02  0.91216316075E+01 -0.37420306236E+02  0.47787260330E+02  0.19999951149E+02 0.  0.
         12    1    3    3    0    0 -0.20003517738E+02 -0.91216316075E+01  0.37420306236E+02  0.43400739670E+02  0.00000000000E+00 0. -1.
         11    1    4    4    0    0 -0.19473507090E+01 -0.15626234299E+01 -0.23730288122E+01  0.34445947182E+01  0.51100000000E-03 0. -1.
        -11    1    4    4    0    0  0.13535350804E+02  0.93196864155E+01 -0.30584197160E+02  0.34719668669E+02  0.51100000000E-03 0.  1.
        -12    1    4    4    0    0  0.84155176432E+01  0.13645686219E+01 -0.44630802636E+01  0.96229969431E+01  0.00000000000E+00 0.  1.
</event>
<event>
 8    1  0.8600524E-011  0.9118800E+02  0.7816164E-02  0.1184000E+00
        -11   -1    0    0    0    0  0.00000000000E+00  0.00000000000E+00  0.45593999997E+02  0.45594000000E+02  0.51100000000E-03 0. -1.
         11   -1    0    0    0    0 -0.00000000000E+00 -0.00000000000E+00 -0.45593999997E+02  0.45594000000E+02  0.51100000000E-03 0.  1.
         23    2    1    2    0    0  0.00000000000E+00  0.35527136788E-14  0.35527136788E-14  0.91188000000E+02  0.91188000000E+02 0.  0.
    9900012    2    3    3    0    0  0.21394799861E+02 -0.20923604431E+02 -0.31433883671E+02  0.47787265835E+02  0.19999976246E+02 0.  0.
         12    1    3    3    0    0 -0.21394799861E+02  0.20923604431E+02  0.31433883671E+02  0.43400734165E+02  0.00000000000E+00 0. -1.
         11    1    4    4    0    0 -0.70488639094E+00 -0.44649737595E+01 -0.39278851609E+01  0.59884169524E+01  0.51100000000E-03 0. -1.
        -11    1    4    4    0    0  0.21793813847E+01  0.12011055553E+01 -0.91004278660E+01  0.94345188208E+01  0.51100000000E-03 0.  1.
        -12    1    4    4    0    0  0.19920304867E+02 -0.17659736227E+02 -0.18405570644E+02  0.32364330061E+02  0.00000000000E+00 0.  1.
</event>
<event>
 8    1  0.8600524E-011  0.9118800E+02  0.7816164E-02  0.1184000E+00
        -11   -1    0    0    0    0  0.00000000000E+00  0.00000000000E+00  0.45593999997E+02  0.45594000000E+02  0.51100000000E-03 0. -1.
         11   -1    0    0    0    0 -0.00000000000E+00 -0.00000000000E+00 -0.45593999997E+02  0.45594000000E+02  0.51100000000E-03 0.  1.
         23    2    1    2    0    0  0.35527136788E-14 -0.35527136788E-14 -0.71054273576E-14  0.91188000000E+02  0.91188000000E+02 0.  0.
    9900012    2    3    3    0    0  0.14021908624E+02 -0.30604187738E+02 -0.27393298064E+02  0.47787274115E+02  0.20000013999E+02 0.  0.
         12    1    3    3    0    0 -0.14021908624E+02  0.30604187738E+02  0.27393298064E+02  0.43400725885E+02  0.00000000000E+00 0. -1.
         11    1    4    4    0    0  0.29623129466E+01  0.12368261945E+01 -0.39071209483E+00  0.32338356840E+01  0.51100000000E-03 0. -1.
        -11    1    4    4    0    0  0.12946545516E+02 -0.25000252754E+02 -0.19636003041E+02  0.34324893215E+02  0.51100000000E-03 0.  1.
         12    1    4    4    0    0 -0.18869498387E+01 -0.68407611785E+01 -0.73665829281E+01  0.10228545216E+02  0.00000000000E+00 0. -1.
</event>
<event>
 8    1  0.8600524E-011  0.9118800E+02  0.7816164E-02  0.1184000E+00
        -11   -1    0    0    0    0  0.00000000000E+00  0.00000000000E+00  0.45593999997E+02  0.45594000000E+02  0.51100000000E-03 0. -1.
         11   -1    0    0    0    0 -0.00000000000E+00 -0.00000000000E+00 -0.45593999997E+02  0.45594000000E+02  0.51100000000E-03 0.  1.
         23    2    1    2    0    0  0.55511151231E-15 -0.44408920985E-15  0.00000000000E+00  0.91188000000E+02  0.91188000000E+02 0.  0.
    9900012    2    3    3    0    0  0.80756594524E+00  0.30883792692E+01  0.43283171198E+02  0.47787272377E+02  0.20000006075E+02 0.  0.
        -12    1    3    3    0    0 -0.80756594524E+00 -0.30883792692E+01 -0.43283171198E+02  0.43400727623E+02  0.00000000000E+00 0.  1.
         11    1    4    4    0    0 -0.27245782186E+01  0.35497457458E+01  0.16863695804E+02  0.17447299440E+02  0.51100000000E-03 0. -1.
        -11    1    4    4    0    0  0.53168860073E+01 -0.31547956697E+01  0.26394410534E+02  0.27108797839E+02  0.51100000000E-03 0.  1.
        -12    1    4    4    0    0 -0.17847418434E+01  0.26934291931E+01  0.25064859518E-01  0.32311750979E+01  0.00000000000E+00 0.  1.
</event>
<event>
 8    1  0.8600524E-011  0.9118800E+02  0.7816164E-02  0.1184000E+00
        -11   -1    0    0    0    0  0.00000000000E+00  0.00000000000E+00  0.45593999997E+02  0.45594000000E+02  0.51100000000E-03 0. -1.
         11   -1    0    0    0    0 -0.00000000000E+00 -0.00000000000E+00 -0.45593999997E+02  0.45594000000E+02  0.51100000000E-03 0.  1.
         23    2    1    2    0    0  0.44408920985E-15  0.00000000000E+00  0.71054273576E-14  0.91188000000E+02  0.91188000000E+02 0.  0.
    9900012    2    3    3    0    0 -0.20359489955E+01  0.23882239280E+02 -0.36181713423E+02  0.47787276187E+02  0.20000023446E+02 0.  0.
         12    1    3    3    0    0  0.20359489955E+01 -0.23882239280E+02  0.36181713423E+02  0.43400723813E+02  0.00000000000E+00 0. -1.
         11    1    4    4    0    0 -0.30637240493E+01  0.16132118925E+02 -0.23159539393E+02  0.28390067475E+02  0.51100000000E-03 0. -1.
        -11    1    4    4    0    0  0.35032111366E+01 -0.14762225021E+01 -0.80000561479E+00  0.38848076385E+01  0.51100000000E-03 0.  1.
        -12    1    4    4    0    0 -0.24754360827E+01  0.92263428564E+01 -0.12222168415E+02  0.15512401074E+02  0.00000000000E+00 0.  1.
</event>
<event>
 8    1  0.8600524E-011  0.9118800E+02  0.7816164E-02  0.1184000E+00
        -11   -1    0    0    0    0  0.00000000000E+00  0.00000000000E+00  0.45593999997E+02  0.45594000000E+02  0.51100000000E-03 0. -1.
         11   -1    0    0    0    0 -0.00000000000E+00 -0.00000000000E+00 -0.45593999997E+02  0.45594000000E+02  0.51100000000E-03 0.  1.
         23    2    1    2    0    0  0.00000000000E+00  0.00000000000E+00  0.35527136788E-14  0.91188000000E+02  0.91188000000E+02 0.  0.
    9900012    2    3    3    0    0  0.15910035188E+02 -0.33829867177E+02 -0.22046182437E+02  0.47787270825E+02  0.19999999001E+02 0.  0.
         12    1    3    3    0    0 -0.15910035188E+02  0.33829867177E+02  0.22046182437E+02  0.43400729175E+02  0.00000000000E+00 0. -1.
         11    1    4    4    0    0  0.73198813170E+01 -0.31883253447E+02 -0.15379302509E+02  0.36147551214E+02  0.51100000000E-03 0. -1.
        -11    1    4    4    0    0  0.28879730996E+01  0.71062692745E+00 -0.90466836667E+00  0.31086660111E+01  0.51100000000E-03 0.  1.
         12    1    4    4    0    0  0.57021807710E+01 -0.26572406574E+01 -0.57622115606E+01  0.85310536000E+01  0.00000000000E+00 0. -1.
</event>
<event>
 8    1  0.8600524E-011  0.9118800E+02  0.7816164E-02  0.1184000E+00
        -11   -1    0    0    0    0  0.00000000000E+00  0.00000000000E+00  0.45593999997E+02  0.45594000000E+02  0.51100000000E-03 0.  1.
         11   -1    0    0    0    0 -0.00000000000E+00 -0.00000000000E+00 -0.45593999997E+02  0.45594000000E+02  0.51100000000E-03 0. -1.
         23    2    1    2    0    0  0.00000000000E+00 -0.17763568394E-14 -0.44408920985E-15  0.91188000000E+02  0.91188000000E+02 0.  0.
    9900012    2    3    3    0    0  0.42375263148E+02  0.85134152805E+01 -0.39349332762E+01  0.47787252697E+02  0.19999916345E+02 0.  0.
         12    1    3    3    0    0 -0.42375263148E+02 -0.85134152805E+01  0.39349332762E+01  0.43400747303E+02  0.00000000000E+00 0. -1.
         11    1    4    4    0    0  0.99569002121E-01  0.28961739187E+00 -0.15400170754E+01  0.15701735807E+01  0.51100000000E-03 0. -1.
        -11    1    4    4    0    0  0.78183720509E+01 -0.44418198792E+01 -0.30636562275E+01  0.94996155241E+01  0.51100000000E-03 0.  1.
        -12    1    4    4    0    0  0.34457322095E+02  0.12665617768E+02  0.66874002670E+00  0.36717463592E+02  0.00000000000E+00 0.  1.
</event>
<event>
 8    1  0.8600524E-011  0.9118800E+02  0.7816164E-02  0.1184000E+00
        -11   -1    0    0    0    0  0.00000000000E+00  0.00000000000E+00  0.45593999997E+02  0.45594000000E+02  0.51100000000E-03 0. -1.
         11   -1    0    0    0    0 -0.00000000000E+00 -0.00000000000E+00 -0.45593999997E+02  0.45594000000E+02  0.51100000000E-03 0.  1.
         23    2    1    2    0    0  0.00000000000E+00  0.00000000000E+00  0.88817841970E-15  0.91188000000E+02  0.91188000000E+02 0.  0.
    9900012    2    3    3    0    0 -0.41441958616E+02  0.11165965615E+02  0.64427166562E+01  0.47787270513E+02  0.19999997579E+02 0.  0.
        -12    1    3    3    0    0  0.41441958616E+02 -0.11165965615E+02 -0.64427166562E+01  0.43400729487E+02  0.00000000000E+00 0.  1.
         11    1    4    4    0    0 -0.30856953475E+02  0.13032835853E+02  0.11181561934E+02  0.35313364548E+02  0.51100000000E-03 0. -1.
        -11    1    4    4    0    0 -0.92840154036E+01 -0.30579902684E+01 -0.40357058738E+01  0.10575025705E+02  0.51100000000E-03 0.  1.
         12    1    4    4    0    0 -0.13009897374E+01  0.11911200307E+01 -0.70313940385E+00  0.18988802610E+01  0.00000000000E+00 0. -1.
</event>
<event>
 8    1  0.8600524E-011  0.9118800E+02  0.7816164E-02  0.1184000E+00
        -11   -1    0    0    0    0  0.00000000000E+00  0.00000000000E+00  0.45593999997E+02  0.45594000000E+02  0.51100000000E-03 0.  1.
         11   -1    0    0    0    0 -0.00000000000E+00 -0.00000000000E+00 -0.45593999997E+02  0.45594000000E+02  0.51100000000E-03 0. -1.
         23    2    1    2    0    0 -0.71054273576E-14 -0.35527136788E-14 -0.17763568394E-14  0.91188000000E+02  0.91188000000E+02 0.  0.
    9900012    2    3    3    0    0  0.34468565230E+02  0.22018573699E+02  0.14516320697E+02  0.47787272548E+02  0.20000006856E+02 0.  0.
        -12    1    3    3    0    0 -0.34468565230E+02 -0.22018573699E+02 -0.14516320697E+02  0.43400727452E+02  0.00000000000E+00 0.  1.
         11    1    4    4    0    0  0.15342521293E+02  0.80560974860E+01  0.15014233954E+02  0.22928604140E+02  0.51100000000E-03 0. -1.
        -11    1    4    4    0    0  0.86779319255E+01  0.36067660735E+01 -0.31486896879E+01  0.99110802149E+01  0.51100000000E-03 0.  1.
        -12    1    4    4    0    0  0.10448112012E+02  0.10355710140E+02  0.26507764309E+01  0.14947588193E+02  0.00000000000E+00 0.  1.
</event>
<event>
 8    1  0.8600524E-011  0.9118800E+02  0.7816164E-02  0.1184000E+00
        -11   -1    0    0    0    0  0.00000000000E+00  0.00000000000E+00  0.45593999997E+02  0.45594000000E+02  0.51100000000E-03 0. -1.
         11   -1    0    0    0    0 -0.00000000000E+00 -0.00000000000E+00 -0.45593999997E+02  0.45594000000E+02  0.51100000000E-03 0.  1.
         23    2    1    2    0    0 -0.88817841970E-15  0.00000000000E+00  0.00000000000E+00  0.91188000000E+02  0.91188000000E+02 0.  0.
    9900012    2    3    3    0    0 -0.78119366629E+01  0.16474375622E+02 -0.39385177673E+02  0.47787266977E+02  0.19999981456E+02 0.  0.
         12    1    3    3    0    0  0.78119366629E+01 -0.16474375622E+02  0.39385177673E+02  0.43400733023E+02  0.00000000000E+00 0. -1.
         11    1    4    4    0    0 -0.54604630333E+01  0.29565593610E+01 -0.62049951693E+01  0.87783748556E+01  0.51100000000E-03 0. -1.
        -11    1    4    4    0    0 -0.42131420932E+00  0.11347384239E+02 -0.85657088494E+01  0.14223642398E+02  0.51100000000E-03 0.  1.
        -12    1    4    4    0    0 -0.19301594203E+01  0.21704320225E+01 -0.24614473655E+02  0.24785249723E+02  0.00000000000E+00 0.  1.
</event>
<event>
 8    1  0.1074393E-010  0.9118800E+02  0.7816164E-02  0.1184000E+00
        -11   -1    0    0    0    0  0.00000000000E+00  0.00000000000E+00  0.45593999997E+02  0.45594000000E+02  0.51100000000E-03 0. -1.
         11   -1    0    0    0    0 -0.00000000000E+00 -0.00000000000E+00 -0.45593999997E+02  0.45594000000E+02  0.51100000000E-03 0.  1.
         23    2    1    2    0    0  0.35527136788E-14  0.17763568394E-14  0.71054273576E-14  0.91188000000E+02  0.91188000000E+02 0.  0.
    9900012    2    3    3    0    0  0.14338224574E+02  0.91621465843E+01  0.39926099616E+02  0.47787273687E+02  0.20000012048E+02 0.  0.
        -12    1    3    3    0    0 -0.14338224574E+02 -0.91621465843E+01 -0.39926099616E+02  0.43400726313E+02  0.00000000000E+00 0.  1.
         11    1    4    4    0    0  0.59700104475E+01  0.14558965813E+01  0.12938148823E+02  0.14323280170E+02  0.51100000000E-03 0. -1.
        -11    1    4    4    0    0  0.11274754089E+02 -0.27252336381E+00  0.14719324738E+02  0.18543270201E+02  0.51100000000E-03 0.  1.
        -12    1    4    4    0    0 -0.29065399625E+01  0.79787733669E+01  0.12268626056E+02  0.14920723317E+02  0.00000000000E+00 0.  1.
</event>
<event>
 8    1  0.8600524E-011  0.9118800E+02  0.7816164E-02  0.1184000E+00
        -11   -1    0    0    0    0  0.00000000000E+00  0.00000000000E+00  0.45593999997E+02  0.45594000000E+02  0.51100000000E-03 0. -1.
         11   -1    0    0    0    0 -0.00000000000E+00 -0.00000000000E+00 -0.45593999997E+02  0.45594000000E+02  0.51100000000E-03 0.  1.
         23    2    1    2    0    0 -0.71054273576E-14  0.17763568394E-14  0.17763568394E-14  0.91188000000E+02  0.91188000000E+02 0.  0.
    9900012    2    3    3    0    0  0.40289445717E+02 -0.71740882190E+01 -0.14453907376E+02  0.47787280924E+02  0.20000045043E+02 0.  0.
         12    1    3    3    0    0 -0.40289445717E+02  0.71740882190E+01  0.14453907376E+02  0.43400719076E+02  0.00000000000E+00 0. -1.
         11    1    4    4    0    0  0.13857726001E+02 -0.91864751654E+01 -0.13052850785E+02  0.21137757917E+02  0.51100000000E-03 0. -1.
        -11    1    4    4    0    0  0.13074471599E+02  0.18549538487E+01  0.11242907545E+00  0.13205881339E+02  0.51100000000E-03 0.  1.
         12    1    4    4    0    0  0.13357248116E+02  0.15743309770E+00 -0.15134856657E+01  0.13443641667E+02  0.00000000000E+00 0. -1.
</event>
<event>
 8    1  0.8600524E-011  0.9118800E+02  0.7816164E-02  0.1184000E+00
        -11   -1    0    0    0    0  0.00000000000E+00  0.00000000000E+00  0.45593999997E+02  0.45594000000E+02  0.51100000000E-03 0. -1.
         11   -1    0    0    0    0 -0.00000000000E+00 -0.00000000000E+00 -0.45593999997E+02  0.45594000000E+02  0.51100000000E-03 0.  1.
         23    2    1    2    0    0  0.00000000000E+00  0.00000000000E+00  0.00000000000E+00  0.91188000000E+02  0.91188000000E+02 0.  0.
    9900012    2    3    3    0    0  0.92781055609E+01 -0.18021669627E+02 -0.38376551001E+02  0.47787268604E+02  0.19999988875E+02 0.  0.
         12    1    3    3    0    0 -0.92781055609E+01  0.18021669627E+02  0.38376551001E+02  0.43400731396E+02  0.00000000000E+00 0. -1.
         11    1    4    4    0    0 -0.11352435534E+01  0.99025043768E+00 -0.15223004547E+01  0.21416752299E+01  0.51100000000E-03 0. -1.
        -11    1    4    4    0    0  0.40929412781E+01 -0.48731730142E+01 -0.25914104112E+02  0.26684092185E+02  0.51100000000E-03 0.  1.
        -12    1    4    4    0    0  0.63204078362E+01 -0.14138747050E+02 -0.10940146434E+02  0.18961501190E+02  0.00000000000E+00 0.  1.
</event>
<event>
 8    1  0.8600524E-011  0.9118800E+02  0.7816164E-02  0.1184000E+00
        -11   -1    0    0    0    0  0.00000000000E+00  0.00000000000E+00  0.45593999997E+02  0.45594000000E+02  0.51100000000E-03 0. -1.
         11   -1    0    0    0    0 -0.00000000000E+00 -0.00000000000E+00 -0.45593999997E+02  0.45594000000E+02  0.51100000000E-03 0.  1.
         23    2    1    2    0    0  0.35527136788E-14  0.00000000000E+00 -0.17763568394E-14  0.91188000000E+02  0.91188000000E+02 0.  0.
    9900012    2    3    3    0    0 -0.18498643251E+02  0.37573989023E+02  0.11385069460E+02  0.47787259686E+02  0.19999948212E+02 0.  0.
        -12    1    3    3    0    0  0.18498643251E+02 -0.37573989023E+02 -0.11385069460E+02  0.43400740314E+02  0.00000000000E+00 0.  1.
         11    1    4    4    0    0 -0.85634845316E+01  0.63892356670E+01 -0.23413431236E+01  0.10937892284E+02  0.51100000000E-03 0.  1.
        -11    1    4    4    0    0 -0.60362249880E+01  0.16222378330E+02  0.12476439384E+02  0.21336895528E+02  0.51100000000E-03 0. -1.
        -12    1    4    4    0    0 -0.38989337311E+01  0.14962375026E+02  0.12499731988E+01  0.15512471874E+02  0.00000000000E+00 0.  1.
</event>
<event>
 8    1  0.8600524E-011  0.9118800E+02  0.7816164E-02  0.1184000E+00
        -11   -1    0    0    0    0  0.00000000000E+00  0.00000000000E+00  0.45593999997E+02  0.45594000000E+02  0.51100000000E-03 0.  1.
         11   -1    0    0    0    0 -0.00000000000E+00 -0.00000000000E+00 -0.45593999997E+02  0.45594000000E+02  0.51100000000E-03 0. -1.
         23    2    1    2    0    0  0.44408920985E-15  0.71054273576E-14 -0.13322676296E-14  0.91188000000E+02  0.91188000000E+02 0.  0.
    9900012    2    3    3    0    0 -0.23649199066E+01  0.43256607789E+02  0.26261295090E+01  0.47787268211E+02  0.19999987083E+02 0.  0.
         12    1    3    3    0    0  0.23649199066E+01 -0.43256607789E+02 -0.26261295090E+01  0.43400731789E+02  0.00000000000E+00 0. -1.
         11    1    4    4    0    0 -0.23883528712E+01  0.86587445811E+01 -0.15674198486E+01  0.91178337559E+01  0.51100000000E-03 0. -1.
        -11    1    4    4    0    0 -0.54715679064E+01  0.25691477186E+02  0.81167319454E+01  0.27493115377E+02  0.51100000000E-03 0.  1.
        -12    1    4    4    0    0  0.54950008710E+01  0.89063860216E+01 -0.39231825878E+01  0.11176319079E+02  0.00000000000E+00 0.  1.
</event>
<event>
 8    1  0.8600524E-011  0.9118800E+02  0.7816164E-02  0.1184000E+00
        -11   -1    0    0    0    0  0.00000000000E+00  0.00000000000E+00  0.45593999997E+02  0.45594000000E+02  0.51100000000E-03 0. -1.
         11   -1    0    0    0    0 -0.00000000000E+00 -0.00000000000E+00 -0.45593999997E+02  0.45594000000E+02  0.51100000000E-03 0.  1.
         23    2    1    2    0    0  0.00000000000E+00  0.00000000000E+00 -0.17763568394E-14  0.91188000000E+02  0.91188000000E+02 0.  0.
    9900012    2    3    3    0    0  0.22068207731E+02  0.34997693094E+02 -0.13106430990E+02  0.47787275954E+02  0.20000022386E+02 0.  0.
         12    1    3    3    0    0 -0.22068207731E+02 -0.34997693094E+02  0.13106430990E+02  0.43400724046E+02  0.00000000000E+00 0. -1.
         11    1    4    4    0    0  0.44474605494E+01  0.22261234913E+02 -0.80436135539E+01  0.24084065364E+02  0.51100000000E-03 0. -1.
        -11    1    4    4    0    0  0.16250577429E+02  0.13771318324E+02 -0.53494194060E+01  0.21962394300E+02  0.51100000000E-03 0.  1.
         12    1    4    4    0    0  0.13701697533E+01 -0.10348601424E+01  0.28660197034E+00  0.17408162903E+01  0.00000000000E+00 0. -1.
</event>
<event>
 8    1  0.8600524E-011  0.9118800E+02  0.7816164E-02  0.1184000E+00
        -11   -1    0    0    0    0  0.00000000000E+00  0.00000000000E+00  0.45593999997E+02  0.45594000000E+02  0.51100000000E-03 0. -1.
         11   -1    0    0    0    0 -0.00000000000E+00 -0.00000000000E+00 -0.45593999997E+02  0.45594000000E+02  0.51100000000E-03 0.  1.
         23    2    1    2    0    0  0.00000000000E+00  0.00000000000E+00  0.00000000000E+00  0.91188000000E+02  0.91188000000E+02 0.  0.
    9900012    2    3    3    0    0  0.19212290163E+02 -0.31229034786E+02  0.23221942125E+02  0.47787270709E+02  0.19999998469E+02 0.  0.
        -12    1    3    3    0    0 -0.19212290163E+02  0.31229034786E+02 -0.23221942125E+02  0.43400729291E+02  0.00000000000E+00 0.  1.
         11    1    4    4    0    0 -0.16292222435E+00 -0.26610897726E+01  0.14888330290E+01  0.30536153128E+01  0.51100000000E-03 0. -1.
        -11    1    4    4    0    0  0.22012238633E+02 -0.28482018887E+02  0.18234555821E+02  0.40351741917E+02  0.51100000000E-03 0.  1.
        -12    1    4    4    0    0 -0.26370262459E+01 -0.85926126866E-01  0.34985532746E+01  0.43819134788E+01  0.00000000000E+00 0.  1.
</event>
<event>
 8    1  0.8600524E-011  0.9118800E+02  0.7816164E-02  0.1184000E+00
        -11   -1    0    0    0    0  0.00000000000E+00  0.00000000000E+00  0.45593999997E+02  0.45594000000E+02  0.51100000000E-03 0. -1.
         11   -1    0    0    0    0 -0.00000000000E+00 -0.00000000000E+00 -0.45593999997E+02  0.45594000000E+02  0.51100000000E-03 0.  1.
         23    2    1    2    0    0  0.00000000000E+00  0.00000000000E+00  0.00000000000E+00  0.91188000000E+02  0.91188000000E+02 0.  0.
    9900012    2    3    3    0    0 -0.32303378792E+02  0.28674372603E+02 -0.42303013917E+01  0.47787269875E+02  0.19999994666E+02 0.  0.
         12    1    3    3    0    0  0.32303378792E+02 -0.28674372603E+02  0.42303013917E+01  0.43400730125E+02  0.00000000000E+00 0. -1.
         11    1    4    4    0    0 -0.69116528732E+01  0.17720793947E+01 -0.61310467498E+01  0.94074941047E+01  0.51100000000E-03 0. -1.
        -11    1    4    4    0    0 -0.19737068204E+02  0.20628448906E+02 -0.28460694976E+01  0.28691198605E+02  0.51100000000E-03 0.  1.
         12    1    4    4    0    0 -0.56546577150E+01  0.62738443019E+01  0.47468148557E+01  0.96885771645E+01  0.00000000000E+00 0. -1.
</event>
<event>
 8    1  0.8600524E-011  0.9118800E+02  0.7816164E-02  0.1184000E+00
        -11   -1    0    0    0    0  0.00000000000E+00  0.00000000000E+00  0.45593999997E+02  0.45594000000E+02  0.51100000000E-03 0. -1.
         11   -1    0    0    0    0 -0.00000000000E+00 -0.00000000000E+00 -0.45593999997E+02  0.45594000000E+02  0.51100000000E-03 0.  1.
         23    2    1    2    0    0  0.00000000000E+00  0.44408920985E-15  0.00000000000E+00  0.91188000000E+02  0.91188000000E+02 0.  0.
    9900012    2    3    3    0    0  0.23762705324E+02 -0.33920298533E+01 -0.36158696851E+02  0.47787269720E+02  0.19999993962E+02 0.  0.
         12    1    3    3    0    0 -0.23762705324E+02  0.33920298533E+01  0.36158696851E+02  0.43400730280E+02  0.00000000000E+00 0. -1.
         11    1    4    4    0    0  0.36907668432E+01 -0.27729171807E+01 -0.44384519251E+00  0.46376533288E+01  0.51100000000E-03 0. -1.
        -11    1    4    4    0    0  0.65480016628E+01  0.41697387730E+01 -0.21890427407E+02  0.23226146033E+02  0.51100000000E-03 0.  1.
         12    1    4    4    0    0  0.13523936818E+02 -0.47888514456E+01 -0.13824424251E+02  0.19923470358E+02  0.00000000000E+00 0. -1.
</event>
<event>
 8    1  0.1257783E-010  0.9118800E+02  0.7816164E-02  0.1184000E+00
        -11   -1    0    0    0    0  0.00000000000E+00  0.00000000000E+00  0.45593999997E+02  0.45594000000E+02  0.51100000000E-03 0. -1.
         11   -1    0    0    0    0 -0.00000000000E+00 -0.00000000000E+00 -0.45593999997E+02  0.45594000000E+02  0.51100000000E-03 0.  1.
         23    2    1    2    0    0  0.00000000000E+00  0.17763568394E-14  0.00000000000E+00  0.91188000000E+02  0.91188000000E+02 0.  0.
    9900012    2    3    3    0    0  0.28197672461E+02  0.69687448855E+01 -0.32248274792E+02  0.47787270000E+02  0.19999995237E+02 0.  0.
         12    1    3    3    0    0 -0.28197672461E+02 -0.69687448855E+01  0.32248274792E+02  0.43400730000E+02  0.00000000000E+00 0. -1.
         11    1    4    4    0    0  0.17370387819E+02  0.44729815709E+00 -0.83087523755E+01  0.19260472863E+02  0.51100000000E-03 0. -1.
        -11    1    4    4    0    0  0.55984193584E+01 -0.15936477979E+01 -0.10001268023E+02  0.11571835419E+02  0.51100000000E-03 0.  1.
         12    1    4    4    0    0  0.52288652835E+01  0.81150945263E+01 -0.13938254393E+02  0.16954961718E+02  0.00000000000E+00 0. -1.
</event>
<event>
 8    1  0.8600524E-011  0.9118800E+02  0.7816164E-02  0.1184000E+00
        -11   -1    0    0    0    0  0.00000000000E+00  0.00000000000E+00  0.45593999997E+02  0.45594000000E+02  0.51100000000E-03 0. -1.
         11   -1    0    0    0    0 -0.00000000000E+00 -0.00000000000E+00 -0.45593999997E+02  0.45594000000E+02  0.51100000000E-03 0.  1.
         23    2    1    2    0    0  0.00000000000E+00  0.88817841970E-15  0.00000000000E+00  0.91188000000E+02  0.91188000000E+02 0.  0.
    9900012    2    3    3    0    0  0.22869316890E+02  0.55929751984E+01 -0.36460052689E+02  0.47787280321E+02  0.20000042295E+02 0.  0.
         12    1    3    3    0    0 -0.22869316890E+02 -0.55929751984E+01  0.36460052689E+02  0.43400719679E+02  0.00000000000E+00 0. -1.
         11    1    4    4    0    0  0.12052827734E+01  0.56860726484E+01 -0.19402996382E+01  0.61277150451E+01  0.51100000000E-03 0. -1.
        -11    1    4    4    0    0  0.11691968620E+02 -0.12789419035E+01 -0.25820989636E+02  0.28373602673E+02  0.51100000000E-03 0.  1.
        -12    1    4    4    0    0  0.99720654966E+01  0.11858444535E+01 -0.86987634141E+01  0.13285962602E+02  0.00000000000E+00 0.  1.
</event>
<event>
 8    1  0.8600524E-011  0.9118800E+02  0.7816164E-02  0.1184000E+00
        -11   -1    0    0    0    0  0.00000000000E+00  0.00000000000E+00  0.45593999997E+02  0.45594000000E+02  0.51100000000E-03 0. -1.
         11   -1    0    0    0    0 -0.00000000000E+00 -0.00000000000E+00 -0.45593999997E+02  0.45594000000E+02  0.51100000000E-03 0.  1.
         23    2    1    2    0    0  0.00000000000E+00  0.00000000000E+00  0.71054273576E-14  0.91188000000E+02  0.91188000000E+02 0.  0.
    9900012    2    3    3    0    0  0.16225347451E+02  0.21223276636E+01 -0.40197771901E+02  0.47787227652E+02  0.19999802156E+02 0.  0.
         12    1    3    3    0    0 -0.16225347451E+02 -0.21223276636E+01  0.40197771901E+02  0.43400772348E+02  0.00000000000E+00 0. -1.
         11    1    4    4    0    0  0.37767403511E+01 -0.24566362856E+01 -0.15869500376E+01  0.47767394949E+01  0.51100000000E-03 0. -1.
        -11    1    4    4    0    0  0.13210261869E+02  0.74484933996E+01 -0.35972932099E+02  0.39038992260E+02  0.51100000000E-03 0.  1.
        -12    1    4    4    0    0 -0.76165476995E+00 -0.28695294505E+01 -0.26378897642E+01  0.39714958975E+01  0.00000000000E+00 0.  1.
</event>
<event>
 8    1  0.8600524E-011  0.9118800E+02  0.7816164E-02  0.1184000E+00
        -11   -1    0    0    0    0  0.00000000000E+00  0.00000000000E+00  0.45593999997E+02  0.45594000000E+02  0.51100000000E-03 0. -1.
         11   -1    0    0    0    0 -0.00000000000E+00 -0.00000000000E+00 -0.45593999997E+02  0.45594000000E+02  0.51100000000E-03 0.  1.
         23    2    1    2    0    0  0.35527136788E-14  0.00000000000E+00  0.35527136788E-14  0.91188000000E+02  0.91188000000E+02 0.  0.
    9900012    2    3    3    0    0  0.24986110470E+02  0.21661637990E+02  0.28108557069E+02  0.47787271235E+02  0.20000000868E+02 0.  0.
        -12    1    3    3    0    0 -0.24986110470E+02 -0.21661637990E+02 -0.28108557069E+02  0.43400728765E+02  0.00000000000E+00 0.  1.
         11    1    4    4    0    0  0.18655406851E+02  0.56918342063E+01  0.14448864799E+02  0.24273254328E+02  0.51100000000E-03 0. -1.
        -11    1    4    4    0    0  0.69921250974E+01  0.14544064885E+02  0.14532138481E+02  0.21716415124E+02  0.51100000000E-03 0.  1.
         12    1    4    4    0    0 -0.66142147810E+00  0.14257388991E+01 -0.87244621087E+00  0.17976017832E+01  0.00000000000E+00 0. -1.
</event>
<event>
 8    1  0.8600524E-011  0.9118800E+02  0.7816164E-02  0.1184000E+00
        -11   -1    0    0    0    0  0.00000000000E+00  0.00000000000E+00  0.45593999997E+02  0.45594000000E+02  0.51100000000E-03 0.  1.
         11   -1    0    0    0    0 -0.00000000000E+00 -0.00000000000E+00 -0.45593999997E+02  0.45594000000E+02  0.51100000000E-03 0. -1.
         23    2    1    2    0    0  0.00000000000E+00  0.71054273576E-14  0.17763568394E-14  0.91188000000E+02  0.91188000000E+02 0.  0.
    9900012    2    3    3    0    0 -0.27663376077E+02 -0.31976894042E+02  0.97897379320E+01  0.47787273078E+02  0.20000009273E+02 0.  0.
        -12    1    3    3    0    0  0.27663376077E+02  0.31976894042E+02 -0.97897379320E+01  0.43400726922E+02  0.00000000000E+00 0.  1.
         11    1    4    4    0    0 -0.12157899270E+02 -0.44703911984E+01 -0.24364453441E+01  0.13180864095E+02  0.51100000000E-03 0. -1.
        -11    1    4    4    0    0 -0.55142388304E+00 -0.31651766971E+00  0.17384669059E+01  0.18510859456E+01  0.51100000000E-03 0.  1.
         12    1    4    4    0    0 -0.14954052924E+02 -0.27189985174E+02  0.10487716370E+02  0.32755323037E+02  0.00000000000E+00 0. -1.
</event>
<event>
 8    1  0.8600524E-011  0.9118800E+02  0.7816164E-02  0.1184000E+00
        -11   -1    0    0    0    0  0.00000000000E+00  0.00000000000E+00  0.45593999997E+02  0.45594000000E+02  0.51100000000E-03 0. -1.
         11   -1    0    0    0    0 -0.00000000000E+00 -0.00000000000E+00 -0.45593999997E+02  0.45594000000E+02  0.51100000000E-03 0.  1.
         23    2    1    2    0    0  0.35527136788E-14  0.17763568394E-14  0.14210854715E-13  0.91188000000E+02  0.91188000000E+02 0.  0.
    9900012    2    3    3    0    0 -0.18542189641E+02 -0.12280761680E+02 -0.37269201218E+02  0.47787271164E+02  0.20000000543E+02 0.  0.
         12    1    3    3    0    0  0.18542189641E+02  0.12280761680E+02  0.37269201218E+02  0.43400728836E+02  0.00000000000E+00 0. -1.
         11    1    4    4    0    0  0.15773208425E+00  0.30898504483E+01 -0.33818339645E+00  0.31123019574E+01  0.51100000000E-03 0. -1.
        -11    1    4    4    0    0 -0.12737772266E+02 -0.13337865632E+02 -0.30704640556E+02  0.35817934807E+02  0.51100000000E-03 0.  1.
         12    1    4    4    0    0 -0.59621494594E+01 -0.20327464957E+01 -0.62263772658E+01  0.88570343992E+01  0.00000000000E+00 0. -1.
</event>
<event>
 8    1  0.8600524E-011  0.9118800E+02  0.7816164E-02  0.1184000E+00
        -11   -1    0    0    0    0  0.00000000000E+00  0.00000000000E+00  0.45593999997E+02  0.45594000000E+02  0.51100000000E-03 0. -1.
         11   -1    0    0    0    0 -0.00000000000E+00 -0.00000000000E+00 -0.45593999997E+02  0.45594000000E+02  0.51100000000E-03 0.  1.
         23    2    1    2    0    0  0.00000000000E+00 -0.71054273576E-14  0.00000000000E+00  0.91188000000E+02  0.91188000000E+02 0.  0.
    9900012    2    3    3    0    0 -0.12467831655E+02 -0.40260733642E+02  0.10356154179E+02  0.47787269258E+02  0.19999991853E+02 0.  0.
        -12    1    3    3    0    0  0.12467831655E+02  0.40260733642E+02 -0.10356154179E+02  0.43400730742E+02  0.00000000000E+00 0.  1.
         11    1    4    4    0    0 -0.15787458712E+02 -0.38804790180E+02  0.98567270811E+01  0.43037317092E+02  0.51100000000E-03 0. -1.
        -11    1    4    4    0    0  0.15786661285E+01  0.30440203418E+00 -0.96336114828E+00  0.18742764755E+01  0.51100000000E-03 0.  1.
         12    1    4    4    0    0  0.17409609281E+01 -0.17603454968E+01  0.14627882463E+01  0.28756756901E+01  0.00000000000E+00 0. -1.
</event>
<event>
 8    1  0.8600524E-011  0.9118800E+02  0.7816164E-02  0.1184000E+00
        -11   -1    0    0    0    0  0.00000000000E+00  0.00000000000E+00  0.45593999997E+02  0.45594000000E+02  0.51100000000E-03 0. -1.
         11   -1    0    0    0    0 -0.00000000000E+00 -0.00000000000E+00 -0.45593999997E+02  0.45594000000E+02  0.51100000000E-03 0.  1.
         23    2    1    2    0    0 -0.71054273576E-14  0.00000000000E+00  0.00000000000E+00  0.91188000000E+02  0.91188000000E+02 0.  0.
    9900012    2    3    3    0    0  0.23848910268E+02  0.45011659075E+01  0.35980442673E+02  0.47787271084E+02  0.20000000182E+02 0.  0.
        -12    1    3    3    0    0 -0.23848910268E+02 -0.45011659075E+01 -0.35980442673E+02  0.43400728916E+02  0.00000000000E+00 0.  1.
         11    1    4    4    0    0  0.22960868294E+02  0.42568612306E+01  0.31114517057E+02  0.38902898508E+02  0.51100000000E-03 0. -1.
        -11    1    4    4    0    0 -0.30215836790E+01  0.55712417908E+00  0.36649671186E+01  0.47825034784E+01  0.51100000000E-03 0.  1.
        -12    1    4    4    0    0  0.39096256528E+01 -0.31281950222E+00  0.12009584971E+01  0.41018690981E+01  0.00000000000E+00 0.  1.
</event>
<event>
 8    1  0.8600524E-011  0.9118800E+02  0.7816164E-02  0.1184000E+00
        -11   -1    0    0    0    0  0.00000000000E+00  0.00000000000E+00  0.45593999997E+02  0.45594000000E+02  0.51100000000E-03 0. -1.
         11   -1    0    0    0    0 -0.00000000000E+00 -0.00000000000E+00 -0.45593999997E+02  0.45594000000E+02  0.51100000000E-03 0.  1.
         23    2    1    2    0    0  0.00000000000E+00  0.00000000000E+00  0.00000000000E+00  0.91188000000E+02  0.91188000000E+02 0.  0.
    9900012    2    3    3    0    0 -0.84226564225E+01  0.31485872484E+02  0.28658719597E+02  0.47787268253E+02  0.19999987271E+02 0.  0.
        -12    1    3    3    0    0  0.84226564225E+01 -0.31485872484E+02 -0.28658719597E+02  0.43400731747E+02  0.00000000000E+00 0.  1.
         11    1    4    4    0    0 -0.14615763917E+02  0.22152728879E+02  0.17424229951E+02  0.31748507702E+02  0.51100000000E-03 0. -1.
        -11    1    4    4    0    0  0.54917244896E+01  0.70234484759E+01  0.97176493346E+01  0.13187895026E+02  0.51100000000E-03 0.  1.
         12    1    4    4    0    0  0.70138300524E+00  0.23096951284E+01  0.15168403116E+01  0.28508655242E+01  0.00000000000E+00 0. -1.
</event>
<event>
 8    1  0.8600524E-011  0.9118800E+02  0.7816164E-02  0.1184000E+00
        -11   -1    0    0    0    0  0.00000000000E+00  0.00000000000E+00  0.45593999997E+02  0.45594000000E+02  0.51100000000E-03 0. -1.
         11   -1    0    0    0    0 -0.00000000000E+00 -0.00000000000E+00 -0.45593999997E+02  0.45594000000E+02  0.51100000000E-03 0.  1.
         23    2    1    2    0    0 -0.35527136788E-14  0.00000000000E+00 -0.35527136788E-14  0.91188000000E+02  0.91188000000E+02 0.  0.
    9900012    2    3    3    0    0 -0.26510516465E+02  0.15906111964E+02 -0.30459991494E+02  0.47787274627E+02  0.20000016333E+02 0.  0.
         12    1    3    3    0    0  0.26510516465E+02 -0.15906111964E+02  0.30459991494E+02  0.43400725373E+02  0.00000000000E+00 0. -1.
         11    1    4    4    0    0  0.16399605281E+00  0.50649199590E+00 -0.25866096758E+01  0.26408291734E+01  0.51100000000E-03 0. -1.
        -11    1    4    4    0    0 -0.63252771804E+01 -0.38707002546E+01 -0.46859431753E+01  0.87720872985E+01  0.51100000000E-03 0.  1.
        -12    1    4    4    0    0 -0.20349235338E+02  0.19270320223E+02 -0.23187438643E+02  0.36374358155E+02  0.00000000000E+00 0.  1.
</event>
<event>
 8    1  0.8600524E-011  0.9118800E+02  0.7816164E-02  0.1184000E+00
        -11   -1    0    0    0    0  0.00000000000E+00  0.00000000000E+00  0.45593999997E+02  0.45594000000E+02  0.51100000000E-03 0. -1.
         11   -1    0    0    0    0 -0.00000000000E+00 -0.00000000000E+00 -0.45593999997E+02  0.45594000000E+02  0.51100000000E-03 0.  1.
         23    2    1    2    0    0 -0.33306690739E-15  0.00000000000E+00  0.17763568394E-14  0.91188000000E+02  0.91188000000E+02 0.  0.
    9900012    2    3    3    0    0  0.43602172683E+00  0.42040064263E+02 -0.10773393919E+02  0.47787272648E+02  0.20000007311E+02 0.  0.
         12    1    3    3    0    0 -0.43602172683E+00 -0.42040064263E+02  0.10773393919E+02  0.43400727352E+02  0.00000000000E+00 0. -1.
         11    1    4    4    0    0 -0.18746748263E+01  0.55386194328E+01  0.25715614778E+01  0.63877726651E+01  0.51100000000E-03 0. -1.
        -11    1    4    4    0    0  0.36600837594E+01  0.37282097951E+02 -0.13529646207E+02  0.39829666927E+02  0.51100000000E-03 0.  1.
        -12    1    4    4    0    0 -0.13493872062E+01 -0.78065312134E+00  0.18469080980E+00  0.15698330559E+01  0.00000000000E+00 0.  1.
</event>
<event>
 8    1  0.8600524E-011  0.9118800E+02  0.7816164E-02  0.1184000E+00
        -11   -1    0    0    0    0  0.00000000000E+00  0.00000000000E+00  0.45593999997E+02  0.45594000000E+02  0.51100000000E-03 0. -1.
         11   -1    0    0    0    0 -0.00000000000E+00 -0.00000000000E+00 -0.45593999997E+02  0.45594000000E+02  0.51100000000E-03 0.  1.
         23    2    1    2    0    0  0.00000000000E+00  0.00000000000E+00  0.00000000000E+00  0.91188000000E+02  0.91188000000E+02 0.  0.
    9900012    2    3    3    0    0 -0.21223231533E+02  0.29347557177E+02 -0.23914819591E+02  0.47787271146E+02  0.20000000464E+02 0.  0.
         12    1    3    3    0    0  0.21223231533E+02 -0.29347557177E+02  0.23914819591E+02  0.43400728854E+02  0.00000000000E+00 0. -1.
         11    1    4    4    0    0 -0.22394170818E+01 -0.60801213883E+00  0.14780337631E+01  0.27512273067E+01  0.51100000000E-03 0. -1.
        -11    1    4    4    0    0 -0.13181399952E+02  0.21697667207E+02 -0.11516972589E+02  0.27877925403E+02  0.51100000000E-03 0.  1.
        -12    1    4    4    0    0 -0.58024144995E+01  0.82579021087E+01 -0.13875880765E+02  0.17158118436E+02  0.00000000000E+00 0.  1.
</event>
<event>
 8    1  0.8600524E-011  0.9118800E+02  0.7816164E-02  0.1184000E+00
        -11   -1    0    0    0    0  0.00000000000E+00  0.00000000000E+00  0.45593999997E+02  0.45594000000E+02  0.51100000000E-03 0. -1.
         11   -1    0    0    0    0 -0.00000000000E+00 -0.00000000000E+00 -0.45593999997E+02  0.45594000000E+02  0.51100000000E-03 0.  1.
         23    2    1    2    0    0  0.00000000000E+00  0.35527136788E-14  0.35527136788E-14  0.91188000000E+02  0.91188000000E+02 0.  0.
    9900012    2    3    3    0    0 -0.22339245804E+02  0.27906761457E+02 -0.24612877430E+02  0.47787274505E+02  0.20000015777E+02 0.  0.
         12    1    3    3    0    0  0.22339245804E+02 -0.27906761457E+02  0.24612877430E+02  0.43400725495E+02  0.00000000000E+00 0. -1.
         11    1    4    4    0    0  0.15719999305E-01  0.64076369039E+01 -0.65373374784E+01  0.91539521180E+01  0.51100000000E-03 0. -1.
        -11    1    4    4    0    0 -0.94023083567E+01  0.11222108415E+02 -0.71345097120E+00  0.14657698737E+02  0.51100000000E-03 0.  1.
        -12    1    4    4    0    0 -0.12952657447E+02  0.10277016139E+02 -0.17362088981E+02  0.23975623650E+02  0.00000000000E+00 0.  1.
</event>
<event>
 8    1  0.8600524E-011  0.9118800E+02  0.7816164E-02  0.1184000E+00
        -11   -1    0    0    0    0  0.00000000000E+00  0.00000000000E+00  0.45593999997E+02  0.45594000000E+02  0.51100000000E-03 0. -1.
         11   -1    0    0    0    0 -0.00000000000E+00 -0.00000000000E+00 -0.45593999997E+02  0.45594000000E+02  0.51100000000E-03 0.  1.
         23    2    1    2    0    0  0.35527136788E-14 -0.35527136788E-14  0.00000000000E+00  0.91188000000E+02  0.91188000000E+02 0.  0.
    9900012    2    3    3    0    0  0.14199318791E+02 -0.19242690784E+02 -0.36217706655E+02  0.47787261780E+02  0.19999957758E+02 0.  0.
         12    1    3    3    0    0 -0.14199318791E+02  0.19242690784E+02  0.36217706655E+02  0.43400738220E+02  0.00000000000E+00 0. -1.
         11    1    4    4    0    0  0.11939239561E+02 -0.98418965796E+01 -0.14946539302E+02  0.21512959047E+02  0.51100000000E-03 0. -1.
        -11    1    4    4    0    0 -0.19503953275E+01 -0.10400691572E+02 -0.11731479893E+02  0.15798925529E+02  0.51100000000E-03 0.  1.
        -12    1    4    4    0    0  0.42104745574E+01  0.99989736758E+00 -0.95396874597E+01  0.10475377204E+02  0.00000000000E+00 0.  1.
</event>
<event>
 8    1  0.8600524E-011  0.9118800E+02  0.7816164E-02  0.1184000E+00
        -11   -1    0    0    0    0  0.00000000000E+00  0.00000000000E+00  0.45593999997E+02  0.45594000000E+02  0.51100000000E-03 0. -1.
         11   -1    0    0    0    0 -0.00000000000E+00 -0.00000000000E+00 -0.45593999997E+02  0.45594000000E+02  0.51100000000E-03 0.  1.
         23    2    1    2    0    0  0.00000000000E+00  0.00000000000E+00  0.00000000000E+00  0.91188000000E+02  0.91188000000E+02 0.  0.
    9900012    2    3    3    0    0 -0.32430458574E+02  0.77539324833E+01 -0.27780665691E+02  0.47787268456E+02  0.19999988200E+02 0.  0.
         12    1    3    3    0    0  0.32430458574E+02 -0.77539324833E+01  0.27780665691E+02  0.43400731544E+02  0.00000000000E+00 0. -1.
         11    1    4    4    0    0 -0.66276328539E+01 -0.24721527588E+01 -0.51057636692E+01  0.87238683745E+01  0.51100000000E-03 0. -1.
        -11    1    4    4    0    0 -0.23589443646E+02  0.45743576756E+01 -0.22609181997E+02  0.32993358582E+02  0.51100000000E-03 0.  1.
        -12    1    4    4    0    0 -0.22133820742E+01  0.56517275666E+01 -0.65720025458E-01  0.60700415002E+01  0.00000000000E+00 0.  1.
</event>
<event>
 8    1  0.8600524E-011  0.9118800E+02  0.7816164E-02  0.1184000E+00
        -11   -1    0    0    0    0  0.00000000000E+00  0.00000000000E+00  0.45593999997E+02  0.45594000000E+02  0.51100000000E-03 0. -1.
         11   -1    0    0    0    0 -0.00000000000E+00 -0.00000000000E+00 -0.45593999997E+02  0.45594000000E+02  0.51100000000E-03 0.  1.
         23    2    1    2    0    0 -0.17763568394E-14 -0.35527136788E-14  0.35527136788E-14  0.91188000000E+02  0.91188000000E+02 0.  0.
    9900012    2    3    3    0    0 -0.77024856495E+01 -0.31352196768E+02  0.29005771889E+02  0.47787270395E+02  0.19999997040E+02 0.  0.
        -12    1    3    3    0    0  0.77024856495E+01  0.31352196768E+02 -0.29005771889E+02  0.43400729605E+02  0.00000000000E+00 0.  1.
         11    1    4    4    0    0 -0.10281361417E+02 -0.12672452138E+02  0.91234892473E+01  0.18695868315E+02  0.51100000000E-03 0. -1.
        -11    1    4    4    0    0  0.41978515631E+00 -0.18711469903E+02  0.19232918492E+02  0.26836551185E+02  0.51100000000E-03 0.  1.
        -12    1    4    4    0    0  0.21590906110E+01  0.31725272980E-01  0.64936414946E+00  0.22548508948E+01  0.00000000000E+00 0.  1.
</event>
<event>
 8    1  0.8600524E-011  0.9118800E+02  0.7816164E-02  0.1184000E+00
        -11   -1    0    0    0    0  0.00000000000E+00  0.00000000000E+00  0.45593999997E+02  0.45594000000E+02  0.51100000000E-03 0. -1.
         11   -1    0    0    0    0 -0.00000000000E+00 -0.00000000000E+00 -0.45593999997E+02  0.45594000000E+02  0.51100000000E-03 0.  1.
         23    2    1    2    0    0  0.00000000000E+00  0.00000000000E+00  0.00000000000E+00  0.91188000000E+02  0.91188000000E+02 0.  0.
    9900012    2    3    3    0    0  0.72504190052E+01 -0.11401954118E+02 -0.41243792588E+02  0.47787267743E+02  0.19999984946E+02 0.  0.
         12    1    3    3    0    0 -0.72504190052E+01  0.11401954118E+02  0.41243792588E+02  0.43400732257E+02  0.00000000000E+00 0. -1.
         11    1    4    4    0    0 -0.30730072441E+01 -0.67539102284E+01 -0.43722882260E+01  0.86125246873E+01  0.51100000000E-03 0. -1.
        -11    1    4    4    0    0  0.96879939305E+01 -0.60610434357E+01 -0.29370092229E+02  0.31515008991E+02  0.51100000000E-03 0.  1.
         12    1    4    4    0    0  0.63543231882E+00  0.14129995464E+01 -0.75014121330E+01  0.76597340646E+01  0.00000000000E+00 0. -1.
</event>
<event>
 8    1  0.8600524E-011  0.9118800E+02  0.7816164E-02  0.1184000E+00
        -11   -1    0    0    0    0  0.00000000000E+00  0.00000000000E+00  0.45593999997E+02  0.45594000000E+02  0.51100000000E-03 0. -1.
         11   -1    0    0    0    0 -0.00000000000E+00 -0.00000000000E+00 -0.45593999997E+02  0.45594000000E+02  0.51100000000E-03 0.  1.
         23    2    1    2    0    0 -0.22204460493E-15  0.00000000000E+00  0.71054273576E-14  0.91188000000E+02  0.91188000000E+02 0.  0.
    9900012    2    3    3    0    0  0.18396684731E+01 -0.17531927628E+02 -0.39659430346E+02  0.47787270953E+02  0.19999999582E+02 0.  0.
         12    1    3    3    0    0 -0.18396684731E+01  0.17531927628E+02  0.39659430346E+02  0.43400729047E+02  0.00000000000E+00 0. -1.
         11    1    4    4    0    0  0.14632398114E+01  0.32452939382E+01 -0.68418241270E+01  0.77125586634E+01  0.51100000000E-03 0. -1.
        -11    1    4    4    0    0  0.31352466162E+01 -0.93183626526E+01 -0.82823085256E+01  0.12855282519E+02  0.51100000000E-03 0.  1.
         12    1    4    4    0    0 -0.27588179545E+01 -0.11458858913E+02 -0.24535297694E+02  0.27219429770E+02  0.00000000000E+00 0. -1.
</event>
<event>
 8    1  0.8600524E-011  0.9118800E+02  0.7816164E-02  0.1184000E+00
        -11   -1    0    0    0    0  0.00000000000E+00  0.00000000000E+00  0.45593999997E+02  0.45594000000E+02  0.51100000000E-03 0. -1.
         11   -1    0    0    0    0 -0.00000000000E+00 -0.00000000000E+00 -0.45593999997E+02  0.45594000000E+02  0.51100000000E-03 0.  1.
         23    2    1    2    0    0  0.11102230246E-15  0.17763568394E-14  0.71054273576E-14  0.91188000000E+02  0.91188000000E+02 0.  0.
    9900012    2    3    3    0    0 -0.51353967011E+00  0.72860359744E+01  0.42781676792E+02  0.47787286730E+02  0.20000071518E+02 0.  0.
        -12    1    3    3    0    0  0.51353967011E+00 -0.72860359744E+01 -0.42781676792E+02  0.43400713270E+02  0.00000000000E+00 0.  1.
         11    1    4    4    0    0  0.13357015931E+01 -0.44984782592E+01  0.22051014063E+02  0.22544791568E+02  0.51100000000E-03 0. -1.
        -11    1    4    4    0    0 -0.11389701712E+01  0.27776371038E+01  0.44378553012E+00  0.30347103304E+01  0.51100000000E-03 0.  1.
         12    1    4    4    0    0 -0.71027109209E+00  0.90068771298E+01  0.20286877199E+02  0.22207784832E+02  0.00000000000E+00 0. -1.
</event>
<event>
 8    1  0.8600524E-011  0.9118800E+02  0.7816164E-02  0.1184000E+00
        -11   -1    0    0    0    0  0.00000000000E+00  0.00000000000E+00  0.45593999997E+02  0.45594000000E+02  0.51100000000E-03 0. -1.
         11   -1    0    0    0    0 -0.00000000000E+00 -0.00000000000E+00 -0.45593999997E+02  0.45594000000E+02  0.51100000000E-03 0.  1.
         23    2    1    2    0    0 -0.17763568394E-14 -0.17763568394E-14  0.71054273576E-14  0.91188000000E+02  0.91188000000E+02 0.  0.
    9900012    2    3    3    0    0  0.14088669399E+02 -0.12265916913E+02  0.39174989038E+02  0.47787273171E+02  0.20000009698E+02 0.  0.
        -12    1    3    3    0    0 -0.14088669399E+02  0.12265916913E+02 -0.39174989038E+02  0.43400726829E+02  0.00000000000E+00 0.  1.
         11    1    4    4    0    0 -0.33253789202E+01  0.16588240455E+01  0.79283337325E+01  0.87560446671E+01  0.51100000000E-03 0.  1.
        -11    1    4    4    0    0  0.10449013593E+02 -0.11356124630E+02  0.24747240183E+02  0.29164522087E+02  0.51100000000E-03 0. -1.
         12    1    4    4    0    0  0.69650347266E+01 -0.25686163285E+01  0.64994151225E+01  0.98667064170E+01  0.00000000000E+00 0. -1.
</event>
<event>
 8    1  0.9132646E-011  0.9118800E+02  0.7816164E-02  0.1184000E+00
        -11   -1    0    0    0    0  0.00000000000E+00  0.00000000000E+00  0.45593999997E+02  0.45594000000E+02  0.51100000000E-03 0. -1.
         11   -1    0    0    0    0 -0.00000000000E+00 -0.00000000000E+00 -0.45593999997E+02  0.45594000000E+02  0.51100000000E-03 0.  1.
         23    2    1    2    0    0  0.17763568394E-14 -0.71054273576E-14 -0.35527136788E-14  0.91188000000E+02  0.91188000000E+02 0.  0.
    9900012    2    3    3    0    0 -0.14333176561E+02  0.29446137968E+02  0.28479964797E+02  0.47787269748E+02  0.19999994088E+02 0.  0.
        -12    1    3    3    0    0  0.14333176561E+02 -0.29446137968E+02 -0.28479964797E+02  0.43400730252E+02  0.00000000000E+00 0.  1.
         11    1    4    4    0    0 -0.66618744872E+01  0.14715457179E+02  0.18659668844E+02  0.24680123445E+02  0.51100000000E-03 0. -1.
        -11    1    4    4    0    0 -0.68163408898E+01  0.10726336782E+02  0.26520727241E+00  0.12711693005E+02  0.51100000000E-03 0.  1.
        -12    1    4    4    0    0 -0.85496118383E+00  0.40043440076E+01  0.95550886813E+01  0.10395453298E+02  0.00000000000E+00 0.  1.
</event>
<event>
 8    1  0.8600524E-011  0.9118800E+02  0.7816164E-02  0.1184000E+00
        -11   -1    0    0    0    0  0.00000000000E+00  0.00000000000E+00  0.45593999997E+02  0.45594000000E+02  0.51100000000E-03 0. -1.
         11   -1    0    0    0    0 -0.00000000000E+00 -0.00000000000E+00 -0.45593999997E+02  0.45594000000E+02  0.51100000000E-03 0.  1.
         23    2    1    2    0    0  0.00000000000E+00  0.00000000000E+00  0.00000000000E+00  0.91188000000E+02  0.91188000000E+02 0.  0.
    9900012    2    3    3    0    0 -0.72292848776E+01  0.38881512610E+02 -0.17877031484E+02  0.47787276073E+02  0.20000022929E+02 0.  0.
         12    1    3    3    0    0  0.72292848776E+01 -0.38881512610E+02  0.17877031484E+02  0.43400723927E+02  0.00000000000E+00 0. -1.
         11    1    4    4    0    0 -0.16281333992E+01  0.29463055125E+02 -0.97036672450E+01  0.31062575455E+02  0.51100000000E-03 0. -1.
        -11    1    4    4    0    0  0.16438737367E+01  0.63708451095E+01 -0.49312898975E+01  0.82223846046E+01  0.51100000000E-03 0.  1.
         12    1    4    4    0    0 -0.72450252151E+01  0.30476123758E+01 -0.32420743417E+01  0.85023160137E+01  0.00000000000E+00 0. -1.
</event>
<event>
 8    1  0.8600524E-011  0.9118800E+02  0.7816164E-02  0.1184000E+00
        -11   -1    0    0    0    0  0.00000000000E+00  0.00000000000E+00  0.45593999997E+02  0.45594000000E+02  0.51100000000E-03 0. -1.
         11   -1    0    0    0    0 -0.00000000000E+00 -0.00000000000E+00 -0.45593999997E+02  0.45594000000E+02  0.51100000000E-03 0.  1.
         23    2    1    2    0    0  0.00000000000E+00  0.35527136788E-14  0.00000000000E+00  0.91188000000E+02  0.91188000000E+02 0.  0.
    9900012    2    3    3    0    0 -0.20842515101E+01 -0.16092876677E+02 -0.40252936425E+02  0.47787266424E+02  0.19999978934E+02 0.  0.
         12    1    3    3    0    0  0.20842515101E+01  0.16092876677E+02  0.40252936425E+02  0.43400733576E+02  0.00000000000E+00 0. -1.
         11    1    4    4    0    0  0.22760188607E+01 -0.60358154042E+01 -0.63645503830E+01  0.90619441229E+01  0.51100000000E-03 0. -1.
        -11    1    4    4    0    0 -0.32441047200E+01 -0.12231372346E+01  0.21985747641E+00  0.34739916090E+01  0.51100000000E-03 0.  1.
        -12    1    4    4    0    0 -0.11161656509E+01 -0.88339240386E+01 -0.34108243518E+02  0.35251330692E+02  0.00000000000E+00 0.  1.
</event>
<event>
 8    1  0.8600524E-011  0.9118800E+02  0.7816164E-02  0.1184000E+00
        -11   -1    0    0    0    0  0.00000000000E+00  0.00000000000E+00  0.45593999997E+02  0.45594000000E+02  0.51100000000E-03 0. -1.
         11   -1    0    0    0    0 -0.00000000000E+00 -0.00000000000E+00 -0.45593999997E+02  0.45594000000E+02  0.51100000000E-03 0.  1.
         23    2    1    2    0    0  0.00000000000E+00  0.00000000000E+00  0.00000000000E+00  0.91188000000E+02  0.91188000000E+02 0.  0.
    9900012    2    3    3    0    0  0.28252989059E+02  0.26482110109E+02 -0.19598323582E+02  0.47787218512E+02  0.19999760483E+02 0.  0.
         12    1    3    3    0    0 -0.28252989059E+02 -0.26482110109E+02  0.19598323582E+02  0.43400781488E+02  0.00000000000E+00 0. -1.
         11    1    4    4    0    0  0.71543133717E+01 -0.18600532148E+01 -0.38951914992E+01  0.83556277358E+01  0.51100000000E-03 0. -1.
        -11    1    4    4    0    0  0.14403555573E+02  0.20607506422E+02 -0.14769142291E+02  0.29159206065E+02  0.51100000000E-03 0.  1.
         12    1    4    4    0    0  0.66951201142E+01  0.77346569012E+01 -0.93398979122E+00  0.10272384711E+02  0.00000000000E+00 0. -1.
</event>
<event>
 8    1  0.8600524E-011  0.9118800E+02  0.7816164E-02  0.1184000E+00
        -11   -1    0    0    0    0  0.00000000000E+00  0.00000000000E+00  0.45593999997E+02  0.45594000000E+02  0.51100000000E-03 0. -1.
         11   -1    0    0    0    0 -0.00000000000E+00 -0.00000000000E+00 -0.45593999997E+02  0.45594000000E+02  0.51100000000E-03 0.  1.
         23    2    1    2    0    0  0.00000000000E+00  0.35527136788E-14  0.00000000000E+00  0.91188000000E+02  0.91188000000E+02 0.  0.
    9900012    2    3    3    0    0 -0.10812622437E+02  0.31341802436E+02  0.28007172690E+02  0.47787272978E+02  0.20000008818E+02 0.  0.
        -12    1    3    3    0    0  0.10812622437E+02 -0.31341802436E+02 -0.28007172690E+02  0.43400727022E+02  0.00000000000E+00 0.  1.
         11    1    4    4    0    0 -0.10597576892E+02  0.97863011273E+01  0.81560605842E+01  0.16571108902E+02  0.51100000000E-03 0. -1.
        -11    1    4    4    0    0  0.69445236920E+00  0.19325955197E+02  0.11443672037E+02  0.22470701776E+02  0.51100000000E-03 0.  1.
        -12    1    4    4    0    0 -0.90949791430E+00  0.22295461114E+01  0.84074400693E+01  0.87454622998E+01  0.00000000000E+00 0.  1.
</event>
<event>
 8    1  0.8600524E-011  0.9118800E+02  0.7816164E-02  0.1184000E+00
        -11   -1    0    0    0    0  0.00000000000E+00  0.00000000000E+00  0.45593999997E+02  0.45594000000E+02  0.51100000000E-03 0. -1.
         11   -1    0    0    0    0 -0.00000000000E+00 -0.00000000000E+00 -0.45593999997E+02  0.45594000000E+02  0.51100000000E-03 0.  1.
         23    2    1    2    0    0  0.00000000000E+00  0.11102230246E-15 -0.71054273576E-14  0.91188000000E+02  0.91188000000E+02 0.  0.
    9900012    2    3    3    0    0 -0.19998543236E+02 -0.29953582801E+00 -0.38517430135E+02  0.47787264091E+02  0.19999968295E+02 0.  0.
         12    1    3    3    0    0  0.19998543236E+02  0.29953582801E+00  0.38517430135E+02  0.43400735909E+02  0.00000000000E+00 0. -1.
         11    1    4    4    0    0  0.13370887501E+01 -0.81800825719E+00 -0.73344551697E+01  0.75000784484E+01  0.51100000000E-03 0. -1.
        -11    1    4    4    0    0 -0.19248132979E+02  0.62641840513E+00 -0.16219644381E+02  0.25178560072E+02  0.51100000000E-03 0.  1.
        -12    1    4    4    0    0 -0.20874990064E+01 -0.10794597595E+00 -0.14963330584E+02  0.15108625570E+02  0.00000000000E+00 0.  1.
</event>
<event>
 8    1  0.8600524E-011  0.9118800E+02  0.7816164E-02  0.1184000E+00
        -11   -1    0    0    0    0  0.00000000000E+00  0.00000000000E+00  0.45593999997E+02  0.45594000000E+02  0.51100000000E-03 0.  1.
         11   -1    0    0    0    0 -0.00000000000E+00 -0.00000000000E+00 -0.45593999997E+02  0.45594000000E+02  0.51100000000E-03 0. -1.
         23    2    1    2    0    0  0.00000000000E+00  0.00000000000E+00 -0.35527136788E-14  0.91188000000E+02  0.91188000000E+02 0.  0.
    9900012    2    3    3    0    0  0.26689574313E+02 -0.29450378220E+02  0.17434587848E+02  0.47787274110E+02  0.20000013979E+02 0.  0.
        -12    1    3    3    0    0 -0.26689574313E+02  0.29450378220E+02 -0.17434587848E+02  0.43400725890E+02  0.00000000000E+00 0.  1.
         11    1    4    4    0    0  0.89389920195E+01 -0.66380260041E+01  0.58101712451E+01  0.12558943336E+02  0.51100000000E-03 0. -1.
        -11    1    4    4    0    0  0.13190240596E+02 -0.87519636617E+01 -0.89866258058E+00  0.15855185575E+02  0.51100000000E-03 0.  1.
        -12    1    4    4    0    0  0.45603416974E+01 -0.14060388554E+02  0.12523079183E+02  0.19373145200E+02  0.00000000000E+00 0.  1.
</event>
<event>
 8    1  0.1133612E-010  0.9118800E+02  0.7816164E-02  0.1184000E+00
        -11   -1    0    0    0    0  0.00000000000E+00  0.00000000000E+00  0.45593999997E+02  0.45594000000E+02  0.51100000000E-03 0. -1.
         11   -1    0    0    0    0 -0.00000000000E+00 -0.00000000000E+00 -0.45593999997E+02  0.45594000000E+02  0.51100000000E-03 0.  1.
         23    2    1    2    0    0 -0.88817841970E-15  0.35527136788E-14  0.00000000000E+00  0.91188000000E+02  0.91188000000E+02 0.  0.
    9900012    2    3    3    0    0  0.78354615731E+01 -0.25318246592E+02  0.34368813243E+02  0.47787269681E+02  0.19999993782E+02 0.  0.
        -12    1    3    3    0    0 -0.78354615731E+01  0.25318246592E+02 -0.34368813243E+02  0.43400730319E+02  0.00000000000E+00 0.  1.
         11    1    4    4    0    0  0.12926517754E+01 -0.75472207376E+01  0.96251536445E+01  0.12299393173E+02  0.51100000000E-03 0. -1.
        -11    1    4    4    0    0  0.56608483893E+01 -0.16362648790E+02  0.27366020773E+02  0.32383337893E+02  0.51100000000E-03 0.  1.
        -12    1    4    4    0    0  0.88196140839E+00 -0.14083770642E+01 -0.26223611746E+01  0.31045386148E+01  0.00000000000E+00 0.  1.
</event>
<event>
 8    1  0.8600524E-011  0.9118800E+02  0.7816164E-02  0.1184000E+00
        -11   -1    0    0    0    0  0.00000000000E+00  0.00000000000E+00  0.45593999997E+02  0.45594000000E+02  0.51100000000E-03 0. -1.
         11   -1    0    0    0    0 -0.00000000000E+00 -0.00000000000E+00 -0.45593999997E+02  0.45594000000E+02  0.51100000000E-03 0.  1.
         23    2    1    2    0    0  0.00000000000E+00 -0.35527136788E-14  0.00000000000E+00  0.91188000000E+02  0.91188000000E+02 0.  0.
    9900012    2    3    3    0    0 -0.18567759962E+02 -0.19102590507E+02  0.34262999418E+02  0.47787264946E+02  0.19999972197E+02 0.  0.
        -12    1    3    3    0    0  0.18567759962E+02  0.19102590507E+02 -0.34262999418E+02  0.43400735054E+02  0.00000000000E+00 0.  1.
         11    1    4    4    0    0 -0.12203418109E+02 -0.16160483877E+02  0.13617025404E+02  0.24403033291E+02  0.51100000000E-03 0. -1.
        -11    1    4    4    0    0 -0.13132384949E+01 -0.31688720798E+01  0.16479012366E+02  0.16832236762E+02  0.51100000000E-03 0.  1.
        -12    1    4    4    0    0 -0.50511033585E+01  0.22676545020E+00  0.41669616480E+01  0.65519948934E+01  0.00000000000E+00 0.  1.
</event>
<event>
 8    1  0.8600524E-011  0.9118800E+02  0.7816164E-02  0.1184000E+00
        -11   -1    0    0    0    0  0.00000000000E+00  0.00000000000E+00  0.45593999997E+02  0.45594000000E+02  0.51100000000E-03 0. -1.
         11   -1    0    0    0    0 -0.00000000000E+00 -0.00000000000E+00 -0.45593999997E+02  0.45594000000E+02  0.51100000000E-03 0.  1.
         23    2    1    2    0    0 -0.71054273576E-14  0.00000000000E+00  0.00000000000E+00  0.91188000000E+02  0.91188000000E+02 0.  0.
    9900012    2    3    3    0    0 -0.34341485959E+02  0.19406985321E+02 -0.18101227177E+02  0.47787272328E+02  0.20000005852E+02 0.  0.
         12    1    3    3    0    0  0.34341485959E+02 -0.19406985321E+02  0.18101227177E+02  0.43400727672E+02  0.00000000000E+00 0. -1.
         11    1    4    4    0    0  0.15332510494E+01 -0.81882460782E+00 -0.23574465975E+01  0.29289737521E+01  0.51100000000E-03 0.  1.
        -11    1    4    4    0    0 -0.22954466929E+02  0.86742500730E+01 -0.74496054965E+01  0.25644624946E+02  0.51100000000E-03 0. -1.
        -12    1    4    4    0    0 -0.12920270080E+02  0.11551559856E+02 -0.82941750831E+01  0.19213673630E+02  0.00000000000E+00 0.  1.
</event>
<event>
 8    1  0.8600524E-011  0.9118800E+02  0.7816164E-02  0.1184000E+00
        -11   -1    0    0    0    0  0.00000000000E+00  0.00000000000E+00  0.45593999997E+02  0.45594000000E+02  0.51100000000E-03 0. -1.
         11   -1    0    0    0    0 -0.00000000000E+00 -0.00000000000E+00 -0.45593999997E+02  0.45594000000E+02  0.51100000000E-03 0.  1.
         23    2    1    2    0    0  0.00000000000E+00  0.35527136788E-14 -0.71054273576E-14  0.91188000000E+02  0.91188000000E+02 0.  0.
    9900012    2    3    3    0    0  0.39740931919E+01  0.28732961372E+02 -0.32283849200E+02  0.47787269533E+02  0.19999993109E+02 0.  0.
         12    1    3    3    0    0 -0.39740931919E+01 -0.28732961372E+02  0.32283849200E+02  0.43400730467E+02  0.00000000000E+00 0. -1.
         11    1    4    4    0    0  0.20775665901E+01  0.12246453764E+02 -0.25137803536E+01  0.12673239706E+02  0.51100000000E-03 0. -1.
        -11    1    4    4    0    0 -0.99261816641E+00  0.15517671772E+02 -0.25529784199E+02  0.29892362061E+02  0.51100000000E-03 0.  1.
         12    1    4    4    0    0  0.28891447682E+01  0.96883583615E+00 -0.42402846473E+01  0.52216677661E+01  0.00000000000E+00 0. -1.
</event>
<event>
 8    1  0.8600524E-011  0.9118800E+02  0.7816164E-02  0.1184000E+00
        -11   -1    0    0    0    0  0.00000000000E+00  0.00000000000E+00  0.45593999997E+02  0.45594000000E+02  0.51100000000E-03 0. -1.
         11   -1    0    0    0    0 -0.00000000000E+00 -0.00000000000E+00 -0.45593999997E+02  0.45594000000E+02  0.51100000000E-03 0.  1.
         23    2    1    2    0    0  0.71054273576E-14  0.44408920985E-15  0.35527136788E-14  0.91188000000E+02  0.91188000000E+02 0.  0.
    9900012    2    3    3    0    0  0.34931372262E+02  0.28650217963E+01  0.25597155908E+02  0.47787268340E+02  0.19999987671E+02 0.  0.
        -12    1    3    3    0    0 -0.34931372262E+02 -0.28650217963E+01 -0.25597155908E+02  0.43400731660E+02  0.00000000000E+00 0.  1.
         11    1    4    4    0    0  0.97914698569E+01 -0.63297880459E+01  0.89525665177E+01  0.14699916537E+02  0.51100000000E-03 0. -1.
        -11    1    4    4    0    0  0.25939702405E+02  0.81052491922E+01  0.15331106815E+02  0.31202661132E+02  0.51100000000E-03 0.  1.
         12    1    4    4    0    0 -0.79979999993E+00  0.10895606500E+01  0.13134825761E+01  0.18846906716E+01  0.00000000000E+00 0. -1.
</event>
<event>
 8    1  0.8600524E-011  0.9118800E+02  0.7816164E-02  0.1184000E+00
        -11   -1    0    0    0    0  0.00000000000E+00  0.00000000000E+00  0.45593999997E+02  0.45594000000E+02  0.51100000000E-03 0. -1.
         11   -1    0    0    0    0 -0.00000000000E+00 -0.00000000000E+00 -0.45593999997E+02  0.45594000000E+02  0.51100000000E-03 0.  1.
         23    2    1    2    0    0  0.00000000000E+00  0.00000000000E+00  0.71054273576E-14  0.91188000000E+02  0.91188000000E+02 0.  0.
    9900012    2    3    3    0    0  0.19659848948E+02  0.13621303204E+02  0.36215654833E+02  0.47787271704E+02  0.20000003008E+02 0.  0.
        -12    1    3    3    0    0 -0.19659848948E+02 -0.13621303204E+02 -0.36215654833E+02  0.43400728296E+02  0.00000000000E+00 0.  1.
         11    1    4    4    0    0  0.14163804800E+02  0.43703262228E+01  0.15824794499E+02  0.21682648337E+02  0.51100000000E-03 0. -1.
        -11    1    4    4    0    0 -0.16507430319E+01  0.56995588023E+01  0.23587161316E+01  0.63854103352E+01  0.51100000000E-03 0.  1.
        -12    1    4    4    0    0  0.71467871801E+01  0.35514181787E+01  0.18032144202E+02  0.19719213032E+02  0.00000000000E+00 0.  1.
</event>
<event>
 8    1  0.8600524E-011  0.9118800E+02  0.7816164E-02  0.1184000E+00
        -11   -1    0    0    0    0  0.00000000000E+00  0.00000000000E+00  0.45593999997E+02  0.45594000000E+02  0.51100000000E-03 0. -1.
         11   -1    0    0    0    0 -0.00000000000E+00 -0.00000000000E+00 -0.45593999997E+02  0.45594000000E+02  0.51100000000E-03 0.  1.
         23    2    1    2    0    0  0.00000000000E+00  0.00000000000E+00  0.00000000000E+00  0.91188000000E+02  0.91188000000E+02 0.  0.
    9900012    2    3    3    0    0  0.22200365886E+02  0.85870218492E+01  0.36290921850E+02  0.47787260393E+02  0.19999951437E+02 0.  0.
        -12    1    3    3    0    0 -0.22200365886E+02 -0.85870218492E+01 -0.36290921850E+02  0.43400739607E+02  0.00000000000E+00 0.  1.
         11    1    4    4    0    0  0.64760330235E+01 -0.12737957615E+01  0.10987291775E+01  0.66909465272E+01  0.51100000000E-03 0. -1.
        -11    1    4    4    0    0  0.12227747634E+02  0.11393902154E+02  0.32071877185E+02  0.36165510157E+02  0.51100000000E-03 0.  1.
        -12    1    4    4    0    0  0.34965852279E+01 -0.15330845433E+01  0.31203154875E+01  0.49308037088E+01  0.00000000000E+00 0.  1.
</event>
<event>
 8    1  0.8600524E-011  0.9118800E+02  0.7816164E-02  0.1184000E+00
        -11   -1    0    0    0    0  0.00000000000E+00  0.00000000000E+00  0.45593999997E+02  0.45594000000E+02  0.51100000000E-03 0.  1.
         11   -1    0    0    0    0 -0.00000000000E+00 -0.00000000000E+00 -0.45593999997E+02  0.45594000000E+02  0.51100000000E-03 0. -1.
         23    2    1    2    0    0  0.00000000000E+00  0.00000000000E+00  0.00000000000E+00  0.91188000000E+02  0.91188000000E+02 0.  0.
    9900012    2    3    3    0    0  0.38472616962E+02  0.10051885238E+02 -0.17390801455E+02  0.47787278485E+02  0.20000033926E+02 0.  0.
         12    1    3    3    0    0 -0.38472616962E+02 -0.10051885238E+02  0.17390801455E+02  0.43400721515E+02  0.00000000000E+00 0. -1.
         11    1    4    4    0    0  0.94085807712E+01  0.10762951329E+02 -0.63256227272E+01  0.15632530716E+02  0.51100000000E-03 0. -1.
        -11    1    4    4    0    0  0.67676952767E+01 -0.25021399214E+01 -0.36567012575E-01  0.72155208372E+01  0.51100000000E-03 0.  1.
         12    1    4    4    0    0  0.22296340914E+02  0.17910738304E+01 -0.11028611715E+02  0.24939226932E+02  0.00000000000E+00 0. -1.
</event>
<event>
 8    1  0.8600524E-011  0.9118800E+02  0.7816164E-02  0.1184000E+00
        -11   -1    0    0    0    0  0.00000000000E+00  0.00000000000E+00  0.45593999997E+02  0.45594000000E+02  0.51100000000E-03 0. -1.
         11   -1    0    0    0    0 -0.00000000000E+00 -0.00000000000E+00 -0.45593999997E+02  0.45594000000E+02  0.51100000000E-03 0.  1.
         23    2    1    2    0    0  0.17763568394E-14 -0.35527136788E-14  0.00000000000E+00  0.91188000000E+02  0.91188000000E+02 0.  0.
    9900012    2    3    3    0    0  0.14512565160E+02 -0.30148644222E+02 -0.27641780295E+02  0.47787270584E+02  0.19999997901E+02 0.  0.
         12    1    3    3    0    0 -0.14512565160E+02  0.30148644222E+02  0.27641780295E+02  0.43400729416E+02  0.00000000000E+00 0. -1.
         11    1    4    4    0    0  0.10555272538E+02 -0.58322758400E+01 -0.99247385427E+01  0.15618247508E+02  0.51100000000E-03 0.  1.
        -11    1    4    4    0    0  0.61852379593E+01 -0.23140057050E+02 -0.17451419811E+02  0.29635645135E+02  0.51100000000E-03 0. -1.
        -12    1    4    4    0    0 -0.22279453375E+01 -0.11763113320E+01 -0.26562194185E+00  0.25333779411E+01  0.00000000000E+00 0.  1.
</event>
<event>
 8    1  0.8600524E-011  0.9118800E+02  0.7816164E-02  0.1184000E+00
        -11   -1    0    0    0    0  0.00000000000E+00  0.00000000000E+00  0.45593999997E+02  0.45594000000E+02  0.51100000000E-03 0. -1.
         11   -1    0    0    0    0 -0.00000000000E+00 -0.00000000000E+00 -0.45593999997E+02  0.45594000000E+02  0.51100000000E-03 0.  1.
         23    2    1    2    0    0 -0.88817841970E-15  0.00000000000E+00  0.00000000000E+00  0.91188000000E+02  0.91188000000E+02 0.  0.
    9900012    2    3    3    0    0  0.67668049167E+01 -0.23375020230E+01 -0.42806192855E+02  0.47787266006E+02  0.19999977028E+02 0.  0.
         12    1    3    3    0    0 -0.67668049167E+01  0.23375020230E+01  0.42806192855E+02  0.43400733994E+02  0.00000000000E+00 0. -1.
         11    1    4    4    0    0 -0.13568618794E+01 -0.46392832520E+01 -0.20277855381E+02  0.20845993437E+02  0.51100000000E-03 0. -1.
        -11    1    4    4    0    0 -0.28009407591E+01  0.11343584443E+00 -0.89398796817E+01  0.93690760383E+01  0.51100000000E-03 0.  1.
         12    1    4    4    0    0  0.10924607555E+02  0.21883453846E+01 -0.13588457792E+02  0.17572196531E+02  0.00000000000E+00 0. -1.
</event>
<event>
 8    1  0.8600524E-011  0.9118800E+02  0.7816164E-02  0.1184000E+00
        -11   -1    0    0    0    0  0.00000000000E+00  0.00000000000E+00  0.45593999997E+02  0.45594000000E+02  0.51100000000E-03 0.  1.
         11   -1    0    0    0    0 -0.00000000000E+00 -0.00000000000E+00 -0.45593999997E+02  0.45594000000E+02  0.51100000000E-03 0. -1.
         23    2    1    2    0    0  0.00000000000E+00  0.00000000000E+00  0.00000000000E+00  0.91188000000E+02  0.91188000000E+02 0.  0.
    9900012    2    3    3    0    0 -0.27505206724E+02  0.26343253941E+02  0.20811525498E+02  0.47787273984E+02  0.20000013403E+02 0.  0.
        -12    1    3    3    0    0  0.27505206724E+02 -0.26343253941E+02 -0.20811525498E+02  0.43400726016E+02  0.00000000000E+00 0.  1.
         11    1    4    4    0    0 -0.82042507945E+01  0.20350718636E+02  0.78235589798E+01  0.23295268951E+02  0.51100000000E-03 0.  1.
        -11    1    4    4    0    0 -0.11718677145E+02  0.37645988397E+01  0.50908958889E+01  0.13319790526E+02  0.51100000000E-03 0. -1.
        -12    1    4    4    0    0 -0.75822787850E+01  0.22279364650E+01  0.78970706294E+01  0.11172214507E+02  0.00000000000E+00 0.  1.
</event>
<event>
 8    1  0.8600524E-011  0.9118800E+02  0.7816164E-02  0.1184000E+00
        -11   -1    0    0    0    0  0.00000000000E+00  0.00000000000E+00  0.45593999997E+02  0.45594000000E+02  0.51100000000E-03 0.  1.
         11   -1    0    0    0    0 -0.00000000000E+00 -0.00000000000E+00 -0.45593999997E+02  0.45594000000E+02  0.51100000000E-03 0. -1.
         23    2    1    2    0    0  0.00000000000E+00  0.71054273576E-14  0.00000000000E+00  0.91188000000E+02  0.91188000000E+02 0.  0.
    9900012    2    3    3    0    0 -0.55565957506E+01  0.39624915654E+02  0.16811104566E+02  0.47787274964E+02  0.20000017872E+02 0.  0.
        -12    1    3    3    0    0  0.55565957506E+01 -0.39624915654E+02 -0.16811104566E+02  0.43400725036E+02  0.00000000000E+00 0.  1.
         11    1    4    4    0    0  0.65900792966E+01  0.11460266332E+02  0.77680457472E+01  0.15333277032E+02  0.51100000000E-03 0. -1.
        -11    1    4    4    0    0 -0.78756995925E+01  0.11318075790E+02  0.40936746717E+01  0.14383450777E+02  0.51100000000E-03 0.  1.
         12    1    4    4    0    0 -0.42709754547E+01  0.16846573531E+02  0.49493841468E+01  0.18070547156E+02  0.00000000000E+00 0. -1.
</event>
<event>
 8    1  0.8600524E-011  0.9118800E+02  0.7816164E-02  0.1184000E+00
        -11   -1    0    0    0    0  0.00000000000E+00  0.00000000000E+00  0.45593999997E+02  0.45594000000E+02  0.51100000000E-03 0. -1.
         11   -1    0    0    0    0 -0.00000000000E+00 -0.00000000000E+00 -0.45593999997E+02  0.45594000000E+02  0.51100000000E-03 0.  1.
         23    2    1    2    0    0  0.00000000000E+00  0.00000000000E+00  0.00000000000E+00  0.91188000000E+02  0.91188000000E+02 0.  0.
    9900012    2    3    3    0    0 -0.15359449798E+02 -0.31165694649E+02  0.26007887163E+02  0.47787269410E+02  0.19999992549E+02 0.  0.
        -12    1    3    3    0    0  0.15359449798E+02  0.31165694649E+02 -0.26007887163E+02  0.43400730590E+02  0.00000000000E+00 0.  1.
         11    1    4    4    0    0 -0.86746937731E+01 -0.17744977668E+02  0.40137374218E+01  0.20155511228E+02  0.51100000000E-03 0. -1.
        -11    1    4    4    0    0 -0.18852355981E+01 -0.28673367898E+01  0.11475671315E+02  0.11977761307E+02  0.51100000000E-03 0.  1.
         12    1    4    4    0    0 -0.47995204270E+01 -0.10553380191E+02  0.10518478426E+02  0.15653996875E+02  0.00000000000E+00 0. -1.
</event>
<event>
 8    1  0.8600524E-011  0.9118800E+02  0.7816164E-02  0.1184000E+00
        -11   -1    0    0    0    0  0.00000000000E+00  0.00000000000E+00  0.45593999997E+02  0.45594000000E+02  0.51100000000E-03 0. -1.
         11   -1    0    0    0    0 -0.00000000000E+00 -0.00000000000E+00 -0.45593999997E+02  0.45594000000E+02  0.51100000000E-03 0.  1.
         23    2    1    2    0    0 -0.17763568394E-14 -0.88817841970E-15 -0.71054273576E-14  0.91188000000E+02  0.91188000000E+02 0.  0.
    9900012    2    3    3    0    0  0.66005792338E+01  0.69435685856E+01  0.42330134114E+02  0.47787296722E+02  0.20000117074E+02 0.  0.
        -12    1    3    3    0    0 -0.66005792338E+01 -0.69435685856E+01 -0.42330134114E+02  0.43400703278E+02  0.00000000000E+00 0.  1.
         11    1    4    4    0    0  0.68556476311E+01  0.10351058472E+02  0.32613856608E+02  0.34897105310E+02  0.51100000000E-03 0. -1.
        -11    1    4    4    0    0 -0.10486565847E+01 -0.51292007911E+01  0.32739600659E+01  0.61747223551E+01  0.51100000000E-03 0.  1.
         12    1    4    4    0    0  0.79358818737E+00  0.17217109045E+01  0.64423174405E+01  0.67154690569E+01  0.00000000000E+00 0. -1.
</event>
<event>
 8    1  0.8600524E-011  0.9118800E+02  0.7816164E-02  0.1184000E+00
        -11   -1    0    0    0    0  0.00000000000E+00  0.00000000000E+00  0.45593999997E+02  0.45594000000E+02  0.51100000000E-03 0. -1.
         11   -1    0    0    0    0 -0.00000000000E+00 -0.00000000000E+00 -0.45593999997E+02  0.45594000000E+02  0.51100000000E-03 0.  1.
         23    2    1    2    0    0 -0.44408920985E-15 -0.17763568394E-14  0.71054273576E-14  0.91188000000E+02  0.91188000000E+02 0.  0.
    9900012    2    3    3    0    0  0.40278216985E+00  0.10556352851E+02  0.42095423643E+02  0.47787268316E+02  0.19999987561E+02 0.  0.
        -12    1    3    3    0    0 -0.40278216985E+00 -0.10556352851E+02 -0.42095423643E+02  0.43400731684E+02  0.00000000000E+00 0.  1.
         11    1    4    4    0    0 -0.28449506403E+01 -0.14634488751E+01  0.25843161421E+02  0.26040438154E+02  0.51100000000E-03 0. -1.
        -11    1    4    4    0    0 -0.39604373921E+00  0.99061767365E+01  0.91602541914E+01  0.13498127473E+02  0.51100000000E-03 0.  1.
         12    1    4    4    0    0  0.36437765494E+01  0.21136249892E+01  0.70920080307E+01  0.82487026885E+01  0.00000000000E+00 0. -1.
</event>
<event>
 8    1  0.8600524E-011  0.9118800E+02  0.7816164E-02  0.1184000E+00
        -11   -1    0    0    0    0  0.00000000000E+00  0.00000000000E+00  0.45593999997E+02  0.45594000000E+02  0.51100000000E-03 0. -1.
         11   -1    0    0    0    0 -0.00000000000E+00 -0.00000000000E+00 -0.45593999997E+02  0.45594000000E+02  0.51100000000E-03 0.  1.
         23    2    1    2    0    0 -0.88817841970E-15 -0.35527136788E-14  0.00000000000E+00  0.91188000000E+02  0.91188000000E+02 0.  0.
    9900012    2    3    3    0    0 -0.79338885158E+01 -0.23650825696E+02 -0.35515000985E+02  0.47787269153E+02  0.19999991375E+02 0.  0.
         12    1    3    3    0    0  0.79338885158E+01  0.23650825696E+02  0.35515000985E+02  0.43400730847E+02  0.00000000000E+00 0. -1.
         11    1    4    4    0    0 -0.32453761737E-01 -0.20159940199E+00  0.13353957431E+01  0.13509173244E+01  0.51100000000E-03 0. -1.
        -11    1    4    4    0    0  0.90763675598E+00 -0.16875600455E+02 -0.25862184655E+02  0.30894373122E+02  0.51100000000E-03 0.  1.
        -12    1    4    4    0    0 -0.88090715101E+01 -0.65736258390E+01 -0.10988212073E+02  0.15541978706E+02  0.00000000000E+00 0.  1.
</event>
<event>
 8    1  0.8600524E-011  0.9118800E+02  0.7816164E-02  0.1184000E+00
        -11   -1    0    0    0    0  0.00000000000E+00  0.00000000000E+00  0.45593999997E+02  0.45594000000E+02  0.51100000000E-03 0. -1.
         11   -1    0    0    0    0 -0.00000000000E+00 -0.00000000000E+00 -0.45593999997E+02  0.45594000000E+02  0.51100000000E-03 0.  1.
         23    2    1    2    0    0  0.17763568394E-14  0.44408920985E-15  0.71054273576E-14  0.91188000000E+02  0.91188000000E+02 0.  0.
    9900012    2    3    3    0    0 -0.13187172802E+02 -0.28129481465E+01 -0.41252989858E+02  0.47787269868E+02  0.19999994638E+02 0.  0.
         12    1    3    3    0    0  0.13187172802E+02  0.28129481465E+01  0.41252989858E+02  0.43400730132E+02  0.00000000000E+00 0. -1.
         11    1    4    4    0    0 -0.37877120157E+01 -0.90208451369E+01 -0.14641781595E+02  0.17609775065E+02  0.51100000000E-03 0. -1.
        -11    1    4    4    0    0 -0.61193183247E+01  0.15377060316E+01 -0.21857592345E+02  0.22750053626E+02  0.51100000000E-03 0.  1.
         12    1    4    4    0    0 -0.32801424611E+01  0.46701909587E+01 -0.47536159175E+01  0.74274411776E+01  0.00000000000E+00 0. -1.
</event>
<event>
 8    1  0.8600524E-011  0.9118800E+02  0.7816164E-02  0.1184000E+00
        -11   -1    0    0    0    0  0.00000000000E+00  0.00000000000E+00  0.45593999997E+02  0.45594000000E+02  0.51100000000E-03 0. -1.
         11   -1    0    0    0    0 -0.00000000000E+00 -0.00000000000E+00 -0.45593999997E+02  0.45594000000E+02  0.51100000000E-03 0.  1.
         23    2    1    2    0    0  0.71054273576E-14  0.00000000000E+00  0.00000000000E+00  0.91188000000E+02  0.91188000000E+02 0.  0.
    9900012    2    3    3    0    0  0.37864170822E+02  0.11700609731E+02 -0.17692403083E+02  0.47787299234E+02  0.20000128527E+02 0.  0.
         12    1    3    3    0    0 -0.37864170822E+02 -0.11700609731E+02  0.17692403083E+02  0.43400700766E+02  0.00000000000E+00 0. -1.
         11    1    4    4    0    0  0.11543043712E+01 -0.12286851486E+01 -0.48851126532E+01  0.51678246556E+01  0.51100000000E-03 0. -1.
        -11    1    4    4    0    0  0.35739215140E+02  0.14064913038E+02 -0.10406905812E+02  0.39792172175E+02  0.51100000000E-03 0.  1.
        -12    1    4    4    0    0  0.97065131118E+00 -0.11356181582E+01 -0.24003846171E+01  0.28273024032E+01  0.00000000000E+00 0.  1.
</event>
<event>
 8    1  0.8600524E-011  0.9118800E+02  0.7816164E-02  0.1184000E+00
        -11   -1    0    0    0    0  0.00000000000E+00  0.00000000000E+00  0.45593999997E+02  0.45594000000E+02  0.51100000000E-03 0. -1.
         11   -1    0    0    0    0 -0.00000000000E+00 -0.00000000000E+00 -0.45593999997E+02  0.45594000000E+02  0.51100000000E-03 0.  1.
         23    2    1    2    0    0  0.00000000000E+00  0.00000000000E+00  0.00000000000E+00  0.91188000000E+02  0.91188000000E+02 0.  0.
    9900012    2    3    3    0    0  0.17224615784E+02  0.14434563343E+02  0.37129227421E+02  0.47787268017E+02  0.19999986197E+02 0.  0.
        -12    1    3    3    0    0 -0.17224615784E+02 -0.14434563343E+02 -0.37129227421E+02  0.43400731983E+02  0.00000000000E+00 0.  1.
         11    1    4    4    0    0  0.13358725870E+02  0.11762246732E+02  0.13092540379E+02  0.22095714944E+02  0.51100000000E-03 0. -1.
        -11    1    4    4    0    0  0.59877657348E+01  0.15220738468E+01  0.20492644932E+02  0.21403703975E+02  0.51100000000E-03 0.  1.
         12    1    4    4    0    0 -0.21218758204E+01  0.11502427641E+01  0.35440421097E+01  0.42878490982E+01  0.00000000000E+00 0. -1.
</event>
<event>
 8    1  0.8600524E-011  0.9118800E+02  0.7816164E-02  0.1184000E+00
        -11   -1    0    0    0    0  0.00000000000E+00  0.00000000000E+00  0.45593999997E+02  0.45594000000E+02  0.51100000000E-03 0. -1.
         11   -1    0    0    0    0 -0.00000000000E+00 -0.00000000000E+00 -0.45593999997E+02  0.45594000000E+02  0.51100000000E-03 0.  1.
         23    2    1    2    0    0  0.00000000000E+00  0.00000000000E+00  0.35527136788E-14  0.91188000000E+02  0.91188000000E+02 0.  0.
    9900012    2    3    3    0    0  0.81594313222E+01 -0.35846897553E+02  0.23066185620E+02  0.47787247671E+02  0.19999893430E+02 0.  0.
        -12    1    3    3    0    0 -0.81594313222E+01  0.35846897553E+02 -0.23066185620E+02  0.43400752329E+02  0.00000000000E+00 0.  1.
         11    1    4    4    0    0  0.50119219761E+01 -0.17028467542E+01  0.67001230451E+01  0.85387761444E+01  0.51100000000E-03 0. -1.
        -11    1    4    4    0    0  0.52154032131E+01 -0.89584724755E+01  0.39550248593E+01  0.11094903410E+02  0.51100000000E-03 0.  1.
         12    1    4    4    0    0 -0.20678938670E+01 -0.25185578324E+02  0.12411037715E+02  0.28153568117E+02  0.00000000000E+00 0. -1.
</event>
<event>
 8    1  0.8600524E-011  0.9118800E+02  0.7816164E-02  0.1184000E+00
        -11   -1    0    0    0    0  0.00000000000E+00  0.00000000000E+00  0.45593999997E+02  0.45594000000E+02  0.51100000000E-03 0.  1.
         11   -1    0    0    0    0 -0.00000000000E+00 -0.00000000000E+00 -0.45593999997E+02  0.45594000000E+02  0.51100000000E-03 0. -1.
         23    2    1    2    0    0  0.00000000000E+00  0.35527136788E-14 -0.17763568394E-14  0.91188000000E+02  0.91188000000E+02 0.  0.
    9900012    2    3    3    0    0 -0.34912032745E+02 -0.22182941948E+02  0.13141182736E+02  0.47787266970E+02  0.19999981425E+02 0.  0.
        -12    1    3    3    0    0  0.34912032745E+02  0.22182941948E+02 -0.13141182736E+02  0.43400733030E+02  0.00000000000E+00 0.  1.
         11    1    4    4    0    0 -0.20630418945E+02 -0.19240080060E+02  0.75271618182E+01  0.29196798315E+02  0.51100000000E-03 0. -1.
        -11    1    4    4    0    0 -0.80400087242E+01  0.33439344587E+01  0.40133576433E+01  0.95880486953E+01  0.51100000000E-03 0.  1.
        -12    1    4    4    0    0 -0.62416050756E+01 -0.62867963465E+01  0.16006632741E+01  0.90024199602E+01  0.00000000000E+00 0.  1.
</event>
<event>
 8    1  0.8600524E-011  0.9118800E+02  0.7816164E-02  0.1184000E+00
        -11   -1    0    0    0    0  0.00000000000E+00  0.00000000000E+00  0.45593999997E+02  0.45594000000E+02  0.51100000000E-03 0. -1.
         11   -1    0    0    0    0 -0.00000000000E+00 -0.00000000000E+00 -0.45593999997E+02  0.45594000000E+02  0.51100000000E-03 0.  1.
         23    2    1    2    0    0  0.35527136788E-14 -0.35527136788E-14  0.35527136788E-14  0.91188000000E+02  0.91188000000E+02 0.  0.
    9900012    2    3    3    0    0 -0.25718420566E+02  0.25517317693E+02 -0.23896697379E+02  0.47787276455E+02  0.20000024667E+02 0.  0.
         12    1    3    3    0    0  0.25718420566E+02 -0.25517317693E+02  0.23896697379E+02  0.43400723545E+02  0.00000000000E+00 0. -1.
         11    1    4    4    0    0 -0.48856894156E+01  0.14986509314E+02 -0.98005780800E+01  0.18561162502E+02  0.51100000000E-03 0. -1.
        -11    1    4    4    0    0 -0.47458984874E+01  0.74356033129E+01 -0.74544826605E+01  0.11549071871E+02  0.51100000000E-03 0.  1.
         12    1    4    4    0    0 -0.16086832663E+02  0.30952050665E+01 -0.66416366384E+01  0.17677042082E+02  0.00000000000E+00 0. -1.
</event>
<event>
 8    1  0.8600524E-011  0.9118800E+02  0.7816164E-02  0.1184000E+00
        -11   -1    0    0    0    0  0.00000000000E+00  0.00000000000E+00  0.45593999997E+02  0.45594000000E+02  0.51100000000E-03 0. -1.
         11   -1    0    0    0    0 -0.00000000000E+00 -0.00000000000E+00 -0.45593999997E+02  0.45594000000E+02  0.51100000000E-03 0.  1.
         23    2    1    2    0    0  0.00000000000E+00  0.00000000000E+00  0.35527136788E-14  0.91188000000E+02  0.91188000000E+02 0.  0.
    9900012    2    3    3    0    0 -0.82345406141E+01  0.28340519229E+02  0.31821851037E+02  0.47787275436E+02  0.20000020022E+02 0.  0.
        -12    1    3    3    0    0  0.82345406141E+01 -0.28340519229E+02 -0.31821851037E+02  0.43400724564E+02  0.00000000000E+00 0.  1.
         11    1    4    4    0    0 -0.49882128136E+01  0.21716509607E+02  0.21091450413E+02  0.30681237546E+02  0.51100000000E-03 0. -1.
        -11    1    4    4    0    0 -0.32156881644E+01  0.25843268916E+01 -0.13716654341E+01  0.43475121825E+01  0.51100000000E-03 0.  1.
         12    1    4    4    0    0 -0.30639636050E-01  0.40396827304E+01  0.12102066058E+02  0.12758525707E+02  0.00000000000E+00 0. -1.
</event>
<event>
 8    1  0.8600524E-011  0.9118800E+02  0.7816164E-02  0.1184000E+00
        -11   -1    0    0    0    0  0.00000000000E+00  0.00000000000E+00  0.45593999997E+02  0.45594000000E+02  0.51100000000E-03 0. -1.
         11   -1    0    0    0    0 -0.00000000000E+00 -0.00000000000E+00 -0.45593999997E+02  0.45594000000E+02  0.51100000000E-03 0.  1.
         23    2    1    2    0    0 -0.17763568394E-14  0.35527136788E-14  0.00000000000E+00  0.91188000000E+02  0.91188000000E+02 0.  0.
    9900012    2    3    3    0    0 -0.15537507173E+02  0.20659219192E+02 -0.34862674496E+02  0.47787267981E+02  0.19999986033E+02 0.  0.
         12    1    3    3    0    0  0.15537507173E+02 -0.20659219192E+02  0.34862674496E+02  0.43400732019E+02  0.00000000000E+00 0. -1.
         11    1    4    4    0    0 -0.27670033399E+01  0.18860838076E+01  0.17647205031E+01  0.37852157571E+01  0.51100000000E-03 0. -1.
        -11    1    4    4    0    0 -0.82059974254E+01  0.14364993863E+02 -0.32394040435E+02  0.36373964568E+02  0.51100000000E-03 0.  1.
         12    1    4    4    0    0 -0.45645064081E+01  0.44081415211E+01 -0.42333545639E+01  0.76280876557E+01  0.00000000000E+00 0. -1.
</event>
<event>
 8    1  0.8600524E-011  0.9118800E+02  0.7816164E-02  0.1184000E+00
        -11   -1    0    0    0    0  0.00000000000E+00  0.00000000000E+00  0.45593999997E+02  0.45594000000E+02  0.51100000000E-03 0. -1.
         11   -1    0    0    0    0 -0.00000000000E+00 -0.00000000000E+00 -0.45593999997E+02  0.45594000000E+02  0.51100000000E-03 0.  1.
         23    2    1    2    0    0  0.00000000000E+00  0.00000000000E+00  0.88817841970E-15  0.91188000000E+02  0.91188000000E+02 0.  0.
    9900012    2    3    3    0    0 -0.37704354572E+02  0.20639756981E+02  0.60002484049E+01  0.47787298361E+02  0.20000124545E+02 0.  0.
        -12    1    3    3    0    0  0.37704354572E+02 -0.20639756981E+02 -0.60002484049E+01  0.43400701639E+02  0.00000000000E+00 0.  1.
         11    1    4    4    0    0 -0.10881086115E+01 -0.25956485945E+01  0.31866811282E+01  0.42516242603E+01  0.51100000000E-03 0. -1.
        -11    1    4    4    0    0 -0.28001261645E+02  0.16638974259E+02  0.15042604288E+01  0.32606577830E+02  0.51100000000E-03 0.  1.
         12    1    4    4    0    0 -0.86149843150E+01  0.65964313164E+01  0.13093068479E+01  0.10929096270E+02  0.00000000000E+00 0. -1.
</event>
<event>
 8    1  0.8600524E-011  0.9118800E+02  0.7816164E-02  0.1184000E+00
        -11   -1    0    0    0    0  0.00000000000E+00  0.00000000000E+00  0.45593999997E+02  0.45594000000E+02  0.51100000000E-03 0. -1.
         11   -1    0    0    0    0 -0.00000000000E+00 -0.00000000000E+00 -0.45593999997E+02  0.45594000000E+02  0.51100000000E-03 0.  1.
         23    2    1    2    0    0  0.00000000000E+00  0.00000000000E+00  0.71054273576E-14  0.91188000000E+02  0.91188000000E+02 0.  0.
    9900012    2    3    3    0    0 -0.12184875658E+02 -0.93867038702E+01 -0.40583765043E+02  0.47787269714E+02  0.19999993932E+02 0.  0.
         12    1    3    3    0    0  0.12184875658E+02  0.93867038702E+01  0.40583765043E+02  0.43400730286E+02  0.00000000000E+00 0. -1.
         11    1    4    4    0    0 -0.96228238077E+00 -0.46683480444E+01 -0.20724201107E+02  0.21265276218E+02  0.51100000000E-03 0. -1.
        -11    1    4    4    0    0 -0.79849592064E+01  0.34976147250E+01 -0.90847118138E+01  0.12590666038E+02  0.51100000000E-03 0.  1.
        -12    1    4    4    0    0 -0.32376340711E+01 -0.82159705508E+01 -0.10774852122E+02  0.13931327458E+02  0.00000000000E+00 0.  1.
</event>
<event>
 8    1  0.8600524E-011  0.9118800E+02  0.7816164E-02  0.1184000E+00
        -11   -1    0    0    0    0  0.00000000000E+00  0.00000000000E+00  0.45593999997E+02  0.45594000000E+02  0.51100000000E-03 0. -1.
         11   -1    0    0    0    0 -0.00000000000E+00 -0.00000000000E+00 -0.45593999997E+02  0.45594000000E+02  0.51100000000E-03 0.  1.
         23    2    1    2    0    0 -0.35527136788E-14  0.35527136788E-14 -0.35527136788E-14  0.91188000000E+02  0.91188000000E+02 0.  0.
    9900012    2    3    3    0    0  0.16718861070E+02 -0.24473173122E+02  0.31704361377E+02  0.47787273641E+02  0.20000011839E+02 0.  0.
        -12    1    3    3    0    0 -0.16718861070E+02  0.24473173122E+02 -0.31704361377E+02  0.43400726359E+02  0.00000000000E+00 0.  1.
         11    1    4    4    0    0  0.58377502936E+01 -0.10645416955E+02  0.24428193064E+02  0.27278945127E+02  0.51100000000E-03 0. -1.
        -11    1    4    4    0    0  0.10966159646E+02 -0.10215806167E+02  0.77362411845E+01  0.16866202328E+02  0.51100000000E-03 0.  1.
         12    1    4    4    0    0 -0.85048869120E-01 -0.36119499999E+01 -0.46007287083E+00  0.36421261865E+01  0.00000000000E+00 0. -1.
</event>
<event>
 8    1  0.8600524E-011  0.9118800E+02  0.7816164E-02  0.1184000E+00
        -11   -1    0    0    0    0  0.00000000000E+00  0.00000000000E+00  0.45593999997E+02  0.45594000000E+02  0.51100000000E-03 0. -1.
         11   -1    0    0    0    0 -0.00000000000E+00 -0.00000000000E+00 -0.45593999997E+02  0.45594000000E+02  0.51100000000E-03 0.  1.
         23    2    1    2    0    0  0.00000000000E+00 -0.55511151231E-15  0.35527136788E-14  0.91188000000E+02  0.91188000000E+02 0.  0.
    9900012    2    3    3    0    0 -0.30115418848E+02  0.27699798635E-01  0.31251948364E+02  0.47787268483E+02  0.19999988321E+02 0.  0.
        -12    1    3    3    0    0  0.30115418848E+02 -0.27699798635E-01 -0.31251948364E+02  0.43400731517E+02  0.00000000000E+00 0.  1.
         11    1    4    4    0    0 -0.17842835458E+02 -0.40070636300E+01  0.23595889562E+02  0.29852794519E+02  0.51100000000E-03 0. -1.
        -11    1    4    4    0    0  0.10073290778E+01  0.14789374515E+01  0.32520217101E+01  0.37118207554E+01  0.51100000000E-03 0.  1.
         12    1    4    4    0    0 -0.13279912468E+02  0.25558259772E+01  0.44040370920E+01  0.14222653208E+02  0.00000000000E+00 0. -1.
</event>
<event>
 8    1  0.8600524E-011  0.9118800E+02  0.7816164E-02  0.1184000E+00
        -11   -1    0    0    0    0  0.00000000000E+00  0.00000000000E+00  0.45593999997E+02  0.45594000000E+02  0.51100000000E-03 0. -1.
         11   -1    0    0    0    0 -0.00000000000E+00 -0.00000000000E+00 -0.45593999997E+02  0.45594000000E+02  0.51100000000E-03 0.  1.
         23    2    1    2    0    0  0.00000000000E+00  0.00000000000E+00 -0.35527136788E-14  0.91188000000E+02  0.91188000000E+02 0.  0.
    9900012    2    3    3    0    0  0.30287625274E+02 -0.42110878255E+01  0.30798533772E+02  0.47787272035E+02  0.20000004517E+02 0.  0.
        -12    1    3    3    0    0 -0.30287625274E+02  0.42110878255E+01 -0.30798533772E+02  0.43400727965E+02  0.00000000000E+00 0.  1.
         11    1    4    4    0    0  0.20032426816E+02  0.54780250381E+01  0.15279740846E+02  0.25783276809E+02  0.51100000000E-03 0. -1.
        -11    1    4    4    0    0  0.95749413798E+00  0.96273026955E+00  0.72106925177E+00  0.15373957601E+01  0.51100000000E-03 0.  1.
         12    1    4    4    0    0  0.92977043201E+01 -0.10651843133E+02  0.14797723674E+02  0.20466599466E+02  0.00000000000E+00 0. -1.
</event>
<event>
 8    1  0.8600524E-011  0.9118800E+02  0.7816164E-02  0.1184000E+00
        -11   -1    0    0    0    0  0.00000000000E+00  0.00000000000E+00  0.45593999997E+02  0.45594000000E+02  0.51100000000E-03 0. -1.
         11   -1    0    0    0    0 -0.00000000000E+00 -0.00000000000E+00 -0.45593999997E+02  0.45594000000E+02  0.51100000000E-03 0.  1.
         23    2    1    2    0    0  0.00000000000E+00  0.00000000000E+00  0.00000000000E+00  0.91188000000E+02  0.91188000000E+02 0.  0.
    9900012    2    3    3    0    0  0.20287247547E+02  0.14167172594E+02 -0.35655886486E+02  0.47787269206E+02  0.19999991617E+02 0.  0.
         12    1    3    3    0    0 -0.20287247547E+02 -0.14167172594E+02  0.35655886486E+02  0.43400730794E+02  0.00000000000E+00 0. -1.
         11    1    4    4    0    0  0.58432793836E+00  0.47163970683E+01 -0.98065322440E+01  0.10897427006E+02  0.51100000000E-03 0. -1.
        -11    1    4    4    0    0  0.19505108531E+02  0.28800043214E+01 -0.20113090480E+02  0.28165228431E+02  0.51100000000E-03 0.  1.
        -12    1    4    4    0    0  0.19781107733E+00  0.65707712047E+01 -0.57362637629E+01  0.87246137682E+01  0.00000000000E+00 0.  1.
</event>
<event>
 8    1  0.8600524E-011  0.9118800E+02  0.7816164E-02  0.1184000E+00
        -11   -1    0    0    0    0  0.00000000000E+00  0.00000000000E+00  0.45593999997E+02  0.45594000000E+02  0.51100000000E-03 0. -1.
         11   -1    0    0    0    0 -0.00000000000E+00 -0.00000000000E+00 -0.45593999997E+02  0.45594000000E+02  0.51100000000E-03 0.  1.
         23    2    1    2    0    0  0.44408920985E-15 -0.88817841970E-15  0.00000000000E+00  0.91188000000E+02  0.91188000000E+02 0.  0.
    9900012    2    3    3    0    0  0.33221100107E+01  0.61970637846E+01 -0.42827366360E+02  0.47787270469E+02  0.19999997378E+02 0.  0.
         12    1    3    3    0    0 -0.33221100107E+01 -0.61970637846E+01  0.42827366360E+02  0.43400729531E+02  0.00000000000E+00 0. -1.
         11    1    4    4    0    0  0.74130472531E+01  0.67359546506E+01 -0.98830787665E+01  0.14071304161E+02  0.51100000000E-03 0. -1.
        -11    1    4    4    0    0 -0.22962265723E+01  0.25910608786E+01 -0.18975447659E+02  0.19288697910E+02  0.51100000000E-03 0.  1.
         12    1    4    4    0    0 -0.17947106701E+01 -0.31299517446E+01 -0.13968839935E+02  0.14427268398E+02  0.00000000000E+00 0. -1.
</event>
<event>
 8    1  0.8600524E-011  0.9118800E+02  0.7816164E-02  0.1184000E+00
        -11   -1    0    0    0    0  0.00000000000E+00  0.00000000000E+00  0.45593999997E+02  0.45594000000E+02  0.51100000000E-03 0. -1.
         11   -1    0    0    0    0 -0.00000000000E+00 -0.00000000000E+00 -0.45593999997E+02  0.45594000000E+02  0.51100000000E-03 0.  1.
         23    2    1    2    0    0  0.00000000000E+00  0.17763568394E-14  0.00000000000E+00  0.91188000000E+02  0.91188000000E+02 0.  0.
    9900012    2    3    3    0    0  0.28014265079E+02 -0.10954907318E+02 -0.31285947471E+02  0.47787313929E+02  0.20000195529E+02 0.  0.
         12    1    3    3    0    0 -0.28014265079E+02  0.10954907318E+02  0.31285947471E+02  0.43400686071E+02  0.00000000000E+00 0. -1.
         11    1    4    4    0    0  0.16963164811E+02 -0.15467185065E+01 -0.27604693208E+02  0.32437021841E+02  0.51100000000E-03 0. -1.
        -11    1    4    4    0    0  0.11225467458E+02 -0.88321755655E+01 -0.36738891968E+01  0.14748420491E+02  0.51100000000E-03 0.  1.
         12    1    4    4    0    0 -0.17436719058E+00 -0.57601324551E+00 -0.73650661985E-02  0.60187159789E+00  0.00000000000E+00 0. -1.
</event>
<event>
 8    1  0.8600524E-011  0.9118800E+02  0.7816164E-02  0.1184000E+00
        -11   -1    0    0    0    0  0.00000000000E+00  0.00000000000E+00  0.45593999997E+02  0.45594000000E+02  0.51100000000E-03 0. -1.
         11   -1    0    0    0    0 -0.00000000000E+00 -0.00000000000E+00 -0.45593999997E+02  0.45594000000E+02  0.51100000000E-03 0.  1.
         23    2    1    2    0    0  0.88817841970E-15  0.00000000000E+00  0.00000000000E+00  0.91188000000E+02  0.91188000000E+02 0.  0.
    9900012    2    3    3    0    0  0.67835331267E+01 -0.37629318712E+02  0.20533901697E+02  0.47787273424E+02  0.20000010848E+02 0.  0.
        -12    1    3    3    0    0 -0.67835331267E+01  0.37629318712E+02 -0.20533901697E+02  0.43400726576E+02  0.00000000000E+00 0.  1.
         11    1    4    4    0    0 -0.17911176925E+01 -0.31864443225E+02  0.13654286457E+02  0.34712971402E+02  0.51100000000E-03 0. -1.
        -11    1    4    4    0    0  0.54575333444E+01 -0.27960180927E+01  0.17482282419E+01  0.63764166761E+01  0.51100000000E-03 0.  1.
         12    1    4    4    0    0  0.31171174748E+01 -0.29688573944E+01  0.51313869981E+01  0.66978853457E+01  0.00000000000E+00 0. -1.
</event>
<event>
 8    1  0.8600524E-011  0.9118800E+02  0.7816164E-02  0.1184000E+00
        -11   -1    0    0    0    0  0.00000000000E+00  0.00000000000E+00  0.45593999997E+02  0.45594000000E+02  0.51100000000E-03 0. -1.
         11   -1    0    0    0    0 -0.00000000000E+00 -0.00000000000E+00 -0.45593999997E+02  0.45594000000E+02  0.51100000000E-03 0.  1.
         23    2    1    2    0    0  0.00000000000E+00  0.00000000000E+00  0.00000000000E+00  0.91188000000E+02  0.91188000000E+02 0.  0.
    9900012    2    3    3    0    0 -0.18057778925E+02 -0.25513799927E+02 -0.30109564602E+02  0.47787271355E+02  0.20000001415E+02 0.  0.
         12    1    3    3    0    0  0.18057778925E+02  0.25513799927E+02  0.30109564602E+02  0.43400728645E+02  0.00000000000E+00 0. -1.
         11    1    4    4    0    0  0.29595903710E+01 -0.30770502286E+01 -0.11041612408E+01  0.44098282938E+01  0.51100000000E-03 0. -1.
        -11    1    4    4    0    0 -0.16912432480E+02 -0.11836218841E+02 -0.16096222191E+02  0.26176608220E+02  0.51100000000E-03 0.  1.
        -12    1    4    4    0    0 -0.41049368163E+01 -0.10600530857E+02 -0.12909181171E+02  0.17200834841E+02  0.00000000000E+00 0.  1.
</event>
<event>
 8    1  0.8600524E-011  0.9118800E+02  0.7816164E-02  0.1184000E+00
        -11   -1    0    0    0    0  0.00000000000E+00  0.00000000000E+00  0.45593999997E+02  0.45594000000E+02  0.51100000000E-03 0.  1.
         11   -1    0    0    0    0 -0.00000000000E+00 -0.00000000000E+00 -0.45593999997E+02  0.45594000000E+02  0.51100000000E-03 0. -1.
         23    2    1    2    0    0  0.00000000000E+00  0.55511151231E-16  0.17763568394E-14  0.91188000000E+02  0.91188000000E+02 0.  0.
    9900012    2    3    3    0    0  0.41847661387E+02 -0.39630305475E+00 -0.11499547672E+02  0.47787269403E+02  0.19999992515E+02 0.  0.
         12    1    3    3    0    0 -0.41847661387E+02  0.39630305475E+00  0.11499547672E+02  0.43400730597E+02  0.00000000000E+00 0. -1.
         11    1    4    4    0    0 -0.52116422963E+00 -0.14797144984E+01  0.14134191758E+01  0.21116157744E+01  0.51100000000E-03 0. -1.
        -11    1    4    4    0    0  0.36749514180E+02  0.39428848579E+01 -0.83477189169E+01  0.37891391434E+02  0.51100000000E-03 0.  1.
        -12    1    4    4    0    0  0.56193114372E+01 -0.28594734142E+01 -0.45652479310E+01  0.77842621941E+01  0.00000000000E+00 0.  1.
</event>
<event>
 8    1  0.8600524E-011  0.9118800E+02  0.7816164E-02  0.1184000E+00
        -11   -1    0    0    0    0  0.00000000000E+00  0.00000000000E+00  0.45593999997E+02  0.45594000000E+02  0.51100000000E-03 0. -1.
         11   -1    0    0    0    0 -0.00000000000E+00 -0.00000000000E+00 -0.45593999997E+02  0.45594000000E+02  0.51100000000E-03 0.  1.
         23    2    1    2    0    0 -0.17763568394E-14  0.35527136788E-14  0.00000000000E+00  0.91188000000E+02  0.91188000000E+02 0.  0.
    9900012    2    3    3    0    0 -0.95995402188E+01  0.14689623037E+02 -0.39694947573E+02  0.47787250465E+02  0.19999906169E+02 0.  0.
         12    1    3    3    0    0  0.95995402188E+01 -0.14689623037E+02  0.39694947573E+02  0.43400749535E+02  0.00000000000E+00 0. -1.
         11    1    4    4    0    0  0.30264420563E+01  0.12340042332E+01 -0.37844219705E+01  0.50003967722E+01  0.51100000000E-03 0. -1.
        -11    1    4    4    0    0 -0.97989832818E+01  0.23568622605E+01 -0.25057156986E+02  0.27008072674E+02  0.51100000000E-03 0.  1.
        -12    1    4    4    0    0 -0.28269989933E+01  0.11098756543E+02 -0.10853368616E+02  0.15778781018E+02  0.00000000000E+00 0.  1.
</event>
<event>
 8    1  0.8600524E-011  0.9118800E+02  0.7816164E-02  0.1184000E+00
        -11   -1    0    0    0    0  0.00000000000E+00  0.00000000000E+00  0.45593999997E+02  0.45594000000E+02  0.51100000000E-03 0. -1.
         11   -1    0    0    0    0 -0.00000000000E+00 -0.00000000000E+00 -0.45593999997E+02  0.45594000000E+02  0.51100000000E-03 0.  1.
         23    2    1    2    0    0  0.00000000000E+00  0.00000000000E+00  0.00000000000E+00  0.91188000000E+02  0.91188000000E+02 0.  0.
    9900012    2    3    3    0    0  0.36154733665E+02 -0.17969328911E+02 -0.15923620819E+02  0.47787271344E+02  0.20000001366E+02 0.  0.
         12    1    3    3    0    0 -0.36154733665E+02  0.17969328911E+02  0.15923620819E+02  0.43400728656E+02  0.00000000000E+00 0. -1.
         11    1    4    4    0    0 -0.10866406718E+01  0.10978470015E+01  0.19782911126E+00  0.15573029913E+01  0.51100000000E-03 0. -1.
        -11    1    4    4    0    0  0.22688763348E+02 -0.14619739783E+02 -0.15219359271E+02  0.30986217427E+02  0.51100000000E-03 0.  1.
         12    1    4    4    0    0  0.14552610989E+02 -0.44474361295E+01 -0.90209065937E+00  0.15243750925E+02  0.00000000000E+00 0. -1.
</event>
<event>
 8    1  0.8600524E-011  0.9118800E+02  0.7816164E-02  0.1184000E+00
        -11   -1    0    0    0    0  0.00000000000E+00  0.00000000000E+00  0.45593999997E+02  0.45594000000E+02  0.51100000000E-03 0. -1.
         11   -1    0    0    0    0 -0.00000000000E+00 -0.00000000000E+00 -0.45593999997E+02  0.45594000000E+02  0.51100000000E-03 0.  1.
         23    2    1    2    0    0  0.00000000000E+00  0.88817841970E-15  0.00000000000E+00  0.91188000000E+02  0.91188000000E+02 0.  0.
    9900012    2    3    3    0    0 -0.21361744532E+02 -0.75292873521E+01  0.37021726910E+02  0.47787279258E+02  0.20000037448E+02 0.  0.
        -12    1    3    3    0    0  0.21361744532E+02  0.75292873521E+01 -0.37021726910E+02  0.43400720742E+02  0.00000000000E+00 0.  1.
         11    1    4    4    0    0 -0.15658508823E+02 -0.19223661409E+01  0.29039313940E+02  0.33047937068E+02  0.51100000000E-03 0. -1.
        -11    1    4    4    0    0 -0.65822249852E-01 -0.66216497756E+01  0.48735460687E+01  0.82220453577E+01  0.51100000000E-03 0.  1.
         12    1    4    4    0    0 -0.56374134600E+01  0.10147285644E+01  0.31088669022E+01  0.65172968318E+01  0.00000000000E+00 0. -1.
</event>
<event>
 8    1  0.8600524E-011  0.9118800E+02  0.7816164E-02  0.1184000E+00
        -11   -1    0    0    0    0  0.00000000000E+00  0.00000000000E+00  0.45593999997E+02  0.45594000000E+02  0.51100000000E-03 0. -1.
         11   -1    0    0    0    0 -0.00000000000E+00 -0.00000000000E+00 -0.45593999997E+02  0.45594000000E+02  0.51100000000E-03 0.  1.
         23    2    1    2    0    0 -0.71054273576E-14  0.17763568394E-14  0.00000000000E+00  0.91188000000E+02  0.91188000000E+02 0.  0.
    9900012    2    3    3    0    0 -0.36043816243E+02  0.67178005018E+01 -0.23223649122E+02  0.47787269459E+02  0.19999992770E+02 0.  0.
         12    1    3    3    0    0  0.36043816243E+02 -0.67178005018E+01  0.23223649122E+02  0.43400730541E+02  0.00000000000E+00 0. -1.
         11    1    4    4    0    0 -0.12711002505E+01  0.52754272153E+01 -0.12770759046E+01  0.55746525701E+01  0.51100000000E-03 0. -1.
        -11    1    4    4    0    0 -0.29599670537E+02  0.39742467490E+01 -0.15791757281E+02  0.33783349914E+02  0.51100000000E-03 0.  1.
         12    1    4    4    0    0 -0.51730454560E+01 -0.25318734625E+01 -0.61548159364E+01  0.84292669747E+01  0.00000000000E+00 0. -1.
</event>
<event>
 8    1  0.8600524E-011  0.9118800E+02  0.7816164E-02  0.1184000E+00
        -11   -1    0    0    0    0  0.00000000000E+00  0.00000000000E+00  0.45593999997E+02  0.45594000000E+02  0.51100000000E-03 0. -1.
         11   -1    0    0    0    0 -0.00000000000E+00 -0.00000000000E+00 -0.45593999997E+02  0.45594000000E+02  0.51100000000E-03 0.  1.
         23    2    1    2    0    0  0.00000000000E+00  0.00000000000E+00  0.71054273576E-14  0.91188000000E+02  0.91188000000E+02 0.  0.
    9900012    2    3    3    0    0 -0.63637972975E+01  0.49457704475E+01 -0.42645802384E+02  0.47787273942E+02  0.20000013211E+02 0.  0.
         12    1    3    3    0    0  0.63637972975E+01 -0.49457704475E+01  0.42645802384E+02  0.43400726058E+02  0.00000000000E+00 0. -1.
         11    1    4    4    0    0 -0.71454620436E+01  0.30798647325E+01 -0.16907301587E+02  0.18611825321E+02  0.51100000000E-03 0. -1.
        -11    1    4    4    0    0  0.45750419297E+01  0.37588102901E+01 -0.23778923104E+02  0.24505037191E+02  0.51100000000E-03 0.  1.
        -12    1    4    4    0    0 -0.37933771836E+01 -0.18929045751E+01 -0.19595776934E+01  0.46704114298E+01  0.00000000000E+00 0.  1.
</event>
<event>
 8    1  0.8600524E-011  0.9118800E+02  0.7816164E-02  0.1184000E+00
        -11   -1    0    0    0    0  0.00000000000E+00  0.00000000000E+00  0.45593999997E+02  0.45594000000E+02  0.51100000000E-03 0. -1.
         11   -1    0    0    0    0 -0.00000000000E+00 -0.00000000000E+00 -0.45593999997E+02  0.45594000000E+02  0.51100000000E-03 0.  1.
         23    2    1    2    0    0 -0.88817841970E-15  0.00000000000E+00  0.00000000000E+00  0.91188000000E+02  0.91188000000E+02 0.  0.
    9900012    2    3    3    0    0 -0.70612295839E+01  0.60446567875E+01  0.42393674646E+02  0.47787280087E+02  0.20000041231E+02 0.  0.
        -12    1    3    3    0    0  0.70612295839E+01 -0.60446567875E+01 -0.42393674646E+02  0.43400719913E+02  0.00000000000E+00 0.  1.
         11    1    4    4    0    0  0.43182698087E+01 -0.10003644115E+01  0.20063098060E+02  0.20546924031E+02  0.51100000000E-03 0. -1.
        -11    1    4    4    0    0 -0.80249628158E+01  0.65593375642E+01  0.98168129902E+01  0.14275670038E+02  0.51100000000E-03 0.  1.
         12    1    4    4    0    0 -0.33545365769E+01  0.48568363482E+00  0.12513763596E+02  0.12964686019E+02  0.00000000000E+00 0. -1.
</event>
<event>
 8    1  0.8600524E-011  0.9118800E+02  0.7816164E-02  0.1184000E+00
        -11   -1    0    0    0    0  0.00000000000E+00  0.00000000000E+00  0.45593999997E+02  0.45594000000E+02  0.51100000000E-03 0. -1.
         11   -1    0    0    0    0 -0.00000000000E+00 -0.00000000000E+00 -0.45593999997E+02  0.45594000000E+02  0.51100000000E-03 0.  1.
         23    2    1    2    0    0  0.00000000000E+00  0.00000000000E+00  0.00000000000E+00  0.91188000000E+02  0.91188000000E+02 0.  0.
    9900012    2    3    3    0    0 -0.48419459925E+00  0.41922791366E+02  0.11219105964E+02  0.47787271677E+02  0.20000002886E+02 0.  0.
        -12    1    3    3    0    0  0.48419459925E+00 -0.41922791366E+02 -0.11219105964E+02  0.43400728323E+02  0.00000000000E+00 0.  1.
         11    1    4    4    0    0 -0.85489054649E+00  0.13789131926E+02  0.25505645952E+01  0.14049070330E+02  0.51100000000E-03 0. -1.
        -11    1    4    4    0    0 -0.13577523644E+01  0.26710940267E+02  0.12326726772E+02  0.29449380547E+02  0.51100000000E-03 0.  1.
        -12    1    4    4    0    0  0.17284483116E+01  0.14227191721E+01 -0.36581854033E+01  0.42888207998E+01  0.00000000000E+00 0.  1.
</event>
<event>
 8    1  0.8600524E-011  0.9118800E+02  0.7816164E-02  0.1184000E+00
        -11   -1    0    0    0    0  0.00000000000E+00  0.00000000000E+00  0.45593999997E+02  0.45594000000E+02  0.51100000000E-03 0. -1.
         11   -1    0    0    0    0 -0.00000000000E+00 -0.00000000000E+00 -0.45593999997E+02  0.45594000000E+02  0.51100000000E-03 0.  1.
         23    2    1    2    0    0  0.00000000000E+00  0.00000000000E+00  0.00000000000E+00  0.91188000000E+02  0.91188000000E+02 0.  0.
    9900012    2    3    3    0    0 -0.79016931647E+01  0.30945424863E+02 -0.29386524086E+02  0.47787264146E+02  0.19999968546E+02 0.  0.
         12    1    3    3    0    0  0.79016931647E+01 -0.30945424863E+02  0.29386524086E+02  0.43400735854E+02  0.00000000000E+00 0. -1.
         11    1    4    4    0    0 -0.92819124737E+00  0.18158148062E+02 -0.16170624366E+02  0.24332467460E+02  0.51100000000E-03 0.  1.
        -11    1    4    4    0    0 -0.91350940053E+01  0.35772330458E+01 -0.55011046030E+01  0.11247608229E+02  0.51100000000E-03 0. -1.
         12    1    4    4    0    0  0.21615920880E+01  0.92100437551E+01 -0.77147951175E+01  0.12207188457E+02  0.00000000000E+00 0. -1.
</event>
<event>
 8    1  0.8600524E-011  0.9118800E+02  0.7816164E-02  0.1184000E+00
        -11   -1    0    0    0    0  0.00000000000E+00  0.00000000000E+00  0.45593999997E+02  0.45594000000E+02  0.51100000000E-03 0. -1.
         11   -1    0    0    0    0 -0.00000000000E+00 -0.00000000000E+00 -0.45593999997E+02  0.45594000000E+02  0.51100000000E-03 0.  1.
         23    2    1    2    0    0  0.17763568394E-14  0.00000000000E+00 -0.35527136788E-14  0.91188000000E+02  0.91188000000E+02 0.  0.
    9900012    2    3    3    0    0  0.94222276405E+01 -0.39099252875E+02 -0.16312362765E+02  0.47787272724E+02  0.20000007660E+02 0.  0.
         12    1    3    3    0    0 -0.94222276405E+01  0.39099252875E+02  0.16312362765E+02  0.43400727276E+02  0.00000000000E+00 0. -1.
         11    1    4    4    0    0 -0.42604347324E+01 -0.14458520411E+02 -0.98892558074E+01  0.18027686964E+02  0.51100000000E-03 0.  1.
        -11    1    4    4    0    0  0.10326225852E+02 -0.14039821027E+02 -0.66065145386E+01  0.18638496437E+02  0.51100000000E-03 0. -1.
         12    1    4    4    0    0  0.33564365204E+01 -0.10600911436E+02  0.18340758048E+00  0.11121089323E+02  0.00000000000E+00 0. -1.
</event>
<event>
 8    1  0.8600524E-011  0.9118800E+02  0.7816164E-02  0.1184000E+00
        -11   -1    0    0    0    0  0.00000000000E+00  0.00000000000E+00  0.45593999997E+02  0.45594000000E+02  0.51100000000E-03 0. -1.
         11   -1    0    0    0    0 -0.00000000000E+00 -0.00000000000E+00 -0.45593999997E+02  0.45594000000E+02  0.51100000000E-03 0.  1.
         23    2    1    2    0    0 -0.11102230246E-15 -0.88817841970E-15  0.00000000000E+00  0.91188000000E+02  0.91188000000E+02 0.  0.
    9900012    2    3    3    0    0 -0.21589957534E+00  0.46612525959E+01  0.43149155257E+02  0.47787268580E+02  0.19999988763E+02 0.  0.
        -12    1    3    3    0    0  0.21589957534E+00 -0.46612525959E+01 -0.43149155257E+02  0.43400731420E+02  0.00000000000E+00 0.  1.
         11    1    4    4    0    0  0.48920230715E+01  0.10484270489E+02  0.26712506215E+02  0.29110304120E+02  0.51100000000E-03 0. -1.
        -11    1    4    4    0    0 -0.20399033168E+01 -0.20968329812E+01  0.22466990160E+01  0.36885730063E+01  0.51100000000E-03 0.  1.
         12    1    4    4    0    0 -0.30680193301E+01 -0.37261849121E+01  0.14189950026E+02  0.14988391453E+02  0.00000000000E+00 0. -1.
</event>
<event>
 8    1  0.8600524E-011  0.9118800E+02  0.7816164E-02  0.1184000E+00
        -11   -1    0    0    0    0  0.00000000000E+00  0.00000000000E+00  0.45593999997E+02  0.45594000000E+02  0.51100000000E-03 0. -1.
         11   -1    0    0    0    0 -0.00000000000E+00 -0.00000000000E+00 -0.45593999997E+02  0.45594000000E+02  0.51100000000E-03 0.  1.
         23    2    1    2    0    0  0.00000000000E+00  0.00000000000E+00 -0.35527136788E-14  0.91188000000E+02  0.91188000000E+02 0.  0.
    9900012    2    3    3    0    0  0.19080099219E+02  0.32302349080E+02 -0.21820437522E+02  0.47787269177E+02  0.19999991487E+02 0.  0.
         12    1    3    3    0    0 -0.19080099219E+02 -0.32302349080E+02  0.21820437522E+02  0.43400730823E+02  0.00000000000E+00 0. -1.
         11    1    4    4    0    0  0.12952399999E+02  0.14102826030E+02 -0.72475505655E+01  0.20473918952E+02  0.51100000000E-03 0.  1.
        -11    1    4    4    0    0 -0.39307803883E+01  0.34059706910E+01 -0.36316010930E+01  0.63435161834E+01  0.51100000000E-03 0. -1.
         12    1    4    4    0    0  0.10058479608E+02  0.14793552358E+02 -0.10941285864E+02  0.20969834042E+02  0.00000000000E+00 0. -1.
</event>
<event>
 8    1  0.8600524E-011  0.9118800E+02  0.7816164E-02  0.1184000E+00
        -11   -1    0    0    0    0  0.00000000000E+00  0.00000000000E+00  0.45593999997E+02  0.45594000000E+02  0.51100000000E-03 0. -1.
         11   -1    0    0    0    0 -0.00000000000E+00 -0.00000000000E+00 -0.45593999997E+02  0.45594000000E+02  0.51100000000E-03 0.  1.
         23    2    1    2    0    0  0.00000000000E+00 -0.17763568394E-14  0.00000000000E+00  0.91188000000E+02  0.91188000000E+02 0.  0.
    9900012    2    3    3    0    0 -0.38804536606E+02  0.98828515807E+01  0.16737996168E+02  0.47787270372E+02  0.19999996933E+02 0.  0.
        -12    1    3    3    0    0  0.38804536606E+02 -0.98828515807E+01 -0.16737996168E+02  0.43400729628E+02  0.00000000000E+00 0.  1.
         11    1    4    4    0    0 -0.19631595657E+02  0.13696403822E+02  0.64731223738E+01  0.24797022790E+02  0.51100000000E-03 0. -1.
        -11    1    4    4    0    0 -0.11820074140E+02 -0.54511272550E+01  0.70105261269E+01  0.14784330146E+02  0.51100000000E-03 0.  1.
         12    1    4    4    0    0 -0.73528668081E+01  0.16375750139E+01  0.32543476674E+01  0.82059174359E+01  0.00000000000E+00 0. -1.
</event>
<event>
 8    1  0.8600524E-011  0.9118800E+02  0.7816164E-02  0.1184000E+00
        -11   -1    0    0    0    0  0.00000000000E+00  0.00000000000E+00  0.45593999997E+02  0.45594000000E+02  0.51100000000E-03 0. -1.
         11   -1    0    0    0    0 -0.00000000000E+00 -0.00000000000E+00 -0.45593999997E+02  0.45594000000E+02  0.51100000000E-03 0.  1.
         23    2    1    2    0    0 -0.88817841970E-15  0.00000000000E+00  0.00000000000E+00  0.91188000000E+02  0.91188000000E+02 0.  0.
    9900012    2    3    3    0    0  0.68022698647E+01  0.42380970986E+02  0.64191693901E+01  0.47787270598E+02  0.19999997963E+02 0.  0.
        -12    1    3    3    0    0 -0.68022698647E+01 -0.42380970986E+02 -0.64191693901E+01  0.43400729402E+02  0.00000000000E+00 0.  1.
         11    1    4    4    0    0 -0.22787637192E+01  0.29318031783E+02 -0.49763080232E+00  0.29410667935E+02  0.51100000000E-03 0. -1.
        -11    1    4    4    0    0  0.85365708008E+01  0.96336768447E+01  0.74368646004E+01  0.14865655920E+02  0.51100000000E-03 0.  1.
        -12    1    4    4    0    0  0.54446278308E+00  0.34292623581E+01 -0.52006440797E+00  0.35109467429E+01  0.00000000000E+00 0.  1.
</event>
<event>
 8    1  0.8600524E-011  0.9118800E+02  0.7816164E-02  0.1184000E+00
        -11   -1    0    0    0    0  0.00000000000E+00  0.00000000000E+00  0.45593999997E+02  0.45594000000E+02  0.51100000000E-03 0. -1.
         11   -1    0    0    0    0 -0.00000000000E+00 -0.00000000000E+00 -0.45593999997E+02  0.45594000000E+02  0.51100000000E-03 0.  1.
         23    2    1    2    0    0  0.00000000000E+00  0.00000000000E+00  0.00000000000E+00  0.91188000000E+02  0.91188000000E+02 0.  0.
    9900012    2    3    3    0    0 -0.93060659490E+01 -0.32954363337E+02 -0.26665151221E+02  0.47787271711E+02  0.20000003038E+02 0.  0.
         12    1    3    3    0    0  0.93060659490E+01  0.32954363337E+02  0.26665151221E+02  0.43400728289E+02  0.00000000000E+00 0. -1.
         11    1    4    4    0    0 -0.31695745472E+01 -0.49668262790E+01  0.25073257336E+01  0.64032998284E+01  0.51100000000E-03 0. -1.
        -11    1    4    4    0    0 -0.24789725403E+01 -0.38898971294E+01 -0.24781323837E+01  0.52361956519E+01  0.51100000000E-03 0.  1.
         12    1    4    4    0    0 -0.36575188615E+01 -0.24097639929E+02 -0.26694344571E+02  0.36147776231E+02  0.00000000000E+00 0. -1.
</event>
<event>
 8    1  0.8600524E-011  0.9118800E+02  0.7816164E-02  0.1184000E+00
        -11   -1    0    0    0    0  0.00000000000E+00  0.00000000000E+00  0.45593999997E+02  0.45594000000E+02  0.51100000000E-03 0. -1.
         11   -1    0    0    0    0 -0.00000000000E+00 -0.00000000000E+00 -0.45593999997E+02  0.45594000000E+02  0.51100000000E-03 0.  1.
         23    2    1    2    0    0  0.00000000000E+00  0.00000000000E+00  0.00000000000E+00  0.91188000000E+02  0.91188000000E+02 0.  0.
    9900012    2    3    3    0    0 -0.19669703163E+02 -0.20122110703E+02  0.33042802275E+02  0.47787270238E+02  0.19999996325E+02 0.  0.
        -12    1    3    3    0    0  0.19669703163E+02  0.20122110703E+02 -0.33042802275E+02  0.43400729762E+02  0.00000000000E+00 0.  1.
         11    1    4    4    0    0 -0.13664780590E+02 -0.17146507169E+02  0.31904908652E+02  0.38712428664E+02  0.51100000000E-03 0. -1.
        -11    1    4    4    0    0 -0.46763833363E+01 -0.42498916215E+01 -0.83792554524E+00  0.63743438394E+01  0.51100000000E-03 0.  1.
         12    1    4    4    0    0 -0.13285392364E+01  0.12742880877E+01  0.19758191681E+01  0.27004977353E+01  0.00000000000E+00 0. -1.
</event>
<event>
 8    1  0.8600524E-011  0.9118800E+02  0.7816164E-02  0.1184000E+00
        -11   -1    0    0    0    0  0.00000000000E+00  0.00000000000E+00  0.45593999997E+02  0.45594000000E+02  0.51100000000E-03 0. -1.
         11   -1    0    0    0    0 -0.00000000000E+00 -0.00000000000E+00 -0.45593999997E+02  0.45594000000E+02  0.51100000000E-03 0.  1.
         23    2    1    2    0    0 -0.88817841970E-15  0.00000000000E+00  0.00000000000E+00  0.91188000000E+02  0.91188000000E+02 0.  0.
    9900012    2    3    3    0    0 -0.40994555640E+01  0.11258748510E+02 -0.41714006365E+02  0.47787270963E+02  0.19999999628E+02 0.  0.
         12    1    3    3    0    0  0.40994555640E+01 -0.11258748510E+02  0.41714006365E+02  0.43400729037E+02  0.00000000000E+00 0. -1.
         11    1    4    4    0    0  0.49731072611E+01  0.51518983638E+00 -0.37387966213E+01  0.62430614953E+01  0.51100000000E-03 0. -1.
        -11    1    4    4    0    0 -0.82373380631E+01  0.11200400486E+02 -0.38124531677E+02  0.40580569553E+02  0.51100000000E-03 0.  1.
        -12    1    4    4    0    0 -0.83522476205E+00 -0.45684181223E+00  0.14932193318E+00  0.96363991422E+00  0.00000000000E+00 0.  1.
</event>
<event>
 8    1  0.8600524E-011  0.9118800E+02  0.7816164E-02  0.1184000E+00
        -11   -1    0    0    0    0  0.00000000000E+00  0.00000000000E+00  0.45593999997E+02  0.45594000000E+02  0.51100000000E-03 0. -1.
         11   -1    0    0    0    0 -0.00000000000E+00 -0.00000000000E+00 -0.45593999997E+02  0.45594000000E+02  0.51100000000E-03 0.  1.
         23    2    1    2    0    0  0.00000000000E+00  0.00000000000E+00 -0.71054273576E-14  0.91188000000E+02  0.91188000000E+02 0.  0.
    9900012    2    3    3    0    0 -0.10398290558E+02 -0.45561865022E+01  0.41889599188E+02  0.47787288000E+02  0.20000077309E+02 0.  0.
        -12    1    3    3    0    0  0.10398290558E+02  0.45561865022E+01 -0.41889599188E+02  0.43400712000E+02  0.00000000000E+00 0.  1.
         11    1    4    4    0    0 -0.74259525515E+01 -0.96354257908E+01  0.27210501496E+02  0.29805999285E+02  0.51100000000E-03 0. -1.
        -11    1    4    4    0    0 -0.43335746821E+01  0.62973541634E+01  0.80340763370E+01  0.11089766537E+02  0.51100000000E-03 0.  1.
        -12    1    4    4    0    0  0.13612366756E+01 -0.12181148749E+01  0.66450213546E+01  0.68915221786E+01  0.00000000000E+00 0.  1.
</event>
<event>
 8    1  0.8600524E-011  0.9118800E+02  0.7816164E-02  0.1184000E+00
        -11   -1    0    0    0    0  0.00000000000E+00  0.00000000000E+00  0.45593999997E+02  0.45594000000E+02  0.51100000000E-03 0. -1.
         11   -1    0    0    0    0 -0.00000000000E+00 -0.00000000000E+00 -0.45593999997E+02  0.45594000000E+02  0.51100000000E-03 0.  1.
         23    2    1    2    0    0  0.00000000000E+00  0.00000000000E+00 -0.71054273576E-14  0.91188000000E+02  0.91188000000E+02 0.  0.
    9900012    2    3    3    0    0  0.41612252431E+01 -0.27196603440E+02  0.33565643600E+02  0.47787268849E+02  0.19999989991E+02 0.  0.
        -12    1    3    3    0    0 -0.41612252431E+01  0.27196603440E+02 -0.33565643600E+02  0.43400731151E+02  0.00000000000E+00 0.  1.
         11    1    4    4    0    0  0.18548890752E+01 -0.11014145961E+02  0.14042371631E+02  0.17942692831E+02  0.51100000000E-03 0. -1.
        -11    1    4    4    0    0  0.75861193466E+00 -0.16629501034E+02  0.84759418956E+01  0.18680401173E+02  0.51100000000E-03 0.  1.
        -12    1    4    4    0    0  0.15477242332E+01  0.44704355512E+00  0.11047330073E+02  0.11164174846E+02  0.00000000000E+00 0.  1.
</event>
<event>
 8    1  0.8600524E-011  0.9118800E+02  0.7816164E-02  0.1184000E+00
        -11   -1    0    0    0    0  0.00000000000E+00  0.00000000000E+00  0.45593999997E+02  0.45594000000E+02  0.51100000000E-03 0. -1.
         11   -1    0    0    0    0 -0.00000000000E+00 -0.00000000000E+00 -0.45593999997E+02  0.45594000000E+02  0.51100000000E-03 0.  1.
         23    2    1    2    0    0  0.00000000000E+00  0.00000000000E+00  0.00000000000E+00  0.91188000000E+02  0.91188000000E+02 0.  0.
    9900012    2    3    3    0    0  0.35461359080E+02 -0.11073434087E+02 -0.22438675359E+02  0.47787273254E+02  0.20000010073E+02 0.  0.
         12    1    3    3    0    0 -0.35461359080E+02  0.11073434087E+02  0.22438675359E+02  0.43400726746E+02  0.00000000000E+00 0. -1.
         11    1    4    4    0    0  0.76438498258E+01 -0.42470532954E+01 -0.64093106340E+01  0.10841824796E+02  0.51100000000E-03 0. -1.
        -11    1    4    4    0    0  0.24939935798E+02 -0.87935789418E+01 -0.18838475393E+02  0.32468686200E+02  0.51100000000E-03 0.  1.
        -12    1    4    4    0    0  0.28775734561E+01  0.19671981506E+01  0.28091106681E+01  0.44767622568E+01  0.00000000000E+00 0.  1.
</event>
<event>
 8    1  0.8600524E-011  0.9118800E+02  0.7816164E-02  0.1184000E+00
        -11   -1    0    0    0    0  0.00000000000E+00  0.00000000000E+00  0.45593999997E+02  0.45594000000E+02  0.51100000000E-03 0. -1.
         11   -1    0    0    0    0 -0.00000000000E+00 -0.00000000000E+00 -0.45593999997E+02  0.45594000000E+02  0.51100000000E-03 0.  1.
         23    2    1    2    0    0  0.22204460493E-15  0.00000000000E+00  0.00000000000E+00  0.91188000000E+02  0.91188000000E+02 0.  0.
    9900012    2    3    3    0    0 -0.11344111648E+01 -0.31993431079E+02  0.29304548081E+02  0.47787273518E+02  0.20000011280E+02 0.  0.
        -12    1    3    3    0    0  0.11344111648E+01  0.31993431079E+02 -0.29304548081E+02  0.43400726482E+02  0.00000000000E+00 0.  1.
         11    1    4    4    0    0  0.35878235803E+01 -0.33349645158E+01  0.46987452316E+01  0.67876854213E+01  0.51100000000E-03 0. -1.
        -11    1    4    4    0    0 -0.37280365855E+01 -0.30293439948E+01 -0.83279889600E+00  0.48753190751E+01  0.51100000000E-03 0.  1.
        -12    1    4    4    0    0 -0.99419815959E+00 -0.25629122568E+02  0.25438601746E+02  0.36124269022E+02  0.00000000000E+00 0.  1.
</event>
<event>
 8    1  0.8600524E-011  0.9118800E+02  0.7816164E-02  0.1184000E+00
        -11   -1    0    0    0    0  0.00000000000E+00  0.00000000000E+00  0.45593999997E+02  0.45594000000E+02  0.51100000000E-03 0. -1.
         11   -1    0    0    0    0 -0.00000000000E+00 -0.00000000000E+00 -0.45593999997E+02  0.45594000000E+02  0.51100000000E-03 0.  1.
         23    2    1    2    0    0  0.00000000000E+00  0.00000000000E+00  0.00000000000E+00  0.91188000000E+02  0.91188000000E+02 0.  0.
    9900012    2    3    3    0    0 -0.11608003451E+02  0.26967407164E+02  0.31962980603E+02  0.47787321177E+02  0.20000228571E+02 0.  0.
        -12    1    3    3    0    0  0.11608003451E+02 -0.26967407164E+02 -0.31962980603E+02  0.43400678823E+02  0.00000000000E+00 0.  1.
         11    1    4    4    0    0 -0.33845967286E+01  0.31789871704E+01  0.14438446818E+02  0.15166746560E+02  0.51100000000E-03 0. -1.
        -11    1    4    4    0    0 -0.48245334023E+01  0.23329160433E+02  0.16699611283E+02  0.29093003735E+02  0.51100000000E-03 0.  1.
        -12    1    4    4    0    0 -0.33988733200E+01  0.45925956096E+00  0.82492250253E+00  0.35275708816E+01  0.00000000000E+00 0.  1.
</event>
<event>
 8    1  0.8600524E-011  0.9118800E+02  0.7816164E-02  0.1184000E+00
        -11   -1    0    0    0    0  0.00000000000E+00  0.00000000000E+00  0.45593999997E+02  0.45594000000E+02  0.51100000000E-03 0. -1.
         11   -1    0    0    0    0 -0.00000000000E+00 -0.00000000000E+00 -0.45593999997E+02  0.45594000000E+02  0.51100000000E-03 0.  1.
         23    2    1    2    0    0  0.17763568394E-14  0.00000000000E+00 -0.35527136788E-14  0.91188000000E+02  0.91188000000E+02 0.  0.
    9900012    2    3    3    0    0  0.87047825870E+01  0.34601849436E+02 -0.24709556378E+02  0.47787269584E+02  0.19999993340E+02 0.  0.
         12    1    3    3    0    0 -0.87047825870E+01 -0.34601849436E+02  0.24709556378E+02  0.43400730416E+02  0.00000000000E+00 0. -1.
         11    1    4    4    0    0  0.54652254651E+01  0.50958338975E+01  0.18777095191E+01  0.77046742821E+01  0.51100000000E-03 0. -1.
        -11    1    4    4    0    0  0.27992033115E+01  0.20505927859E+02 -0.15868377039E+02  0.26079378954E+02  0.51100000000E-03 0.  1.
         12    1    4    4    0    0  0.44035381045E+00  0.90000876792E+01 -0.10718888858E+02  0.14003216347E+02  0.00000000000E+00 0. -1.
</event>
<event>
 8    1  0.8600524E-011  0.9118800E+02  0.7816164E-02  0.1184000E+00
        -11   -1    0    0    0    0  0.00000000000E+00  0.00000000000E+00  0.45593999997E+02  0.45594000000E+02  0.51100000000E-03 0. -1.
         11   -1    0    0    0    0 -0.00000000000E+00 -0.00000000000E+00 -0.45593999997E+02  0.45594000000E+02  0.51100000000E-03 0.  1.
         23    2    1    2    0    0 -0.44408920985E-15  0.00000000000E+00  0.00000000000E+00  0.91188000000E+02  0.91188000000E+02 0.  0.
    9900012    2    3    3    0    0  0.13548892914E+01 -0.28140107989E+02  0.33013966940E+02  0.47787269410E+02  0.19999992547E+02 0.  0.
        -12    1    3    3    0    0 -0.13548892914E+01  0.28140107989E+02 -0.33013966940E+02  0.43400730590E+02  0.00000000000E+00 0.  1.
         11    1    4    4    0    0  0.32195933226E+01 -0.11720453167E+02  0.17891956136E+02  0.21629999959E+02  0.51100000000E-03 0. -1.
        -11    1    4    4    0    0 -0.43072868914E+01 -0.70154312212E+01  0.58970816434E-01  0.82324038654E+01  0.51100000000E-03 0.  1.
        -12    1    4    4    0    0  0.24425828602E+01 -0.94042236010E+01  0.15063039988E+02  0.17924865585E+02  0.00000000000E+00 0.  1.
</event>
<event>
 8    1  0.8600524E-011  0.9118800E+02  0.7816164E-02  0.1184000E+00
        -11   -1    0    0    0    0  0.00000000000E+00  0.00000000000E+00  0.45593999997E+02  0.45594000000E+02  0.51100000000E-03 0. -1.
         11   -1    0    0    0    0 -0.00000000000E+00 -0.00000000000E+00 -0.45593999997E+02  0.45594000000E+02  0.51100000000E-03 0.  1.
         23    2    1    2    0    0  0.00000000000E+00  0.00000000000E+00  0.00000000000E+00  0.91188000000E+02  0.91188000000E+02 0.  0.
    9900012    2    3    3    0    0 -0.34895733885E+02  0.25397553304E+02  0.45692592560E+01  0.47787238632E+02  0.19999852218E+02 0.  0.
        -12    1    3    3    0    0  0.34895733885E+02 -0.25397553304E+02 -0.45692592560E+01  0.43400761368E+02  0.00000000000E+00 0.  1.
         11    1    4    4    0    0 -0.13152166067E+02  0.34382008959E+00  0.30357288132E+01  0.13502345507E+02  0.51100000000E-03 0. -1.
        -11    1    4    4    0    0 -0.57954421411E+01  0.10942262955E+02  0.35864226797E+01  0.12891186760E+02  0.51100000000E-03 0.  1.
         12    1    4    4    0    0 -0.15948125677E+02  0.14111470259E+02 -0.20528922369E+01  0.21393706365E+02  0.00000000000E+00 0. -1.
</event>
<event>
 8    1  0.8600524E-011  0.9118800E+02  0.7816164E-02  0.1184000E+00
        -11   -1    0    0    0    0  0.00000000000E+00  0.00000000000E+00  0.45593999997E+02  0.45594000000E+02  0.51100000000E-03 0. -1.
         11   -1    0    0    0    0 -0.00000000000E+00 -0.00000000000E+00 -0.45593999997E+02  0.45594000000E+02  0.51100000000E-03 0.  1.
         23    2    1    2    0    0  0.17763568394E-14 -0.71054273576E-14  0.00000000000E+00  0.91188000000E+02  0.91188000000E+02 0.  0.
    9900012    2    3    3    0    0  0.14399292521E+02 -0.25632133987E+02 -0.31926127940E+02  0.47787267713E+02  0.19999984810E+02 0.  0.
         12    1    3    3    0    0 -0.14399292521E+02  0.25632133987E+02  0.31926127940E+02  0.43400732287E+02  0.00000000000E+00 0. -1.
         11    1    4    4    0    0 -0.29203480649E-01 -0.89589766063E+01 -0.15565334555E+02  0.17959503187E+02  0.51100000000E-03 0. -1.
        -11    1    4    4    0    0 -0.53986976870E+00 -0.70108225151E+01 -0.58144073769E+01  0.91241670913E+01  0.51100000000E-03 0.  1.
         12    1    4    4    0    0  0.14968365770E+02 -0.96623348658E+01 -0.10546386008E+02  0.20703597434E+02  0.00000000000E+00 0. -1.
</event>
<event>
 8    1  0.8600524E-011  0.9118800E+02  0.7816164E-02  0.1184000E+00
        -11   -1    0    0    0    0  0.00000000000E+00  0.00000000000E+00  0.45593999997E+02  0.45594000000E+02  0.51100000000E-03 0. -1.
         11   -1    0    0    0    0 -0.00000000000E+00 -0.00000000000E+00 -0.45593999997E+02  0.45594000000E+02  0.51100000000E-03 0.  1.
         23    2    1    2    0    0  0.00000000000E+00  0.00000000000E+00  0.00000000000E+00  0.91188000000E+02  0.91188000000E+02 0.  0.
    9900012    2    3    3    0    0  0.25959199961E+02  0.24702718698E+02 -0.24485074652E+02  0.47787271268E+02  0.20000001020E+02 0.  0.
         12    1    3    3    0    0 -0.25959199961E+02 -0.24702718698E+02  0.24485074652E+02  0.43400728732E+02  0.00000000000E+00 0. -1.
         11    1    4    4    0    0  0.38320194869E+00  0.10203118045E+02 -0.11220508399E+02  0.15170704353E+02  0.51100000000E-03 0. -1.
        -11    1    4    4    0    0  0.17081191514E+02  0.11602565821E+02 -0.76002783472E+01  0.22003428560E+02  0.51100000000E-03 0.  1.
         12    1    4    4    0    0  0.84948064982E+01  0.28970348321E+01 -0.56642879067E+01  0.10613138355E+02  0.00000000000E+00 0. -1.
</event>
<event>
 8    1  0.8600524E-011  0.9118800E+02  0.7816164E-02  0.1184000E+00
        -11   -1    0    0    0    0  0.00000000000E+00  0.00000000000E+00  0.45593999997E+02  0.45594000000E+02  0.51100000000E-03 0. -1.
         11   -1    0    0    0    0 -0.00000000000E+00 -0.00000000000E+00 -0.45593999997E+02  0.45594000000E+02  0.51100000000E-03 0.  1.
         23    2    1    2    0    0  0.22204460493E-15  0.00000000000E+00  0.00000000000E+00  0.91188000000E+02  0.91188000000E+02 0.  0.
    9900012    2    3    3    0    0  0.11267271723E+01 -0.22752258582E+02  0.36941688088E+02  0.47787273008E+02  0.20000008952E+02 0.  0.
        -12    1    3    3    0    0 -0.11267271723E+01  0.22752258582E+02 -0.36941688088E+02  0.43400726992E+02  0.00000000000E+00 0.  1.
         11    1    4    4    0    0 -0.21255125500E+01  0.25748318443E+01  0.33091518325E+01  0.47008561707E+01  0.51100000000E-03 0.  1.
        -11    1    4    4    0    0  0.30128561382E+01 -0.20516460441E+01  0.49538961772E+01  0.61504179691E+01  0.51100000000E-03 0. -1.
         12    1    4    4    0    0  0.23938358406E+00 -0.23275444382E+02  0.28678640078E+02  0.36935998868E+02  0.00000000000E+00 0. -1.
</event>
<event>
 8    1  0.8600524E-011  0.9118800E+02  0.7816164E-02  0.1184000E+00
        -11   -1    0    0    0    0  0.00000000000E+00  0.00000000000E+00  0.45593999997E+02  0.45594000000E+02  0.51100000000E-03 0. -1.
         11   -1    0    0    0    0 -0.00000000000E+00 -0.00000000000E+00 -0.45593999997E+02  0.45594000000E+02  0.51100000000E-03 0.  1.
         23    2    1    2    0    0  0.00000000000E+00  0.17763568394E-14  0.35527136788E-14  0.91188000000E+02  0.91188000000E+02 0.  0.
    9900012    2    3    3    0    0  0.29029337428E+02 -0.10557991015E+02 -0.30486878544E+02  0.47787269947E+02  0.19999994997E+02 0.  0.
         12    1    3    3    0    0 -0.29029337428E+02  0.10557991015E+02  0.30486878544E+02  0.43400730053E+02  0.00000000000E+00 0. -1.
         11    1    4    4    0    0  0.22497408601E+02 -0.27132939578E+01 -0.24078340341E+02  0.33064510154E+02  0.51100000000E-03 0. -1.
        -11    1    4    4    0    0  0.78630378743E+01 -0.33330639779E+01 -0.38488989505E+01  0.93675345468E+01  0.51100000000E-03 0.  1.
         12    1    4    4    0    0 -0.13311090477E+01 -0.45116330791E+01 -0.25596392527E+01  0.53552252466E+01  0.00000000000E+00 0. -1.
</event>
<event>
 8    1  0.8600524E-011  0.9118800E+02  0.7816164E-02  0.1184000E+00
        -11   -1    0    0    0    0  0.00000000000E+00  0.00000000000E+00  0.45593999997E+02  0.45594000000E+02  0.51100000000E-03 0. -1.
         11   -1    0    0    0    0 -0.00000000000E+00 -0.00000000000E+00 -0.45593999997E+02  0.45594000000E+02  0.51100000000E-03 0.  1.
         23    2    1    2    0    0  0.00000000000E+00  0.00000000000E+00  0.00000000000E+00  0.91188000000E+02  0.91188000000E+02 0.  0.
    9900012    2    3    3    0    0  0.31697295405E+01 -0.42557730228E+02  0.79003481929E+01  0.47787273173E+02  0.20000009707E+02 0.  0.
        -12    1    3    3    0    0 -0.31697295405E+01  0.42557730228E+02 -0.79003481929E+01  0.43400726827E+02  0.00000000000E+00 0.  1.
         11    1    4    4    0    0  0.23589317852E+01 -0.34955173370E+02 -0.89706162112E-01  0.35034793448E+02  0.51100000000E-03 0. -1.
        -11    1    4    4    0    0  0.28473901300E+01 -0.72526023241E+01  0.56130371948E+01  0.96028150995E+01  0.51100000000E-03 0.  1.
         12    1    4    4    0    0 -0.20365923747E+01 -0.34995453397E+00  0.23770171602E+01  0.31496646260E+01  0.00000000000E+00 0. -1.
</event>
<event>
 8    1  0.8600524E-011  0.9118800E+02  0.7816164E-02  0.1184000E+00
        -11   -1    0    0    0    0  0.00000000000E+00  0.00000000000E+00  0.45593999997E+02  0.45594000000E+02  0.51100000000E-03 0. -1.
         11   -1    0    0    0    0 -0.00000000000E+00 -0.00000000000E+00 -0.45593999997E+02  0.45594000000E+02  0.51100000000E-03 0.  1.
         23    2    1    2    0    0  0.00000000000E+00  0.00000000000E+00 -0.71054273576E-14  0.91188000000E+02  0.91188000000E+02 0.  0.
    9900012    2    3    3    0    0  0.18422431562E+02  0.17359847409E+02 -0.35254403598E+02  0.47787271207E+02  0.20000000740E+02 0.  0.
         12    1    3    3    0    0 -0.18422431562E+02 -0.17359847409E+02  0.35254403598E+02  0.43400728793E+02  0.00000000000E+00 0. -1.
         11    1    4    4    0    0 -0.61007629230E+00  0.35377286395E+01 -0.11286271692E-02  0.35899468721E+01  0.51100000000E-03 0. -1.
        -11    1    4    4    0    0  0.19525465636E+02  0.14549905851E+02 -0.28932762137E+02  0.37815979343E+02  0.51100000000E-03 0.  1.
         12    1    4    4    0    0 -0.49295778139E+00 -0.72778708157E+00 -0.63205128340E+01  0.63813449911E+01  0.00000000000E+00 0. -1.
</event>
<event>
 8    1  0.8600524E-011  0.9118800E+02  0.7816164E-02  0.1184000E+00
        -11   -1    0    0    0    0  0.00000000000E+00  0.00000000000E+00  0.45593999997E+02  0.45594000000E+02  0.51100000000E-03 0.  1.
         11   -1    0    0    0    0 -0.00000000000E+00 -0.00000000000E+00 -0.45593999997E+02  0.45594000000E+02  0.51100000000E-03 0. -1.
         23    2    1    2    0    0  0.00000000000E+00  0.00000000000E+00 -0.44408920985E-15  0.91188000000E+02  0.91188000000E+02 0.  0.
    9900012    2    3    3    0    0  0.16715570575E+02  0.39926898898E+02 -0.31710925728E+01  0.47787269783E+02  0.19999994248E+02 0.  0.
        -12    1    3    3    0    0 -0.16715570575E+02 -0.39926898898E+02  0.31710925728E+01  0.43400730217E+02  0.00000000000E+00 0.  1.
         11    1    4    4    0    0  0.15813252505E+02  0.24526581647E+02 -0.43152810057E+01  0.29499725634E+02  0.51100000000E-03 0. -1.
        -11    1    4    4    0    0 -0.19467529989E+01  0.14998536060E+02 -0.16778821172E+00  0.15125279645E+02  0.51100000000E-03 0.  1.
        -12    1    4    4    0    0  0.28490710687E+01  0.40178119169E+00  0.13119766446E+01  0.31622645045E+01  0.00000000000E+00 0.  1.
</event>
<event>
 8    1  0.8600524E-011  0.9118800E+02  0.7816164E-02  0.1184000E+00
        -11   -1    0    0    0    0  0.00000000000E+00  0.00000000000E+00  0.45593999997E+02  0.45594000000E+02  0.51100000000E-03 0. -1.
         11   -1    0    0    0    0 -0.00000000000E+00 -0.00000000000E+00 -0.45593999997E+02  0.45594000000E+02  0.51100000000E-03 0.  1.
         23    2    1    2    0    0 -0.44408920985E-15  0.35527136788E-14 -0.71054273576E-14  0.91188000000E+02  0.91188000000E+02 0.  0.
    9900012    2    3    3    0    0 -0.26054018607E+01  0.23658333571E+02 -0.36292127244E+02  0.47787269982E+02  0.19999995155E+02 0.  0.
         12    1    3    3    0    0  0.26054018607E+01 -0.23658333571E+02  0.36292127244E+02  0.43400730018E+02  0.00000000000E+00 0. -1.
         11    1    4    4    0    0 -0.12118285302E+01 -0.31924911454E+01 -0.80870229061E+01  0.87784091864E+01  0.51100000000E-03 0. -1.
        -11    1    4    4    0    0 -0.90491272473E+00  0.14407921890E+02 -0.13856266823E+02  0.20010077730E+02  0.51100000000E-03 0.  1.
         12    1    4    4    0    0 -0.48866060574E+00  0.12442902827E+02 -0.14348837515E+02  0.18998783066E+02  0.00000000000E+00 0. -1.
</event>
<event>
 8    1  0.8600524E-011  0.9118800E+02  0.7816164E-02  0.1184000E+00
        -11   -1    0    0    0    0  0.00000000000E+00  0.00000000000E+00  0.45593999997E+02  0.45594000000E+02  0.51100000000E-03 0. -1.
         11   -1    0    0    0    0 -0.00000000000E+00 -0.00000000000E+00 -0.45593999997E+02  0.45594000000E+02  0.51100000000E-03 0.  1.
         23    2    1    2    0    0  0.88817841970E-15  0.00000000000E+00  0.00000000000E+00  0.91188000000E+02  0.91188000000E+02 0.  0.
    9900012    2    3    3    0    0  0.51215466861E+01 -0.15389139446E+02 -0.40256261383E+02  0.47787280721E+02  0.20000044121E+02 0.  0.
         12    1    3    3    0    0 -0.51215466861E+01  0.15389139446E+02  0.40256261383E+02  0.43400719279E+02  0.00000000000E+00 0. -1.
         11    1    4    4    0    0  0.75409062769E+00 -0.11030599478E+02 -0.97951044317E+01  0.14771149197E+02  0.51100000000E-03 0. -1.
        -11    1    4    4    0    0  0.17724886107E+01  0.36265023138E+01 -0.13501077241E+02  0.14091569175E+02  0.51100000000E-03 0.  1.
        -12    1    4    4    0    0  0.25949674476E+01 -0.79850422826E+01 -0.16960079711E+02  0.18924562349E+02  0.00000000000E+00 0.  1.
</event>
<event>
 8    1  0.8600524E-011  0.9118800E+02  0.7816164E-02  0.1184000E+00
        -11   -1    0    0    0    0  0.00000000000E+00  0.00000000000E+00  0.45593999997E+02  0.45594000000E+02  0.51100000000E-03 0. -1.
         11   -1    0    0    0    0 -0.00000000000E+00 -0.00000000000E+00 -0.45593999997E+02  0.45594000000E+02  0.51100000000E-03 0.  1.
         23    2    1    2    0    0 -0.26645352591E-14  0.17763568394E-14 -0.71054273576E-14  0.91188000000E+02  0.91188000000E+02 0.  0.
    9900012    2    3    3    0    0 -0.52346604482E+01  0.71611222847E+01  0.42484582730E+02  0.47787272907E+02  0.20000008494E+02 0.  0.
        -12    1    3    3    0    0  0.52346604482E+01 -0.71611222847E+01 -0.42484582730E+02  0.43400727093E+02  0.00000000000E+00 0.  1.
         11    1    4    4    0    0  0.28413638670E+01 -0.14550225777E+01  0.27398998575E+02  0.27584335455E+02  0.51100000000E-03 0. -1.
        -11    1    4    4    0    0 -0.17568361057E+01  0.22528954945E+01  0.25045287526E+00  0.28678804221E+01  0.51100000000E-03 0.  1.
         12    1    4    4    0    0 -0.63191882095E+01  0.63632493679E+01  0.14835131280E+02  0.17335057031E+02  0.00000000000E+00 0. -1.
</event>
<event>
 8    1  0.8600524E-011  0.9118800E+02  0.7816164E-02  0.1184000E+00
        -11   -1    0    0    0    0  0.00000000000E+00  0.00000000000E+00  0.45593999997E+02  0.45594000000E+02  0.51100000000E-03 0.  1.
         11   -1    0    0    0    0 -0.00000000000E+00 -0.00000000000E+00 -0.45593999997E+02  0.45594000000E+02  0.51100000000E-03 0. -1.
         23    2    1    2    0    0 -0.35527136788E-14  0.00000000000E+00  0.00000000000E+00  0.91188000000E+02  0.91188000000E+02 0.  0.
    9900012    2    3    3    0    0 -0.30020633562E+02 -0.30722730324E+02 -0.62047089514E+01  0.47787274071E+02  0.20000013799E+02 0.  0.
         12    1    3    3    0    0  0.30020633562E+02  0.30722730324E+02  0.62047089514E+01  0.43400725929E+02  0.00000000000E+00 0. -1.
         11    1    4    4    0    0 -0.39447474464E-01 -0.74950379148E+01 -0.35684693015E+01  0.83012723642E+01  0.51100000000E-03 0. -1.
        -11    1    4    4    0    0 -0.23448625520E+02 -0.22757784042E+02 -0.35675086389E+01  0.32870684377E+02  0.51100000000E-03 0.  1.
         12    1    4    4    0    0 -0.65325605678E+01 -0.46990836703E+00  0.93126898897E+00  0.66153173299E+01  0.00000000000E+00 0. -1.
</event>
<event>
 8    1  0.8600524E-011  0.9118800E+02  0.7816164E-02  0.1184000E+00
        -11   -1    0    0    0    0  0.00000000000E+00  0.00000000000E+00  0.45593999997E+02  0.45594000000E+02  0.51100000000E-03 0. -1.
         11   -1    0    0    0    0 -0.00000000000E+00 -0.00000000000E+00 -0.45593999997E+02  0.45594000000E+02  0.51100000000E-03 0.  1.
         23    2    1    2    0    0 -0.35527136788E-14  0.00000000000E+00  0.00000000000E+00  0.91188000000E+02  0.91188000000E+02 0.  0.
    9900012    2    3    3    0    0 -0.21662678567E+02 -0.25904202183E+02 -0.27263963721E+02  0.47787273610E+02  0.20000011695E+02 0.  0.
         12    1    3    3    0    0  0.21662678567E+02  0.25904202183E+02  0.27263963721E+02  0.43400726390E+02  0.00000000000E+00 0. -1.
         11    1    4    4    0    0 -0.37479682704E+01  0.14833469796E+01 -0.77583689414E+01  0.87429899525E+01  0.51100000000E-03 0.  1.
        -11    1    4    4    0    0 -0.15018226688E+02 -0.25618702665E+02 -0.14631724700E+02  0.33105172210E+02  0.51100000000E-03 0. -1.
         12    1    4    4    0    0 -0.28964836085E+01 -0.17688464979E+01 -0.48738700798E+01  0.59391114472E+01  0.00000000000E+00 0. -1.
</event>
<event>
 8    1  0.8600524E-011  0.9118800E+02  0.7816164E-02  0.1184000E+00
        -11   -1    0    0    0    0  0.00000000000E+00  0.00000000000E+00  0.45593999997E+02  0.45594000000E+02  0.51100000000E-03 0. -1.
         11   -1    0    0    0    0 -0.00000000000E+00 -0.00000000000E+00 -0.45593999997E+02  0.45594000000E+02  0.51100000000E-03 0.  1.
         23    2    1    2    0    0  0.00000000000E+00  0.17763568394E-14  0.00000000000E+00  0.91188000000E+02  0.91188000000E+02 0.  0.
    9900012    2    3    3    0    0  0.81906045145E+01  0.84891595477E+01  0.41766868529E+02  0.47787272600E+02  0.20000007094E+02 0.  0.
        -12    1    3    3    0    0 -0.81906045145E+01 -0.84891595477E+01 -0.41766868529E+02  0.43400727400E+02  0.00000000000E+00 0.  1.
         11    1    4    4    0    0  0.19276908705E+01 -0.19587323552E+01  0.12252551388E+02  0.12556975763E+02  0.51100000000E-03 0. -1.
        -11    1    4    4    0    0 -0.30935801492E+01  0.41953311641E+01  0.21429941446E+01  0.56359086118E+01  0.51100000000E-03 0.  1.
        -12    1    4    4    0    0  0.93564937932E+01  0.62525607388E+01  0.27371322996E+02  0.29594388225E+02  0.00000000000E+00 0.  1.
</event>
<event>
 8    1  0.8600524E-011  0.9118800E+02  0.7816164E-02  0.1184000E+00
        -11   -1    0    0    0    0  0.00000000000E+00  0.00000000000E+00  0.45593999997E+02  0.45594000000E+02  0.51100000000E-03 0. -1.
         11   -1    0    0    0    0 -0.00000000000E+00 -0.00000000000E+00 -0.45593999997E+02  0.45594000000E+02  0.51100000000E-03 0.  1.
         23    2    1    2    0    0  0.35527136788E-14  0.88817841970E-15 -0.71054273576E-14  0.91188000000E+02  0.91188000000E+02 0.  0.
    9900012    2    3    3    0    0 -0.24490531309E+02 -0.28319911614E+01  0.35718576797E+02  0.47787273899E+02  0.20000013014E+02 0.  0.
        -12    1    3    3    0    0  0.24490531309E+02  0.28319911614E+01 -0.35718576797E+02  0.43400726101E+02  0.00000000000E+00 0.  1.
         11    1    4    4    0    0 -0.59701934802E+01  0.28452823241E+01  0.42450138925E+00  0.66271444367E+01  0.51100000000E-03 0. -1.
        -11    1    4    4    0    0 -0.45959638235E+01 -0.81701399753E-01  0.28367634321E+01  0.54015540002E+01  0.51100000000E-03 0.  1.
         12    1    4    4    0    0 -0.13924374005E+02 -0.55955720857E+01  0.32457311975E+02  0.35758575462E+02  0.00000000000E+00 0. -1.
</event>
<event>
 8    1  0.8600524E-011  0.9118800E+02  0.7816164E-02  0.1184000E+00
        -11   -1    0    0    0    0  0.00000000000E+00  0.00000000000E+00  0.45593999997E+02  0.45594000000E+02  0.51100000000E-03 0. -1.
         11   -1    0    0    0    0 -0.00000000000E+00 -0.00000000000E+00 -0.45593999997E+02  0.45594000000E+02  0.51100000000E-03 0.  1.
         23    2    1    2    0    0  0.17763568394E-14  0.00000000000E+00 -0.71054273576E-14  0.91188000000E+02  0.91188000000E+02 0.  0.
    9900012    2    3    3    0    0  0.87904887506E+01  0.19919582727E+02  0.37544119066E+02  0.47787270226E+02  0.19999996269E+02 0.  0.
        -12    1    3    3    0    0 -0.87904887506E+01 -0.19919582727E+02 -0.37544119066E+02  0.43400729774E+02  0.00000000000E+00 0.  1.
         11    1    4    4    0    0 -0.42588381231E+00  0.14853649337E+02  0.17147246043E+02  0.22690093053E+02  0.51100000000E-03 0. -1.
        -11    1    4    4    0    0  0.21749991066E+01 -0.22734896953E+01  0.11906281358E+01  0.33640707672E+01  0.51100000000E-03 0.  1.
         12    1    4    4    0    0  0.70413734563E+01  0.73394230856E+01  0.19206244887E+02  0.21733106406E+02  0.00000000000E+00 0. -1.
</event>
<event>
 8    1  0.8600524E-011  0.9118800E+02  0.7816164E-02  0.1184000E+00
        -11   -1    0    0    0    0  0.00000000000E+00  0.00000000000E+00  0.45593999997E+02  0.45594000000E+02  0.51100000000E-03 0. -1.
         11   -1    0    0    0    0 -0.00000000000E+00 -0.00000000000E+00 -0.45593999997E+02  0.45594000000E+02  0.51100000000E-03 0.  1.
         23    2    1    2    0    0 -0.35527136788E-14  0.00000000000E+00  0.88817841970E-15  0.91188000000E+02  0.91188000000E+02 0.  0.
    9900012    2    3    3    0    0 -0.27366429183E+02  0.32814382381E+02  0.76104468301E+01  0.47787262239E+02  0.19999959853E+02 0.  0.
        -12    1    3    3    0    0  0.27366429183E+02 -0.32814382381E+02 -0.76104468301E+01  0.43400737761E+02  0.00000000000E+00 0.  1.
         11    1    4    4    0    0 -0.14408338367E+02  0.15512666887E+02  0.12482629389E+02  0.24577613496E+02  0.51100000000E-03 0. -1.
        -11    1    4    4    0    0 -0.37312005241E+01  0.10719653988E+02 -0.21284136582E+01  0.11548289221E+02  0.51100000000E-03 0.  1.
         12    1    4    4    0    0 -0.92268902918E+01  0.65820615052E+01 -0.27437689003E+01  0.11661359522E+02  0.00000000000E+00 0. -1.
</event>
<event>
 8    1  0.8600524E-011  0.9118800E+02  0.7816164E-02  0.1184000E+00
        -11   -1    0    0    0    0  0.00000000000E+00  0.00000000000E+00  0.45593999997E+02  0.45594000000E+02  0.51100000000E-03 0. -1.
         11   -1    0    0    0    0 -0.00000000000E+00 -0.00000000000E+00 -0.45593999997E+02  0.45594000000E+02  0.51100000000E-03 0.  1.
         23    2    1    2    0    0 -0.27755575616E-15  0.00000000000E+00  0.71054273576E-14  0.91188000000E+02  0.91188000000E+02 0.  0.
    9900012    2    3    3    0    0 -0.35445486912E+00  0.25554761615E+02 -0.35077819783E+02  0.47787252078E+02  0.19999913522E+02 0.  0.
         12    1    3    3    0    0  0.35445486912E+00 -0.25554761615E+02  0.35077819783E+02  0.43400747922E+02  0.00000000000E+00 0. -1.
         11    1    4    4    0    0 -0.42868971970E+01  0.20929607918E+02 -0.14195391046E+02  0.25650245659E+02  0.51100000000E-03 0. -1.
        -11    1    4    4    0    0  0.50480618686E+00  0.36881144438E+01 -0.12209602555E+02  0.12764458949E+02  0.51100000000E-03 0.  1.
         12    1    4    4    0    0  0.34276361410E+01  0.93703925368E+00 -0.86728261827E+01  0.93725474698E+01  0.00000000000E+00 0. -1.
</event>
<event>
 8    1  0.8600524E-011  0.9118800E+02  0.7816164E-02  0.1184000E+00
        -11   -1    0    0    0    0  0.00000000000E+00  0.00000000000E+00  0.45593999997E+02  0.45594000000E+02  0.51100000000E-03 0. -1.
         11   -1    0    0    0    0 -0.00000000000E+00 -0.00000000000E+00 -0.45593999997E+02  0.45594000000E+02  0.51100000000E-03 0.  1.
         23    2    1    2    0    0  0.00000000000E+00  0.88817841970E-15  0.00000000000E+00  0.91188000000E+02  0.91188000000E+02 0.  0.
    9900012    2    3    3    0    0 -0.54013060446E+01  0.38172783805E+01  0.42893802463E+02  0.47787262553E+02  0.19999961282E+02 0.  0.
        -12    1    3    3    0    0  0.54013060446E+01 -0.38172783805E+01 -0.42893802463E+02  0.43400737447E+02  0.00000000000E+00 0.  1.
         11    1    4    4    0    0 -0.19938645139E+01  0.87000565346E+00  0.20541816939E+00  0.21850863650E+01  0.51100000000E-03 0.  1.
        -11    1    4    4    0    0 -0.22375013853E+01  0.93066853813E+01  0.25189059395E+02  0.26946419404E+02  0.51100000000E-03 0. -1.
        -12    1    4    4    0    0 -0.11699401454E+01 -0.63594126543E+01  0.17499324899E+02  0.18655756784E+02  0.00000000000E+00 0.  1.
</event>
<event>
 8    1  0.8600524E-011  0.9118800E+02  0.7816164E-02  0.1184000E+00
        -11   -1    0    0    0    0  0.00000000000E+00  0.00000000000E+00  0.45593999997E+02  0.45594000000E+02  0.51100000000E-03 0. -1.
         11   -1    0    0    0    0 -0.00000000000E+00 -0.00000000000E+00 -0.45593999997E+02  0.45594000000E+02  0.51100000000E-03 0.  1.
         23    2    1    2    0    0  0.00000000000E+00  0.00000000000E+00  0.00000000000E+00  0.91188000000E+02  0.91188000000E+02 0.  0.
    9900012    2    3    3    0    0 -0.10685473913E+02 -0.13320624480E+02  0.39899942954E+02  0.47787264557E+02  0.19999970421E+02 0.  0.
        -12    1    3    3    0    0  0.10685473913E+02  0.13320624480E+02 -0.39899942954E+02  0.43400735443E+02  0.00000000000E+00 0.  1.
         11    1    4    4    0    0 -0.73642458044E+01 -0.10965629870E+02  0.23852130110E+02  0.27265385854E+02  0.51100000000E-03 0. -1.
        -11    1    4    4    0    0 -0.24830809189E+01  0.48447296979E+01  0.81614010047E+01  0.98104823182E+01  0.51100000000E-03 0.  1.
        -12    1    4    4    0    0 -0.83814718986E+00 -0.71997243071E+01  0.78864118392E+01  0.10711396385E+02  0.00000000000E+00 0.  1.
</event>
<event>
 8    1  0.8600524E-011  0.9118800E+02  0.7816164E-02  0.1184000E+00
        -11   -1    0    0    0    0  0.00000000000E+00  0.00000000000E+00  0.45593999997E+02  0.45594000000E+02  0.51100000000E-03 0. -1.
         11   -1    0    0    0    0 -0.00000000000E+00 -0.00000000000E+00 -0.45593999997E+02  0.45594000000E+02  0.51100000000E-03 0.  1.
         23    2    1    2    0    0  0.00000000000E+00  0.00000000000E+00  0.00000000000E+00  0.91188000000E+02  0.91188000000E+02 0.  0.
    9900012    2    3    3    0    0  0.21655925781E+02  0.96928691299E+01 -0.36341340766E+02  0.47787264037E+02  0.19999968052E+02 0.  0.
         12    1    3    3    0    0 -0.21655925781E+02 -0.96928691299E+01  0.36341340766E+02  0.43400735963E+02  0.00000000000E+00 0. -1.
         11    1    4    4    0    0  0.82124656918E+01 -0.33108783555E+01 -0.19391372315E+02  0.21317406708E+02  0.51100000000E-03 0. -1.
        -11    1    4    4    0    0  0.57986945721E+01  0.64966372334E+01 -0.13073630977E+02  0.15708309306E+02  0.51100000000E-03 0.  1.
         12    1    4    4    0    0  0.76447655172E+01  0.65071102520E+01 -0.38763374744E+01  0.10761548023E+02  0.00000000000E+00 0. -1.
</event>
<event>
 8    1  0.8600524E-011  0.9118800E+02  0.7816164E-02  0.1184000E+00
        -11   -1    0    0    0    0  0.00000000000E+00  0.00000000000E+00  0.45593999997E+02  0.45594000000E+02  0.51100000000E-03 0. -1.
         11   -1    0    0    0    0 -0.00000000000E+00 -0.00000000000E+00 -0.45593999997E+02  0.45594000000E+02  0.51100000000E-03 0.  1.
         23    2    1    2    0    0  0.17763568394E-14  0.00000000000E+00  0.00000000000E+00  0.91188000000E+02  0.91188000000E+02 0.  0.
    9900012    2    3    3    0    0  0.13047097636E+02  0.39179624657E+02 -0.13354884803E+02  0.47787277735E+02  0.20000030506E+02 0.  0.
         12    1    3    3    0    0 -0.13047097636E+02 -0.39179624657E+02  0.13354884803E+02  0.43400722265E+02  0.00000000000E+00 0. -1.
         11    1    4    4    0    0  0.21995367628E-01  0.22217272506E+01  0.37191823754E+01  0.43323058035E+01  0.51100000000E-03 0. -1.
        -11    1    4    4    0    0  0.10748751595E+02  0.30773144914E+02 -0.10755516170E+02  0.34324965216E+02  0.51100000000E-03 0.  1.
        -12    1    4    4    0    0  0.22763506727E+01  0.61847524929E+01 -0.63185510085E+01  0.91300067158E+01  0.00000000000E+00 0.  1.
</event>
<event>
 8    1  0.8600524E-011  0.9118800E+02  0.7816164E-02  0.1184000E+00
        -11   -1    0    0    0    0  0.00000000000E+00  0.00000000000E+00  0.45593999997E+02  0.45594000000E+02  0.51100000000E-03 0. -1.
         11   -1    0    0    0    0 -0.00000000000E+00 -0.00000000000E+00 -0.45593999997E+02  0.45594000000E+02  0.51100000000E-03 0.  1.
         23    2    1    2    0    0  0.22204460493E-14  0.00000000000E+00  0.00000000000E+00  0.91188000000E+02  0.91188000000E+02 0.  0.
    9900012    2    3    3    0    0  0.23857178538E+01  0.19715276963E+02 -0.38590666315E+02  0.47787270489E+02  0.19999997470E+02 0.  0.
         12    1    3    3    0    0 -0.23857178538E+01 -0.19715276963E+02  0.38590666315E+02  0.43400729511E+02  0.00000000000E+00 0. -1.
         11    1    4    4    0    0  0.42800005581E+01 -0.10334370912E+01 -0.67316104899E+01  0.80436917549E+01  0.51100000000E-03 0. -1.
        -11    1    4    4    0    0 -0.59817178230E+01  0.86697375409E+01 -0.18409907972E+02  0.21210139296E+02  0.51100000000E-03 0.  1.
        -12    1    4    4    0    0  0.40874351186E+01  0.12078976513E+02 -0.13449147853E+02  0.18533439439E+02  0.00000000000E+00 0.  1.
</event>
<event>
 8    1  0.8600524E-011  0.9118800E+02  0.7816164E-02  0.1184000E+00
        -11   -1    0    0    0    0  0.00000000000E+00  0.00000000000E+00  0.45593999997E+02  0.45594000000E+02  0.51100000000E-03 0. -1.
         11   -1    0    0    0    0 -0.00000000000E+00 -0.00000000000E+00 -0.45593999997E+02  0.45594000000E+02  0.51100000000E-03 0.  1.
         23    2    1    2    0    0 -0.71054273576E-14  0.00000000000E+00  0.00000000000E+00  0.91188000000E+02  0.91188000000E+02 0.  0.
    9900012    2    3    3    0    0 -0.31987304414E+02 -0.80679757397E+01 -0.28201832980E+02  0.47787271209E+02  0.20000000749E+02 0.  0.
         12    1    3    3    0    0  0.31987304414E+02  0.80679757397E+01  0.28201832980E+02  0.43400728791E+02  0.00000000000E+00 0. -1.
         11    1    4    4    0    0 -0.16648140055E+02 -0.22431016822E+01 -0.63090298689E+01  0.17944245055E+02  0.51100000000E-03 0. -1.
        -11    1    4    4    0    0 -0.76937343857E+01 -0.84279658541E+01 -0.16751165136E+02  0.20268835460E+02  0.51100000000E-03 0.  1.
        -12    1    4    4    0    0 -0.76454299734E+01  0.26030917967E+01 -0.51416379749E+01  0.95741906940E+01  0.00000000000E+00 0.  1.
</event>
<event>
 8    1  0.8600524E-011  0.9118800E+02  0.7816164E-02  0.1184000E+00
        -11   -1    0    0    0    0  0.00000000000E+00  0.00000000000E+00  0.45593999997E+02  0.45594000000E+02  0.51100000000E-03 0. -1.
         11   -1    0    0    0    0 -0.00000000000E+00 -0.00000000000E+00 -0.45593999997E+02  0.45594000000E+02  0.51100000000E-03 0.  1.
         23    2    1    2    0    0  0.00000000000E+00  0.00000000000E+00  0.00000000000E+00  0.91188000000E+02  0.91188000000E+02 0.  0.
    9900012    2    3    3    0    0  0.11872408875E+02  0.32942868810E+01  0.41615105984E+02  0.47787268848E+02  0.19999989984E+02 0.  0.
        -12    1    3    3    0    0 -0.11872408875E+02 -0.32942868810E+01 -0.41615105984E+02  0.43400731152E+02  0.00000000000E+00 0.  1.
         11    1    4    4    0    0 -0.47772888148E+01  0.36417007791E+01  0.91014356699E+01  0.10905072421E+02  0.51100000000E-03 0. -1.
        -11    1    4    4    0    0  0.12486902451E+02  0.49169369260E+00  0.28120247423E+02  0.30771948442E+02  0.51100000000E-03 0.  1.
         12    1    4    4    0    0  0.41627952382E+01 -0.83910759064E+00  0.43934228905E+01  0.61102479850E+01  0.00000000000E+00 0. -1.
</event>
<event>
 8    1  0.8600524E-011  0.9118800E+02  0.7816164E-02  0.1184000E+00
        -11   -1    0    0    0    0  0.00000000000E+00  0.00000000000E+00  0.45593999997E+02  0.45594000000E+02  0.51100000000E-03 0. -1.
         11   -1    0    0    0    0 -0.00000000000E+00 -0.00000000000E+00 -0.45593999997E+02  0.45594000000E+02  0.51100000000E-03 0.  1.
         23    2    1    2    0    0  0.17763568394E-14  0.71054273576E-14 -0.35527136788E-14  0.91188000000E+02  0.91188000000E+02 0.  0.
    9900012    2    3    3    0    0  0.14753223342E+02  0.33218383043E+02 -0.23717223320E+02  0.47787248244E+02  0.19999896043E+02 0.  0.
         12    1    3    3    0    0 -0.14753223342E+02 -0.33218383043E+02  0.23717223320E+02  0.43400751756E+02  0.00000000000E+00 0. -1.
         11    1    4    4    0    0  0.21794441796E+00  0.20739328574E+01  0.15570162149E+01  0.26024982268E+01  0.51100000000E-03 0. -1.
        -11    1    4    4    0    0 -0.12221587908E+01  0.49967871860E+01 -0.95434914493E+01  0.10841576619E+02  0.51100000000E-03 0.  1.
        -12    1    4    4    0    0  0.15757437715E+02  0.26147662999E+02 -0.15730748086E+02  0.34343173398E+02  0.00000000000E+00 0.  1.
</event>
<event>
 8    1  0.8600524E-011  0.9118800E+02  0.7816164E-02  0.1184000E+00
        -11   -1    0    0    0    0  0.00000000000E+00  0.00000000000E+00  0.45593999997E+02  0.45594000000E+02  0.51100000000E-03 0. -1.
         11   -1    0    0    0    0 -0.00000000000E+00 -0.00000000000E+00 -0.45593999997E+02  0.45594000000E+02  0.51100000000E-03 0.  1.
         23    2    1    2    0    0  0.00000000000E+00 -0.35527136788E-14  0.71054273576E-14  0.91188000000E+02  0.91188000000E+02 0.  0.
    9900012    2    3    3    0    0  0.14461666182E+02 -0.18001215242E+02 -0.36748330788E+02  0.47787270114E+02  0.19999995760E+02 0.  0.
         12    1    3    3    0    0 -0.14461666182E+02  0.18001215242E+02  0.36748330788E+02  0.43400729886E+02  0.00000000000E+00 0. -1.
         11    1    4    4    0    0  0.19685099529E+01 -0.47135263399E+01 -0.75638267241E-01  0.51086283286E+01  0.51100000000E-03 0. -1.
        -11    1    4    4    0    0  0.10708337102E+02 -0.82148038527E+01 -0.14277561530E+02  0.19646889050E+02  0.51100000000E-03 0.  1.
         12    1    4    4    0    0  0.17848191274E+01 -0.50728850489E+01 -0.22395130990E+02  0.23031752736E+02  0.00000000000E+00 0. -1.
</event>
<event>
 8    1  0.8600524E-011  0.9118800E+02  0.7816164E-02  0.1184000E+00
        -11   -1    0    0    0    0  0.00000000000E+00  0.00000000000E+00  0.45593999997E+02  0.45594000000E+02  0.51100000000E-03 0. -1.
         11   -1    0    0    0    0 -0.00000000000E+00 -0.00000000000E+00 -0.45593999997E+02  0.45594000000E+02  0.51100000000E-03 0.  1.
         23    2    1    2    0    0  0.00000000000E+00  0.35527136788E-14  0.00000000000E+00  0.91188000000E+02  0.91188000000E+02 0.  0.
    9900012    2    3    3    0    0  0.44004560120E+01  0.23608791786E+02 -0.36150872658E+02  0.47787255114E+02  0.19999927367E+02 0.  0.
         12    1    3    3    0    0 -0.44004560120E+01 -0.23608791786E+02  0.36150872658E+02  0.43400744886E+02  0.00000000000E+00 0. -1.
         11    1    4    4    0    0  0.65574973767E+01  0.16252428648E+02 -0.31026434255E+02  0.35633998255E+02  0.51100000000E-03 0. -1.
        -11    1    4    4    0    0  0.10927384168E+01  0.34558458890E+01 -0.59918210359E+01  0.70027757099E+01  0.51100000000E-03 0.  1.
         12    1    4    4    0    0 -0.32497797814E+01  0.39005172495E+01  0.86738263263E+00  0.51504811496E+01  0.00000000000E+00 0. -1.
</event>
<event>
 8    1  0.8600524E-011  0.9118800E+02  0.7816164E-02  0.1184000E+00
        -11   -1    0    0    0    0  0.00000000000E+00  0.00000000000E+00  0.45593999997E+02  0.45594000000E+02  0.51100000000E-03 0. -1.
         11   -1    0    0    0    0 -0.00000000000E+00 -0.00000000000E+00 -0.45593999997E+02  0.45594000000E+02  0.51100000000E-03 0.  1.
         23    2    1    2    0    0  0.00000000000E+00 -0.17763568394E-14  0.00000000000E+00  0.91188000000E+02  0.91188000000E+02 0.  0.
    9900012    2    3    3    0    0  0.17936464932E+02  0.15320461317E+02  0.36430615455E+02  0.47787273604E+02  0.20000011670E+02 0.  0.
        -12    1    3    3    0    0 -0.17936464932E+02 -0.15320461317E+02 -0.36430615455E+02  0.43400726396E+02  0.00000000000E+00 0.  1.
         11    1    4    4    0    0  0.14903880539E+02  0.12652338965E+02  0.23870402040E+02  0.30854552828E+02  0.51100000000E-03 0. -1.
        -11    1    4    4    0    0 -0.35453547845E+01 -0.11626474823E+01  0.37593862087E+01  0.52966286110E+01  0.51100000000E-03 0.  1.
        -12    1    4    4    0    0  0.65779391779E+01  0.38307698350E+01  0.88008272065E+01  0.11636092165E+02  0.00000000000E+00 0.  1.
</event>
<event>
 8    1  0.8600524E-011  0.9118800E+02  0.7816164E-02  0.1184000E+00
        -11   -1    0    0    0    0  0.00000000000E+00  0.00000000000E+00  0.45593999997E+02  0.45594000000E+02  0.51100000000E-03 0. -1.
         11   -1    0    0    0    0 -0.00000000000E+00 -0.00000000000E+00 -0.45593999997E+02  0.45594000000E+02  0.51100000000E-03 0.  1.
         23    2    1    2    0    0  0.35527136788E-14 -0.44408920985E-15  0.00000000000E+00  0.91188000000E+02  0.91188000000E+02 0.  0.
    9900012    2    3    3    0    0 -0.16142667997E+02 -0.19238719359E+01  0.40240974146E+02  0.47787274044E+02  0.20000013674E+02 0.  0.
        -12    1    3    3    0    0  0.16142667997E+02  0.19238719359E+01 -0.40240974146E+02  0.43400725956E+02  0.00000000000E+00 0.  1.
         11    1    4    4    0    0 -0.29726133671E+01  0.42206463264E+01  0.21697312140E+02  0.22302996211E+02  0.51100000000E-03 0. -1.
        -11    1    4    4    0    0 -0.12302764084E+01  0.44246720592E+00 -0.10053078048E+01  0.16492426483E+01  0.51100000000E-03 0.  1.
         12    1    4    4    0    0 -0.11939778222E+02 -0.65869854682E+01  0.19548969811E+02  0.23835035184E+02  0.00000000000E+00 0. -1.
</event>
<event>
 8    1  0.8600524E-011  0.9118800E+02  0.7816164E-02  0.1184000E+00
        -11   -1    0    0    0    0  0.00000000000E+00  0.00000000000E+00  0.45593999997E+02  0.45594000000E+02  0.51100000000E-03 0. -1.
         11   -1    0    0    0    0 -0.00000000000E+00 -0.00000000000E+00 -0.45593999997E+02  0.45594000000E+02  0.51100000000E-03 0.  1.
         23    2    1    2    0    0  0.00000000000E+00  0.88817841970E-15  0.00000000000E+00  0.91188000000E+02  0.91188000000E+02 0.  0.
    9900012    2    3    3    0    0 -0.20791741432E+02  0.78532524217E+01  0.37278052057E+02  0.47787271313E+02  0.20000001225E+02 0.  0.
        -12    1    3    3    0    0  0.20791741432E+02 -0.78532524217E+01 -0.37278052057E+02  0.43400728687E+02  0.00000000000E+00 0.  1.
         11    1    4    4    0    0 -0.14991988945E+02  0.55373864227E+00  0.31454050067E+02  0.34848581390E+02  0.51100000000E-03 0. -1.
        -11    1    4    4    0    0  0.10295921266E+01  0.17772599715E-01  0.19974893813E+01  0.22472961313E+01  0.51100000000E-03 0.  1.
         12    1    4    4    0    0 -0.68293446138E+01  0.72817411797E+01  0.38265126087E+01  0.10691393792E+02  0.00000000000E+00 0. -1.
</event>
<event>
 8    1  0.8600524E-011  0.9118800E+02  0.7816164E-02  0.1184000E+00
        -11   -1    0    0    0    0  0.00000000000E+00  0.00000000000E+00  0.45593999997E+02  0.45594000000E+02  0.51100000000E-03 0. -1.
         11   -1    0    0    0    0 -0.00000000000E+00 -0.00000000000E+00 -0.45593999997E+02  0.45594000000E+02  0.51100000000E-03 0.  1.
         23    2    1    2    0    0  0.00000000000E+00  0.00000000000E+00  0.00000000000E+00  0.91188000000E+02  0.91188000000E+02 0.  0.
    9900012    2    3    3    0    0 -0.78673920694E+01  0.22765291517E+02 -0.36103586881E+02  0.47787270266E+02  0.19999996450E+02 0.  0.
         12    1    3    3    0    0  0.78673920694E+01 -0.22765291517E+02  0.36103586881E+02  0.43400729734E+02  0.00000000000E+00 0. -1.
         11    1    4    4    0    0  0.16853913491E+01  0.47448867110E+01 -0.19595218994E+01  0.54031676112E+01  0.51100000000E-03 0. -1.
        -11    1    4    4    0    0 -0.61745825893E+01  0.98455772775E+01 -0.64067253191E+01  0.13270530948E+02  0.51100000000E-03 0.  1.
        -12    1    4    4    0    0 -0.33782008292E+01  0.81748275282E+01 -0.27737339662E+02  0.29113571706E+02  0.00000000000E+00 0.  1.
</event>
<event>
 8    1  0.8600524E-011  0.9118800E+02  0.7816164E-02  0.1184000E+00
        -11   -1    0    0    0    0  0.00000000000E+00  0.00000000000E+00  0.45593999997E+02  0.45594000000E+02  0.51100000000E-03 0. -1.
         11   -1    0    0    0    0 -0.00000000000E+00 -0.00000000000E+00 -0.45593999997E+02  0.45594000000E+02  0.51100000000E-03 0.  1.
         23    2    1    2    0    0 -0.22204460493E-15  0.00000000000E+00  0.00000000000E+00  0.91188000000E+02  0.91188000000E+02 0.  0.
    9900012    2    3    3    0    0  0.15865357027E+01 -0.39114836295E+02 -0.18738616946E+02  0.47787270986E+02  0.19999999733E+02 0.  0.
         12    1    3    3    0    0 -0.15865357027E+01  0.39114836295E+02  0.18738616946E+02  0.43400729014E+02  0.00000000000E+00 0. -1.
         11    1    4    4    0    0  0.76635000485E+01 -0.61443854928E+01 -0.75530429230E+01  0.12390769296E+02  0.51100000000E-03 0. -1.
        -11    1    4    4    0    0 -0.43988146102E+01 -0.20361052773E+02 -0.76833921808E+01  0.22202624973E+02  0.51100000000E-03 0.  1.
         12    1    4    4    0    0 -0.16781497356E+01 -0.12609398029E+02 -0.35021818420E+01  0.13193876718E+02  0.00000000000E+00 0. -1.
</event>
<event>
 8    1  0.8600524E-011  0.9118800E+02  0.7816164E-02  0.1184000E+00
        -11   -1    0    0    0    0  0.00000000000E+00  0.00000000000E+00  0.45593999997E+02  0.45594000000E+02  0.51100000000E-03 0.  1.
         11   -1    0    0    0    0 -0.00000000000E+00 -0.00000000000E+00 -0.45593999997E+02  0.45594000000E+02  0.51100000000E-03 0. -1.
         23    2    1    2    0    0  0.71054273576E-14 -0.88817841970E-15  0.88817841970E-15  0.91188000000E+02  0.91188000000E+02 0.  0.
    9900012    2    3    3    0    0  0.43071057700E+02 -0.48779888132E+01  0.21708846653E+01  0.47787268134E+02  0.19999986732E+02 0.  0.
        -12    1    3    3    0    0 -0.43071057700E+02  0.48779888132E+01 -0.21708846653E+01  0.43400731866E+02  0.00000000000E+00 0.  1.
         11    1    4    4    0    0  0.16643097904E+02 -0.52629373854E+01  0.25065032207E+01  0.17634448571E+02  0.51100000000E-03 0. -1.
        -11    1    4    4    0    0  0.30455461610E+01  0.13269716313E+01  0.51392950627E+01  0.61195227862E+01  0.51100000000E-03 0.  1.
        -12    1    4    4    0    0  0.23382413635E+02 -0.94202305913E+00 -0.54749136181E+01  0.24033296777E+02  0.00000000000E+00 0.  1.
</event>
<event>
 8    1  0.8600524E-011  0.9118800E+02  0.7816164E-02  0.1184000E+00
        -11   -1    0    0    0    0  0.00000000000E+00  0.00000000000E+00  0.45593999997E+02  0.45594000000E+02  0.51100000000E-03 0. -1.
         11   -1    0    0    0    0 -0.00000000000E+00 -0.00000000000E+00 -0.45593999997E+02  0.45594000000E+02  0.51100000000E-03 0.  1.
         23    2    1    2    0    0  0.71054273576E-14  0.00000000000E+00  0.00000000000E+00  0.91188000000E+02  0.91188000000E+02 0.  0.
    9900012    2    3    3    0    0  0.33798333959E+02  0.24075298376E+02 -0.12715255604E+02  0.47787250060E+02  0.19999904322E+02 0.  0.
         12    1    3    3    0    0 -0.33798333959E+02 -0.24075298376E+02  0.12715255604E+02  0.43400749940E+02  0.00000000000E+00 0. -1.
         11    1    4    4    0    0  0.28607120764E+00  0.73061548244E+01 -0.13521580912E+01  0.74357290711E+01  0.51100000000E-03 0. -1.
        -11    1    4    4    0    0  0.29866321911E+02  0.17911451150E+02 -0.10960921385E+02  0.36509711923E+02  0.51100000000E-03 0.  1.
         12    1    4    4    0    0  0.36459408400E+01 -0.11423075989E+01 -0.40217612788E+00  0.38418090657E+01  0.00000000000E+00 0. -1.
</event>
<event>
 8    1  0.8600524E-011  0.9118800E+02  0.7816164E-02  0.1184000E+00
        -11   -1    0    0    0    0  0.00000000000E+00  0.00000000000E+00  0.45593999997E+02  0.45594000000E+02  0.51100000000E-03 0. -1.
         11   -1    0    0    0    0 -0.00000000000E+00 -0.00000000000E+00 -0.45593999997E+02  0.45594000000E+02  0.51100000000E-03 0.  1.
         23    2    1    2    0    0 -0.35527136788E-14 -0.17763568394E-14  0.00000000000E+00  0.91188000000E+02  0.91188000000E+02 0.  0.
    9900012    2    3    3    0    0 -0.21966707749E+02 -0.14720486020E+02 -0.34415027974E+02  0.47787272950E+02  0.20000008690E+02 0.  0.
         12    1    3    3    0    0  0.21966707749E+02  0.14720486020E+02  0.34415027974E+02  0.43400727050E+02  0.00000000000E+00 0. -1.
         11    1    4    4    0    0  0.24690411938E+00 -0.64707077612E+01 -0.60496652880E+01  0.88616855582E+01  0.51100000000E-03 0. -1.
        -11    1    4    4    0    0 -0.22797902382E+02 -0.82579302524E+01 -0.29169545399E+02  0.37931519138E+02  0.51100000000E-03 0.  1.
        -12    1    4    4    0    0  0.58429051342E+00  0.81519939926E-02  0.80418271279E+00  0.99406825451E+00  0.00000000000E+00 0.  1.
</event>
<event>
 8    1  0.8600524E-011  0.9118800E+02  0.7816164E-02  0.1184000E+00
        -11   -1    0    0    0    0  0.00000000000E+00  0.00000000000E+00  0.45593999997E+02  0.45594000000E+02  0.51100000000E-03 0. -1.
         11   -1    0    0    0    0 -0.00000000000E+00 -0.00000000000E+00 -0.45593999997E+02  0.45594000000E+02  0.51100000000E-03 0.  1.
         23    2    1    2    0    0 -0.44408920985E-15  0.00000000000E+00  0.00000000000E+00  0.91188000000E+02  0.91188000000E+02 0.  0.
    9900012    2    3    3    0    0  0.33142148983E+01  0.37344588561E+02 -0.21863687341E+02  0.47787272595E+02  0.20000007069E+02 0.  0.
         12    1    3    3    0    0 -0.33142148983E+01 -0.37344588561E+02  0.21863687341E+02  0.43400727405E+02  0.00000000000E+00 0. -1.
         11    1    4    4    0    0  0.29915649936E+01  0.67878287797E+01 -0.46936795212E+01  0.87780811322E+01  0.51100000000E-03 0. -1.
        -11    1    4    4    0    0  0.85742490953E+01  0.17244077074E+02 -0.79516057943E+01  0.20835162026E+02  0.51100000000E-03 0.  1.
        -12    1    4    4    0    0 -0.82515991906E+01  0.13312682707E+02 -0.92184020250E+01  0.18174029436E+02  0.00000000000E+00 0.  1.
</event>
<event>
 8    1  0.8600524E-011  0.9118800E+02  0.7816164E-02  0.1184000E+00
        -11   -1    0    0    0    0  0.00000000000E+00  0.00000000000E+00  0.45593999997E+02  0.45594000000E+02  0.51100000000E-03 0.  1.
         11   -1    0    0    0    0 -0.00000000000E+00 -0.00000000000E+00 -0.45593999997E+02  0.45594000000E+02  0.51100000000E-03 0. -1.
         23    2    1    2    0    0  0.00000000000E+00  0.00000000000E+00  0.17763568394E-14  0.91188000000E+02  0.91188000000E+02 0.  0.
    9900012    2    3    3    0    0  0.18502889140E+02  0.38797816481E+02 -0.59996640936E+01  0.47787269137E+02  0.19999991304E+02 0.  0.
        -12    1    3    3    0    0 -0.18502889140E+02 -0.38797816481E+02  0.59996640936E+01  0.43400730863E+02  0.00000000000E+00 0.  1.
         11    1    4    4    0    0  0.69528703265E+01  0.19315910391E+02 -0.35464782646E+01  0.20833250067E+02  0.51100000000E-03 0. -1.
        -11    1    4    4    0    0  0.26677457845E+01  0.25414057080E+01  0.51822007631E+01  0.63585230638E+01  0.51100000000E-03 0.  1.
        -12    1    4    4    0    0  0.88822730285E+01  0.16940500382E+02 -0.76353865921E+01  0.20595496006E+02  0.00000000000E+00 0.  1.
</event>
<event>
 8    1  0.8600524E-011  0.9118800E+02  0.7816164E-02  0.1184000E+00
        -11   -1    0    0    0    0  0.00000000000E+00  0.00000000000E+00  0.45593999997E+02  0.45594000000E+02  0.51100000000E-03 0.  1.
         11   -1    0    0    0    0 -0.00000000000E+00 -0.00000000000E+00 -0.45593999997E+02  0.45594000000E+02  0.51100000000E-03 0. -1.
         23    2    1    2    0    0  0.00000000000E+00 -0.22204460493E-15  0.00000000000E+00  0.91188000000E+02  0.91188000000E+02 0.  0.
    9900012    2    3    3    0    0  0.36150773971E+02  0.41370081161E+00 -0.24011991670E+02  0.47787247115E+02  0.19999890894E+02 0.  0.
         12    1    3    3    0    0 -0.36150773971E+02 -0.41370081161E+00  0.24011991670E+02  0.43400752885E+02  0.00000000000E+00 0. -1.
         11    1    4    4    0    0  0.10577663615E+02 -0.78724961937E+01 -0.52767262453E+01  0.14202359100E+02  0.51100000000E-03 0. -1.
        -11    1    4    4    0    0  0.10410924172E+02  0.39283729352E+00 -0.45362126438E+01  0.11363049268E+02  0.51100000000E-03 0.  1.
         12    1    4    4    0    0  0.15162186183E+02  0.78933597118E+01 -0.14199052781E+02  0.22221838747E+02  0.00000000000E+00 0. -1.
</event>
<event>
 8    1  0.8600524E-011  0.9118800E+02  0.7816164E-02  0.1184000E+00
        -11   -1    0    0    0    0  0.00000000000E+00  0.00000000000E+00  0.45593999997E+02  0.45594000000E+02  0.51100000000E-03 0. -1.
         11   -1    0    0    0    0 -0.00000000000E+00 -0.00000000000E+00 -0.45593999997E+02  0.45594000000E+02  0.51100000000E-03 0.  1.
         23    2    1    2    0    0  0.00000000000E+00  0.00000000000E+00  0.00000000000E+00  0.91188000000E+02  0.91188000000E+02 0.  0.
    9900012    2    3    3    0    0 -0.22335678742E+02  0.93528660176E+01 -0.36017554956E+02  0.47787275206E+02  0.20000018975E+02 0.  0.
         12    1    3    3    0    0  0.22335678742E+02 -0.93528660176E+01  0.36017554956E+02  0.43400724794E+02  0.00000000000E+00 0. -1.
         11    1    4    4    0    0 -0.13805287852E+02 -0.27077965602E+01 -0.15759601710E+02  0.21125415528E+02  0.51100000000E-03 0. -1.
        -11    1    4    4    0    0 -0.85216218289E+01  0.52630003707E+01 -0.87669267430E+01  0.13310755661E+02  0.51100000000E-03 0.  1.
         12    1    4    4    0    0 -0.87690602867E-02  0.67976622071E+01 -0.11491026504E+02  0.13351104017E+02  0.00000000000E+00 0. -1.
</event>
<event>
 8    1  0.8600524E-011  0.9118800E+02  0.7816164E-02  0.1184000E+00
        -11   -1    0    0    0    0  0.00000000000E+00  0.00000000000E+00  0.45593999997E+02  0.45594000000E+02  0.51100000000E-03 0. -1.
         11   -1    0    0    0    0 -0.00000000000E+00 -0.00000000000E+00 -0.45593999997E+02  0.45594000000E+02  0.51100000000E-03 0.  1.
         23    2    1    2    0    0  0.00000000000E+00 -0.17763568394E-14  0.71054273576E-14  0.91188000000E+02  0.91188000000E+02 0.  0.
    9900012    2    3    3    0    0 -0.85667909738E+01 -0.79205561997E+01  0.41803086881E+02  0.47787272001E+02  0.20000004359E+02 0.  0.
        -12    1    3    3    0    0  0.85667909738E+01  0.79205561997E+01 -0.41803086881E+02  0.43400727999E+02  0.00000000000E+00 0.  1.
         11    1    4    4    0    0 -0.14031078637E+02 -0.42484580030E+01  0.35380454844E+02  0.38297482271E+02  0.51100000000E-03 0. -1.
        -11    1    4    4    0    0  0.22453560072E+01 -0.25168952785E+01  0.20818961394E+01  0.39636696682E+01  0.51100000000E-03 0.  1.
        -12    1    4    4    0    0  0.32189316565E+01 -0.11552029181E+01  0.43407358980E+01  0.55261200609E+01  0.00000000000E+00 0.  1.
</event>
<event>
 8    1  0.8600524E-011  0.9118800E+02  0.7816164E-02  0.1184000E+00
        -11   -1    0    0    0    0  0.00000000000E+00  0.00000000000E+00  0.45593999997E+02  0.45594000000E+02  0.51100000000E-03 0. -1.
         11   -1    0    0    0    0 -0.00000000000E+00 -0.00000000000E+00 -0.45593999997E+02  0.45594000000E+02  0.51100000000E-03 0.  1.
         23    2    1    2    0    0  0.00000000000E+00  0.00000000000E+00 -0.17763568394E-14  0.91188000000E+02  0.91188000000E+02 0.  0.
    9900012    2    3    3    0    0  0.20693418566E+02  0.36245256092E+02 -0.11903242319E+02  0.47787270297E+02  0.19999996590E+02 0.  0.
        -12    1    3    3    0    0 -0.20693418566E+02 -0.36245256092E+02  0.11903242319E+02  0.43400729703E+02  0.00000000000E+00 0.  1.
         11    1    4    4    0    0  0.66184599527E+01  0.14819051604E+02 -0.28832888211E+01  0.16483981839E+02  0.51100000000E-03 0. -1.
        -11    1    4    4    0    0  0.26855930230E+01  0.86934954803E+01  0.38849809260E+01  0.98935509605E+01  0.51100000000E-03 0.  1.
        -12    1    4    4    0    0  0.11389365590E+02  0.12732709007E+02 -0.12904934424E+02  0.21409737497E+02  0.00000000000E+00 0.  1.
</event>
<event>
 8    1  0.8600524E-011  0.9118800E+02  0.7816164E-02  0.1184000E+00
        -11   -1    0    0    0    0  0.00000000000E+00  0.00000000000E+00  0.45593999997E+02  0.45594000000E+02  0.51100000000E-03 0. -1.
         11   -1    0    0    0    0 -0.00000000000E+00 -0.00000000000E+00 -0.45593999997E+02  0.45594000000E+02  0.51100000000E-03 0.  1.
         23    2    1    2    0    0  0.88817841970E-15  0.00000000000E+00 -0.35527136788E-14  0.91188000000E+02  0.91188000000E+02 0.  0.
    9900012    2    3    3    0    0  0.25813864487E+01  0.33815292612E+02  0.27082938636E+02  0.47787272637E+02  0.20000007263E+02 0.  0.
        -12    1    3    3    0    0 -0.25813864487E+01 -0.33815292612E+02 -0.27082938636E+02  0.43400727363E+02  0.00000000000E+00 0.  1.
         11    1    4    4    0    0  0.77264737159E+01  0.68130046773E+01  0.85824338434E+01  0.13407967771E+02  0.51100000000E-03 0.  1.
        -11    1    4    4    0    0 -0.20547517693E+01  0.25126348304E+02  0.17279003728E+02  0.30563366208E+02  0.51100000000E-03 0. -1.
         12    1    4    4    0    0 -0.30903354979E+01  0.18759396309E+01  0.12215010652E+01  0.38159386579E+01  0.00000000000E+00 0. -1.
</event>
<event>
 8    1  0.8600524E-011  0.9118800E+02  0.7816164E-02  0.1184000E+00
        -11   -1    0    0    0    0  0.00000000000E+00  0.00000000000E+00  0.45593999997E+02  0.45594000000E+02  0.51100000000E-03 0.  1.
         11   -1    0    0    0    0 -0.00000000000E+00 -0.00000000000E+00 -0.45593999997E+02  0.45594000000E+02  0.51100000000E-03 0. -1.
         23    2    1    2    0    0  0.00000000000E+00  0.00000000000E+00  0.00000000000E+00  0.91188000000E+02  0.91188000000E+02 0.  0.
    9900012    2    3    3    0    0 -0.51638153657E+01  0.35925016982E+02 -0.23798125403E+02  0.47787278728E+02  0.20000035030E+02 0.  0.
         12    1    3    3    0    0  0.51638153657E+01 -0.35925016982E+02  0.23798125403E+02  0.43400721272E+02  0.00000000000E+00 0. -1.
         11    1    4    4    0    0  0.31316088223E+01  0.80069310272E+01 -0.39612590917E-01  0.85976443116E+01  0.51100000000E-03 0. -1.
        -11    1    4    4    0    0 -0.28301675689E+01  0.78885648567E+01 -0.13841346440E+02  0.16180920106E+02  0.51100000000E-03 0.  1.
         12    1    4    4    0    0 -0.54652566190E+01  0.20029521098E+02 -0.99171663727E+01  0.23008714310E+02  0.00000000000E+00 0. -1.
</event>
<event>
 8    1  0.8600524E-011  0.9118800E+02  0.7816164E-02  0.1184000E+00
        -11   -1    0    0    0    0  0.00000000000E+00  0.00000000000E+00  0.45593999997E+02  0.45594000000E+02  0.51100000000E-03 0. -1.
         11   -1    0    0    0    0 -0.00000000000E+00 -0.00000000000E+00 -0.45593999997E+02  0.45594000000E+02  0.51100000000E-03 0.  1.
         23    2    1    2    0    0 -0.17763568394E-14  0.35527136788E-14  0.00000000000E+00  0.91188000000E+02  0.91188000000E+02 0.  0.
    9900012    2    3    3    0    0 -0.14510310722E+02  0.19201309446E+02  0.36116247900E+02  0.47787276918E+02  0.20000026780E+02 0.  0.
        -12    1    3    3    0    0  0.14510310722E+02 -0.19201309446E+02 -0.36116247900E+02  0.43400723082E+02  0.00000000000E+00 0.  1.
         11    1    4    4    0    0 -0.89273276122E+01  0.12596515900E+02  0.14469552518E+02  0.21159804854E+02  0.51100000000E-03 0. -1.
        -11    1    4    4    0    0  0.30971233631E+01  0.34852931491E+01  0.13634994054E+02  0.14410152830E+02  0.51100000000E-03 0.  1.
        -12    1    4    4    0    0 -0.86801064732E+01  0.31195003963E+01  0.80117013278E+01  0.12217319234E+02  0.00000000000E+00 0.  1.
</event>
<event>
 8    1  0.8600524E-011  0.9118800E+02  0.7816164E-02  0.1184000E+00
        -11   -1    0    0    0    0  0.00000000000E+00  0.00000000000E+00  0.45593999997E+02  0.45594000000E+02  0.51100000000E-03 0. -1.
         11   -1    0    0    0    0 -0.00000000000E+00 -0.00000000000E+00 -0.45593999997E+02  0.45594000000E+02  0.51100000000E-03 0.  1.
         23    2    1    2    0    0  0.00000000000E+00  0.35527136788E-14 -0.71054273576E-14  0.91188000000E+02  0.91188000000E+02 0.  0.
    9900012    2    3    3    0    0  0.96927162242E+01 -0.21024097095E+02  0.36710518862E+02  0.47787267269E+02  0.19999982785E+02 0.  0.
        -12    1    3    3    0    0 -0.96927162242E+01  0.21024097095E+02 -0.36710518862E+02  0.43400732731E+02  0.00000000000E+00 0.  1.
         11    1    4    4    0    0 -0.84137708501E+00  0.26968586889E+01  0.35393741410E+01  0.45285904824E+01  0.51100000000E-03 0. -1.
        -11    1    4    4    0    0  0.10335683391E+02 -0.11188327617E+02  0.18356682213E+02  0.23853150906E+02  0.51100000000E-03 0.  1.
         12    1    4    4    0    0  0.19840991830E+00 -0.12532628167E+02  0.14814462509E+02  0.19405525880E+02  0.00000000000E+00 0. -1.
</event>
<event>
 8    1  0.8600524E-011  0.9118800E+02  0.7816164E-02  0.1184000E+00
        -11   -1    0    0    0    0  0.00000000000E+00  0.00000000000E+00  0.45593999997E+02  0.45594000000E+02  0.51100000000E-03 0. -1.
         11   -1    0    0    0    0 -0.00000000000E+00 -0.00000000000E+00 -0.45593999997E+02  0.45594000000E+02  0.51100000000E-03 0.  1.
         23    2    1    2    0    0  0.00000000000E+00  0.71054273576E-14  0.00000000000E+00  0.91188000000E+02  0.91188000000E+02 0.  0.
    9900012    2    3    3    0    0 -0.20259567711E+02  0.32782219722E+02  0.19962423432E+02  0.47787281538E+02  0.20000047846E+02 0.  0.
        -12    1    3    3    0    0  0.20259567711E+02 -0.32782219722E+02 -0.19962423432E+02  0.43400718462E+02  0.00000000000E+00 0.  1.
         11    1    4    4    0    0 -0.70758219442E+01  0.21811280064E+02  0.10633492862E+02  0.25275885047E+02  0.51100000000E-03 0. -1.
        -11    1    4    4    0    0 -0.10896718462E+02  0.41435226400E+01  0.98919329333E+01  0.15289133086E+02  0.51100000000E-03 0.  1.
         12    1    4    4    0    0 -0.22870273044E+01  0.68274170178E+01 -0.56300236355E+00  0.72222634048E+01  0.00000000000E+00 0. -1.
</event>
<event>
 8    1  0.8600524E-011  0.9118800E+02  0.7816164E-02  0.1184000E+00
        -11   -1    0    0    0    0  0.00000000000E+00  0.00000000000E+00  0.45593999997E+02  0.45594000000E+02  0.51100000000E-03 0. -1.
         11   -1    0    0    0    0 -0.00000000000E+00 -0.00000000000E+00 -0.45593999997E+02  0.45594000000E+02  0.51100000000E-03 0.  1.
         23    2    1    2    0    0  0.22204460493E-15  0.00000000000E+00  0.00000000000E+00  0.91188000000E+02  0.91188000000E+02 0.  0.
    9900012    2    3    3    0    0  0.16451970702E+01 -0.28965614902E+02  0.32278626322E+02  0.47787271466E+02  0.20000001922E+02 0.  0.
        -12    1    3    3    0    0 -0.16451970702E+01  0.28965614902E+02 -0.32278626322E+02  0.43400728534E+02  0.00000000000E+00 0.  1.
         11    1    4    4    0    0  0.51734447641E+01 -0.18968859046E+02  0.24994098404E+02  0.31800740550E+02  0.51100000000E-03 0. -1.
        -11    1    4    4    0    0 -0.62890255429E+01 -0.66512559322E+01  0.72034906699E+01  0.11648232735E+02  0.51100000000E-03 0.  1.
         12    1    4    4    0    0  0.27607778490E+01 -0.33454999240E+01  0.81037248033E-01  0.43382981812E+01  0.00000000000E+00 0. -1.
</event>
<event>
 8    1  0.8600524E-011  0.9118800E+02  0.7816164E-02  0.1184000E+00
        -11   -1    0    0    0    0  0.00000000000E+00  0.00000000000E+00  0.45593999997E+02  0.45594000000E+02  0.51100000000E-03 0. -1.
         11   -1    0    0    0    0 -0.00000000000E+00 -0.00000000000E+00 -0.45593999997E+02  0.45594000000E+02  0.51100000000E-03 0.  1.
         23    2    1    2    0    0 -0.35527136788E-14  0.71054273576E-14 -0.35527136788E-14  0.91188000000E+02  0.91188000000E+02 0.  0.
    9900012    2    3    3    0    0  0.20394037378E+02 -0.25454762091E+02  0.28631474745E+02  0.47787273972E+02  0.20000013347E+02 0.  0.
        -12    1    3    3    0    0 -0.20394037378E+02  0.25454762091E+02 -0.28631474745E+02  0.43400726028E+02  0.00000000000E+00 0.  1.
         11    1    4    4    0    0  0.14060638718E+01 -0.42468930228E+01 -0.16016425636E+01  0.47516707716E+01  0.51100000000E-03 0.  1.
        -11    1    4    4    0    0  0.18387710426E+02 -0.21749278074E+02  0.25481698320E+02  0.38215912144E+02  0.51100000000E-03 0. -1.
         12    1    4    4    0    0  0.60026307993E+00  0.54140900506E+00  0.47514189887E+01  0.48196910567E+01  0.00000000000E+00 0. -1.
</event>
<event>
 8    1  0.8600524E-011  0.9118800E+02  0.7816164E-02  0.1184000E+00
        -11   -1    0    0    0    0  0.00000000000E+00  0.00000000000E+00  0.45593999997E+02  0.45594000000E+02  0.51100000000E-03 0. -1.
         11   -1    0    0    0    0 -0.00000000000E+00 -0.00000000000E+00 -0.45593999997E+02  0.45594000000E+02  0.51100000000E-03 0.  1.
         23    2    1    2    0    0  0.17763568394E-14  0.00000000000E+00  0.00000000000E+00  0.91188000000E+02  0.91188000000E+02 0.  0.
    9900012    2    3    3    0    0 -0.11106888715E+02 -0.35265046601E+02  0.22729648509E+02  0.47787269476E+02  0.19999992847E+02 0.  0.
        -12    1    3    3    0    0  0.11106888715E+02  0.35265046601E+02 -0.22729648509E+02  0.43400730524E+02  0.00000000000E+00 0.  1.
         11    1    4    4    0    0 -0.14113565503E+02 -0.20286804932E+02  0.11074759576E+02  0.27081312477E+02  0.51100000000E-03 0. -1.
        -11    1    4    4    0    0  0.43593485386E+01 -0.15103628769E+02  0.11070892077E+02  0.19227276805E+02  0.51100000000E-03 0.  1.
        -12    1    4    4    0    0 -0.13526717505E+01  0.12538709942E+00  0.58399685529E+00  0.14786801941E+01  0.00000000000E+00 0.  1.
</event>
<event>
 8    1  0.1123645E-010  0.9118800E+02  0.7816164E-02  0.1184000E+00
        -11   -1    0    0    0    0  0.00000000000E+00  0.00000000000E+00  0.45593999997E+02  0.45594000000E+02  0.51100000000E-03 0. -1.
         11   -1    0    0    0    0 -0.00000000000E+00 -0.00000000000E+00 -0.45593999997E+02  0.45594000000E+02  0.51100000000E-03 0.  1.
         23    2    1    2    0    0  0.00000000000E+00  0.00000000000E+00  0.00000000000E+00  0.91188000000E+02  0.91188000000E+02 0.  0.
    9900012    2    3    3    0    0 -0.12842995084E+02 -0.16152846040E+02  0.38180729752E+02  0.47787250210E+02  0.19999905008E+02 0.  0.
        -12    1    3    3    0    0  0.12842995084E+02  0.16152846040E+02 -0.38180729752E+02  0.43400749790E+02  0.00000000000E+00 0.  1.
         11    1    4    4    0    0 -0.53783707516E+01 -0.65403375177E+01  0.18786564203E+02  0.20606743595E+02  0.51100000000E-03 0. -1.
        -11    1    4    4    0    0  0.42909001752E+01 -0.17387873211E+01  0.68729239532E+01  0.82868745368E+01  0.51100000000E-03 0.  1.
        -12    1    4    4    0    0 -0.11755524507E+02 -0.78737212016E+01  0.12521241596E+02  0.18893632078E+02  0.00000000000E+00 0.  1.
</event>
<event>
 8    1  0.8600524E-011  0.9118800E+02  0.7816164E-02  0.1184000E+00
        -11   -1    0    0    0    0  0.00000000000E+00  0.00000000000E+00  0.45593999997E+02  0.45594000000E+02  0.51100000000E-03 0. -1.
         11   -1    0    0    0    0 -0.00000000000E+00 -0.00000000000E+00 -0.45593999997E+02  0.45594000000E+02  0.51100000000E-03 0.  1.
         23    2    1    2    0    0 -0.35527136788E-14  0.44408920985E-15  0.00000000000E+00  0.91188000000E+02  0.91188000000E+02 0.  0.
    9900012    2    3    3    0    0 -0.27264896748E+02  0.20295459324E+01  0.33706520935E+02  0.47787271839E+02  0.20000003623E+02 0.  0.
        -12    1    3    3    0    0  0.27264896748E+02 -0.20295459324E+01 -0.33706520935E+02  0.43400728161E+02  0.00000000000E+00 0.  1.
         11    1    4    4    0    0 -0.11599997310E+02 -0.48385611478E+01  0.24979619240E+02  0.27963422344E+02  0.51100000000E-03 0. -1.
        -11    1    4    4    0    0 -0.14179324497E+02  0.50231663803E+01  0.88480880083E+01  0.17452051608E+02  0.51100000000E-03 0.  1.
         12    1    4    4    0    0 -0.14855749417E+01  0.18449407000E+01 -0.12118631332E+00  0.23717978869E+01  0.00000000000E+00 0. -1.
</event>
<event>
 8    1  0.8600524E-011  0.9118800E+02  0.7816164E-02  0.1184000E+00
        -11   -1    0    0    0    0  0.00000000000E+00  0.00000000000E+00  0.45593999997E+02  0.45594000000E+02  0.51100000000E-03 0. -1.
         11   -1    0    0    0    0 -0.00000000000E+00 -0.00000000000E+00 -0.45593999997E+02  0.45594000000E+02  0.51100000000E-03 0.  1.
         23    2    1    2    0    0  0.00000000000E+00  0.00000000000E+00  0.00000000000E+00  0.91188000000E+02  0.91188000000E+02 0.  0.
    9900012    2    3    3    0    0 -0.14425973323E+02  0.84467235255E+01 -0.40052059431E+02  0.47787270636E+02  0.19999998140E+02 0.  0.
         12    1    3    3    0    0  0.14425973323E+02 -0.84467235255E+01  0.40052059431E+02  0.43400729364E+02  0.00000000000E+00 0. -1.
         11    1    4    4    0    0 -0.14743353390E+02  0.13776227792E+02 -0.27580652792E+02  0.34173722800E+02  0.51100000000E-03 0. -1.
        -11    1    4    4    0    0  0.51453146626E+00 -0.40590425475E+01 -0.83909995489E+01  0.93353865867E+01  0.51100000000E-03 0.  1.
         12    1    4    4    0    0 -0.19715139966E+00 -0.12704617191E+01 -0.40804070904E+01  0.42781612496E+01  0.00000000000E+00 0. -1.
</event>
<event>
 8    1  0.8600524E-011  0.9118800E+02  0.7816164E-02  0.1184000E+00
        -11   -1    0    0    0    0  0.00000000000E+00  0.00000000000E+00  0.45593999997E+02  0.45594000000E+02  0.51100000000E-03 0. -1.
         11   -1    0    0    0    0 -0.00000000000E+00 -0.00000000000E+00 -0.45593999997E+02  0.45594000000E+02  0.51100000000E-03 0.  1.
         23    2    1    2    0    0 -0.55511151231E-15  0.88817841970E-15  0.71054273576E-14  0.91188000000E+02  0.91188000000E+02 0.  0.
    9900012    2    3    3    0    0  0.41538094755E+00 -0.55834758152E+01 -0.43038074963E+02  0.47787266826E+02  0.19999980766E+02 0.  0.
         12    1    3    3    0    0 -0.41538094755E+00  0.55834758152E+01  0.43038074963E+02  0.43400733174E+02  0.00000000000E+00 0. -1.
         11    1    4    4    0    0 -0.58816018308E+01  0.15118204648E+01 -0.73693353965E+01  0.95491332413E+01  0.51100000000E-03 0. -1.
        -11    1    4    4    0    0 -0.26862074097E+01 -0.25196191741E+01 -0.10376730861E+02  0.11010937047E+02  0.51100000000E-03 0.  1.
         12    1    4    4    0    0  0.89831901881E+01 -0.45756771059E+01 -0.25292008706E+02  0.27227196538E+02  0.00000000000E+00 0. -1.
</event>
<event>
 8    1  0.8600524E-011  0.9118800E+02  0.7816164E-02  0.1184000E+00
        -11   -1    0    0    0    0  0.00000000000E+00  0.00000000000E+00  0.45593999997E+02  0.45594000000E+02  0.51100000000E-03 0. -1.
         11   -1    0    0    0    0 -0.00000000000E+00 -0.00000000000E+00 -0.45593999997E+02  0.45594000000E+02  0.51100000000E-03 0.  1.
         23    2    1    2    0    0  0.33306690739E-15 -0.35527136788E-14  0.71054273576E-14  0.91188000000E+02  0.91188000000E+02 0.  0.
    9900012    2    3    3    0    0  0.57295770563E+00  0.21821469891E+02 -0.37511585194E+02  0.47787264378E+02  0.19999969606E+02 0.  0.
         12    1    3    3    0    0 -0.57295770563E+00 -0.21821469891E+02  0.37511585194E+02  0.43400735622E+02  0.00000000000E+00 0. -1.
         11    1    4    4    0    0  0.35109037963E+01  0.35100970181E+01  0.20598200977E-01  0.49646400766E+01  0.51100000000E-03 0. -1.
        -11    1    4    4    0    0  0.23172988266E+01  0.11418330954E+02 -0.17845181926E+02  0.21311937356E+02  0.51100000000E-03 0.  1.
         12    1    4    4    0    0 -0.52552449173E+01  0.68930419189E+01 -0.19687001469E+02  0.21510686946E+02  0.00000000000E+00 0. -1.
</event>
<event>
 8    1  0.8600524E-011  0.9118800E+02  0.7816164E-02  0.1184000E+00
        -11   -1    0    0    0    0  0.00000000000E+00  0.00000000000E+00  0.45593999997E+02  0.45594000000E+02  0.51100000000E-03 0. -1.
         11   -1    0    0    0    0 -0.00000000000E+00 -0.00000000000E+00 -0.45593999997E+02  0.45594000000E+02  0.51100000000E-03 0.  1.
         23    2    1    2    0    0  0.00000000000E+00 -0.88817841970E-15  0.00000000000E+00  0.91188000000E+02  0.91188000000E+02 0.  0.
    9900012    2    3    3    0    0  0.39448864179E+02  0.64163575762E+01  0.16918651573E+02  0.47787270737E+02  0.19999998597E+02 0.  0.
        -12    1    3    3    0    0 -0.39448864179E+02 -0.64163575762E+01 -0.16918651573E+02  0.43400729263E+02  0.00000000000E+00 0.  1.
         11    1    4    4    0    0  0.35162978263E+01 -0.66236937224E+00  0.12411561956E+01  0.37872882847E+01  0.51100000000E-03 0. -1.
        -11    1    4    4    0    0  0.34306394681E+02  0.92367223204E+01  0.87869767577E+01  0.36598588990E+02  0.51100000000E-03 0.  1.
        -12    1    4    4    0    0  0.16261716711E+01 -0.21579953719E+01  0.68905186198E+01  0.74013934620E+01  0.00000000000E+00 0.  1.
</event>
<event>
 8    1  0.8600524E-011  0.9118800E+02  0.7816164E-02  0.1184000E+00
        -11   -1    0    0    0    0  0.00000000000E+00  0.00000000000E+00  0.45593999997E+02  0.45594000000E+02  0.51100000000E-03 0. -1.
         11   -1    0    0    0    0 -0.00000000000E+00 -0.00000000000E+00 -0.45593999997E+02  0.45594000000E+02  0.51100000000E-03 0.  1.
         23    2    1    2    0    0 -0.17763568394E-14  0.00000000000E+00  0.35527136788E-14  0.91188000000E+02  0.91188000000E+02 0.  0.
    9900012    2    3    3    0    0 -0.12722704845E+02  0.35034340007E+02  0.22234004730E+02  0.47787272303E+02  0.20000005737E+02 0.  0.
        -12    1    3    3    0    0  0.12722704845E+02 -0.35034340007E+02 -0.22234004730E+02  0.43400727697E+02  0.00000000000E+00 0.  1.
         11    1    4    4    0    0 -0.11465609151E+01  0.73496757854E+01  0.14460459115E+02  0.16261525579E+02  0.51100000000E-03 0. -1.
        -11    1    4    4    0    0 -0.95370824245E+01  0.26175541467E+02  0.79838153919E+01  0.28980272958E+02  0.51100000000E-03 0.  1.
        -12    1    4    4    0    0 -0.20390615051E+01  0.15091227552E+01 -0.21026977678E+00  0.25454737655E+01  0.00000000000E+00 0.  1.
</event>
<event>
 8    1  0.8600524E-011  0.9118800E+02  0.7816164E-02  0.1184000E+00
        -11   -1    0    0    0    0  0.00000000000E+00  0.00000000000E+00  0.45593999997E+02  0.45594000000E+02  0.51100000000E-03 0. -1.
         11   -1    0    0    0    0 -0.00000000000E+00 -0.00000000000E+00 -0.45593999997E+02  0.45594000000E+02  0.51100000000E-03 0.  1.
         23    2    1    2    0    0  0.00000000000E+00  0.00000000000E+00  0.00000000000E+00  0.91188000000E+02  0.91188000000E+02 0.  0.
    9900012    2    3    3    0    0 -0.25071224204E+02  0.30384641518E+02 -0.18216197270E+02  0.47787279197E+02  0.20000037170E+02 0.  0.
         12    1    3    3    0    0  0.25071224204E+02 -0.30384641518E+02  0.18216197270E+02  0.43400720803E+02  0.00000000000E+00 0. -1.
         11    1    4    4    0    0 -0.16484210701E+02  0.10053048098E+02 -0.79972090191E+01  0.20898524609E+02  0.51100000000E-03 0. -1.
        -11    1    4    4    0    0 -0.42745459212E+01  0.20102052615E+02 -0.85417908548E+01  0.22255930748E+02  0.51100000000E-03 0.  1.
         12    1    4    4    0    0 -0.43124675817E+01  0.22954080501E+00 -0.16771973965E+01  0.46328238398E+01  0.00000000000E+00 0. -1.
</event>
<event>
 8    1  0.8600524E-011  0.9118800E+02  0.7816164E-02  0.1184000E+00
        -11   -1    0    0    0    0  0.00000000000E+00  0.00000000000E+00  0.45593999997E+02  0.45594000000E+02  0.51100000000E-03 0. -1.
         11   -1    0    0    0    0 -0.00000000000E+00 -0.00000000000E+00 -0.45593999997E+02  0.45594000000E+02  0.51100000000E-03 0.  1.
         23    2    1    2    0    0  0.00000000000E+00  0.00000000000E+00  0.35527136788E-14  0.91188000000E+02  0.91188000000E+02 0.  0.
    9900012    2    3    3    0    0 -0.85790400760E+01 -0.33786257372E+02 -0.25855607663E+02  0.47787267709E+02  0.19999984790E+02 0.  0.
         12    1    3    3    0    0  0.85790400760E+01  0.33786257372E+02  0.25855607663E+02  0.43400732291E+02  0.00000000000E+00 0. -1.
         11    1    4    4    0    0 -0.64738154203E+01 -0.25125258513E+01 -0.35832798006E+01  0.78142796623E+01  0.51100000000E-03 0. -1.
        -11    1    4    4    0    0  0.43897688519E+01 -0.10667290185E+02 -0.88295571981E+01  0.14526604250E+02  0.51100000000E-03 0.  1.
         12    1    4    4    0    0 -0.64949935076E+01 -0.20606441335E+02 -0.13442770664E+02  0.25446383796E+02  0.00000000000E+00 0. -1.
</event>
<event>
 8    1  0.8600524E-011  0.9118800E+02  0.7816164E-02  0.1184000E+00
        -11   -1    0    0    0    0  0.00000000000E+00  0.00000000000E+00  0.45593999997E+02  0.45594000000E+02  0.51100000000E-03 0. -1.
         11   -1    0    0    0    0 -0.00000000000E+00 -0.00000000000E+00 -0.45593999997E+02  0.45594000000E+02  0.51100000000E-03 0.  1.
         23    2    1    2    0    0  0.16306400674E-15  0.00000000000E+00  0.00000000000E+00  0.91188000000E+02  0.91188000000E+02 0.  0.
    9900012    2    3    3    0    0  0.59223212328E-02  0.25036646535E+02 -0.35451221900E+02  0.47787276055E+02  0.20000022843E+02 0.  0.
         12    1    3    3    0    0 -0.59223212328E-02 -0.25036646535E+02  0.35451221900E+02  0.43400723945E+02  0.00000000000E+00 0. -1.
         11    1    4    4    0    0 -0.41745170062E+01  0.62160445005E+01 -0.18735723159E+01  0.77185539417E+01  0.51100000000E-03 0. -1.
        -11    1    4    4    0    0  0.81840258372E+00  0.82103279253E+01 -0.24021278087E+02  0.25398839907E+02  0.51100000000E-03 0.  1.
        -12    1    4    4    0    0  0.33620367437E+01  0.10610274109E+02 -0.95563714969E+01  0.14669882206E+02  0.00000000000E+00 0.  1.
</event>
<event>
 8    1  0.8600524E-011  0.9118800E+02  0.7816164E-02  0.1184000E+00
        -11   -1    0    0    0    0  0.00000000000E+00  0.00000000000E+00  0.45593999997E+02  0.45594000000E+02  0.51100000000E-03 0.  1.
         11   -1    0    0    0    0 -0.00000000000E+00 -0.00000000000E+00 -0.45593999997E+02  0.45594000000E+02  0.51100000000E-03 0. -1.
         23    2    1    2    0    0  0.00000000000E+00  0.00000000000E+00  0.88817841970E-15  0.91188000000E+02  0.91188000000E+02 0.  0.
    9900012    2    3    3    0    0 -0.38229395334E+02 -0.20345384678E+02 -0.28638899215E+01  0.47787271771E+02  0.20000003313E+02 0.  0.
        -12    1    3    3    0    0  0.38229395334E+02  0.20345384678E+02  0.28638899215E+01  0.43400728229E+02  0.00000000000E+00 0.  1.
         11    1    4    4    0    0 -0.50639211562E+01 -0.39141693994E+01 -0.17771279211E+00  0.64027807756E+01  0.51100000000E-03 0. -1.
        -11    1    4    4    0    0 -0.81555211792E+01 -0.11407281732E+02 -0.67338257189E+01  0.15555803139E+02  0.51100000000E-03 0.  1.
        -12    1    4    4    0    0 -0.25009952999E+02 -0.50239335467E+01  0.40476485895E+01  0.25828687857E+02  0.00000000000E+00 0.  1.
</event>
<event>
 8    1  0.8600524E-011  0.9118800E+02  0.7816164E-02  0.1184000E+00
        -11   -1    0    0    0    0  0.00000000000E+00  0.00000000000E+00  0.45593999997E+02  0.45594000000E+02  0.51100000000E-03 0.  1.
         11   -1    0    0    0    0 -0.00000000000E+00 -0.00000000000E+00 -0.45593999997E+02  0.45594000000E+02  0.51100000000E-03 0. -1.
         23    2    1    2    0    0 -0.88817841970E-15  0.00000000000E+00 -0.88817841970E-15  0.91188000000E+02  0.91188000000E+02 0.  0.
    9900012    2    3    3    0    0  0.54202369481E+01  0.42728687220E+02  0.53388550436E+01  0.47787273585E+02  0.20000011585E+02 0.  0.
        -12    1    3    3    0    0 -0.54202369481E+01 -0.42728687220E+02 -0.53388550436E+01  0.43400726415E+02  0.00000000000E+00 0.  1.
         11    1    4    4    0    0  0.66727664022E+01  0.11226180646E+02  0.12344529449E+01  0.13117805369E+02  0.51100000000E-03 0. -1.
        -11    1    4    4    0    0 -0.66063161510E+01  0.22883007755E+02  0.54518106911E+01  0.24433536320E+02  0.51100000000E-03 0.  1.
        -12    1    4    4    0    0  0.53537866969E+01  0.86194988188E+01 -0.13474085924E+01  0.10235931897E+02  0.00000000000E+00 0.  1.
</event>
<event>
 8    1  0.8600524E-011  0.9118800E+02  0.7816164E-02  0.1184000E+00
        -11   -1    0    0    0    0  0.00000000000E+00  0.00000000000E+00  0.45593999997E+02  0.45594000000E+02  0.51100000000E-03 0. -1.
         11   -1    0    0    0    0 -0.00000000000E+00 -0.00000000000E+00 -0.45593999997E+02  0.45594000000E+02  0.51100000000E-03 0.  1.
         23    2    1    2    0    0  0.00000000000E+00  0.00000000000E+00 -0.71054273576E-14  0.91188000000E+02  0.91188000000E+02 0.  0.
    9900012    2    3    3    0    0 -0.10532192389E+02 -0.44909795644E+01  0.41863206007E+02  0.47787262781E+02  0.19999962324E+02 0.  0.
        -12    1    3    3    0    0  0.10532192389E+02  0.44909795644E+01 -0.41863206007E+02  0.43400737219E+02  0.00000000000E+00 0.  1.
         11    1    4    4    0    0 -0.69077727476E+00 -0.37121847113E+01  0.33186560565E+02  0.33400678001E+02  0.51100000000E-03 0. -1.
        -11    1    4    4    0    0 -0.48789141788E+01 -0.23614956476E+01  0.17014511850E+01  0.56811443965E+01  0.51100000000E-03 0.  1.
        -12    1    4    4    0    0 -0.49625009352E+01  0.15827007945E+01  0.69751942574E+01  0.87054403831E+01  0.00000000000E+00 0.  1.
</event>
<event>
 8    1  0.8600524E-011  0.9118800E+02  0.7816164E-02  0.1184000E+00
        -11   -1    0    0    0    0  0.00000000000E+00  0.00000000000E+00  0.45593999997E+02  0.45594000000E+02  0.51100000000E-03 0. -1.
         11   -1    0    0    0    0 -0.00000000000E+00 -0.00000000000E+00 -0.45593999997E+02  0.45594000000E+02  0.51100000000E-03 0.  1.
         23    2    1    2    0    0  0.17763568394E-14  0.00000000000E+00 -0.17763568394E-14  0.91188000000E+02  0.91188000000E+02 0.  0.
    9900012    2    3    3    0    0 -0.14208050280E+02  0.38005797541E+02  0.15404960157E+02  0.47787284143E+02  0.20000059721E+02 0.  0.
        -12    1    3    3    0    0  0.14208050280E+02 -0.38005797541E+02 -0.15404960157E+02  0.43400715857E+02  0.00000000000E+00 0.  1.
         11    1    4    4    0    0 -0.19252374794E+01  0.77133211811E+01  0.43710563126E+01  0.90723754631E+01  0.51100000000E-03 0. -1.
        -11    1    4    4    0    0 -0.50498745468E+01  0.17558097659E+02  0.14891778526E+02  0.23570173828E+02  0.51100000000E-03 0.  1.
        -12    1    4    4    0    0 -0.72329382541E+01  0.12734378700E+02 -0.38578746816E+01  0.15144734852E+02  0.00000000000E+00 0.  1.
</event>
<event>
 8    1  0.8600524E-011  0.9118800E+02  0.7816164E-02  0.1184000E+00
        -11   -1    0    0    0    0  0.00000000000E+00  0.00000000000E+00  0.45593999997E+02  0.45594000000E+02  0.51100000000E-03 0. -1.
         11   -1    0    0    0    0 -0.00000000000E+00 -0.00000000000E+00 -0.45593999997E+02  0.45594000000E+02  0.51100000000E-03 0.  1.
         23    2    1    2    0    0  0.35527136788E-14  0.00000000000E+00  0.17763568394E-14  0.91188000000E+02  0.91188000000E+02 0.  0.
    9900012    2    3    3    0    0  0.31015002787E+02 -0.29935063382E+02  0.50581538451E+01  0.47787270307E+02  0.19999996636E+02 0.  0.
        -12    1    3    3    0    0 -0.31015002787E+02  0.29935063382E+02 -0.50581538451E+01  0.43400729693E+02  0.00000000000E+00 0.  1.
         11    1    4    4    0    0  0.31209255847E+01 -0.11654154088E+01 -0.52632955523E+01  0.62290167693E+01  0.51100000000E-03 0. -1.
        -11    1    4    4    0    0  0.14863761690E+02 -0.17089722577E+02  0.73277672925E+01  0.23805171772E+02  0.51100000000E-03 0.  1.
         12    1    4    4    0    0  0.13030315513E+02 -0.11679925396E+02  0.29936821049E+01  0.17753081765E+02  0.00000000000E+00 0. -1.
</event>
<event>
 8    1  0.8600524E-011  0.9118800E+02  0.7816164E-02  0.1184000E+00
        -11   -1    0    0    0    0  0.00000000000E+00  0.00000000000E+00  0.45593999997E+02  0.45594000000E+02  0.51100000000E-03 0. -1.
         11   -1    0    0    0    0 -0.00000000000E+00 -0.00000000000E+00 -0.45593999997E+02  0.45594000000E+02  0.51100000000E-03 0.  1.
         23    2    1    2    0    0 -0.35527136788E-14  0.71054273576E-14  0.35527136788E-14  0.91188000000E+02  0.91188000000E+02 0.  0.
    9900012    2    3    3    0    0  0.14857065179E+02  0.35768028762E+02  0.19584152845E+02  0.47787270629E+02  0.19999998108E+02 0.  0.
        -12    1    3    3    0    0 -0.14857065179E+02 -0.35768028762E+02 -0.19584152845E+02  0.43400729371E+02  0.00000000000E+00 0.  1.
         11    1    4    4    0    0  0.11484484625E+02  0.24985150089E+02  0.67373526418E+01  0.28311535334E+02  0.51100000000E-03 0. -1.
        -11    1    4    4    0    0 -0.21511746698E+01  0.80378329317E+01  0.87282877779E+01  0.12058910336E+02  0.51100000000E-03 0.  1.
        -12    1    4    4    0    0  0.55237552231E+01  0.27450457416E+01  0.41185124253E+01  0.74168249598E+01  0.00000000000E+00 0.  1.
</event>
<event>
 8    1  0.8600524E-011  0.9118800E+02  0.7816164E-02  0.1184000E+00
        -11   -1    0    0    0    0  0.00000000000E+00  0.00000000000E+00  0.45593999997E+02  0.45594000000E+02  0.51100000000E-03 0. -1.
         11   -1    0    0    0    0 -0.00000000000E+00 -0.00000000000E+00 -0.45593999997E+02  0.45594000000E+02  0.51100000000E-03 0.  1.
         23    2    1    2    0    0  0.00000000000E+00  0.00000000000E+00  0.00000000000E+00  0.91188000000E+02  0.91188000000E+02 0.  0.
    9900012    2    3    3    0    0 -0.25144763135E+02  0.31194107280E+02  0.16682080304E+02  0.47787271373E+02  0.20000001496E+02 0.  0.
        -12    1    3    3    0    0  0.25144763135E+02 -0.31194107280E+02 -0.16682080304E+02  0.43400728627E+02  0.00000000000E+00 0.  1.
         11    1    4    4    0    0 -0.62058509004E+01  0.10583500598E+02  0.54373341432E+01  0.13419674853E+02  0.51100000000E-03 0. -1.
        -11    1    4    4    0    0 -0.14942318355E+02  0.15532038824E+02  0.15572463365E+02  0.26589823681E+02  0.51100000000E-03 0.  1.
        -12    1    4    4    0    0 -0.39965938791E+01  0.50785678583E+01 -0.43277172048E+01  0.77777728387E+01  0.00000000000E+00 0.  1.
</event>
<event>
 8    1  0.8600524E-011  0.9118800E+02  0.7816164E-02  0.1184000E+00
        -11   -1    0    0    0    0  0.00000000000E+00  0.00000000000E+00  0.45593999997E+02  0.45594000000E+02  0.51100000000E-03 0. -1.
         11   -1    0    0    0    0 -0.00000000000E+00 -0.00000000000E+00 -0.45593999997E+02  0.45594000000E+02  0.51100000000E-03 0.  1.
         23    2    1    2    0    0  0.71054273576E-14 -0.17763568394E-14  0.71054273576E-14  0.91188000000E+02  0.91188000000E+02 0.  0.
    9900012    2    3    3    0    0  0.24723997117E+02 -0.14031300583E+02  0.32794354189E+02  0.47787273092E+02  0.20000009336E+02 0.  0.
        -12    1    3    3    0    0 -0.24723997117E+02  0.14031300583E+02 -0.32794354189E+02  0.43400726908E+02  0.00000000000E+00 0.  1.
         11    1    4    4    0    0  0.63997150030E+00 -0.22771996961E+01  0.62240061378E+01  0.66583372280E+01  0.51100000000E-03 0. -1.
        -11    1    4    4    0    0  0.15512978317E+02 -0.15083269776E+02  0.22014023116E+02  0.30867049379E+02  0.51100000000E-03 0.  1.
        -12    1    4    4    0    0  0.85710472998E+01  0.33291688891E+01  0.45563249354E+01  0.10261886485E+02  0.00000000000E+00 0.  1.
</event>
<event>
 8    1  0.8600524E-011  0.9118800E+02  0.7816164E-02  0.1184000E+00
        -11   -1    0    0    0    0  0.00000000000E+00  0.00000000000E+00  0.45593999997E+02  0.45594000000E+02  0.51100000000E-03 0. -1.
         11   -1    0    0    0    0 -0.00000000000E+00 -0.00000000000E+00 -0.45593999997E+02  0.45594000000E+02  0.51100000000E-03 0.  1.
         23    2    1    2    0    0 -0.11657341759E-14  0.17763568394E-14  0.00000000000E+00  0.91188000000E+02  0.91188000000E+02 0.  0.
    9900012    2    3    3    0    0 -0.30786122138E+00 -0.15142518063E+02 -0.40672261848E+02  0.47787268259E+02  0.19999987302E+02 0.  0.
         12    1    3    3    0    0  0.30786122138E+00  0.15142518063E+02  0.40672261848E+02  0.43400731741E+02  0.00000000000E+00 0. -1.
         11    1    4    4    0    0 -0.47441936530E+01 -0.37418503266E+01 -0.16240438245E+02  0.17328030815E+02  0.51100000000E-03 0. -1.
        -11    1    4    4    0    0  0.65847642073E+01 -0.13236669569E+02 -0.17118287680E+02  0.22618671807E+02  0.51100000000E-03 0.  1.
        -12    1    4    4    0    0 -0.21484317756E+01  0.18360018326E+01 -0.73135359228E+01  0.78405656376E+01  0.00000000000E+00 0.  1.
</event>
<event>
 8    1  0.8600524E-011  0.9118800E+02  0.7816164E-02  0.1184000E+00
        -11   -1    0    0    0    0  0.00000000000E+00  0.00000000000E+00  0.45593999997E+02  0.45594000000E+02  0.51100000000E-03 0. -1.
         11   -1    0    0    0    0 -0.00000000000E+00 -0.00000000000E+00 -0.45593999997E+02  0.45594000000E+02  0.51100000000E-03 0.  1.
         23    2    1    2    0    0  0.88817841970E-15 -0.35527136788E-14 -0.71054273576E-14  0.91188000000E+02  0.91188000000E+02 0.  0.
    9900012    2    3    3    0    0  0.52749043027E+01 -0.16285326364E+02 -0.39882159731E+02  0.47787272644E+02  0.20000007295E+02 0.  0.
         12    1    3    3    0    0 -0.52749043027E+01  0.16285326364E+02  0.39882159731E+02  0.43400727356E+02  0.00000000000E+00 0. -1.
         11    1    4    4    0    0 -0.16687854969E+01  0.25187325601E+01 -0.10692257062E+01  0.32050121085E+01  0.51100000000E-03 0. -1.
        -11    1    4    4    0    0  0.64239166728E-01 -0.47107386666E+01 -0.17488170818E+02  0.18111634500E+02  0.51100000000E-03 0.  1.
         12    1    4    4    0    0  0.68794506329E+01 -0.14093320258E+02 -0.21324763207E+02  0.26470626036E+02  0.00000000000E+00 0. -1.
</event>
<event>
 8    1  0.8600524E-011  0.9118800E+02  0.7816164E-02  0.1184000E+00
        -11   -1    0    0    0    0  0.00000000000E+00  0.00000000000E+00  0.45593999997E+02  0.45594000000E+02  0.51100000000E-03 0. -1.
         11   -1    0    0    0    0 -0.00000000000E+00 -0.00000000000E+00 -0.45593999997E+02  0.45594000000E+02  0.51100000000E-03 0.  1.
         23    2    1    2    0    0  0.00000000000E+00  0.22204460493E-15  0.00000000000E+00  0.91188000000E+02  0.91188000000E+02 0.  0.
    9900012    2    3    3    0    0 -0.39904914984E+02  0.12601594275E+01 -0.17018602436E+02  0.47787273387E+02  0.20000010683E+02 0.  0.
         12    1    3    3    0    0  0.39904914984E+02 -0.12601594275E+01  0.17018602436E+02  0.43400726613E+02  0.00000000000E+00 0. -1.
         11    1    4    4    0    0 -0.26773027411E+02  0.37111029679E+01 -0.40169064354E+01  0.27325863565E+02  0.51100000000E-03 0. -1.
        -11    1    4    4    0    0 -0.14250628490E+02 -0.24967236310E+01 -0.12813265040E+02  0.19325987750E+02  0.51100000000E-03 0.  1.
         12    1    4    4    0    0  0.11187409175E+01  0.45780090673E-01 -0.18843096062E+00  0.11354220732E+01  0.00000000000E+00 0. -1.
</event>
<event>
 8    1  0.8600524E-011  0.9118800E+02  0.7816164E-02  0.1184000E+00
        -11   -1    0    0    0    0  0.00000000000E+00  0.00000000000E+00  0.45593999997E+02  0.45594000000E+02  0.51100000000E-03 0. -1.
         11   -1    0    0    0    0 -0.00000000000E+00 -0.00000000000E+00 -0.45593999997E+02  0.45594000000E+02  0.51100000000E-03 0.  1.
         23    2    1    2    0    0  0.71054273576E-14 -0.88817841970E-15  0.00000000000E+00  0.91188000000E+02  0.91188000000E+02 0.  0.
    9900012    2    3    3    0    0 -0.42233343244E+02  0.59619234941E+01  0.80264727563E+01  0.47787261778E+02  0.19999957749E+02 0.  0.
        -12    1    3    3    0    0  0.42233343244E+02 -0.59619234941E+01 -0.80264727563E+01  0.43400738222E+02  0.00000000000E+00 0.  1.
         11    1    4    4    0    0 -0.33848401466E+02  0.12428108972E+02  0.33543065862E+01  0.36213582361E+02  0.51100000000E-03 0. -1.
        -11    1    4    4    0    0 -0.80436509594E+01 -0.62089875299E+01  0.44919937270E+01  0.11109898956E+02  0.51100000000E-03 0.  1.
         12    1    4    4    0    0 -0.34129081840E+00 -0.25719794799E+00  0.18017244311E+00  0.46378046146E+00  0.00000000000E+00 0. -1.
</event>
<event>
 8    1  0.8600524E-011  0.9118800E+02  0.7816164E-02  0.1184000E+00
        -11   -1    0    0    0    0  0.00000000000E+00  0.00000000000E+00  0.45593999997E+02  0.45594000000E+02  0.51100000000E-03 0. -1.
         11   -1    0    0    0    0 -0.00000000000E+00 -0.00000000000E+00 -0.45593999997E+02  0.45594000000E+02  0.51100000000E-03 0.  1.
         23    2    1    2    0    0  0.00000000000E+00  0.00000000000E+00  0.00000000000E+00  0.91188000000E+02  0.91188000000E+02 0.  0.
    9900012    2    3    3    0    0  0.12062910736E+02  0.18020211331E+02 -0.37594966374E+02  0.47787270415E+02  0.19999997131E+02 0.  0.
         12    1    3    3    0    0 -0.12062910736E+02 -0.18020211331E+02  0.37594966374E+02  0.43400729585E+02  0.00000000000E+00 0. -1.
         11    1    4    4    0    0  0.69234460544E+01  0.42666479650E+01 -0.72521895967E+01  0.10896450997E+02  0.51100000000E-03 0. -1.
        -11    1    4    4    0    0  0.19920784082E+01  0.11798754501E+02 -0.30907572434E+02  0.33142978414E+02  0.51100000000E-03 0.  1.
        -12    1    4    4    0    0  0.31473862735E+01  0.19548088652E+01  0.56479565680E+00  0.37478410036E+01  0.00000000000E+00 0.  1.
</event>
<event>
 8    1  0.8600524E-011  0.9118800E+02  0.7816164E-02  0.1184000E+00
        -11   -1    0    0    0    0  0.00000000000E+00  0.00000000000E+00  0.45593999997E+02  0.45594000000E+02  0.51100000000E-03 0. -1.
         11   -1    0    0    0    0 -0.00000000000E+00 -0.00000000000E+00 -0.45593999997E+02  0.45594000000E+02  0.51100000000E-03 0.  1.
         23    2    1    2    0    0  0.00000000000E+00  0.00000000000E+00  0.00000000000E+00  0.91188000000E+02  0.91188000000E+02 0.  0.
    9900012    2    3    3    0    0  0.19959869584E+02 -0.23185573714E+02  0.30784022814E+02  0.47787270941E+02  0.19999999527E+02 0.  0.
        -12    1    3    3    0    0 -0.19959869584E+02  0.23185573714E+02 -0.30784022814E+02  0.43400729059E+02  0.00000000000E+00 0.  1.
         11    1    4    4    0    0  0.14009902553E+01 -0.11055152046E+02  0.13374256263E+02  0.17408328217E+02  0.51100000000E-03 0. -1.
        -11    1    4    4    0    0  0.17814891118E+02 -0.13942492295E+02  0.14496728085E+02  0.26868542246E+02  0.51100000000E-03 0.  1.
        -12    1    4    4    0    0  0.74398820990E+00  0.18120706270E+01  0.29130384658E+01  0.35104004781E+01  0.00000000000E+00 0.  1.
</event>
<event>
 8    1  0.8600524E-011  0.9118800E+02  0.7816164E-02  0.1184000E+00
        -11   -1    0    0    0    0  0.00000000000E+00  0.00000000000E+00  0.45593999997E+02  0.45594000000E+02  0.51100000000E-03 0. -1.
         11   -1    0    0    0    0 -0.00000000000E+00 -0.00000000000E+00 -0.45593999997E+02  0.45594000000E+02  0.51100000000E-03 0.  1.
         23    2    1    2    0    0  0.00000000000E+00 -0.17763568394E-14 -0.71054273576E-14  0.91188000000E+02  0.91188000000E+02 0.  0.
    9900012    2    3    3    0    0  0.13879334522E+01 -0.82257920676E+01 -0.42591469658E+02  0.47787270720E+02  0.19999998519E+02 0.  0.
         12    1    3    3    0    0 -0.13879334522E+01  0.82257920676E+01  0.42591469658E+02  0.43400729280E+02  0.00000000000E+00 0. -1.
         11    1    4    4    0    0 -0.35676479772E+01 -0.10083942946E+02 -0.22784936357E+02  0.25170763645E+02  0.51100000000E-03 0. -1.
        -11    1    4    4    0    0  0.98521517444E+00  0.38455156864E+00 -0.17968893663E+02  0.17999990794E+02  0.51100000000E-03 0.  1.
         12    1    4    4    0    0  0.39703662550E+01  0.14735993101E+01 -0.18376396385E+01  0.46165162803E+01  0.00000000000E+00 0. -1.
</event>
<event>
 8    1  0.8600524E-011  0.9118800E+02  0.7816164E-02  0.1184000E+00
        -11   -1    0    0    0    0  0.00000000000E+00  0.00000000000E+00  0.45593999997E+02  0.45594000000E+02  0.51100000000E-03 0. -1.
         11   -1    0    0    0    0 -0.00000000000E+00 -0.00000000000E+00 -0.45593999997E+02  0.45594000000E+02  0.51100000000E-03 0.  1.
         23    2    1    2    0    0  0.00000000000E+00  0.35527136788E-14  0.00000000000E+00  0.91188000000E+02  0.91188000000E+02 0.  0.
    9900012    2    3    3    0    0 -0.66746180184E+01  0.18996553255E+02 -0.38447413164E+02  0.47787272584E+02  0.20000007019E+02 0.  0.
         12    1    3    3    0    0  0.66746180184E+01 -0.18996553255E+02  0.38447413164E+02  0.43400727416E+02  0.00000000000E+00 0. -1.
         11    1    4    4    0    0 -0.60274312399E+01  0.11869172953E+00 -0.22152102616E+01  0.64227075165E+01  0.51100000000E-03 0. -1.
        -11    1    4    4    0    0 -0.76351570377E+00  0.18507178758E+02 -0.30959332936E+02  0.36077401763E+02  0.51100000000E-03 0.  1.
         12    1    4    4    0    0  0.11632892527E+00  0.37068276725E+00 -0.52728699660E+01  0.52871633047E+01  0.00000000000E+00 0. -1.
</event>
<event>
 8    1  0.8600524E-011  0.9118800E+02  0.7816164E-02  0.1184000E+00
        -11   -1    0    0    0    0  0.00000000000E+00  0.00000000000E+00  0.45593999997E+02  0.45594000000E+02  0.51100000000E-03 0. -1.
         11   -1    0    0    0    0 -0.00000000000E+00 -0.00000000000E+00 -0.45593999997E+02  0.45594000000E+02  0.51100000000E-03 0.  1.
         23    2    1    2    0    0  0.71054273576E-14  0.00000000000E+00 -0.35527136788E-14  0.91188000000E+02  0.91188000000E+02 0.  0.
    9900012    2    3    3    0    0 -0.27699423242E+02  0.10323619410E+02 -0.31777244046E+02  0.47787211933E+02  0.19999730487E+02 0.  0.
         12    1    3    3    0    0  0.27699423242E+02 -0.10323619410E+02  0.31777244046E+02  0.43400788067E+02  0.00000000000E+00 0. -1.
         11    1    4    4    0    0 -0.18546419504E+02  0.81982163763E+01 -0.27819138382E+02  0.34425061928E+02  0.51100000000E-03 0.  1.
        -11    1    4    4    0    0 -0.92900589568E+01  0.17915206155E+01 -0.74203071027E-01  0.94615140381E+01  0.51100000000E-03 0. -1.
        -12    1    4    4    0    0  0.13705521834E+00  0.33388241863E+00 -0.38839025922E+01  0.39006359671E+01  0.00000000000E+00 0.  1.
</event>
<event>
 8    1  0.8600524E-011  0.9118800E+02  0.7816164E-02  0.1184000E+00
        -11   -1    0    0    0    0  0.00000000000E+00  0.00000000000E+00  0.45593999997E+02  0.45594000000E+02  0.51100000000E-03 0. -1.
         11   -1    0    0    0    0 -0.00000000000E+00 -0.00000000000E+00 -0.45593999997E+02  0.45594000000E+02  0.51100000000E-03 0.  1.
         23    2    1    2    0    0  0.00000000000E+00  0.00000000000E+00  0.00000000000E+00  0.91188000000E+02  0.91188000000E+02 0.  0.
    9900012    2    3    3    0    0  0.29890085777E+01 -0.25391667312E+02 -0.35070674555E+02  0.47787272415E+02  0.20000006249E+02 0.  0.
         12    1    3    3    0    0 -0.29890085777E+01  0.25391667312E+02  0.35070674555E+02  0.43400727585E+02  0.00000000000E+00 0. -1.
         11    1    4    4    0    0  0.35765307468E+01 -0.53930454179E+01 -0.29046125686E+00  0.64777217496E+01  0.51100000000E-03 0. -1.
        -11    1    4    4    0    0 -0.34541134142E+01 -0.18785352482E+02 -0.28630845914E+02  0.34417229775E+02  0.51100000000E-03 0.  1.
         12    1    4    4    0    0  0.28665912451E+01 -0.12132694118E+01 -0.61493673840E+01  0.68923208904E+01  0.00000000000E+00 0. -1.
</event>
<event>
 8    1  0.8600524E-011  0.9118800E+02  0.7816164E-02  0.1184000E+00
        -11   -1    0    0    0    0  0.00000000000E+00  0.00000000000E+00  0.45593999997E+02  0.45594000000E+02  0.51100000000E-03 0. -1.
         11   -1    0    0    0    0 -0.00000000000E+00 -0.00000000000E+00 -0.45593999997E+02  0.45594000000E+02  0.51100000000E-03 0.  1.
         23    2    1    2    0    0  0.00000000000E+00 -0.17763568394E-14  0.00000000000E+00  0.91188000000E+02  0.91188000000E+02 0.  0.
    9900012    2    3    3    0    0  0.35364153857E+01  0.66425973766E+01  0.42743345574E+02  0.47787263549E+02  0.19999965824E+02 0.  0.
        -12    1    3    3    0    0 -0.35364153857E+01 -0.66425973766E+01 -0.42743345574E+02  0.43400736451E+02  0.00000000000E+00 0.  1.
         11    1    4    4    0    0 -0.50221880616E+01  0.16098753786E+01  0.16847238396E+02  0.17653427811E+02  0.51100000000E-03 0. -1.
        -11    1    4    4    0    0  0.62125112233E+01 -0.23897244320E+01  0.17302665359E+02  0.18538832416E+02  0.51100000000E-03 0.  1.
        -12    1    4    4    0    0  0.23460922240E+01  0.74224464299E+01  0.85934418189E+01  0.11595003321E+02  0.00000000000E+00 0.  1.
</event>
<event>
 8    1  0.8600524E-011  0.9118800E+02  0.7816164E-02  0.1184000E+00
        -11   -1    0    0    0    0  0.00000000000E+00  0.00000000000E+00  0.45593999997E+02  0.45594000000E+02  0.51100000000E-03 0. -1.
         11   -1    0    0    0    0 -0.00000000000E+00 -0.00000000000E+00 -0.45593999997E+02  0.45594000000E+02  0.51100000000E-03 0.  1.
         23    2    1    2    0    0 -0.17763568394E-14  0.00000000000E+00 -0.35527136788E-14  0.91188000000E+02  0.91188000000E+02 0.  0.
    9900012    2    3    3    0    0 -0.13455031309E+02 -0.34259288758E+02 -0.22997533246E+02  0.47787271100E+02  0.20000000252E+02 0.  0.
         12    1    3    3    0    0  0.13455031309E+02  0.34259288758E+02  0.22997533246E+02  0.43400728900E+02  0.00000000000E+00 0. -1.
         11    1    4    4    0    0 -0.15512895860E+02 -0.27758856948E+02 -0.12933342568E+02  0.34328929888E+02  0.51100000000E-03 0. -1.
        -11    1    4    4    0    0  0.16765757146E+00 -0.68142050148E+01 -0.89214926107E+01  0.11227400844E+02  0.51100000000E-03 0.  1.
         12    1    4    4    0    0  0.18902069795E+01  0.31377320569E+00 -0.11426980671E+01  0.22309403673E+01  0.00000000000E+00 0. -1.
</event>
<event>
 8    1  0.8600524E-011  0.9118800E+02  0.7816164E-02  0.1184000E+00
        -11   -1    0    0    0    0  0.00000000000E+00  0.00000000000E+00  0.45593999997E+02  0.45594000000E+02  0.51100000000E-03 0. -1.
         11   -1    0    0    0    0 -0.00000000000E+00 -0.00000000000E+00 -0.45593999997E+02  0.45594000000E+02  0.51100000000E-03 0.  1.
         23    2    1    2    0    0  0.44408920985E-15  0.00000000000E+00  0.00000000000E+00  0.91188000000E+02  0.91188000000E+02 0.  0.
    9900012    2    3    3    0    0 -0.32275325719E+01  0.20833539041E+02  0.37936387260E+02  0.47787276575E+02  0.20000025215E+02 0.  0.
        -12    1    3    3    0    0  0.32275325719E+01 -0.20833539041E+02 -0.37936387260E+02  0.43400723425E+02  0.00000000000E+00 0.  1.
         11    1    4    4    0    0 -0.43065896843E+01  0.52048436051E+00  0.44146808919E+01  0.61892670258E+01  0.51100000000E-03 0. -1.
        -11    1    4    4    0    0  0.69980736828E+01  0.12432257234E+02  0.23836547370E+02  0.27779759646E+02  0.51100000000E-03 0.  1.
        -12    1    4    4    0    0 -0.59190165705E+01  0.78807974471E+01  0.96851589981E+01  0.13818249903E+02  0.00000000000E+00 0.  1.
</event>
<event>
 8    1  0.8600524E-011  0.9118800E+02  0.7816164E-02  0.1184000E+00
        -11   -1    0    0    0    0  0.00000000000E+00  0.00000000000E+00  0.45593999997E+02  0.45594000000E+02  0.51100000000E-03 0.  1.
         11   -1    0    0    0    0 -0.00000000000E+00 -0.00000000000E+00 -0.45593999997E+02  0.45594000000E+02  0.51100000000E-03 0. -1.
         23    2    1    2    0    0  0.71054273576E-14 -0.10658141036E-13  0.22204460493E-15  0.91188000000E+02  0.91188000000E+02 0.  0.
    9900012    2    3    3    0    0 -0.34780857948E+02  0.25931599768E+02  0.12112322012E+01  0.47787273859E+02  0.20000012831E+02 0.  0.
        -12    1    3    3    0    0  0.34780857948E+02 -0.25931599768E+02 -0.12112322012E+01  0.43400726141E+02  0.00000000000E+00 0.  1.
         11    1    4    4    0    0 -0.30449714012E+02  0.17149888689E+02  0.23942284469E+01  0.35029075003E+02  0.51100000000E-03 0. -1.
        -11    1    4    4    0    0  0.17372121864E+01  0.29214525826E+01 -0.25007929648E+01  0.42198053376E+01  0.51100000000E-03 0.  1.
        -12    1    4    4    0    0 -0.60683561230E+01  0.58602584963E+01  0.13177967192E+01  0.85383935182E+01  0.00000000000E+00 0.  1.
</event>
<event>
 8    1  0.8600524E-011  0.9118800E+02  0.7816164E-02  0.1184000E+00
        -11   -1    0    0    0    0  0.00000000000E+00  0.00000000000E+00  0.45593999997E+02  0.45594000000E+02  0.51100000000E-03 0. -1.
         11   -1    0    0    0    0 -0.00000000000E+00 -0.00000000000E+00 -0.45593999997E+02  0.45594000000E+02  0.51100000000E-03 0.  1.
         23    2    1    2    0    0  0.13322676296E-14  0.00000000000E+00  0.00000000000E+00  0.91188000000E+02  0.91188000000E+02 0.  0.
    9900012    2    3    3    0    0 -0.17774420674E+01 -0.12976253474E+02  0.41377298129E+02  0.47787271262E+02  0.20000000993E+02 0.  0.
        -12    1    3    3    0    0  0.17774420674E+01  0.12976253474E+02 -0.41377298129E+02  0.43400728738E+02  0.00000000000E+00 0.  1.
         11    1    4    4    0    0  0.45997053872E+01 -0.84412041283E+01  0.25725725178E+02  0.27463141717E+02  0.51100000000E-03 0. -1.
        -11    1    4    4    0    0 -0.86597380348E+01 -0.56614804017E+01  0.11643299964E+02  0.15575938415E+02  0.51100000000E-03 0.  1.
        -12    1    4    4    0    0  0.22825905801E+01  0.11264310558E+01  0.40082729867E+01  0.47481911310E+01  0.00000000000E+00 0.  1.
</event>
<event>
 8    1  0.8600524E-011  0.9118800E+02  0.7816164E-02  0.1184000E+00
        -11   -1    0    0    0    0  0.00000000000E+00  0.00000000000E+00  0.45593999997E+02  0.45594000000E+02  0.51100000000E-03 0. -1.
         11   -1    0    0    0    0 -0.00000000000E+00 -0.00000000000E+00 -0.45593999997E+02  0.45594000000E+02  0.51100000000E-03 0.  1.
         23    2    1    2    0    0  0.00000000000E+00  0.00000000000E+00  0.00000000000E+00  0.91188000000E+02  0.91188000000E+02 0.  0.
    9900012    2    3    3    0    0 -0.21988840156E+02  0.25248001965E+02 -0.27616168625E+02  0.47787268852E+02  0.19999990005E+02 0.  0.
         12    1    3    3    0    0  0.21988840156E+02 -0.25248001965E+02  0.27616168625E+02  0.43400731148E+02  0.00000000000E+00 0. -1.
         11    1    4    4    0    0  0.14069913760E+01  0.17649371378E+01  0.12185965371E+01  0.25650741927E+01  0.51100000000E-03 0. -1.
        -11    1    4    4    0    0 -0.20167284432E+02  0.23115746987E+02 -0.22304576936E+02  0.37928238460E+02  0.51100000000E-03 0.  1.
        -12    1    4    4    0    0 -0.32285471007E+01  0.36731784032E+00 -0.65301882258E+01  0.72939561996E+01  0.00000000000E+00 0.  1.
</event>
<event>
 8    1  0.8600524E-011  0.9118800E+02  0.7816164E-02  0.1184000E+00
        -11   -1    0    0    0    0  0.00000000000E+00  0.00000000000E+00  0.45593999997E+02  0.45594000000E+02  0.51100000000E-03 0. -1.
         11   -1    0    0    0    0 -0.00000000000E+00 -0.00000000000E+00 -0.45593999997E+02  0.45594000000E+02  0.51100000000E-03 0.  1.
         23    2    1    2    0    0 -0.88817841970E-15  0.35527136788E-14 -0.71054273576E-14  0.91188000000E+02  0.91188000000E+02 0.  0.
    9900012    2    3    3    0    0 -0.55053958720E+01 -0.25068686205E+02  0.34998206681E+02  0.47787275552E+02  0.20000020552E+02 0.  0.
        -12    1    3    3    0    0  0.55053958720E+01  0.25068686205E+02 -0.34998206681E+02  0.43400724448E+02  0.00000000000E+00 0.  1.
         11    1    4    4    0    0 -0.48573819563E+01 -0.14237289840E+02  0.91827348620E+01  0.17624335484E+02  0.51100000000E-03 0. -1.
        -11    1    4    4    0    0 -0.15012895267E+01  0.90566470142E+00  0.11492928420E+02  0.11625897932E+02  0.51100000000E-03 0.  1.
        -12    1    4    4    0    0  0.85327561102E+00 -0.11737061066E+02  0.14322543399E+02  0.18537042136E+02  0.00000000000E+00 0.  1.
</event>
<event>
 8    1  0.8600524E-011  0.9118800E+02  0.7816164E-02  0.1184000E+00
        -11   -1    0    0    0    0  0.00000000000E+00  0.00000000000E+00  0.45593999997E+02  0.45594000000E+02  0.51100000000E-03 0. -1.
         11   -1    0    0    0    0 -0.00000000000E+00 -0.00000000000E+00 -0.45593999997E+02  0.45594000000E+02  0.51100000000E-03 0.  1.
         23    2    1    2    0    0  0.00000000000E+00  0.00000000000E+00  0.00000000000E+00  0.91188000000E+02  0.91188000000E+02 0.  0.
    9900012    2    3    3    0    0  0.29664031366E+02  0.21290261230E+02  0.23460465648E+02  0.47787269263E+02  0.19999991876E+02 0.  0.
        -12    1    3    3    0    0 -0.29664031366E+02 -0.21290261230E+02 -0.23460465648E+02  0.43400730737E+02  0.00000000000E+00 0.  1.
         11    1    4    4    0    0  0.11899092744E+01 -0.53198419291E+00  0.81146998746E+01  0.82187131340E+01  0.51100000000E-03 0.  1.
        -11    1    4    4    0    0  0.17697121500E+02  0.10188101728E+02  0.10642721547E+02  0.23027224071E+02  0.51100000000E-03 0. -1.
        -12    1    4    4    0    0  0.10777000592E+02  0.11634143694E+02  0.47030442260E+01  0.16541332058E+02  0.00000000000E+00 0.  1.
</event>
<event>
 8    1  0.8600524E-011  0.9118800E+02  0.7816164E-02  0.1184000E+00
        -11   -1    0    0    0    0  0.00000000000E+00  0.00000000000E+00  0.45593999997E+02  0.45594000000E+02  0.51100000000E-03 0. -1.
         11   -1    0    0    0    0 -0.00000000000E+00 -0.00000000000E+00 -0.45593999997E+02  0.45594000000E+02  0.51100000000E-03 0.  1.
         23    2    1    2    0    0 -0.13322676296E-14  0.00000000000E+00 -0.71054273576E-14  0.91188000000E+02  0.91188000000E+02 0.  0.
    9900012    2    3    3    0    0 -0.39533254391E+01  0.16490675114E+02  0.39950621471E+02  0.47787270701E+02  0.19999998434E+02 0.  0.
        -12    1    3    3    0    0  0.39533254391E+01 -0.16490675114E+02 -0.39950621471E+02  0.43400729299E+02  0.00000000000E+00 0.  1.
         11    1    4    4    0    0  0.71217164387E+00 -0.19128107397E+01  0.14808959224E+02  0.14948956717E+02  0.51100000000E-03 0. -1.
        -11    1    4    4    0    0  0.22303569206E+01  0.30162628471E+01  0.77741993286E+01  0.86319470004E+01  0.51100000000E-03 0.  1.
         12    1    4    4    0    0 -0.68958540036E+01  0.15387223007E+02  0.17367462918E+02  0.24206366983E+02  0.00000000000E+00 0. -1.
</event>
<event>
 8    1  0.8600524E-011  0.9118800E+02  0.7816164E-02  0.1184000E+00
        -11   -1    0    0    0    0  0.00000000000E+00  0.00000000000E+00  0.45593999997E+02  0.45594000000E+02  0.51100000000E-03 0. -1.
         11   -1    0    0    0    0 -0.00000000000E+00 -0.00000000000E+00 -0.45593999997E+02  0.45594000000E+02  0.51100000000E-03 0.  1.
         23    2    1    2    0    0 -0.35527136788E-14  0.00000000000E+00  0.00000000000E+00  0.91188000000E+02  0.91188000000E+02 0.  0.
    9900012    2    3    3    0    0 -0.25209331339E+02 -0.23134574454E+02 -0.26700307792E+02  0.47787247035E+02  0.19999890531E+02 0.  0.
         12    1    3    3    0    0  0.25209331339E+02  0.23134574454E+02  0.26700307792E+02  0.43400752965E+02  0.00000000000E+00 0. -1.
         11    1    4    4    0    0 -0.58975023919E+01 -0.11124690655E+02 -0.17605826027E+02  0.21644962162E+02  0.51100000000E-03 0. -1.
        -11    1    4    4    0    0 -0.26035515443E+01 -0.36473521372E+01 -0.55357221820E+01  0.71222102324E+01  0.51100000000E-03 0.  1.
         12    1    4    4    0    0 -0.16708277403E+02 -0.83625316621E+01 -0.35587595828E+01  0.19020074641E+02  0.00000000000E+00 0. -1.
</event>
<event>
 8    1  0.8600524E-011  0.9118800E+02  0.7816164E-02  0.1184000E+00
        -11   -1    0    0    0    0  0.00000000000E+00  0.00000000000E+00  0.45593999997E+02  0.45594000000E+02  0.51100000000E-03 0. -1.
         11   -1    0    0    0    0 -0.00000000000E+00 -0.00000000000E+00 -0.45593999997E+02  0.45594000000E+02  0.51100000000E-03 0.  1.
         23    2    1    2    0    0  0.00000000000E+00  0.00000000000E+00  0.00000000000E+00  0.91188000000E+02  0.91188000000E+02 0.  0.
    9900012    2    3    3    0    0  0.31417418683E+01  0.23724365571E+02 -0.36206453086E+02  0.47787270642E+02  0.19999998167E+02 0.  0.
         12    1    3    3    0    0 -0.31417418683E+01 -0.23724365571E+02  0.36206453086E+02  0.43400729358E+02  0.00000000000E+00 0. -1.
         11    1    4    4    0    0 -0.24118025631E+01  0.96994891179E+01 -0.52764258919E+01  0.11302103840E+02  0.51100000000E-03 0. -1.
        -11    1    4    4    0    0  0.71517603496E+01  0.54821179610E+01 -0.23068694601E+02  0.24766226283E+02  0.51100000000E-03 0.  1.
        -12    1    4    4    0    0 -0.15982159181E+01  0.85427584917E+01 -0.78613325934E+01  0.11718940520E+02  0.00000000000E+00 0.  1.
</event>
<event>
 8    1  0.8600524E-011  0.9118800E+02  0.7816164E-02  0.1184000E+00
        -11   -1    0    0    0    0  0.00000000000E+00  0.00000000000E+00  0.45593999997E+02  0.45594000000E+02  0.51100000000E-03 0. -1.
         11   -1    0    0    0    0 -0.00000000000E+00 -0.00000000000E+00 -0.45593999997E+02  0.45594000000E+02  0.51100000000E-03 0.  1.
         23    2    1    2    0    0 -0.35527136788E-14  0.00000000000E+00  0.00000000000E+00  0.91188000000E+02  0.91188000000E+02 0.  0.
    9900012    2    3    3    0    0  0.31238148888E+02  0.24997246624E+02  0.16820781704E+02  0.47787274409E+02  0.20000015341E+02 0.  0.
        -12    1    3    3    0    0 -0.31238148888E+02 -0.24997246624E+02 -0.16820781704E+02  0.43400725591E+02  0.00000000000E+00 0.  1.
         11    1    4    4    0    0  0.16099090762E+02  0.95446141691E+01 -0.21754460397E+01  0.18841787302E+02  0.51100000000E-03 0. -1.
        -11    1    4    4    0    0  0.25833320613E+00  0.10871343375E+01  0.13890789867E+01  0.17827332402E+01  0.51100000000E-03 0.  1.
         12    1    4    4    0    0  0.14880724920E+02  0.14365498117E+02  0.17607148757E+02  0.27162753867E+02  0.00000000000E+00 0. -1.
</event>
<event>
 8    1  0.8600524E-011  0.9118800E+02  0.7816164E-02  0.1184000E+00
        -11   -1    0    0    0    0  0.00000000000E+00  0.00000000000E+00  0.45593999997E+02  0.45594000000E+02  0.51100000000E-03 0. -1.
         11   -1    0    0    0    0 -0.00000000000E+00 -0.00000000000E+00 -0.45593999997E+02  0.45594000000E+02  0.51100000000E-03 0.  1.
         23    2    1    2    0    0  0.00000000000E+00  0.00000000000E+00 -0.35527136788E-14  0.91188000000E+02  0.91188000000E+02 0.  0.
    9900012    2    3    3    0    0  0.31812332183E+02  0.17674977466E+02 -0.23647273615E+02  0.47787275850E+02  0.20000021911E+02 0.  0.
         12    1    3    3    0    0 -0.31812332183E+02 -0.17674977466E+02  0.23647273615E+02  0.43400724150E+02  0.00000000000E+00 0. -1.
         11    1    4    4    0    0  0.41219063045E+01  0.12010013841E+01  0.54524228627E+00  0.43277945098E+01  0.51100000000E-03 0. -1.
        -11    1    4    4    0    0 -0.13612123470E+01  0.33931210841E+01 -0.36461154231E+00  0.36741137140E+01  0.51100000000E-03 0.  1.
        -12    1    4    4    0    0  0.29051638225E+02  0.13080854998E+02 -0.23827904359E+02  0.39785367626E+02  0.00000000000E+00 0.  1.
</event>
<event>
 8    1  0.8600524E-011  0.9118800E+02  0.7816164E-02  0.1184000E+00
        -11   -1    0    0    0    0  0.00000000000E+00  0.00000000000E+00  0.45593999997E+02  0.45594000000E+02  0.51100000000E-03 0. -1.
         11   -1    0    0    0    0 -0.00000000000E+00 -0.00000000000E+00 -0.45593999997E+02  0.45594000000E+02  0.51100000000E-03 0.  1.
         23    2    1    2    0    0 -0.35527136788E-14 -0.17763568394E-14  0.00000000000E+00  0.91188000000E+02  0.91188000000E+02 0.  0.
    9900012    2    3    3    0    0  0.31875238874E+02 -0.90248443217E+01 -0.28038270797E+02  0.47787270771E+02  0.19999998754E+02 0.  0.
         12    1    3    3    0    0 -0.31875238874E+02  0.90248443217E+01  0.28038270797E+02  0.43400729229E+02  0.00000000000E+00 0. -1.
         11    1    4    4    0    0 -0.58292449923E+00 -0.40307585039E+00 -0.73449020434E+01  0.73790146633E+01  0.51100000000E-03 0. -1.
        -11    1    4    4    0    0 -0.14275212529E+00 -0.83756525655E-01 -0.17317871353E+01  0.17396782082E+01  0.51100000000E-03 0.  1.
         12    1    4    4    0    0  0.32600915498E+02 -0.85380119457E+01 -0.18961581619E+02  0.38668577900E+02  0.00000000000E+00 0. -1.
</event>
<event>
 8    1  0.8600524E-011  0.9118800E+02  0.7816164E-02  0.1184000E+00
        -11   -1    0    0    0    0  0.00000000000E+00  0.00000000000E+00  0.45593999997E+02  0.45594000000E+02  0.51100000000E-03 0. -1.
         11   -1    0    0    0    0 -0.00000000000E+00 -0.00000000000E+00 -0.45593999997E+02  0.45594000000E+02  0.51100000000E-03 0.  1.
         23    2    1    2    0    0 -0.11102230246E-15  0.71054273576E-14 -0.17763568394E-14  0.91188000000E+02  0.91188000000E+02 0.  0.
    9900012    2    3    3    0    0 -0.62045593826E+00 -0.41167607986E+02 -0.13728303930E+02  0.47787271416E+02  0.20000001693E+02 0.  0.
         12    1    3    3    0    0  0.62045593826E+00  0.41167607986E+02  0.13728303930E+02  0.43400728584E+02  0.00000000000E+00 0. -1.
         11    1    4    4    0    0  0.35357182534E+01 -0.42115496116E+00 -0.11115273584E+01  0.37301700227E+01  0.51100000000E-03 0. -1.
        -11    1    4    4    0    0 -0.28708045490E+01 -0.40470008409E+02 -0.11126433738E+02  0.42069711520E+02  0.51100000000E-03 0.  1.
        -12    1    4    4    0    0 -0.12853696427E+01 -0.27644461510E+00 -0.14903428342E+01  0.19873898729E+01  0.00000000000E+00 0.  1.
</event>
<event>
 8    1  0.8600524E-011  0.9118800E+02  0.7816164E-02  0.1184000E+00
        -11   -1    0    0    0    0  0.00000000000E+00  0.00000000000E+00  0.45593999997E+02  0.45594000000E+02  0.51100000000E-03 0. -1.
         11   -1    0    0    0    0 -0.00000000000E+00 -0.00000000000E+00 -0.45593999997E+02  0.45594000000E+02  0.51100000000E-03 0.  1.
         23    2    1    2    0    0  0.00000000000E+00 -0.17763568394E-14  0.00000000000E+00  0.91188000000E+02  0.91188000000E+02 0.  0.
    9900012    2    3    3    0    0  0.17099940458E+02 -0.11963235250E+02 -0.38053862214E+02  0.47787269698E+02  0.19999993862E+02 0.  0.
         12    1    3    3    0    0 -0.17099940458E+02  0.11963235250E+02  0.38053862214E+02  0.43400730302E+02  0.00000000000E+00 0. -1.
         11    1    4    4    0    0  0.86389252295E+01 -0.45219034582E+01 -0.41500299687E+01  0.10597234970E+02  0.51100000000E-03 0. -1.
        -11    1    4    4    0    0  0.10793586419E+02 -0.65017264769E+01 -0.25937561752E+02  0.28836280357E+02  0.51100000000E-03 0.  1.
         12    1    4    4    0    0 -0.23325711909E+01 -0.93960531486E+00 -0.79662704938E+01  0.83537543709E+01  0.00000000000E+00 0. -1.
</event>
<event>
 8    1  0.8600524E-011  0.9118800E+02  0.7816164E-02  0.1184000E+00
        -11   -1    0    0    0    0  0.00000000000E+00  0.00000000000E+00  0.45593999997E+02  0.45594000000E+02  0.51100000000E-03 0. -1.
         11   -1    0    0    0    0 -0.00000000000E+00 -0.00000000000E+00 -0.45593999997E+02  0.45594000000E+02  0.51100000000E-03 0.  1.
         23    2    1    2    0    0  0.00000000000E+00  0.00000000000E+00 -0.88817841970E-15  0.91188000000E+02  0.91188000000E+02 0.  0.
    9900012    2    3    3    0    0 -0.23188418417E+02 -0.36464256531E+02 -0.40346564708E+01  0.47787271828E+02  0.20000003572E+02 0.  0.
        -12    1    3    3    0    0  0.23188418417E+02  0.36464256531E+02  0.40346564708E+01  0.43400728172E+02  0.00000000000E+00 0.  1.
         11    1    4    4    0    0 -0.11546972032E+02 -0.18232013006E+02 -0.13746048842E+01  0.21624717344E+02  0.51100000000E-03 0. -1.
        -11    1    4    4    0    0 -0.52847046360E+01 -0.16563782191E+02  0.28098775757E+01  0.17611995793E+02  0.51100000000E-03 0.  1.
        -12    1    4    4    0    0 -0.63567417490E+01 -0.16684613341E+01 -0.54699291622E+01  0.85505586909E+01  0.00000000000E+00 0.  1.
</event>
<event>
 8    1  0.8600524E-011  0.9118800E+02  0.7816164E-02  0.1184000E+00
        -11   -1    0    0    0    0  0.00000000000E+00  0.00000000000E+00  0.45593999997E+02  0.45594000000E+02  0.51100000000E-03 0. -1.
         11   -1    0    0    0    0 -0.00000000000E+00 -0.00000000000E+00 -0.45593999997E+02  0.45594000000E+02  0.51100000000E-03 0.  1.
         23    2    1    2    0    0  0.00000000000E+00  0.88817841970E-15  0.00000000000E+00  0.91188000000E+02  0.91188000000E+02 0.  0.
    9900012    2    3    3    0    0 -0.21756808668E+02  0.61389149272E+01 -0.37048325775E+02  0.47787269101E+02  0.19999991137E+02 0.  0.
         12    1    3    3    0    0  0.21756808668E+02 -0.61389149272E+01  0.37048325775E+02  0.43400730899E+02  0.00000000000E+00 0. -1.
         11    1    4    4    0    0 -0.17362595603E+02  0.18521448924E+01 -0.28248253599E+02  0.33209245677E+02  0.51100000000E-03 0.  1.
        -11    1    4    4    0    0 -0.21675023057E+01  0.21027255059E+01 -0.10569232139E+02  0.10992187637E+02  0.51100000000E-03 0. -1.
         12    1    4    4    0    0 -0.22267107592E+01  0.21840445289E+01  0.17691599631E+01  0.35858357860E+01  0.00000000000E+00 0. -1.
</event>
<event>
 8    1  0.8600524E-011  0.9118800E+02  0.7816164E-02  0.1184000E+00
        -11   -1    0    0    0    0  0.00000000000E+00  0.00000000000E+00  0.45593999997E+02  0.45594000000E+02  0.51100000000E-03 0. -1.
         11   -1    0    0    0    0 -0.00000000000E+00 -0.00000000000E+00 -0.45593999997E+02  0.45594000000E+02  0.51100000000E-03 0.  1.
         23    2    1    2    0    0  0.35527136788E-14  0.00000000000E+00  0.00000000000E+00  0.91188000000E+02  0.91188000000E+02 0.  0.
    9900012    2    3    3    0    0  0.16938058855E+02 -0.18448419971E+02 -0.35445474274E+02  0.47787266323E+02  0.19999978474E+02 0.  0.
         12    1    3    3    0    0 -0.16938058855E+02  0.18448419971E+02  0.35445474274E+02  0.43400733677E+02  0.00000000000E+00 0. -1.
         11    1    4    4    0    0  0.71271463414E+01 -0.27867815658E+00 -0.18233711602E+02  0.19579124483E+02  0.51100000000E-03 0. -1.
        -11    1    4    4    0    0  0.35201174740E+00 -0.89726048045E+01 -0.52618622135E+01  0.10407629099E+02  0.51100000000E-03 0.  1.
        -12    1    4    4    0    0  0.94589007662E+01 -0.91971370096E+01 -0.11949900458E+02  0.17800512741E+02  0.00000000000E+00 0.  1.
</event>
<event>
 8    1  0.8600524E-011  0.9118800E+02  0.7816164E-02  0.1184000E+00
        -11   -1    0    0    0    0  0.00000000000E+00  0.00000000000E+00  0.45593999997E+02  0.45594000000E+02  0.51100000000E-03 0. -1.
         11   -1    0    0    0    0 -0.00000000000E+00 -0.00000000000E+00 -0.45593999997E+02  0.45594000000E+02  0.51100000000E-03 0.  1.
         23    2    1    2    0    0  0.17763568394E-14  0.17763568394E-14  0.00000000000E+00  0.91188000000E+02  0.91188000000E+02 0.  0.
    9900012    2    3    3    0    0 -0.13559615728E+02  0.15820322771E+02 -0.38072000371E+02  0.47787274159E+02  0.20000014199E+02 0.  0.
         12    1    3    3    0    0  0.13559615728E+02 -0.15820322771E+02  0.38072000371E+02  0.43400725841E+02  0.00000000000E+00 0. -1.
         11    1    4    4    0    0 -0.11410970789E+02  0.62245759349E+01 -0.20542490702E+02  0.24309453397E+02  0.51100000000E-03 0. -1.
        -11    1    4    4    0    0 -0.46825018832E+00  0.10651935472E+02 -0.69812130423E+01  0.12744423225E+02  0.51100000000E-03 0.  1.
         12    1    4    4    0    0 -0.16803947506E+01 -0.10561886365E+01 -0.10548296627E+02  0.10733397537E+02  0.00000000000E+00 0. -1.
</event>
<event>
 8    1  0.8600524E-011  0.9118800E+02  0.7816164E-02  0.1184000E+00
        -11   -1    0    0    0    0  0.00000000000E+00  0.00000000000E+00  0.45593999997E+02  0.45594000000E+02  0.51100000000E-03 0. -1.
         11   -1    0    0    0    0 -0.00000000000E+00 -0.00000000000E+00 -0.45593999997E+02  0.45594000000E+02  0.51100000000E-03 0.  1.
         23    2    1    2    0    0 -0.71054273576E-14  0.17763568394E-14  0.17763568394E-14  0.91188000000E+02  0.91188000000E+02 0.  0.
    9900012    2    3    3    0    0  0.39683113492E+02 -0.14051597454E+02 -0.10555846773E+02  0.47787276636E+02  0.20000025495E+02 0.  0.
         12    1    3    3    0    0 -0.39683113492E+02  0.14051597454E+02  0.10555846773E+02  0.43400723364E+02  0.00000000000E+00 0. -1.
         11    1    4    4    0    0 -0.40932975380E+00 -0.12397061534E+01  0.18138940422E+00  0.13180760871E+01  0.51100000000E-03 0. -1.
        -11    1    4    4    0    0  0.22528509625E+02 -0.86440371737E+01  0.22449018939E+01  0.24234122830E+02  0.51100000000E-03 0.  1.
        -12    1    4    4    0    0  0.17563933620E+02 -0.41678541270E+01 -0.12982138072E+02  0.22235077719E+02  0.00000000000E+00 0.  1.
</event>
<event>
 8    1  0.8600524E-011  0.9118800E+02  0.7816164E-02  0.1184000E+00
        -11   -1    0    0    0    0  0.00000000000E+00  0.00000000000E+00  0.45593999997E+02  0.45594000000E+02  0.51100000000E-03 0. -1.
         11   -1    0    0    0    0 -0.00000000000E+00 -0.00000000000E+00 -0.45593999997E+02  0.45594000000E+02  0.51100000000E-03 0.  1.
         23    2    1    2    0    0  0.00000000000E+00  0.00000000000E+00  0.00000000000E+00  0.91188000000E+02  0.91188000000E+02 0.  0.
    9900012    2    3    3    0    0  0.51275014313E+01  0.84023744776E+01 -0.42269755399E+02  0.47787269715E+02  0.19999993938E+02 0.  0.
         12    1    3    3    0    0 -0.51275014313E+01 -0.84023744776E+01  0.42269755399E+02  0.43400730285E+02  0.00000000000E+00 0. -1.
         11    1    4    4    0    0 -0.59570671225E+01  0.92389392268E+01 -0.22541937597E+02  0.25079545403E+02  0.51100000000E-03 0. -1.
        -11    1    4    4    0    0  0.73079727475E+01  0.17905068685E+00 -0.13549474821E+02  0.15395674490E+02  0.51100000000E-03 0.  1.
        -12    1    4    4    0    0  0.37765958063E+01 -0.10156154361E+01 -0.61783429811E+01  0.73120498214E+01  0.00000000000E+00 0.  1.
</event>
<event>
 8    1  0.8600524E-011  0.9118800E+02  0.7816164E-02  0.1184000E+00
        -11   -1    0    0    0    0  0.00000000000E+00  0.00000000000E+00  0.45593999997E+02  0.45594000000E+02  0.51100000000E-03 0. -1.
         11   -1    0    0    0    0 -0.00000000000E+00 -0.00000000000E+00 -0.45593999997E+02  0.45594000000E+02  0.51100000000E-03 0.  1.
         23    2    1    2    0    0 -0.17763568394E-14  0.00000000000E+00  0.00000000000E+00  0.91188000000E+02  0.91188000000E+02 0.  0.
    9900012    2    3    3    0    0  0.12077959068E+02 -0.16666315799E+02  0.38209684815E+02  0.47787271997E+02  0.20000004342E+02 0.  0.
        -12    1    3    3    0    0 -0.12077959068E+02  0.16666315799E+02 -0.38209684815E+02  0.43400728003E+02  0.00000000000E+00 0.  1.
         11    1    4    4    0    0  0.10534597874E+02 -0.17632915522E+02  0.22025714330E+02  0.30116931354E+02  0.51100000000E-03 0. -1.
        -11    1    4    4    0    0  0.33820555746E+01 -0.21540344279E+00  0.14554859115E+02  0.14944183574E+02  0.51100000000E-03 0.  1.
         12    1    4    4    0    0 -0.18386943804E+01  0.11820031663E+01  0.16291113693E+01  0.27261570687E+01  0.00000000000E+00 0. -1.
</event>
<event>
 8    1  0.8600524E-011  0.9118800E+02  0.7816164E-02  0.1184000E+00
        -11   -1    0    0    0    0  0.00000000000E+00  0.00000000000E+00  0.45593999997E+02  0.45594000000E+02  0.51100000000E-03 0. -1.
         11   -1    0    0    0    0 -0.00000000000E+00 -0.00000000000E+00 -0.45593999997E+02  0.45594000000E+02  0.51100000000E-03 0.  1.
         23    2    1    2    0    0  0.00000000000E+00  0.00000000000E+00  0.00000000000E+00  0.91188000000E+02  0.91188000000E+02 0.  0.
    9900012    2    3    3    0    0 -0.10199839033E+02  0.64426105109E+01  0.41690278673E+02  0.47787270947E+02  0.19999999555E+02 0.  0.
        -12    1    3    3    0    0  0.10199839033E+02 -0.64426105109E+01 -0.41690278673E+02  0.43400729053E+02  0.00000000000E+00 0.  1.
         11    1    4    4    0    0  0.51232483531E+01 -0.48442798890E+00  0.13000614953E+02  0.13982071863E+02  0.51100000000E-03 0. -1.
        -11    1    4    4    0    0 -0.12403260542E+02  0.70497352156E+01  0.26691168383E+02  0.30264799827E+02  0.51100000000E-03 0.  1.
        -12    1    4    4    0    0 -0.29198268442E+01 -0.12269671586E+00  0.19984953379E+01  0.35403992571E+01  0.00000000000E+00 0.  1.
</event>
<event>
 8    1  0.8600524E-011  0.9118800E+02  0.7816164E-02  0.1184000E+00
        -11   -1    0    0    0    0  0.00000000000E+00  0.00000000000E+00  0.45593999997E+02  0.45594000000E+02  0.51100000000E-03 0. -1.
         11   -1    0    0    0    0 -0.00000000000E+00 -0.00000000000E+00 -0.45593999997E+02  0.45594000000E+02  0.51100000000E-03 0.  1.
         23    2    1    2    0    0  0.00000000000E+00 -0.17763568394E-14  0.71054273576E-14  0.91188000000E+02  0.91188000000E+02 0.  0.
    9900012    2    3    3    0    0  0.12624813409E+02  0.90294430767E+01 -0.40530317169E+02  0.47787269986E+02  0.19999995175E+02 0.  0.
         12    1    3    3    0    0 -0.12624813409E+02 -0.90294430767E+01  0.40530317169E+02  0.43400730014E+02  0.00000000000E+00 0. -1.
         11    1    4    4    0    0  0.60080072571E+01 -0.34460227721E+01 -0.12065305715E+02  0.13911967022E+02  0.51100000000E-03 0. -1.
        -11    1    4    4    0    0  0.66046140139E+01  0.14668090135E+02 -0.23878309679E+02  0.28791447825E+02  0.51100000000E-03 0.  1.
        -12    1    4    4    0    0  0.12192138270E-01 -0.21926242861E+01 -0.45867017750E+01  0.50838551397E+01  0.00000000000E+00 0.  1.
</event>
<event>
 8    1  0.8600524E-011  0.9118800E+02  0.7816164E-02  0.1184000E+00
        -11   -1    0    0    0    0  0.00000000000E+00  0.00000000000E+00  0.45593999997E+02  0.45594000000E+02  0.51100000000E-03 0.  1.
         11   -1    0    0    0    0 -0.00000000000E+00 -0.00000000000E+00 -0.45593999997E+02  0.45594000000E+02  0.51100000000E-03 0. -1.
         23    2    1    2    0    0  0.00000000000E+00  0.35527136788E-14  0.00000000000E+00  0.91188000000E+02  0.91188000000E+02 0.  0.
    9900012    2    3    3    0    0  0.32994123491E+02 -0.22770634342E+02  0.16628458378E+02  0.47787313354E+02  0.20000192906E+02 0.  0.
        -12    1    3    3    0    0 -0.32994123491E+02  0.22770634342E+02 -0.16628458378E+02  0.43400686646E+02  0.00000000000E+00 0.  1.
         11    1    4    4    0    0  0.25232176634E+02 -0.90563643419E+01  0.10586082533E+02  0.28822658039E+02  0.51100000000E-03 0. -1.
        -11    1    4    4    0    0  0.23204457868E+01 -0.50961989630E+01  0.67232496646E+01  0.87497313578E+01  0.51100000000E-03 0.  1.
         12    1    4    4    0    0  0.54415010708E+01 -0.86180710371E+01 -0.68087381898E+00  0.10214923958E+02  0.00000000000E+00 0. -1.
</event>
<event>
 8    1  0.8600524E-011  0.9118800E+02  0.7816164E-02  0.1184000E+00
        -11   -1    0    0    0    0  0.00000000000E+00  0.00000000000E+00  0.45593999997E+02  0.45594000000E+02  0.51100000000E-03 0. -1.
         11   -1    0    0    0    0 -0.00000000000E+00 -0.00000000000E+00 -0.45593999997E+02  0.45594000000E+02  0.51100000000E-03 0.  1.
         23    2    1    2    0    0 -0.17763568394E-14 -0.71054273576E-14  0.00000000000E+00  0.91188000000E+02  0.91188000000E+02 0.  0.
    9900012    2    3    3    0    0 -0.14843046842E+02 -0.35724865866E+02  0.19673361696E+02  0.47787271422E+02  0.20000001719E+02 0.  0.
        -12    1    3    3    0    0  0.14843046842E+02  0.35724865866E+02 -0.19673361696E+02  0.43400728578E+02  0.00000000000E+00 0.  1.
         11    1    4    4    0    0 -0.13318468940E+02 -0.19166740313E+02  0.15677523545E+02  0.28116370568E+02  0.51100000000E-03 0. -1.
        -11    1    4    4    0    0 -0.99276668789E+00 -0.16663081112E+02  0.11044364594E+01  0.16729125440E+02  0.51100000000E-03 0.  1.
        -12    1    4    4    0    0 -0.53181121419E+00  0.10495555966E+00  0.28914016916E+01  0.29417754128E+01  0.00000000000E+00 0.  1.
</event>
<event>
 8    1  0.8600524E-011  0.9118800E+02  0.7816164E-02  0.1184000E+00
        -11   -1    0    0    0    0  0.00000000000E+00  0.00000000000E+00  0.45593999997E+02  0.45594000000E+02  0.51100000000E-03 0.  1.
         11   -1    0    0    0    0 -0.00000000000E+00 -0.00000000000E+00 -0.45593999997E+02  0.45594000000E+02  0.51100000000E-03 0. -1.
         23    2    1    2    0    0  0.00000000000E+00  0.00000000000E+00 -0.17763568394E-14  0.91188000000E+02  0.91188000000E+02 0.  0.
    9900012    2    3    3    0    0  0.21800253861E+02  0.36095644104E+02  0.10270230555E+02  0.47787260060E+02  0.19999949917E+02 0.  0.
        -12    1    3    3    0    0 -0.21800253861E+02 -0.36095644104E+02 -0.10270230555E+02  0.43400739940E+02  0.00000000000E+00 0.  1.
         11    1    4    4    0    0  0.71885402012E+01  0.86673428967E+01  0.28858468747E+00  0.11264156626E+02  0.51100000000E-03 0. -1.
        -11    1    4    4    0    0  0.17188925002E+02  0.22199422190E+02  0.11743363277E+02  0.30433206693E+02  0.51100000000E-03 0.  1.
        -12    1    4    4    0    0 -0.25772113426E+01  0.52288790175E+01 -0.17617174090E+01  0.60898967408E+01  0.00000000000E+00 0.  1.
</event>
<event>
 8    1  0.8600524E-011  0.9118800E+02  0.7816164E-02  0.1184000E+00
        -11   -1    0    0    0    0  0.00000000000E+00  0.00000000000E+00  0.45593999997E+02  0.45594000000E+02  0.51100000000E-03 0. -1.
         11   -1    0    0    0    0 -0.00000000000E+00 -0.00000000000E+00 -0.45593999997E+02  0.45594000000E+02  0.51100000000E-03 0.  1.
         23    2    1    2    0    0  0.17763568394E-14 -0.35527136788E-14  0.71054273576E-14  0.91188000000E+02  0.91188000000E+02 0.  0.
    9900012    2    3    3    0    0  0.15032349530E+02  0.21124125166E+02  0.34805505616E+02  0.47787269389E+02  0.19999992450E+02 0.  0.
        -12    1    3    3    0    0 -0.15032349530E+02 -0.21124125166E+02 -0.34805505616E+02  0.43400730611E+02  0.00000000000E+00 0.  1.
         11    1    4    4    0    0  0.61598075052E+01  0.12760171184E+02  0.29548295219E+02  0.32769909182E+02  0.51100000000E-03 0. -1.
        -11    1    4    4    0    0  0.55999992242E+01  0.60645431422E+00  0.24461685873E+01  0.61409705393E+01  0.51100000000E-03 0.  1.
        -12    1    4    4    0    0  0.32725428005E+01  0.77574996680E+01  0.28110418094E+01  0.88763896678E+01  0.00000000000E+00 0.  1.
</event>
<event>
 8    1  0.8600524E-011  0.9118800E+02  0.7816164E-02  0.1184000E+00
        -11   -1    0    0    0    0  0.00000000000E+00  0.00000000000E+00  0.45593999997E+02  0.45594000000E+02  0.51100000000E-03 0. -1.
         11   -1    0    0    0    0 -0.00000000000E+00 -0.00000000000E+00 -0.45593999997E+02  0.45594000000E+02  0.51100000000E-03 0.  1.
         23    2    1    2    0    0  0.12212453271E-14  0.35527136788E-14  0.71054273576E-14  0.91188000000E+02  0.91188000000E+02 0.  0.
    9900012    2    3    3    0    0  0.65583092471E+00 -0.23440139448E+02 -0.36520584601E+02  0.47787270154E+02  0.19999995940E+02 0.  0.
         12    1    3    3    0    0 -0.65583092471E+00  0.23440139448E+02  0.36520584601E+02  0.43400729846E+02  0.00000000000E+00 0. -1.
         11    1    4    4    0    0 -0.18200862813E+01 -0.19600531812E+01 -0.14365617324E+01  0.30361542149E+01  0.51100000000E-03 0. -1.
        -11    1    4    4    0    0  0.46599335673E+01 -0.13561118161E+02 -0.79391674750E+01  0.16390524308E+02  0.51100000000E-03 0.  1.
        -12    1    4    4    0    0 -0.21840163614E+01 -0.79189681060E+01 -0.27144855394E+02  0.28360591631E+02  0.00000000000E+00 0.  1.
</event>
<event>
 8    1  0.8600524E-011  0.9118800E+02  0.7816164E-02  0.1184000E+00
        -11   -1    0    0    0    0  0.00000000000E+00  0.00000000000E+00  0.45593999997E+02  0.45594000000E+02  0.51100000000E-03 0. -1.
         11   -1    0    0    0    0 -0.00000000000E+00 -0.00000000000E+00 -0.45593999997E+02  0.45594000000E+02  0.51100000000E-03 0.  1.
         23    2    1    2    0    0  0.00000000000E+00  0.00000000000E+00 -0.35527136788E-14  0.91188000000E+02  0.91188000000E+02 0.  0.
    9900012    2    3    3    0    0  0.31268423603E+02  0.19548873974E+02 -0.22885579967E+02  0.47787279284E+02  0.20000037568E+02 0.  0.
         12    1    3    3    0    0 -0.31268423603E+02 -0.19548873974E+02  0.22885579967E+02  0.43400720716E+02  0.00000000000E+00 0. -1.
         11    1    4    4    0    0  0.15967440618E+02  0.94945851778E+01 -0.12122073823E+02  0.22182222197E+02  0.51100000000E-03 0. -1.
        -11    1    4    4    0    0  0.32031977671E+01 -0.32863947192E+01 -0.47836690667E+01  0.66290539435E+01  0.51100000000E-03 0.  1.
        -12    1    4    4    0    0  0.12097785218E+02  0.13340683515E+02 -0.59798370769E+01  0.18976003143E+02  0.00000000000E+00 0.  1.
</event>
<event>
 8    1  0.8600524E-011  0.9118800E+02  0.7816164E-02  0.1184000E+00
        -11   -1    0    0    0    0  0.00000000000E+00  0.00000000000E+00  0.45593999997E+02  0.45594000000E+02  0.51100000000E-03 0.  1.
         11   -1    0    0    0    0 -0.00000000000E+00 -0.00000000000E+00 -0.45593999997E+02  0.45594000000E+02  0.51100000000E-03 0. -1.
         23    2    1    2    0    0  0.00000000000E+00 -0.71054273576E-14  0.00000000000E+00  0.91188000000E+02  0.91188000000E+02 0.  0.
    9900012    2    3    3    0    0  0.10946205377E+02 -0.38293918467E+02  0.17244688002E+02  0.47787275720E+02  0.20000021318E+02 0.  0.
        -12    1    3    3    0    0 -0.10946205377E+02  0.38293918467E+02 -0.17244688002E+02  0.43400724280E+02  0.00000000000E+00 0.  1.
         11    1    4    4    0    0  0.61327509761E+01 -0.27958455502E+02  0.40878695196E+01  0.28913604861E+02  0.51100000000E-03 0. -1.
        -11    1    4    4    0    0  0.67287468647E+01 -0.76838555416E+01  0.92646026455E+01  0.13789508069E+02  0.51100000000E-03 0.  1.
         12    1    4    4    0    0 -0.19152924640E+01 -0.26516074239E+01  0.38922158367E+01  0.50841627897E+01  0.00000000000E+00 0. -1.
</event>
<event>
 8    1  0.8600524E-011  0.9118800E+02  0.7816164E-02  0.1184000E+00
        -11   -1    0    0    0    0  0.00000000000E+00  0.00000000000E+00  0.45593999997E+02  0.45594000000E+02  0.51100000000E-03 0. -1.
         11   -1    0    0    0    0 -0.00000000000E+00 -0.00000000000E+00 -0.45593999997E+02  0.45594000000E+02  0.51100000000E-03 0.  1.
         23    2    1    2    0    0 -0.35527136788E-14  0.00000000000E+00 -0.71054273576E-14  0.91188000000E+02  0.91188000000E+02 0.  0.
    9900012    2    3    3    0    0 -0.12220714678E+02  0.19370626213E+02 -0.36865367234E+02  0.47787281936E+02  0.20000049661E+02 0.  0.
         12    1    3    3    0    0  0.12220714678E+02 -0.19370626213E+02  0.36865367234E+02  0.43400718064E+02  0.00000000000E+00 0. -1.
         11    1    4    4    0    0 -0.10748162069E+02  0.66001228625E+01 -0.13907464889E+02  0.18775041666E+02  0.51100000000E-03 0. -1.
        -11    1    4    4    0    0  0.57112111017E+00  0.11727516300E+02 -0.23823672447E+02  0.26559898099E+02  0.51100000000E-03 0.  1.
        -12    1    4    4    0    0 -0.20436737185E+01  0.10429870507E+01  0.86577010202E+00  0.24523421713E+01  0.00000000000E+00 0.  1.
</event>
<event>
 8    1  0.8600524E-011  0.9118800E+02  0.7816164E-02  0.1184000E+00
        -11   -1    0    0    0    0  0.00000000000E+00  0.00000000000E+00  0.45593999997E+02  0.45594000000E+02  0.51100000000E-03 0. -1.
         11   -1    0    0    0    0 -0.00000000000E+00 -0.00000000000E+00 -0.45593999997E+02  0.45594000000E+02  0.51100000000E-03 0.  1.
         23    2    1    2    0    0  0.00000000000E+00  0.17763568394E-14  0.00000000000E+00  0.91188000000E+02  0.91188000000E+02 0.  0.
    9900012    2    3    3    0    0 -0.42219381856E+01 -0.15621072634E+02  0.40271323649E+02  0.47787283638E+02  0.20000057418E+02 0.  0.
        -12    1    3    3    0    0  0.42219381856E+01  0.15621072634E+02 -0.40271323649E+02  0.43400716362E+02  0.00000000000E+00 0.  1.
         11    1    4    4    0    0 -0.55528927756E+00 -0.52904578131E+00 -0.18966434919E+01  0.20458476036E+01  0.51100000000E-03 0. -1.
        -11    1    4    4    0    0  0.32819969804E-01 -0.90967255336E+01  0.32689680121E+02  0.33931794519E+02  0.51100000000E-03 0.  1.
         12    1    4    4    0    0 -0.36994688779E+01 -0.59953013190E+01  0.94782870206E+01  0.11809641516E+02  0.00000000000E+00 0. -1.
</event>
<event>
 8    1  0.8600524E-011  0.9118800E+02  0.7816164E-02  0.1184000E+00
        -11   -1    0    0    0    0  0.00000000000E+00  0.00000000000E+00  0.45593999997E+02  0.45594000000E+02  0.51100000000E-03 0. -1.
         11   -1    0    0    0    0 -0.00000000000E+00 -0.00000000000E+00 -0.45593999997E+02  0.45594000000E+02  0.51100000000E-03 0.  1.
         23    2    1    2    0    0  0.17763568394E-14 -0.35527136788E-14 -0.71054273576E-14  0.91188000000E+02  0.91188000000E+02 0.  0.
    9900012    2    3    3    0    0  0.14466232501E+02 -0.11080681497E+02 -0.39389964436E+02  0.47787277846E+02  0.20000031011E+02 0.  0.
         12    1    3    3    0    0 -0.14466232501E+02  0.11080681497E+02  0.39389964436E+02  0.43400722154E+02  0.00000000000E+00 0. -1.
         11    1    4    4    0    0 -0.64294251157E+00 -0.64176923209E+01 -0.11786114331E+02  0.13435499286E+02  0.51100000000E-03 0. -1.
        -11    1    4    4    0    0  0.15240092560E+02  0.36341644423E+00 -0.22577731248E+02  0.27242364826E+02  0.51100000000E-03 0.  1.
        -12    1    4    4    0    0 -0.13091754726E+00 -0.50264056202E+01 -0.50261188572E+01  0.71094137332E+01  0.00000000000E+00 0.  1.
</event>
<event>
 8    1  0.8600524E-011  0.9118800E+02  0.7816164E-02  0.1184000E+00
        -11   -1    0    0    0    0  0.00000000000E+00  0.00000000000E+00  0.45593999997E+02  0.45594000000E+02  0.51100000000E-03 0. -1.
         11   -1    0    0    0    0 -0.00000000000E+00 -0.00000000000E+00 -0.45593999997E+02  0.45594000000E+02  0.51100000000E-03 0.  1.
         23    2    1    2    0    0 -0.88817841970E-15  0.00000000000E+00  0.00000000000E+00  0.91188000000E+02  0.91188000000E+02 0.  0.
    9900012    2    3    3    0    0  0.45212632256E+01  0.18973422216E+02  0.38771002605E+02  0.47787271726E+02  0.20000003107E+02 0.  0.
        -12    1    3    3    0    0 -0.45212632256E+01 -0.18973422216E+02 -0.38771002605E+02  0.43400728274E+02  0.00000000000E+00 0.  1.
         11    1    4    4    0    0 -0.29402515827E+01  0.18571302477E+02  0.30841857867E+02  0.36121441721E+02  0.51100000000E-03 0. -1.
        -11    1    4    4    0    0  0.77285721360E+01  0.11028458140E+01  0.72159605661E+01  0.10630954017E+02  0.51100000000E-03 0.  1.
         12    1    4    4    0    0 -0.26705732770E+00 -0.70072607478E+00  0.71318417197E+00  0.10348759884E+01  0.00000000000E+00 0. -1.
</event>
<event>
 8    1  0.8600524E-011  0.9118800E+02  0.7816164E-02  0.1184000E+00
        -11   -1    0    0    0    0  0.00000000000E+00  0.00000000000E+00  0.45593999997E+02  0.45594000000E+02  0.51100000000E-03 0. -1.
         11   -1    0    0    0    0 -0.00000000000E+00 -0.00000000000E+00 -0.45593999997E+02  0.45594000000E+02  0.51100000000E-03 0.  1.
         23    2    1    2    0    0 -0.17763568394E-14  0.35527136788E-14  0.00000000000E+00  0.91188000000E+02  0.91188000000E+02 0.  0.
    9900012    2    3    3    0    0 -0.93850900764E+01  0.20562959761E+02  0.37050076298E+02  0.47787269781E+02  0.19999994237E+02 0.  0.
        -12    1    3    3    0    0  0.93850900764E+01 -0.20562959761E+02 -0.37050076298E+02  0.43400730219E+02  0.00000000000E+00 0.  1.
         11    1    4    4    0    0  0.19832967290E+01  0.10367769929E+02  0.43436911715E+01  0.11414542149E+02  0.51100000000E-03 0.  1.
        -11    1    4    4    0    0 -0.10542331034E+02  0.10372748207E+02  0.28794469823E+02  0.32370606136E+02  0.51100000000E-03 0. -1.
        -12    1    4    4    0    0 -0.82605577181E+00 -0.17755837567E+00  0.39119153044E+01  0.40021214954E+01  0.00000000000E+00 0.  1.
</event>
<event>
 8    1  0.8600524E-011  0.9118800E+02  0.7816164E-02  0.1184000E+00
        -11   -1    0    0    0    0  0.00000000000E+00  0.00000000000E+00  0.45593999997E+02  0.45594000000E+02  0.51100000000E-03 0. -1.
         11   -1    0    0    0    0 -0.00000000000E+00 -0.00000000000E+00 -0.45593999997E+02  0.45594000000E+02  0.51100000000E-03 0.  1.
         23    2    1    2    0    0  0.00000000000E+00  0.00000000000E+00 -0.71054273576E-14  0.91188000000E+02  0.91188000000E+02 0.  0.
    9900012    2    3    3    0    0  0.23356943400E+02  0.58853465421E+01 -0.36103164636E+02  0.47787278742E+02  0.20000035097E+02 0.  0.
         12    1    3    3    0    0 -0.23356943400E+02 -0.58853465421E+01  0.36103164636E+02  0.43400721258E+02  0.00000000000E+00 0. -1.
         11    1    4    4    0    0  0.12077363025E+02 -0.12124137435E+01 -0.94952143183E+01  0.15410767013E+02  0.51100000000E-03 0. -1.
        -11    1    4    4    0    0 -0.86484278804E+00  0.10834196003E+01 -0.13336524004E+02  0.13408378867E+02  0.51100000000E-03 0.  1.
        -12    1    4    4    0    0  0.12144423163E+02  0.60143406853E+01 -0.13271426314E+02  0.18968132862E+02  0.00000000000E+00 0.  1.
</event>
<event>
 8    1  0.8600524E-011  0.9118800E+02  0.7816164E-02  0.1184000E+00
        -11   -1    0    0    0    0  0.00000000000E+00  0.00000000000E+00  0.45593999997E+02  0.45594000000E+02  0.51100000000E-03 0. -1.
         11   -1    0    0    0    0 -0.00000000000E+00 -0.00000000000E+00 -0.45593999997E+02  0.45594000000E+02  0.51100000000E-03 0.  1.
         23    2    1    2    0    0 -0.71054273576E-14 -0.17763568394E-14  0.00000000000E+00  0.91188000000E+02  0.91188000000E+02 0.  0.
    9900012    2    3    3    0    0  0.32338852205E+02 -0.11792163501E+02  0.26434200653E+02  0.47787269060E+02  0.19999990951E+02 0.  0.
        -12    1    3    3    0    0 -0.32338852205E+02  0.11792163501E+02 -0.26434200653E+02  0.43400730940E+02  0.00000000000E+00 0.  1.
         11    1    4    4    0    0  0.12996337840E+01  0.25423012646E+00  0.36041892958E+01  0.38397736484E+01  0.51100000000E-03 0. -1.
        -11    1    4    4    0    0 -0.18389440623E+00 -0.31962870585E+01  0.72972795346E+01  0.79687111242E+01  0.51100000000E-03 0.  1.
        -12    1    4    4    0    0  0.31223112827E+02 -0.88501065689E+01  0.15532731823E+02  0.35978784287E+02  0.00000000000E+00 0.  1.
</event>
<event>
 8    1  0.8600524E-011  0.9118800E+02  0.7816164E-02  0.1184000E+00
        -11   -1    0    0    0    0  0.00000000000E+00  0.00000000000E+00  0.45593999997E+02  0.45594000000E+02  0.51100000000E-03 0. -1.
         11   -1    0    0    0    0 -0.00000000000E+00 -0.00000000000E+00 -0.45593999997E+02  0.45594000000E+02  0.51100000000E-03 0.  1.
         23    2    1    2    0    0 -0.71054273576E-14  0.00000000000E+00  0.00000000000E+00  0.91188000000E+02  0.91188000000E+02 0.  0.
    9900012    2    3    3    0    0  0.37670473541E+02  0.18969704325E+02 -0.10232747726E+02  0.47787269764E+02  0.19999994162E+02 0.  0.
         12    1    3    3    0    0 -0.37670473541E+02 -0.18969704325E+02  0.10232747726E+02  0.43400730236E+02  0.00000000000E+00 0. -1.
         11    1    4    4    0    0  0.66845586619E+01 -0.23715346699E+01 -0.70592413086E+01  0.10007017004E+02  0.51100000000E-03 0. -1.
        -11    1    4    4    0    0  0.19420033528E+02  0.14097478972E+02 -0.18238531936E+01  0.24066637827E+02  0.51100000000E-03 0.  1.
         12    1    4    4    0    0  0.11565881352E+02  0.72437600230E+01 -0.13496532239E+01  0.13713614933E+02  0.00000000000E+00 0. -1.
</event>
<event>
 8    1  0.8600524E-011  0.9118800E+02  0.7816164E-02  0.1184000E+00
        -11   -1    0    0    0    0  0.00000000000E+00  0.00000000000E+00  0.45593999997E+02  0.45594000000E+02  0.51100000000E-03 0. -1.
         11   -1    0    0    0    0 -0.00000000000E+00 -0.00000000000E+00 -0.45593999997E+02  0.45594000000E+02  0.51100000000E-03 0.  1.
         23    2    1    2    0    0 -0.35527136788E-14  0.71054273576E-14  0.17763568394E-14  0.91188000000E+02  0.91188000000E+02 0.  0.
    9900012    2    3    3    0    0 -0.27917991728E+02  0.31176759531E+02  0.11498638163E+02  0.47787271014E+02  0.19999999860E+02 0.  0.
        -12    1    3    3    0    0  0.27917991728E+02 -0.31176759531E+02 -0.11498638163E+02  0.43400728986E+02  0.00000000000E+00 0.  1.
         11    1    4    4    0    0 -0.74886766465E+01  0.84050263449E+01  0.55531125282E+00  0.11270896886E+02  0.51100000000E-03 0. -1.
        -11    1    4    4    0    0 -0.20883210041E+02  0.16463607650E+02  0.36161172424E+01  0.26837196996E+02  0.51100000000E-03 0.  1.
        -12    1    4    4    0    0  0.45389495980E+00  0.63081255364E+01  0.73272096676E+01  0.96791771309E+01  0.00000000000E+00 0.  1.
</event>
<event>
 8    1  0.8600524E-011  0.9118800E+02  0.7816164E-02  0.1184000E+00
        -11   -1    0    0    0    0  0.00000000000E+00  0.00000000000E+00  0.45593999997E+02  0.45594000000E+02  0.51100000000E-03 0. -1.
         11   -1    0    0    0    0 -0.00000000000E+00 -0.00000000000E+00 -0.45593999997E+02  0.45594000000E+02  0.51100000000E-03 0.  1.
         23    2    1    2    0    0  0.00000000000E+00 -0.71054273576E-14 -0.35527136788E-14  0.91188000000E+02  0.91188000000E+02 0.  0.
    9900012    2    3    3    0    0 -0.69669550376E+01  0.38119004324E+02  0.19545497571E+02  0.47787269264E+02  0.19999991881E+02 0.  0.
        -12    1    3    3    0    0  0.69669550376E+01 -0.38119004324E+02 -0.19545497571E+02  0.43400730736E+02  0.00000000000E+00 0.  1.
         11    1    4    4    0    0 -0.72651407589E+00  0.15601504089E+02  0.18147723388E+02  0.23943153864E+02  0.51100000000E-03 0. -1.
        -11    1    4    4    0    0 -0.28639436103E+01  0.97483295917E+01 -0.16384597959E+01  0.10291581686E+02  0.51100000000E-03 0.  1.
         12    1    4    4    0    0 -0.33764973515E+01  0.12769170643E+02  0.30362339783E+01  0.13552533714E+02  0.00000000000E+00 0. -1.
</event>
<event>
 8    1  0.8600524E-011  0.9118800E+02  0.7816164E-02  0.1184000E+00
        -11   -1    0    0    0    0  0.00000000000E+00  0.00000000000E+00  0.45593999997E+02  0.45594000000E+02  0.51100000000E-03 0. -1.
         11   -1    0    0    0    0 -0.00000000000E+00 -0.00000000000E+00 -0.45593999997E+02  0.45594000000E+02  0.51100000000E-03 0.  1.
         23    2    1    2    0    0 -0.17763568394E-14  0.00000000000E+00  0.00000000000E+00  0.91188000000E+02  0.91188000000E+02 0.  0.
    9900012    2    3    3    0    0  0.10765628500E+02  0.30831704572E+02 -0.28585523424E+02  0.47787252158E+02  0.19999913891E+02 0.  0.
         12    1    3    3    0    0 -0.10765628500E+02 -0.30831704572E+02  0.28585523424E+02  0.43400747842E+02  0.00000000000E+00 0. -1.
         11    1    4    4    0    0 -0.41451935008E+01  0.11238611595E+01 -0.28387691463E+01  0.51482330553E+01  0.51100000000E-03 0. -1.
        -11    1    4    4    0    0  0.10791023499E+02  0.16584495997E+02 -0.18519825060E+02  0.27101210602E+02  0.51100000000E-03 0.  1.
        -12    1    4    4    0    0  0.41197985014E+01  0.13123347415E+02 -0.72269292183E+01  0.15537808501E+02  0.00000000000E+00 0.  1.
</event>
<event>
 8    1  0.8600524E-011  0.9118800E+02  0.7816164E-02  0.1184000E+00
        -11   -1    0    0    0    0  0.00000000000E+00  0.00000000000E+00  0.45593999997E+02  0.45594000000E+02  0.51100000000E-03 0. -1.
         11   -1    0    0    0    0 -0.00000000000E+00 -0.00000000000E+00 -0.45593999997E+02  0.45594000000E+02  0.51100000000E-03 0.  1.
         23    2    1    2    0    0  0.00000000000E+00 -0.17763568394E-14  0.00000000000E+00  0.91188000000E+02  0.91188000000E+02 0.  0.
    9900012    2    3    3    0    0  0.32233177466E+02 -0.12713425141E+02 -0.26134618729E+02  0.47787225762E+02  0.19999793538E+02 0.  0.
         12    1    3    3    0    0 -0.32233177466E+02  0.12713425141E+02  0.26134618729E+02  0.43400774238E+02  0.00000000000E+00 0. -1.
         11    1    4    4    0    0  0.10991227652E+02 -0.47617454015E+01  0.66369439895E+00  0.11996741019E+02  0.51100000000E-03 0. -1.
        -11    1    4    4    0    0  0.15802385314E+02 -0.89427174076E+01 -0.21368376754E+02  0.28040954006E+02  0.51100000000E-03 0.  1.
        -12    1    4    4    0    0  0.54395644999E+01  0.99103766788E+00 -0.54299363742E+01  0.77495307364E+01  0.00000000000E+00 0.  1.
</event>
<event>
 8    1  0.8600524E-011  0.9118800E+02  0.7816164E-02  0.1184000E+00
        -11   -1    0    0    0    0  0.00000000000E+00  0.00000000000E+00  0.45593999997E+02  0.45594000000E+02  0.51100000000E-03 0.  1.
         11   -1    0    0    0    0 -0.00000000000E+00 -0.00000000000E+00 -0.45593999997E+02  0.45594000000E+02  0.51100000000E-03 0. -1.
         23    2    1    2    0    0  0.00000000000E+00  0.00000000000E+00  0.88817841970E-15  0.91188000000E+02  0.91188000000E+02 0.  0.
    9900012    2    3    3    0    0  0.25780144565E+02 -0.33991560631E+02 -0.79738055215E+01  0.47787267029E+02  0.19999981692E+02 0.  0.
        -12    1    3    3    0    0 -0.25780144565E+02  0.33991560631E+02  0.79738055215E+01  0.43400732971E+02  0.00000000000E+00 0.  1.
         11    1    4    4    0    0  0.93642824236E+01 -0.14623071843E+02  0.37044502527E+01  0.17755195503E+02  0.51100000000E-03 0. -1.
        -11    1    4    4    0    0  0.15177930476E+02 -0.20412091903E+02 -0.12353518022E+02  0.28277773554E+02  0.51100000000E-03 0.  1.
        -12    1    4    4    0    0  0.12379316659E+01  0.10436031150E+01  0.67526224746E+00  0.17542979718E+01  0.00000000000E+00 0.  1.
</event>
<event>
 8    1  0.8600524E-011  0.9118800E+02  0.7816164E-02  0.1184000E+00
        -11   -1    0    0    0    0  0.00000000000E+00  0.00000000000E+00  0.45593999997E+02  0.45594000000E+02  0.51100000000E-03 0. -1.
         11   -1    0    0    0    0 -0.00000000000E+00 -0.00000000000E+00 -0.45593999997E+02  0.45594000000E+02  0.51100000000E-03 0.  1.
         23    2    1    2    0    0  0.17763568394E-14 -0.71054273576E-14 -0.35527136788E-14  0.91188000000E+02  0.91188000000E+02 0.  0.
    9900012    2    3    3    0    0  0.72102356342E+01  0.33652223660E+02 -0.26441702658E+02  0.47787270805E+02  0.19999998910E+02 0.  0.
         12    1    3    3    0    0 -0.72102356342E+01 -0.33652223660E+02  0.26441702658E+02  0.43400729195E+02  0.00000000000E+00 0. -1.
         11    1    4    4    0    0 -0.10620558357E+01  0.35754000238E+01  0.53257654463E+00  0.37676366552E+01  0.51100000000E-03 0. -1.
        -11    1    4    4    0    0 -0.27385799644E+00 -0.11643741974E+01  0.72744846386E+00  0.13999810722E+01  0.51100000000E-03 0.  1.
        -12    1    4    4    0    0  0.85461494663E+01  0.31241197834E+02 -0.27701727667E+02  0.42619653078E+02  0.00000000000E+00 0.  1.
</event>
<event>
 8    1  0.8600524E-011  0.9118800E+02  0.7816164E-02  0.1184000E+00
        -11   -1    0    0    0    0  0.00000000000E+00  0.00000000000E+00  0.45593999997E+02  0.45594000000E+02  0.51100000000E-03 0. -1.
         11   -1    0    0    0    0 -0.00000000000E+00 -0.00000000000E+00 -0.45593999997E+02  0.45594000000E+02  0.51100000000E-03 0.  1.
         23    2    1    2    0    0 -0.88817841970E-15  0.00000000000E+00  0.00000000000E+00  0.91188000000E+02  0.91188000000E+02 0.  0.
    9900012    2    3    3    0    0 -0.75655293874E+01  0.88852948103E+01 -0.41802362866E+02  0.47787271435E+02  0.20000001781E+02 0.  0.
         12    1    3    3    0    0  0.75655293874E+01 -0.88852948103E+01  0.41802362866E+02  0.43400728565E+02  0.00000000000E+00 0. -1.
         11    1    4    4    0    0 -0.13652896638E+01 -0.22585997062E+01 -0.21576942944E+02  0.21737749551E+02  0.51100000000E-03 0.  1.
        -11    1    4    4    0    0 -0.91255000927E+01  0.84607211422E+01 -0.15115855337E+02  0.19579265487E+02  0.51100000000E-03 0. -1.
         12    1    4    4    0    0  0.29252603691E+01  0.26831733743E+01 -0.51095645857E+01  0.64702563967E+01  0.00000000000E+00 0. -1.
</event>
<event>
 8    1  0.8600524E-011  0.9118800E+02  0.7816164E-02  0.1184000E+00
        -11   -1    0    0    0    0  0.00000000000E+00  0.00000000000E+00  0.45593999997E+02  0.45594000000E+02  0.51100000000E-03 0. -1.
         11   -1    0    0    0    0 -0.00000000000E+00 -0.00000000000E+00 -0.45593999997E+02  0.45594000000E+02  0.51100000000E-03 0.  1.
         23    2    1    2    0    0  0.00000000000E+00  0.00000000000E+00  0.00000000000E+00  0.91188000000E+02  0.91188000000E+02 0.  0.
    9900012    2    3    3    0    0  0.19184896190E+02 -0.26397885723E+02  0.28613199318E+02  0.47787265125E+02  0.19999973010E+02 0.  0.
        -12    1    3    3    0    0 -0.19184896190E+02  0.26397885723E+02 -0.28613199318E+02  0.43400734875E+02  0.00000000000E+00 0.  1.
         11    1    4    4    0    0  0.17618896072E+02 -0.10444776403E+02  0.14616624595E+02  0.25162761528E+02  0.51100000000E-03 0. -1.
        -11    1    4    4    0    0  0.65132084430E+00 -0.16493722707E+02  0.12157372352E+02  0.20500458783E+02  0.51100000000E-03 0.  1.
         12    1    4    4    0    0  0.91467927423E+00  0.54061338591E+00  0.18392023713E+01  0.21240448136E+01  0.00000000000E+00 0. -1.
</event>
<event>
 8    1  0.8600524E-011  0.9118800E+02  0.7816164E-02  0.1184000E+00
        -11   -1    0    0    0    0  0.00000000000E+00  0.00000000000E+00  0.45593999997E+02  0.45594000000E+02  0.51100000000E-03 0. -1.
         11   -1    0    0    0    0 -0.00000000000E+00 -0.00000000000E+00 -0.45593999997E+02  0.45594000000E+02  0.51100000000E-03 0.  1.
         23    2    1    2    0    0  0.17763568394E-14  0.00000000000E+00 -0.71054273576E-14  0.91188000000E+02  0.91188000000E+02 0.  0.
    9900012    2    3    3    0    0 -0.15167703596E+02 -0.92556204646E+01 -0.39596686310E+02  0.47787270636E+02  0.19999998138E+02 0.  0.
         12    1    3    3    0    0  0.15167703596E+02  0.92556204646E+01  0.39596686310E+02  0.43400729364E+02  0.00000000000E+00 0. -1.
         11    1    4    4    0    0  0.96272960789E+00 -0.66246290683E+01 -0.10256625178E+02  0.12247894468E+02  0.51100000000E-03 0. -1.
        -11    1    4    4    0    0 -0.16793766194E+02 -0.38900810199E+01 -0.21432748853E+02  0.27505018396E+02  0.51100000000E-03 0.  1.
        -12    1    4    4    0    0  0.66333298918E+00  0.12590896236E+01 -0.79073122783E+01  0.80343577716E+01  0.00000000000E+00 0.  1.
</event>
<event>
 8    1  0.8600524E-011  0.9118800E+02  0.7816164E-02  0.1184000E+00
        -11   -1    0    0    0    0  0.00000000000E+00  0.00000000000E+00  0.45593999997E+02  0.45594000000E+02  0.51100000000E-03 0. -1.
         11   -1    0    0    0    0 -0.00000000000E+00 -0.00000000000E+00 -0.45593999997E+02  0.45594000000E+02  0.51100000000E-03 0.  1.
         23    2    1    2    0    0  0.00000000000E+00  0.00000000000E+00  0.35527136788E-14  0.91188000000E+02  0.91188000000E+02 0.  0.
    9900012    2    3    3    0    0  0.25819964607E+02 -0.29588368348E+02  0.18479205428E+02  0.47787272505E+02  0.20000006660E+02 0.  0.
        -12    1    3    3    0    0 -0.25819964607E+02  0.29588368348E+02 -0.18479205428E+02  0.43400727495E+02  0.00000000000E+00 0.  1.
         11    1    4    4    0    0  0.13579385767E+02 -0.11204720492E+02  0.16192579825E+02  0.23919555196E+02  0.51100000000E-03 0. -1.
        -11    1    4    4    0    0  0.25607585387E+00 -0.42241556316E+01 -0.22183327730E+01  0.47780818532E+01  0.51100000000E-03 0.  1.
         12    1    4    4    0    0  0.11984502987E+02 -0.14159492224E+02  0.45049583765E+01  0.19089635457E+02  0.00000000000E+00 0. -1.
</event>
<event>
 8    1  0.8600524E-011  0.9118800E+02  0.7816164E-02  0.1184000E+00
        -11   -1    0    0    0    0  0.00000000000E+00  0.00000000000E+00  0.45593999997E+02  0.45594000000E+02  0.51100000000E-03 0. -1.
         11   -1    0    0    0    0 -0.00000000000E+00 -0.00000000000E+00 -0.45593999997E+02  0.45594000000E+02  0.51100000000E-03 0.  1.
         23    2    1    2    0    0  0.00000000000E+00  0.00000000000E+00  0.00000000000E+00  0.91188000000E+02  0.91188000000E+02 0.  0.
    9900012    2    3    3    0    0  0.12055507083E+02  0.22979938114E+02 -0.34788078480E+02  0.47787271767E+02  0.20000003296E+02 0.  0.
         12    1    3    3    0    0 -0.12055507083E+02 -0.22979938114E+02  0.34788078480E+02  0.43400728233E+02  0.00000000000E+00 0. -1.
         11    1    4    4    0    0  0.30187914384E+01  0.54623858958E+01 -0.21819217457E+02  0.22694250640E+02  0.51100000000E-03 0. -1.
        -11    1    4    4    0    0  0.12035670994E+01  0.92835216848E+01 -0.91854327019E+01  0.13115049478E+02  0.51100000000E-03 0.  1.
         12    1    4    4    0    0  0.78331485453E+01  0.82340305336E+01 -0.37834283219E+01  0.11977971649E+02  0.00000000000E+00 0. -1.
</event>
<event>
 8    1  0.8600524E-011  0.9118800E+02  0.7816164E-02  0.1184000E+00
        -11   -1    0    0    0    0  0.00000000000E+00  0.00000000000E+00  0.45593999997E+02  0.45594000000E+02  0.51100000000E-03 0. -1.
         11   -1    0    0    0    0 -0.00000000000E+00 -0.00000000000E+00 -0.45593999997E+02  0.45594000000E+02  0.51100000000E-03 0.  1.
         23    2    1    2    0    0 -0.88817841970E-15 -0.35527136788E-14  0.00000000000E+00  0.91188000000E+02  0.91188000000E+02 0.  0.
    9900012    2    3    3    0    0 -0.61172562919E+01 -0.28261727503E+02  0.32364755150E+02  0.47787269109E+02  0.19999991174E+02 0.  0.
        -12    1    3    3    0    0  0.61172562919E+01  0.28261727503E+02 -0.32364755150E+02  0.43400730891E+02  0.00000000000E+00 0.  1.
         11    1    4    4    0    0 -0.48310158594E+00  0.15972188301E+01 -0.77390540303E+00  0.18394088636E+01  0.51100000000E-03 0. -1.
        -11    1    4    4    0    0 -0.61865443234E+01 -0.11237602842E+02  0.10146750515E+02  0.16355842827E+02  0.51100000000E-03 0.  1.
         12    1    4    4    0    0  0.55238961751E+00 -0.18621343491E+02  0.22991910038E+02  0.29592017418E+02  0.00000000000E+00 0. -1.
</event>
<event>
 8    1  0.8600524E-011  0.9118800E+02  0.7816164E-02  0.1184000E+00
        -11   -1    0    0    0    0  0.00000000000E+00  0.00000000000E+00  0.45593999997E+02  0.45594000000E+02  0.51100000000E-03 0.  1.
         11   -1    0    0    0    0 -0.00000000000E+00 -0.00000000000E+00 -0.45593999997E+02  0.45594000000E+02  0.51100000000E-03 0. -1.
         23    2    1    2    0    0  0.00000000000E+00  0.00000000000E+00  0.00000000000E+00  0.91188000000E+02  0.91188000000E+02 0.  0.
    9900012    2    3    3    0    0 -0.34516758649E+02  0.18020361417E+02 -0.19169851218E+02  0.47787271331E+02  0.20000001308E+02 0.  0.
         12    1    3    3    0    0  0.34516758649E+02 -0.18020361417E+02  0.19169851218E+02  0.43400728669E+02  0.00000000000E+00 0. -1.
         11    1    4    4    0    0 -0.17576875463E+01 -0.17035917544E+01  0.68415116592E+00  0.25416045041E+01  0.51100000000E-03 0. -1.
        -11    1    4    4    0    0 -0.32618243176E+02  0.15971639384E+02 -0.20050211869E+02  0.41485588446E+02  0.51100000000E-03 0.  1.
        -12    1    4    4    0    0 -0.14082792708E+00  0.37523137879E+01  0.19620948505E+00  0.37600783808E+01  0.00000000000E+00 0.  1.
</event>
<event>
 8    1  0.8600524E-011  0.9118800E+02  0.7816164E-02  0.1184000E+00
        -11   -1    0    0    0    0  0.00000000000E+00  0.00000000000E+00  0.45593999997E+02  0.45594000000E+02  0.51100000000E-03 0. -1.
         11   -1    0    0    0    0 -0.00000000000E+00 -0.00000000000E+00 -0.45593999997E+02  0.45594000000E+02  0.51100000000E-03 0.  1.
         23    2    1    2    0    0  0.00000000000E+00  0.00000000000E+00  0.00000000000E+00  0.91188000000E+02  0.91188000000E+02 0.  0.
    9900012    2    3    3    0    0 -0.54728028905E+01 -0.87283890826E+01 -0.42160256067E+02  0.47787267989E+02  0.19999986070E+02 0.  0.
         12    1    3    3    0    0  0.54728028905E+01  0.87283890826E+01  0.42160256067E+02  0.43400732011E+02  0.00000000000E+00 0. -1.
         11    1    4    4    0    0 -0.72375297865E+01  0.14120572444E+01 -0.55882595710E+01  0.92522639589E+01  0.51100000000E-03 0. -1.
        -11    1    4    4    0    0  0.26540163886E+01 -0.10495056112E+02 -0.29995438452E+02  0.31889125638E+02  0.51100000000E-03 0.  1.
        -12    1    4    4    0    0 -0.88928949267E+00  0.35460978480E+00 -0.65765580441E+01  0.66458783926E+01  0.00000000000E+00 0.  1.
</event>
<event>
 8    1  0.8600524E-011  0.9118800E+02  0.7816164E-02  0.1184000E+00
        -11   -1    0    0    0    0  0.00000000000E+00  0.00000000000E+00  0.45593999997E+02  0.45594000000E+02  0.51100000000E-03 0. -1.
         11   -1    0    0    0    0 -0.00000000000E+00 -0.00000000000E+00 -0.45593999997E+02  0.45594000000E+02  0.51100000000E-03 0.  1.
         23    2    1    2    0    0  0.00000000000E+00  0.00000000000E+00  0.00000000000E+00  0.91188000000E+02  0.91188000000E+02 0.  0.
    9900012    2    3    3    0    0 -0.11270461842E+02 -0.25029488683E+02  0.33617331094E+02  0.47787267705E+02  0.19999984774E+02 0.  0.
        -12    1    3    3    0    0  0.11270461842E+02  0.25029488683E+02 -0.33617331094E+02  0.43400732295E+02  0.00000000000E+00 0.  1.
         11    1    4    4    0    0 -0.12608526229E+02 -0.73968102177E+01  0.14189049641E+02  0.20371962719E+02  0.51100000000E-03 0. -1.
        -11    1    4    4    0    0 -0.94306107934E+00 -0.16150838484E+02  0.14219907741E+02  0.21539376137E+02  0.51100000000E-03 0.  1.
         12    1    4    4    0    0  0.22811254658E+01 -0.14818399815E+01  0.52083737112E+01  0.58759288489E+01  0.00000000000E+00 0. -1.
</event>
<event>
 8    1  0.8600524E-011  0.9118800E+02  0.7816164E-02  0.1184000E+00
        -11   -1    0    0    0    0  0.00000000000E+00  0.00000000000E+00  0.45593999997E+02  0.45594000000E+02  0.51100000000E-03 0.  1.
         11   -1    0    0    0    0 -0.00000000000E+00 -0.00000000000E+00 -0.45593999997E+02  0.45594000000E+02  0.51100000000E-03 0. -1.
         23    2    1    2    0    0  0.00000000000E+00 -0.88817841970E-15  0.88817841970E-15  0.91188000000E+02  0.91188000000E+02 0.  0.
    9900012    2    3    3    0    0  0.42840142184E+02 -0.68833254325E+01 -0.98236133017E+00  0.47787274371E+02  0.20000015165E+02 0.  0.
         12    1    3    3    0    0 -0.42840142184E+02  0.68833254325E+01  0.98236133017E+00  0.43400725629E+02  0.00000000000E+00 0. -1.
         11    1    4    4    0    0  0.73367257815E-01 -0.21065801507E+01 -0.22537132484E+01  0.30858202075E+01  0.51100000000E-03 0. -1.
        -11    1    4    4    0    0  0.33216170068E+02 -0.27479291900E+01 -0.40616452661E+01  0.33576212284E+02  0.51100000000E-03 0.  1.
        -12    1    4    4    0    0  0.95506048581E+01 -0.20288160918E+01  0.53329971843E+01  0.11125241879E+02  0.00000000000E+00 0.  1.
</event>
<event>
 8    1  0.8600524E-011  0.9118800E+02  0.7816164E-02  0.1184000E+00
        -11   -1    0    0    0    0  0.00000000000E+00  0.00000000000E+00  0.45593999997E+02  0.45594000000E+02  0.51100000000E-03 0. -1.
         11   -1    0    0    0    0 -0.00000000000E+00 -0.00000000000E+00 -0.45593999997E+02  0.45594000000E+02  0.51100000000E-03 0.  1.
         23    2    1    2    0    0  0.88817841970E-15  0.00000000000E+00 -0.35527136788E-14  0.91188000000E+02  0.91188000000E+02 0.  0.
    9900012    2    3    3    0    0 -0.70258753136E+01  0.35679411786E+02  0.23690499919E+02  0.47787272636E+02  0.20000007257E+02 0.  0.
        -12    1    3    3    0    0  0.70258753136E+01 -0.35679411786E+02 -0.23690499919E+02  0.43400727364E+02  0.00000000000E+00 0.  1.
         11    1    4    4    0    0 -0.40390848693E+01  0.23909244999E+02  0.72196887064E+01  0.25300002140E+02  0.51100000000E-03 0. -1.
        -11    1    4    4    0    0 -0.28604887661E+01  0.89988155050E+00  0.31597787894E+00  0.30152985038E+01  0.51100000000E-03 0.  1.
         12    1    4    4    0    0 -0.12630167827E+00  0.10870285237E+02  0.16154833334E+02  0.19471971993E+02  0.00000000000E+00 0. -1.
</event>
<event>
 8    1  0.8600524E-011  0.9118800E+02  0.7816164E-02  0.1184000E+00
        -11   -1    0    0    0    0  0.00000000000E+00  0.00000000000E+00  0.45593999997E+02  0.45594000000E+02  0.51100000000E-03 0. -1.
         11   -1    0    0    0    0 -0.00000000000E+00 -0.00000000000E+00 -0.45593999997E+02  0.45594000000E+02  0.51100000000E-03 0.  1.
         23    2    1    2    0    0  0.00000000000E+00  0.00000000000E+00  0.00000000000E+00  0.91188000000E+02  0.91188000000E+02 0.  0.
    9900012    2    3    3    0    0 -0.26862603121E+01 -0.28941857744E+02  0.32230050191E+02  0.47787271211E+02  0.20000000757E+02 0.  0.
        -12    1    3    3    0    0  0.26862603121E+01  0.28941857744E+02 -0.32230050191E+02  0.43400728789E+02  0.00000000000E+00 0.  1.
         11    1    4    4    0    0  0.69493860753E+00 -0.18358847996E+02  0.64478436892E+01  0.19470617040E+02  0.51100000000E-03 0. -1.
        -11    1    4    4    0    0 -0.35169676568E+01 -0.50783698651E+01  0.14566444313E+02  0.15822142781E+02  0.51100000000E-03 0.  1.
         12    1    4    4    0    0  0.13576873714E+00 -0.55046398821E+01  0.11215762189E+02  0.12494511389E+02  0.00000000000E+00 0. -1.
</event>
<event>
 8    1  0.8600524E-011  0.9118800E+02  0.7816164E-02  0.1184000E+00
        -11   -1    0    0    0    0  0.00000000000E+00  0.00000000000E+00  0.45593999997E+02  0.45594000000E+02  0.51100000000E-03 0. -1.
         11   -1    0    0    0    0 -0.00000000000E+00 -0.00000000000E+00 -0.45593999997E+02  0.45594000000E+02  0.51100000000E-03 0.  1.
         23    2    1    2    0    0  0.00000000000E+00  0.00000000000E+00 -0.35527136788E-14  0.91188000000E+02  0.91188000000E+02 0.  0.
    9900012    2    3    3    0    0  0.31840910582E+02 -0.24353820042E+02 -0.16633437302E+02  0.47787269893E+02  0.19999994751E+02 0.  0.
         12    1    3    3    0    0 -0.31840910582E+02  0.24353820042E+02  0.16633437302E+02  0.43400730107E+02  0.00000000000E+00 0. -1.
         11    1    4    4    0    0 -0.22086782552E+01 -0.14574278512E+01 -0.14408791874E+01  0.30130530480E+01  0.51100000000E-03 0. -1.
        -11    1    4    4    0    0  0.29160056728E+02 -0.19646569130E+02 -0.91133644609E+01  0.36322857804E+02  0.51100000000E-03 0.  1.
        -12    1    4    4    0    0  0.48895321087E+01 -0.32498230610E+01 -0.60791936537E+01  0.84513590415E+01  0.00000000000E+00 0.  1.
</event>
<event>
 8    1  0.8600524E-011  0.9118800E+02  0.7816164E-02  0.1184000E+00
        -11   -1    0    0    0    0  0.00000000000E+00  0.00000000000E+00  0.45593999997E+02  0.45594000000E+02  0.51100000000E-03 0. -1.
         11   -1    0    0    0    0 -0.00000000000E+00 -0.00000000000E+00 -0.45593999997E+02  0.45594000000E+02  0.51100000000E-03 0.  1.
         23    2    1    2    0    0  0.00000000000E+00 -0.22204460493E-15  0.35527136788E-14  0.91188000000E+02  0.91188000000E+02 0.  0.
    9900012    2    3    3    0    0  0.38227956033E+02  0.18087254052E+01  0.20468883508E+02  0.47787270719E+02  0.19999998518E+02 0.  0.
        -12    1    3    3    0    0 -0.38227956033E+02 -0.18087254052E+01 -0.20468883508E+02  0.43400729281E+02  0.00000000000E+00 0.  1.
         11    1    4    4    0    0  0.26428162132E+02  0.23621670952E+01  0.19905434722E+02  0.33170075653E+02  0.51100000000E-03 0. -1.
        -11    1    4    4    0    0  0.97980927006E+01 -0.36980924606E+01 -0.11094219486E+01  0.10531349664E+02  0.51100000000E-03 0.  1.
        -12    1    4    4    0    0  0.20017012001E+01  0.31446507707E+01  0.16728707344E+01  0.40858454031E+01  0.00000000000E+00 0.  1.
</event>
<event>
 8    1  0.8600524E-011  0.9118800E+02  0.7816164E-02  0.1184000E+00
        -11   -1    0    0    0    0  0.00000000000E+00  0.00000000000E+00  0.45593999997E+02  0.45594000000E+02  0.51100000000E-03 0. -1.
         11   -1    0    0    0    0 -0.00000000000E+00 -0.00000000000E+00 -0.45593999997E+02  0.45594000000E+02  0.51100000000E-03 0.  1.
         23    2    1    2    0    0  0.35527136788E-14  0.35527136788E-14 -0.17763568394E-14  0.91188000000E+02  0.91188000000E+02 0.  0.
    9900012    2    3    3    0    0 -0.27103862936E+02 -0.30429264595E+02  0.14935412852E+02  0.47787238636E+02  0.19999852239E+02 0.  0.
        -12    1    3    3    0    0  0.27103862936E+02  0.30429264595E+02 -0.14935412852E+02  0.43400761364E+02  0.00000000000E+00 0.  1.
         11    1    4    4    0    0 -0.11493800133E+02 -0.51586556914E+01  0.78425231543E+01  0.14839957538E+02  0.51100000000E-03 0. -1.
        -11    1    4    4    0    0 -0.23886556458E+01  0.72775960683E+00  0.22885176843E+01  0.33871261110E+01  0.51100000000E-03 0.  1.
         12    1    4    4    0    0 -0.13221407157E+02 -0.25998368511E+02  0.48043720138E+01  0.29560154987E+02  0.00000000000E+00 0. -1.
</event>
<event>
 8    1  0.8600524E-011  0.9118800E+02  0.7816164E-02  0.1184000E+00
        -11   -1    0    0    0    0  0.00000000000E+00  0.00000000000E+00  0.45593999997E+02  0.45594000000E+02  0.51100000000E-03 0. -1.
         11   -1    0    0    0    0 -0.00000000000E+00 -0.00000000000E+00 -0.45593999997E+02  0.45594000000E+02  0.51100000000E-03 0.  1.
         23    2    1    2    0    0  0.35527136788E-14  0.17763568394E-14  0.00000000000E+00  0.91188000000E+02  0.91188000000E+02 0.  0.
    9900012    2    3    3    0    0  0.21408586993E+02  0.10733169296E+02  0.36195286353E+02  0.47787224957E+02  0.19999789866E+02 0.  0.
        -12    1    3    3    0    0 -0.21408586993E+02 -0.10733169296E+02 -0.36195286353E+02  0.43400775043E+02  0.00000000000E+00 0.  1.
         11    1    4    4    0    0  0.34403391693E+01  0.80235724669E+01  0.66774542721E+01  0.10990998342E+02  0.51100000000E-03 0. -1.
        -11    1    4    4    0    0  0.47005246157E+01 -0.38272276137E+01  0.14508819505E+02  0.15724135797E+02  0.51100000000E-03 0.  1.
        -12    1    4    4    0    0  0.13267723208E+02  0.65368244431E+01  0.15009012576E+02  0.21072090818E+02  0.00000000000E+00 0.  1.
</event>
<event>
 8    1  0.8600524E-011  0.9118800E+02  0.7816164E-02  0.1184000E+00
        -11   -1    0    0    0    0  0.00000000000E+00  0.00000000000E+00  0.45593999997E+02  0.45594000000E+02  0.51100000000E-03 0.  1.
         11   -1    0    0    0    0 -0.00000000000E+00 -0.00000000000E+00 -0.45593999997E+02  0.45594000000E+02  0.51100000000E-03 0. -1.
         23    2    1    2    0    0 -0.71054273576E-14  0.17763568394E-14 -0.88817841970E-15  0.91188000000E+02  0.91188000000E+02 0.  0.
    9900012    2    3    3    0    0 -0.40805991523E+02  0.13092201471E+02 -0.68621307417E+01  0.47787268188E+02  0.19999986976E+02 0.  0.
         12    1    3    3    0    0  0.40805991523E+02 -0.13092201471E+02  0.68621307417E+01  0.43400731812E+02  0.00000000000E+00 0. -1.
         11    1    4    4    0    0  0.15800579612E+01 -0.75697373450E+00 -0.15302818404E+01  0.23262319678E+01  0.51100000000E-03 0. -1.
        -11    1    4    4    0    0 -0.22344078478E+02  0.10182482728E+02 -0.51320783605E+01  0.25085434540E+02  0.51100000000E-03 0.  1.
         12    1    4    4    0    0 -0.20041971006E+02  0.36666924769E+01 -0.19977054074E+00  0.20375601680E+02  0.00000000000E+00 0. -1.
</event>
<event>
 8    1  0.8600524E-011  0.9118800E+02  0.7816164E-02  0.1184000E+00
        -11   -1    0    0    0    0  0.00000000000E+00  0.00000000000E+00  0.45593999997E+02  0.45594000000E+02  0.51100000000E-03 0. -1.
         11   -1    0    0    0    0 -0.00000000000E+00 -0.00000000000E+00 -0.45593999997E+02  0.45594000000E+02  0.51100000000E-03 0.  1.
         23    2    1    2    0    0  0.00000000000E+00 -0.35527136788E-14  0.00000000000E+00  0.91188000000E+02  0.91188000000E+02 0.  0.
    9900012    2    3    3    0    0 -0.62094181504E+01 -0.28430035261E+02 -0.32199364446E+02  0.47787275934E+02  0.20000022296E+02 0.  0.
         12    1    3    3    0    0  0.62094181504E+01  0.28430035261E+02  0.32199364446E+02  0.43400724066E+02  0.00000000000E+00 0. -1.
         11    1    4    4    0    0  0.27979977672E+01 -0.10090184349E+02 -0.16584448187E+02  0.19613376395E+02  0.51100000000E-03 0. -1.
        -11    1    4    4    0    0 -0.79671441693E+01 -0.19717126727E+02 -0.12652154598E+02  0.24745049784E+02  0.51100000000E-03 0.  1.
        -12    1    4    4    0    0 -0.10402717483E+01  0.13772758153E+01 -0.29627616609E+01  0.34288497548E+01  0.00000000000E+00 0.  1.
</event>
<event>
 8    1  0.8600524E-011  0.9118800E+02  0.7816164E-02  0.1184000E+00
        -11   -1    0    0    0    0  0.00000000000E+00  0.00000000000E+00  0.45593999997E+02  0.45594000000E+02  0.51100000000E-03 0. -1.
         11   -1    0    0    0    0 -0.00000000000E+00 -0.00000000000E+00 -0.45593999997E+02  0.45594000000E+02  0.51100000000E-03 0.  1.
         23    2    1    2    0    0  0.00000000000E+00  0.35527136788E-14  0.00000000000E+00  0.91188000000E+02  0.91188000000E+02 0.  0.
    9900012    2    3    3    0    0  0.42586021147E+01 -0.29278887678E+02  0.31752704684E+02  0.47787271776E+02  0.20000003336E+02 0.  0.
        -12    1    3    3    0    0 -0.42586021147E+01  0.29278887678E+02 -0.31752704684E+02  0.43400728224E+02  0.00000000000E+00 0.  1.
         11    1    4    4    0    0  0.31961357327E+01 -0.98043996715E+01  0.94379435948E+01  0.13979138604E+02  0.51100000000E-03 0. -1.
        -11    1    4    4    0    0  0.27992075689E+01 -0.20399283486E+02  0.23704990165E+02  0.31398931331E+02  0.51100000000E-03 0.  1.
        -12    1    4    4    0    0 -0.17367411869E+01  0.92479547969E+00 -0.13902290759E+01  0.24092018415E+01  0.00000000000E+00 0.  1.
</event>
<event>
 8    1  0.8600524E-011  0.9118800E+02  0.7816164E-02  0.1184000E+00
        -11   -1    0    0    0    0  0.00000000000E+00  0.00000000000E+00  0.45593999997E+02  0.45594000000E+02  0.51100000000E-03 0. -1.
         11   -1    0    0    0    0 -0.00000000000E+00 -0.00000000000E+00 -0.45593999997E+02  0.45594000000E+02  0.51100000000E-03 0.  1.
         23    2    1    2    0    0 -0.88817841970E-15  0.00000000000E+00 -0.71054273576E-14  0.91188000000E+02  0.91188000000E+02 0.  0.
    9900012    2    3    3    0    0  0.67593348152E+01 -0.89229943028E+01 -0.41932255124E+02  0.47787280487E+02  0.20000043051E+02 0.  0.
         12    1    3    3    0    0 -0.67593348152E+01  0.89229943028E+01  0.41932255124E+02  0.43400719513E+02  0.00000000000E+00 0. -1.
         11    1    4    4    0    0  0.10319899924E+02 -0.15314217566E+01 -0.87838471796E+01  0.13638238837E+02  0.51100000000E-03 0. -1.
        -11    1    4    4    0    0 -0.22224579841E+01 -0.47334889563E+01 -0.21373518643E+02  0.22003920938E+02  0.51100000000E-03 0.  1.
         12    1    4    4    0    0 -0.13381071244E+01 -0.26580835899E+01 -0.11774889302E+02  0.12145120712E+02  0.00000000000E+00 0. -1.
</event>
<event>
 8    1  0.8600524E-011  0.9118800E+02  0.7816164E-02  0.1184000E+00
        -11   -1    0    0    0    0  0.00000000000E+00  0.00000000000E+00  0.45593999997E+02  0.45594000000E+02  0.51100000000E-03 0.  1.
         11   -1    0    0    0    0 -0.00000000000E+00 -0.00000000000E+00 -0.45593999997E+02  0.45594000000E+02  0.51100000000E-03 0. -1.
         23    2    1    2    0    0  0.00000000000E+00  0.17763568394E-14  0.00000000000E+00  0.91188000000E+02  0.91188000000E+02 0.  0.
    9900012    2    3    3    0    0 -0.39499017541E+02  0.10052774144E+02  0.14912836795E+02  0.47787270099E+02  0.19999995689E+02 0.  0.
         12    1    3    3    0    0  0.39499017541E+02 -0.10052774144E+02 -0.14912836795E+02  0.43400729901E+02  0.00000000000E+00 0. -1.
         11    1    4    4    0    0 -0.29917089478E+02  0.34459084703E+01  0.17422368156E+01  0.30165243533E+02  0.51100000000E-03 0. -1.
        -11    1    4    4    0    0 -0.88350210390E+01  0.56236332321E+01  0.11770119111E+02  0.15754953242E+02  0.51100000000E-03 0.  1.
         12    1    4    4    0    0 -0.74690702360E+00  0.98323244183E+00  0.14004808681E+01  0.18670733244E+01  0.00000000000E+00 0. -1.
</event>
<event>
 8    1  0.8600524E-011  0.9118800E+02  0.7816164E-02  0.1184000E+00
        -11   -1    0    0    0    0  0.00000000000E+00  0.00000000000E+00  0.45593999997E+02  0.45594000000E+02  0.51100000000E-03 0. -1.
         11   -1    0    0    0    0 -0.00000000000E+00 -0.00000000000E+00 -0.45593999997E+02  0.45594000000E+02  0.51100000000E-03 0.  1.
         23    2    1    2    0    0  0.00000000000E+00  0.00000000000E+00  0.00000000000E+00  0.91188000000E+02  0.91188000000E+02 0.  0.
    9900012    2    3    3    0    0 -0.15718462271E+02  0.56606002643E+01 -0.40056340401E+02  0.47787275838E+02  0.20000021854E+02 0.  0.
         12    1    3    3    0    0  0.15718462271E+02 -0.56606002643E+01  0.40056340401E+02  0.43400724162E+02  0.00000000000E+00 0. -1.
         11    1    4    4    0    0 -0.12705626258E+02  0.11247549982E+02 -0.19851988660E+02  0.26115929492E+02  0.51100000000E-03 0. -1.
        -11    1    4    4    0    0 -0.31660792207E+01 -0.21365060001E+01 -0.14572771865E+02  0.15065005663E+02  0.51100000000E-03 0.  1.
         12    1    4    4    0    0  0.15324320789E+00 -0.34504437174E+01 -0.56315798755E+01  0.66063406832E+01  0.00000000000E+00 0. -1.
</event>
<event>
 8    1  0.8600524E-011  0.9118800E+02  0.7816164E-02  0.1184000E+00
        -11   -1    0    0    0    0  0.00000000000E+00  0.00000000000E+00  0.45593999997E+02  0.45594000000E+02  0.51100000000E-03 0. -1.
         11   -1    0    0    0    0 -0.00000000000E+00 -0.00000000000E+00 -0.45593999997E+02  0.45594000000E+02  0.51100000000E-03 0.  1.
         23    2    1    2    0    0  0.00000000000E+00  0.00000000000E+00  0.00000000000E+00  0.91188000000E+02  0.91188000000E+02 0.  0.
    9900012    2    3    3    0    0  0.11633917435E+02  0.18748245238E+02 -0.37373481461E+02  0.47787287438E+02  0.20000074743E+02 0.  0.
         12    1    3    3    0    0 -0.11633917435E+02 -0.18748245238E+02  0.37373481461E+02  0.43400712562E+02  0.00000000000E+00 0. -1.
         11    1    4    4    0    0  0.87610272037E+01  0.43083711488E+01 -0.29506539779E+01  0.10199216577E+02  0.51100000000E-03 0. -1.
        -11    1    4    4    0    0  0.32714784278E+01  0.85304600593E+01 -0.19558087869E+02  0.21586804332E+02  0.51100000000E-03 0.  1.
         12    1    4    4    0    0 -0.39858819605E+00  0.59094140296E+01 -0.14864739614E+02  0.16001266529E+02  0.00000000000E+00 0. -1.
</event>
<event>
 8    1  0.8600524E-011  0.9118800E+02  0.7816164E-02  0.1184000E+00
        -11   -1    0    0    0    0  0.00000000000E+00  0.00000000000E+00  0.45593999997E+02  0.45594000000E+02  0.51100000000E-03 0. -1.
         11   -1    0    0    0    0 -0.00000000000E+00 -0.00000000000E+00 -0.45593999997E+02  0.45594000000E+02  0.51100000000E-03 0.  1.
         23    2    1    2    0    0  0.00000000000E+00  0.00000000000E+00  0.00000000000E+00  0.91188000000E+02  0.91188000000E+02 0.  0.
    9900012    2    3    3    0    0  0.43006103538E+02  0.57791496056E+01  0.83638498105E+00  0.47787273606E+02  0.20000011681E+02 0.  0.
         12    1    3    3    0    0 -0.43006103538E+02 -0.57791496056E+01 -0.83638498105E+00  0.43400726394E+02  0.00000000000E+00 0. -1.
         11    1    4    4    0    0  0.34569018137E+02  0.75523906996E+01  0.11628570972E+01  0.35403500634E+02  0.51100000000E-03 0.  1.
        -11    1    4    4    0    0 -0.13799553975E+01 -0.10274085932E+01 -0.17289149798E+01  0.24390556748E+01  0.51100000000E-03 0. -1.
        -12    1    4    4    0    0  0.98170407976E+01 -0.74583250078E+00  0.14024428636E+01  0.99447172975E+01  0.00000000000E+00 0.  1.
</event>
<event>
 8    1  0.8600524E-011  0.9118800E+02  0.7816164E-02  0.1184000E+00
        -11   -1    0    0    0    0  0.00000000000E+00  0.00000000000E+00  0.45593999997E+02  0.45594000000E+02  0.51100000000E-03 0. -1.
         11   -1    0    0    0    0 -0.00000000000E+00 -0.00000000000E+00 -0.45593999997E+02  0.45594000000E+02  0.51100000000E-03 0.  1.
         23    2    1    2    0    0  0.00000000000E+00 -0.35527136788E-14  0.00000000000E+00  0.91188000000E+02  0.91188000000E+02 0.  0.
    9900012    2    3    3    0    0 -0.24738544133E+02 -0.27809834360E+02 -0.22321307292E+02  0.47787271755E+02  0.20000003242E+02 0.  0.
         12    1    3    3    0    0  0.24738544133E+02  0.27809834360E+02  0.22321307292E+02  0.43400728245E+02  0.00000000000E+00 0. -1.
         11    1    4    4    0    0  0.14407978183E+01 -0.76738830854E+00 -0.42290168026E+01  0.45331409141E+01  0.51100000000E-03 0. -1.
        -11    1    4    4    0    0 -0.17835787507E+02 -0.10904264287E+02 -0.11932768436E+02  0.24070921429E+02  0.51100000000E-03 0.  1.
        -12    1    4    4    0    0 -0.83435544434E+01 -0.16138181765E+02 -0.61595220536E+01  0.19183209412E+02  0.00000000000E+00 0.  1.
</event>
<event>
 8    1  0.8600524E-011  0.9118800E+02  0.7816164E-02  0.1184000E+00
        -11   -1    0    0    0    0  0.00000000000E+00  0.00000000000E+00  0.45593999997E+02  0.45594000000E+02  0.51100000000E-03 0. -1.
         11   -1    0    0    0    0 -0.00000000000E+00 -0.00000000000E+00 -0.45593999997E+02  0.45594000000E+02  0.51100000000E-03 0.  1.
         23    2    1    2    0    0 -0.88817841970E-15  0.00000000000E+00  0.71054273576E-14  0.91188000000E+02  0.91188000000E+02 0.  0.
    9900012    2    3    3    0    0  0.66820135922E+01 -0.66767902133E+01 -0.42360291775E+02  0.47787272443E+02  0.20000006378E+02 0.  0.
         12    1    3    3    0    0 -0.66820135922E+01  0.66767902133E+01  0.42360291775E+02  0.43400727557E+02  0.00000000000E+00 0. -1.
         11    1    4    4    0    0  0.51443263013E+01  0.49919707333E+01 -0.61774022023E+01  0.94627777701E+01  0.51100000000E-03 0. -1.
        -11    1    4    4    0    0  0.27734197711E+01 -0.10104916813E+02 -0.27836942715E+02  0.29743849465E+02  0.51100000000E-03 0.  1.
        -12    1    4    4    0    0 -0.12357324802E+01 -0.15638441330E+01 -0.83459468580E+01  0.85806452084E+01  0.00000000000E+00 0.  1.
</event>
<event>
 8    1  0.8600524E-011  0.9118800E+02  0.7816164E-02  0.1184000E+00
        -11   -1    0    0    0    0  0.00000000000E+00  0.00000000000E+00  0.45593999997E+02  0.45594000000E+02  0.51100000000E-03 0. -1.
         11   -1    0    0    0    0 -0.00000000000E+00 -0.00000000000E+00 -0.45593999997E+02  0.45594000000E+02  0.51100000000E-03 0.  1.
         23    2    1    2    0    0  0.00000000000E+00  0.00000000000E+00  0.00000000000E+00  0.91188000000E+02  0.91188000000E+02 0.  0.
    9900012    2    3    3    0    0 -0.10559995624E+02  0.28606892266E+02  0.30882941550E+02  0.47787264159E+02  0.19999968607E+02 0.  0.
        -12    1    3    3    0    0  0.10559995624E+02 -0.28606892266E+02 -0.30882941550E+02  0.43400735841E+02  0.00000000000E+00 0.  1.
         11    1    4    4    0    0 -0.21360950221E+01  0.93059221539E+01  0.66992448577E+01  0.11663746011E+02  0.51100000000E-03 0. -1.
        -11    1    4    4    0    0 -0.22507150767E+01  0.71692633989E+01 -0.91650497916E+00  0.75699430432E+01  0.51100000000E-03 0.  1.
        -12    1    4    4    0    0 -0.61731855255E+01  0.12131706714E+02  0.25100201672E+02  0.28553575105E+02  0.00000000000E+00 0.  1.
</event>
<event>
 8    1  0.8600524E-011  0.9118800E+02  0.7816164E-02  0.1184000E+00
        -11   -1    0    0    0    0  0.00000000000E+00  0.00000000000E+00  0.45593999997E+02  0.45594000000E+02  0.51100000000E-03 0. -1.
         11   -1    0    0    0    0 -0.00000000000E+00 -0.00000000000E+00 -0.45593999997E+02  0.45594000000E+02  0.51100000000E-03 0.  1.
         23    2    1    2    0    0 -0.88817841970E-15  0.00000000000E+00  0.00000000000E+00  0.91188000000E+02  0.91188000000E+02 0.  0.
    9900012    2    3    3    0    0 -0.78407282341E+01  0.85565944491E+01  0.41820233782E+02  0.47787259437E+02  0.19999947079E+02 0.  0.
        -12    1    3    3    0    0  0.78407282341E+01 -0.85565944491E+01 -0.41820233782E+02  0.43400740563E+02  0.00000000000E+00 0.  1.
         11    1    4    4    0    0  0.58401341791E+00  0.28553844374E+01  0.10865898321E+02  0.11249979490E+02  0.51100000000E-03 0. -1.
        -11    1    4    4    0    0 -0.42945157977E+01  0.11475820761E+02  0.20942311631E+02  0.24263506441E+02  0.51100000000E-03 0.  1.
        -12    1    4    4    0    0 -0.41302258542E+01 -0.57746107495E+01  0.10012023830E+02  0.12273773506E+02  0.00000000000E+00 0.  1.
</event>
<event>
 8    1  0.8600524E-011  0.9118800E+02  0.7816164E-02  0.1184000E+00
        -11   -1    0    0    0    0  0.00000000000E+00  0.00000000000E+00  0.45593999997E+02  0.45594000000E+02  0.51100000000E-03 0. -1.
         11   -1    0    0    0    0 -0.00000000000E+00 -0.00000000000E+00 -0.45593999997E+02  0.45594000000E+02  0.51100000000E-03 0.  1.
         23    2    1    2    0    0 -0.17763568394E-14  0.00000000000E+00 -0.71054273576E-14  0.91188000000E+02  0.91188000000E+02 0.  0.
    9900012    2    3    3    0    0 -0.12098186729E+02  0.16872439647E+02 -0.38112704199E+02  0.47787267712E+02  0.19999984804E+02 0.  0.
         12    1    3    3    0    0  0.12098186729E+02 -0.16872439647E+02  0.38112704199E+02  0.43400732288E+02  0.00000000000E+00 0. -1.
         11    1    4    4    0    0 -0.52174356678E+01  0.10727848667E+02 -0.97398038421E+01  0.15400394512E+02  0.51100000000E-03 0. -1.
        -11    1    4    4    0    0  0.10592332496E+01  0.57322680556E+01 -0.49369492466E+01  0.76390012608E+01  0.51100000000E-03 0.  1.
         12    1    4    4    0    0 -0.79399843111E+01  0.41232292432E+00 -0.23435951111E+02  0.24747871939E+02  0.00000000000E+00 0. -1.
</event>
<event>
 8    1  0.8600524E-011  0.9118800E+02  0.7816164E-02  0.1184000E+00
        -11   -1    0    0    0    0  0.00000000000E+00  0.00000000000E+00  0.45593999997E+02  0.45594000000E+02  0.51100000000E-03 0. -1.
         11   -1    0    0    0    0 -0.00000000000E+00 -0.00000000000E+00 -0.45593999997E+02  0.45594000000E+02  0.51100000000E-03 0.  1.
         23    2    1    2    0    0 -0.88817841970E-15  0.00000000000E+00  0.00000000000E+00  0.91188000000E+02  0.91188000000E+02 0.  0.
    9900012    2    3    3    0    0 -0.43631268269E+01  0.28044826027E+02 -0.32834060090E+02  0.47787255253E+02  0.19999928000E+02 0.  0.
         12    1    3    3    0    0  0.43631268269E+01 -0.28044826027E+02  0.32834060090E+02  0.43400744747E+02  0.00000000000E+00 0. -1.
         11    1    4    4    0    0  0.25628246965E+01  0.85596669585E+01 -0.61841264029E+00  0.89564727053E+01  0.51100000000E-03 0. -1.
        -11    1    4    4    0    0 -0.10730862256E+01  0.12490278080E+02 -0.19511097104E+02  0.23191409423E+02  0.51100000000E-03 0.  1.
         12    1    4    4    0    0 -0.58528652978E+01  0.69948809877E+01 -0.12704550346E+02  0.15639373124E+02  0.00000000000E+00 0. -1.
</event>
<event>
 8    1  0.8600524E-011  0.9118800E+02  0.7816164E-02  0.1184000E+00
        -11   -1    0    0    0    0  0.00000000000E+00  0.00000000000E+00  0.45593999997E+02  0.45594000000E+02  0.51100000000E-03 0. -1.
         11   -1    0    0    0    0 -0.00000000000E+00 -0.00000000000E+00 -0.45593999997E+02  0.45594000000E+02  0.51100000000E-03 0.  1.
         23    2    1    2    0    0 -0.35527136788E-14  0.00000000000E+00  0.71054273576E-14  0.91188000000E+02  0.91188000000E+02 0.  0.
    9900012    2    3    3    0    0 -0.23931792712E+02 -0.15680077309E+02  0.32634771736E+02  0.47787264371E+02  0.19999969574E+02 0.  0.
        -12    1    3    3    0    0  0.23931792712E+02  0.15680077309E+02 -0.32634771736E+02  0.43400735629E+02  0.00000000000E+00 0.  1.
         11    1    4    4    0    0 -0.45406051545E+01 -0.70269147524E+01  0.21513065604E+02  0.23082604230E+02  0.51100000000E-03 0. -1.
        -11    1    4    4    0    0 -0.13271688588E+02 -0.45803601446E+01  0.10072471365E+02  0.17279238892E+02  0.51100000000E-03 0.  1.
         12    1    4    4    0    0 -0.61194989698E+01 -0.40728024122E+01  0.10492347677E+01  0.74254212492E+01  0.00000000000E+00 0. -1.
</event>
<event>
 8    1  0.8600524E-011  0.9118800E+02  0.7816164E-02  0.1184000E+00
        -11   -1    0    0    0    0  0.00000000000E+00  0.00000000000E+00  0.45593999997E+02  0.45594000000E+02  0.51100000000E-03 0. -1.
         11   -1    0    0    0    0 -0.00000000000E+00 -0.00000000000E+00 -0.45593999997E+02  0.45594000000E+02  0.51100000000E-03 0.  1.
         23    2    1    2    0    0  0.00000000000E+00  0.44408920985E-15  0.00000000000E+00  0.91188000000E+02  0.91188000000E+02 0.  0.
    9900012    2    3    3    0    0 -0.40061936665E+02  0.27640664356E+01  0.16462837481E+02  0.47787264401E+02  0.19999969709E+02 0.  0.
        -12    1    3    3    0    0  0.40061936665E+02 -0.27640664356E+01 -0.16462837481E+02  0.43400735599E+02  0.00000000000E+00 0.  1.
         11    1    4    4    0    0 -0.14471005444E+02 -0.18619298599E+00  0.14309461887E+02  0.20352035922E+02  0.51100000000E-03 0. -1.
        -11    1    4    4    0    0 -0.88494324904E+01  0.28544245994E+01 -0.32391208837E+01  0.98464257249E+01  0.51100000000E-03 0.  1.
         12    1    4    4    0    0 -0.16741498731E+02  0.95834822210E-01  0.53924964774E+01  0.17588802754E+02  0.00000000000E+00 0. -1.
</event>
<event>
 8    1  0.8600524E-011  0.9118800E+02  0.7816164E-02  0.1184000E+00
        -11   -1    0    0    0    0  0.00000000000E+00  0.00000000000E+00  0.45593999997E+02  0.45594000000E+02  0.51100000000E-03 0.  1.
         11   -1    0    0    0    0 -0.00000000000E+00 -0.00000000000E+00 -0.45593999997E+02  0.45594000000E+02  0.51100000000E-03 0. -1.
         23    2    1    2    0    0  0.00000000000E+00  0.00000000000E+00  0.00000000000E+00  0.91188000000E+02  0.91188000000E+02 0.  0.
    9900012    2    3    3    0    0 -0.37574791260E+02 -0.21901912354E+01 -0.21609288724E+02  0.47787271492E+02  0.20000002039E+02 0.  0.
         12    1    3    3    0    0  0.37574791260E+02  0.21901912354E+01  0.21609288724E+02  0.43400728508E+02  0.00000000000E+00 0. -1.
         11    1    4    4    0    0 -0.73613856047E+01  0.35048640371E+01 -0.10436273588E+02  0.13243484307E+02  0.51100000000E-03 0. -1.
        -11    1    4    4    0    0 -0.26144858025E+02 -0.87805575279E+01 -0.95165018910E+01  0.29175599396E+02  0.51100000000E-03 0.  1.
        -12    1    4    4    0    0 -0.40685476312E+01  0.30855022554E+01 -0.16565132450E+01  0.53681877879E+01  0.00000000000E+00 0.  1.
</event>
<event>
 8    1  0.8600524E-011  0.9118800E+02  0.7816164E-02  0.1184000E+00
        -11   -1    0    0    0    0  0.00000000000E+00  0.00000000000E+00  0.45593999997E+02  0.45594000000E+02  0.51100000000E-03 0. -1.
         11   -1    0    0    0    0 -0.00000000000E+00 -0.00000000000E+00 -0.45593999997E+02  0.45594000000E+02  0.51100000000E-03 0.  1.
         23    2    1    2    0    0  0.00000000000E+00  0.00000000000E+00  0.00000000000E+00  0.91188000000E+02  0.91188000000E+02 0.  0.
    9900012    2    3    3    0    0  0.25148700121E+02 -0.12147329353E+02 -0.33220608566E+02  0.47787267728E+02  0.19999984880E+02 0.  0.
         12    1    3    3    0    0 -0.25148700121E+02  0.12147329353E+02  0.33220608566E+02  0.43400732272E+02  0.00000000000E+00 0. -1.
         11    1    4    4    0    0  0.13767339775E+02  0.23882925000E+01 -0.22155154310E+02  0.26193404672E+02  0.51100000000E-03 0. -1.
        -11    1    4    4    0    0  0.10557134216E+02 -0.13537886641E+02 -0.10770577312E+02  0.20266543697E+02  0.51100000000E-03 0.  1.
         12    1    4    4    0    0  0.82422613083E+00 -0.99773521254E+00 -0.29487694476E+00  0.13273193593E+01  0.00000000000E+00 0. -1.
</event>
<event>
 8    1  0.8600524E-011  0.9118800E+02  0.7816164E-02  0.1184000E+00
        -11   -1    0    0    0    0  0.00000000000E+00  0.00000000000E+00  0.45593999997E+02  0.45594000000E+02  0.51100000000E-03 0. -1.
         11   -1    0    0    0    0 -0.00000000000E+00 -0.00000000000E+00 -0.45593999997E+02  0.45594000000E+02  0.51100000000E-03 0.  1.
         23    2    1    2    0    0 -0.35527136788E-14  0.35527136788E-14 -0.35527136788E-14  0.91188000000E+02  0.91188000000E+02 0.  0.
    9900012    2    3    3    0    0  0.23235269891E+02 -0.20422664402E+02  0.30441091330E+02  0.47787273859E+02  0.20000012832E+02 0.  0.
        -12    1    3    3    0    0 -0.23235269891E+02  0.20422664402E+02 -0.30441091330E+02  0.43400726141E+02  0.00000000000E+00 0.  1.
         11    1    4    4    0    0  0.53706720159E+01 -0.87295589500E+01  0.21054943890E+02  0.23417087348E+02  0.51100000000E-03 0. -1.
        -11    1    4    4    0    0  0.44443580724E+01 -0.43668340891E+01 -0.35535345119E+00  0.62408200562E+01  0.51100000000E-03 0.  1.
         12    1    4    4    0    0  0.13420239803E+02 -0.73262713631E+01  0.97415008912E+01  0.18129366455E+02  0.00000000000E+00 0. -1.
</event>
<event>
 8    1  0.8600524E-011  0.9118800E+02  0.7816164E-02  0.1184000E+00
        -11   -1    0    0    0    0  0.00000000000E+00  0.00000000000E+00  0.45593999997E+02  0.45594000000E+02  0.51100000000E-03 0. -1.
         11   -1    0    0    0    0 -0.00000000000E+00 -0.00000000000E+00 -0.45593999997E+02  0.45594000000E+02  0.51100000000E-03 0.  1.
         23    2    1    2    0    0  0.00000000000E+00  0.00000000000E+00  0.00000000000E+00  0.91188000000E+02  0.91188000000E+02 0.  0.
    9900012    2    3    3    0    0  0.32922659019E+02  0.22321463630E+02 -0.17363003244E+02  0.47787273081E+02  0.20000009287E+02 0.  0.
         12    1    3    3    0    0 -0.32922659019E+02 -0.22321463630E+02  0.17363003244E+02  0.43400726919E+02  0.00000000000E+00 0. -1.
         11    1    4    4    0    0  0.14500724112E+01  0.52806241453E+00  0.18197372744E+01  0.23860016597E+01  0.51100000000E-03 0. -1.
        -11    1    4    4    0    0  0.10201810145E+02  0.36567534062E+01 -0.12719951070E+02  0.16710653224E+02  0.51100000000E-03 0.  1.
        -12    1    4    4    0    0  0.21270776463E+02  0.18136647809E+02 -0.64627894480E+01  0.28690618197E+02  0.00000000000E+00 0.  1.
</event>
<event>
 8    1  0.8600524E-011  0.9118800E+02  0.7816164E-02  0.1184000E+00
        -11   -1    0    0    0    0  0.00000000000E+00  0.00000000000E+00  0.45593999997E+02  0.45594000000E+02  0.51100000000E-03 0. -1.
         11   -1    0    0    0    0 -0.00000000000E+00 -0.00000000000E+00 -0.45593999997E+02  0.45594000000E+02  0.51100000000E-03 0.  1.
         23    2    1    2    0    0 -0.88817841970E-15  0.00000000000E+00 -0.71054273576E-14  0.91188000000E+02  0.91188000000E+02 0.  0.
    9900012    2    3    3    0    0  0.59171417336E+01 -0.27843866486E+02 -0.32761710829E+02  0.47787272314E+02  0.20000005790E+02 0.  0.
         12    1    3    3    0    0 -0.59171417336E+01  0.27843866486E+02  0.32761710829E+02  0.43400727686E+02  0.00000000000E+00 0. -1.
         11    1    4    4    0    0  0.25398110707E+01 -0.11734306664E+02 -0.24368870370E+02  0.27165905774E+02  0.51100000000E-03 0. -1.
        -11    1    4    4    0    0 -0.40569039629E+00 -0.12706553652E+02 -0.88836486896E+01  0.15509361841E+02  0.51100000000E-03 0.  1.
         12    1    4    4    0    0  0.37830210593E+01 -0.34030061700E+01  0.49080823035E+00  0.51120046994E+01  0.00000000000E+00 0. -1.
</event>
<event>
 8    1  0.8600524E-011  0.9118800E+02  0.7816164E-02  0.1184000E+00
        -11   -1    0    0    0    0  0.00000000000E+00  0.00000000000E+00  0.45593999997E+02  0.45594000000E+02  0.51100000000E-03 0. -1.
         11   -1    0    0    0    0 -0.00000000000E+00 -0.00000000000E+00 -0.45593999997E+02  0.45594000000E+02  0.51100000000E-03 0.  1.
         23    2    1    2    0    0  0.00000000000E+00  0.00000000000E+00  0.00000000000E+00  0.91188000000E+02  0.91188000000E+02 0.  0.
    9900012    2    3    3    0    0 -0.12152562610E+01 -0.20816859944E+02  0.38063165496E+02  0.47787273356E+02  0.20000010538E+02 0.  0.
        -12    1    3    3    0    0  0.12152562610E+01  0.20816859944E+02 -0.38063165496E+02  0.43400726644E+02  0.00000000000E+00 0.  1.
         11    1    4    4    0    0  0.22362421318E+01 -0.80262299763E+01  0.27888743894E+02  0.29106754933E+02  0.51100000000E-03 0. -1.
        -11    1    4    4    0    0 -0.26656337840E+01 -0.41764500468E+01 -0.45592132995E+00  0.49755605698E+01  0.51100000000E-03 0.  1.
        -12    1    4    4    0    0 -0.78586460889E+00 -0.86141799212E+01  0.10630342932E+02  0.13704957853E+02  0.00000000000E+00 0.  1.
</event>
<event>
 8    1  0.8600524E-011  0.9118800E+02  0.7816164E-02  0.1184000E+00
        -11   -1    0    0    0    0  0.00000000000E+00  0.00000000000E+00  0.45593999997E+02  0.45594000000E+02  0.51100000000E-03 0. -1.
         11   -1    0    0    0    0 -0.00000000000E+00 -0.00000000000E+00 -0.45593999997E+02  0.45594000000E+02  0.51100000000E-03 0.  1.
         23    2    1    2    0    0 -0.88817841970E-15  0.00000000000E+00  0.00000000000E+00  0.91188000000E+02  0.91188000000E+02 0.  0.
    9900012    2    3    3    0    0  0.34441331186E+01  0.32611839480E+02  0.28429376202E+02  0.47787267766E+02  0.19999985053E+02 0.  0.
        -12    1    3    3    0    0 -0.34441331186E+01 -0.32611839480E+02 -0.28429376202E+02  0.43400732234E+02  0.00000000000E+00 0.  1.
         11    1    4    4    0    0  0.91174605909E+01  0.22764910083E+02  0.16815987755E+02  0.29734603800E+02  0.51100000000E-03 0. -1.
        -11    1    4    4    0    0 -0.58660866498E+01  0.94909413724E+01  0.64786853421E+01  0.12902027156E+02  0.51100000000E-03 0.  1.
         12    1    4    4    0    0  0.19275917747E+00  0.35598802450E+00  0.51347031046E+01  0.51506368098E+01  0.00000000000E+00 0. -1.
</event>
<event>
 8    1  0.8600524E-011  0.9118800E+02  0.7816164E-02  0.1184000E+00
        -11   -1    0    0    0    0  0.00000000000E+00  0.00000000000E+00  0.45593999997E+02  0.45594000000E+02  0.51100000000E-03 0. -1.
         11   -1    0    0    0    0 -0.00000000000E+00 -0.00000000000E+00 -0.45593999997E+02  0.45594000000E+02  0.51100000000E-03 0.  1.
         23    2    1    2    0    0  0.00000000000E+00  0.00000000000E+00  0.00000000000E+00  0.91188000000E+02  0.91188000000E+02 0.  0.
    9900012    2    3    3    0    0 -0.34433468406E+02  0.14206235579E+02 -0.22274272495E+02  0.47787261631E+02  0.19999957082E+02 0.  0.
         12    1    3    3    0    0  0.34433468406E+02 -0.14206235579E+02  0.22274272495E+02  0.43400738369E+02  0.00000000000E+00 0. -1.
         11    1    4    4    0    0 -0.10717253283E+02  0.30106689454E+01 -0.55069843582E+01  0.12419763380E+02  0.51100000000E-03 0. -1.
        -11    1    4    4    0    0 -0.19988973968E+02  0.37596648702E+01 -0.17745357651E+02  0.26992441139E+02  0.51100000000E-03 0.  1.
        -12    1    4    4    0    0 -0.37272411553E+01  0.74359017632E+01  0.97806951470E+00  0.83750571125E+01  0.00000000000E+00 0.  1.
</event>
<event>
 8    1  0.8600524E-011  0.9118800E+02  0.7816164E-02  0.1184000E+00
        -11   -1    0    0    0    0  0.00000000000E+00  0.00000000000E+00  0.45593999997E+02  0.45594000000E+02  0.51100000000E-03 0. -1.
         11   -1    0    0    0    0 -0.00000000000E+00 -0.00000000000E+00 -0.45593999997E+02  0.45594000000E+02  0.51100000000E-03 0.  1.
         23    2    1    2    0    0 -0.35527136788E-14  0.00000000000E+00  0.00000000000E+00  0.91188000000E+02  0.91188000000E+02 0.  0.
    9900012    2    3    3    0    0  0.20098165870E+02  0.25173014505E+02 -0.29086185640E+02  0.47787272752E+02  0.20000007784E+02 0.  0.
         12    1    3    3    0    0 -0.20098165870E+02 -0.25173014505E+02  0.29086185640E+02  0.43400727248E+02  0.00000000000E+00 0. -1.
         11    1    4    4    0    0 -0.34133883051E+00  0.10949623428E+01 -0.19790817469E+01  0.22874045447E+01  0.51100000000E-03 0. -1.
        -11    1    4    4    0    0  0.38317538283E+01  0.18344171881E+02 -0.11416260318E+02  0.21943609077E+02  0.51100000000E-03 0.  1.
        -12    1    4    4    0    0  0.16607750872E+02  0.57338802811E+01 -0.15690843575E+02  0.23556259130E+02  0.00000000000E+00 0.  1.
</event>
<event>
 8    1  0.8600524E-011  0.9118800E+02  0.7816164E-02  0.1184000E+00
        -11   -1    0    0    0    0  0.00000000000E+00  0.00000000000E+00  0.45593999997E+02  0.45594000000E+02  0.51100000000E-03 0. -1.
         11   -1    0    0    0    0 -0.00000000000E+00 -0.00000000000E+00 -0.45593999997E+02  0.45594000000E+02  0.51100000000E-03 0.  1.
         23    2    1    2    0    0 -0.26645352591E-14  0.00000000000E+00  0.88817841970E-15  0.91188000000E+02  0.91188000000E+02 0.  0.
    9900012    2    3    3    0    0  0.53766338874E+01 -0.42576870764E+02 -0.64749460735E+01  0.47787273708E+02  0.20000012144E+02 0.  0.
         12    1    3    3    0    0 -0.53766338874E+01  0.42576870764E+02  0.64749460735E+01  0.43400726292E+02  0.00000000000E+00 0. -1.
         11    1    4    4    0    0 -0.47702621155E+01 -0.34758803167E+01  0.12492217697E+01  0.60330506311E+01  0.51100000000E-03 0. -1.
        -11    1    4    4    0    0  0.81309842839E+01 -0.18073731835E+02 -0.51313731543E+01  0.20472021849E+02  0.51100000000E-03 0.  1.
         12    1    4    4    0    0  0.20159117191E+01 -0.21027258613E+02 -0.25927946888E+01  0.21282201228E+02  0.00000000000E+00 0. -1.
</event>
<event>
 8    1  0.8600524E-011  0.9118800E+02  0.7816164E-02  0.1184000E+00
        -11   -1    0    0    0    0  0.00000000000E+00  0.00000000000E+00  0.45593999997E+02  0.45594000000E+02  0.51100000000E-03 0. -1.
         11   -1    0    0    0    0 -0.00000000000E+00 -0.00000000000E+00 -0.45593999997E+02  0.45594000000E+02  0.51100000000E-03 0.  1.
         23    2    1    2    0    0  0.35527136788E-14  0.00000000000E+00  0.00000000000E+00  0.91188000000E+02  0.91188000000E+02 0.  0.
    9900012    2    3    3    0    0 -0.25847675543E+02 -0.11298431722E+02 -0.32982816295E+02  0.47787273496E+02  0.20000011176E+02 0.  0.
         12    1    3    3    0    0  0.25847675543E+02  0.11298431722E+02  0.32982816295E+02  0.43400726504E+02  0.00000000000E+00 0. -1.
         11    1    4    4    0    0 -0.17294264995E+02 -0.11514125283E+02 -0.28741513024E+02  0.35464647946E+02  0.51100000000E-03 0. -1.
        -11    1    4    4    0    0 -0.98850891488E+01 -0.22974507253E+00 -0.27258281758E+01  0.10256603228E+02  0.51100000000E-03 0.  1.
         12    1    4    4    0    0  0.13316786005E+01  0.44543863284E+00 -0.15154750949E+01  0.20660223218E+01  0.00000000000E+00 0. -1.
</event>
<event>
 8    1  0.8600524E-011  0.9118800E+02  0.7816164E-02  0.1184000E+00
        -11   -1    0    0    0    0  0.00000000000E+00  0.00000000000E+00  0.45593999997E+02  0.45594000000E+02  0.51100000000E-03 0. -1.
         11   -1    0    0    0    0 -0.00000000000E+00 -0.00000000000E+00 -0.45593999997E+02  0.45594000000E+02  0.51100000000E-03 0.  1.
         23    2    1    2    0    0 -0.11102230246E-15 -0.71054273576E-14  0.00000000000E+00  0.91188000000E+02  0.91188000000E+02 0.  0.
    9900012    2    3    3    0    0  0.79885238891E+00 -0.42998086153E+02  0.58438484637E+01  0.47787261033E+02  0.19999954355E+02 0.  0.
         12    1    3    3    0    0 -0.79885238891E+00  0.42998086153E+02 -0.58438484637E+01  0.43400738967E+02  0.00000000000E+00 0. -1.
         11    1    4    4    0    0 -0.70902052870E+01 -0.82431775184E+01  0.28352154189E-01  0.10872984444E+02  0.51100000000E-03 0. -1.
        -11    1    4    4    0    0  0.39607752162E+01 -0.30069013235E+02  0.45171611894E+01  0.30663301236E+02  0.51100000000E-03 0.  1.
         12    1    4    4    0    0  0.39282824597E+01 -0.46858954000E+01  0.12983351201E+01  0.62509753532E+01  0.00000000000E+00 0. -1.
</event>
<event>
 8    1  0.8600524E-011  0.9118800E+02  0.7816164E-02  0.1184000E+00
        -11   -1    0    0    0    0  0.00000000000E+00  0.00000000000E+00  0.45593999997E+02  0.45594000000E+02  0.51100000000E-03 0. -1.
         11   -1    0    0    0    0 -0.00000000000E+00 -0.00000000000E+00 -0.45593999997E+02  0.45594000000E+02  0.51100000000E-03 0.  1.
         23    2    1    2    0    0  0.35527136788E-14  0.00000000000E+00  0.00000000000E+00  0.91188000000E+02  0.91188000000E+02 0.  0.
    9900012    2    3    3    0    0  0.21187914850E+02 -0.32534851710E+02 -0.19395331684E+02  0.47787271866E+02  0.20000003744E+02 0.  0.
         12    1    3    3    0    0 -0.21187914850E+02  0.32534851710E+02  0.19395331684E+02  0.43400728134E+02  0.00000000000E+00 0. -1.
         11    1    4    4    0    0  0.22180473026E+00 -0.14760170166E+02 -0.72678591499E+01  0.16453984245E+02  0.51100000000E-03 0. -1.
        -11    1    4    4    0    0  0.44759718871E+01 -0.95748250449E+00 -0.48794550555E+01  0.66903048496E+01  0.51100000000E-03 0.  1.
         12    1    4    4    0    0  0.16490138233E+02 -0.16817199039E+02 -0.72480174783E+01  0.24642982771E+02  0.00000000000E+00 0. -1.
</event>
<event>
 8    1  0.8600524E-011  0.9118800E+02  0.7816164E-02  0.1184000E+00
        -11   -1    0    0    0    0  0.00000000000E+00  0.00000000000E+00  0.45593999997E+02  0.45594000000E+02  0.51100000000E-03 0. -1.
         11   -1    0    0    0    0 -0.00000000000E+00 -0.00000000000E+00 -0.45593999997E+02  0.45594000000E+02  0.51100000000E-03 0.  1.
         23    2    1    2    0    0  0.00000000000E+00  0.00000000000E+00  0.00000000000E+00  0.91188000000E+02  0.91188000000E+02 0.  0.
    9900012    2    3    3    0    0  0.35100903913E+02 -0.16318819162E+02  0.19627680228E+02  0.47787272523E+02  0.20000006742E+02 0.  0.
        -12    1    3    3    0    0 -0.35100903913E+02  0.16318819162E+02 -0.19627680228E+02  0.43400727477E+02  0.00000000000E+00 0.  1.
         11    1    4    4    0    0  0.12436569388E+02 -0.46735329563E+01 -0.17277169392E+01  0.13397580920E+02  0.51100000000E-03 0.  1.
        -11    1    4    4    0    0  0.67337191090E+01 -0.21178957894E+01  0.15145450674E+01  0.72195777325E+01  0.51100000000E-03 0. -1.
         12    1    4    4    0    0  0.15930615417E+02 -0.95273904166E+01  0.19840852100E+02  0.27170113871E+02  0.00000000000E+00 0. -1.
</event>
<event>
 8    1  0.8600524E-011  0.9118800E+02  0.7816164E-02  0.1184000E+00
        -11   -1    0    0    0    0  0.00000000000E+00  0.00000000000E+00  0.45593999997E+02  0.45594000000E+02  0.51100000000E-03 0. -1.
         11   -1    0    0    0    0 -0.00000000000E+00 -0.00000000000E+00 -0.45593999997E+02  0.45594000000E+02  0.51100000000E-03 0.  1.
         23    2    1    2    0    0  0.00000000000E+00  0.00000000000E+00  0.00000000000E+00  0.91188000000E+02  0.91188000000E+02 0.  0.
    9900012    2    3    3    0    0  0.93604776798E+01  0.64227627322E+01  0.41889773885E+02  0.47787267522E+02  0.19999983939E+02 0.  0.
        -12    1    3    3    0    0 -0.93604776798E+01 -0.64227627322E+01 -0.41889773885E+02  0.43400732478E+02  0.00000000000E+00 0.  1.
         11    1    4    4    0    0  0.79102250930E+01  0.11795383539E+02  0.21925876370E+02  0.26123682525E+02  0.51100000000E-03 0. -1.
        -11    1    4    4    0    0 -0.13298807196E+01 -0.25546907615E+01  0.26866998680E+01  0.39387033472E+01  0.51100000000E-03 0.  1.
         12    1    4    4    0    0  0.27801333064E+01 -0.28179300452E+01  0.17277197647E+02  0.17724881649E+02  0.00000000000E+00 0. -1.
</event>
<event>
 8    1  0.8600524E-011  0.9118800E+02  0.7816164E-02  0.1184000E+00
        -11   -1    0    0    0    0  0.00000000000E+00  0.00000000000E+00  0.45593999997E+02  0.45594000000E+02  0.51100000000E-03 0. -1.
         11   -1    0    0    0    0 -0.00000000000E+00 -0.00000000000E+00 -0.45593999997E+02  0.45594000000E+02  0.51100000000E-03 0.  1.
         23    2    1    2    0    0  0.00000000000E+00  0.35527136788E-14  0.00000000000E+00  0.91188000000E+02  0.91188000000E+02 0.  0.
    9900012    2    3    3    0    0  0.25735408294E+02  0.23789699787E+02  0.25600042046E+02  0.47787271794E+02  0.20000003420E+02 0.  0.
        -12    1    3    3    0    0 -0.25735408294E+02 -0.23789699787E+02 -0.25600042046E+02  0.43400728206E+02  0.00000000000E+00 0.  1.
         11    1    4    4    0    0  0.27148328794E+00  0.18254754632E+01  0.10359373394E+01  0.21164192105E+01  0.51100000000E-03 0. -1.
        -11    1    4    4    0    0  0.25143083031E+01  0.77082202440E+01 -0.13677671756E+01  0.82224809444E+01  0.51100000000E-03 0.  1.
        -12    1    4    4    0    0  0.22949616703E+02  0.14256004079E+02  0.25931871882E+02  0.37448371640E+02  0.00000000000E+00 0.  1.
</event>
<event>
 8    1  0.8600524E-011  0.9118800E+02  0.7816164E-02  0.1184000E+00
        -11   -1    0    0    0    0  0.00000000000E+00  0.00000000000E+00  0.45593999997E+02  0.45594000000E+02  0.51100000000E-03 0. -1.
         11   -1    0    0    0    0 -0.00000000000E+00 -0.00000000000E+00 -0.45593999997E+02  0.45594000000E+02  0.51100000000E-03 0.  1.
         23    2    1    2    0    0  0.00000000000E+00 -0.35527136788E-14  0.00000000000E+00  0.91188000000E+02  0.91188000000E+02 0.  0.
    9900012    2    3    3    0    0 -0.22507315063E+02  0.21762299714E+02 -0.30057385590E+02  0.47787270182E+02  0.19999996070E+02 0.  0.
         12    1    3    3    0    0  0.22507315063E+02 -0.21762299714E+02  0.30057385590E+02  0.43400729818E+02  0.00000000000E+00 0. -1.
         11    1    4    4    0    0 -0.11568486955E+02  0.87937138389E+00 -0.10879648504E+02  0.15905028648E+02  0.51100000000E-03 0. -1.
        -11    1    4    4    0    0 -0.85172985944E+01  0.18408825563E+02 -0.19821959484E+02  0.28360876432E+02  0.51100000000E-03 0.  1.
        -12    1    4    4    0    0 -0.24215295131E+01  0.24741027669E+01  0.64422239782E+00  0.35213651020E+01  0.00000000000E+00 0.  1.
</event>
<event>
 8    1  0.8600524E-011  0.9118800E+02  0.7816164E-02  0.1184000E+00
        -11   -1    0    0    0    0  0.00000000000E+00  0.00000000000E+00  0.45593999997E+02  0.45594000000E+02  0.51100000000E-03 0. -1.
         11   -1    0    0    0    0 -0.00000000000E+00 -0.00000000000E+00 -0.45593999997E+02  0.45594000000E+02  0.51100000000E-03 0.  1.
         23    2    1    2    0    0 -0.88817841970E-15  0.00000000000E+00  0.00000000000E+00  0.91188000000E+02  0.91188000000E+02 0.  0.
    9900012    2    3    3    0    0  0.57530415297E+01  0.29117961857E+02 -0.31664967899E+02  0.47787269803E+02  0.19999994342E+02 0.  0.
         12    1    3    3    0    0 -0.57530415297E+01 -0.29117961857E+02  0.31664967899E+02  0.43400730197E+02  0.00000000000E+00 0. -1.
         11    1    4    4    0    0  0.45419668891E+01  0.30619374315E+01  0.50273484681E+00  0.55006969235E+01  0.51100000000E-03 0. -1.
        -11    1    4    4    0    0 -0.10630291919E+01  0.24836737528E+02 -0.28833470785E+02  0.38070495136E+02  0.51100000000E-03 0.  1.
        -12    1    4    4    0    0  0.22741038325E+01  0.12192868975E+01 -0.33342319601E+01  0.42160777439E+01  0.00000000000E+00 0.  1.
</event>
<event>
 8    1  0.8600524E-011  0.9118800E+02  0.7816164E-02  0.1184000E+00
        -11   -1    0    0    0    0  0.00000000000E+00  0.00000000000E+00  0.45593999997E+02  0.45594000000E+02  0.51100000000E-03 0. -1.
         11   -1    0    0    0    0 -0.00000000000E+00 -0.00000000000E+00 -0.45593999997E+02  0.45594000000E+02  0.51100000000E-03 0.  1.
         23    2    1    2    0    0  0.00000000000E+00  0.00000000000E+00  0.35527136788E-14  0.91188000000E+02  0.91188000000E+02 0.  0.
    9900012    2    3    3    0    0  0.33768986185E+02 -0.15350425110E+02 -0.22530933599E+02  0.47787274800E+02  0.20000017123E+02 0.  0.
         12    1    3    3    0    0 -0.33768986185E+02  0.15350425110E+02  0.22530933599E+02  0.43400725200E+02  0.00000000000E+00 0. -1.
         11    1    4    4    0    0  0.21583706455E+02 -0.66657809905E+01 -0.16192045913E+02  0.27793369203E+02  0.51100000000E-03 0. -1.
        -11    1    4    4    0    0  0.11228361708E+02 -0.84353478729E+01 -0.93186617696E+01  0.16854336469E+02  0.51100000000E-03 0.  1.
         12    1    4    4    0    0  0.95691802294E+00 -0.24929624631E+00  0.29797740835E+01  0.31395691280E+01  0.00000000000E+00 0. -1.
</event>
<event>
 8    1  0.1166777E-010  0.9118800E+02  0.7816164E-02  0.1184000E+00
        -11   -1    0    0    0    0  0.00000000000E+00  0.00000000000E+00  0.45593999997E+02  0.45594000000E+02  0.51100000000E-03 0. -1.
         11   -1    0    0    0    0 -0.00000000000E+00 -0.00000000000E+00 -0.45593999997E+02  0.45594000000E+02  0.51100000000E-03 0.  1.
         23    2    1    2    0    0 -0.88817841970E-15  0.17763568394E-14  0.71054273576E-14  0.91188000000E+02  0.91188000000E+02 0.  0.
    9900012    2    3    3    0    0  0.65708719518E+01  0.56070550126E+01  0.42532435833E+02  0.47787268186E+02  0.19999986966E+02 0.  0.
        -12    1    3    3    0    0 -0.65708719518E+01 -0.56070550126E+01 -0.42532435833E+02  0.43400731814E+02  0.00000000000E+00 0.  1.
         11    1    4    4    0    0  0.25066397388E+00  0.62102822114E+00  0.19918907076E+02  0.19930162264E+02  0.51100000000E-03 0. -1.
        -11    1    4    4    0    0  0.71943772021E+01 -0.19223219639E+01  0.51434752887E+01  0.90503990722E+01  0.51100000000E-03 0.  1.
        -12    1    4    4    0    0 -0.87416922417E+00  0.69083487554E+01  0.17470053468E+02  0.18806706850E+02  0.00000000000E+00 0.  1.
</event>
<event>
 8    1  0.8600524E-011  0.9118800E+02  0.7816164E-02  0.1184000E+00
        -11   -1    0    0    0    0  0.00000000000E+00  0.00000000000E+00  0.45593999997E+02  0.45594000000E+02  0.51100000000E-03 0. -1.
         11   -1    0    0    0    0 -0.00000000000E+00 -0.00000000000E+00 -0.45593999997E+02  0.45594000000E+02  0.51100000000E-03 0.  1.
         23    2    1    2    0    0  0.00000000000E+00  0.11102230246E-14  0.00000000000E+00  0.91188000000E+02  0.91188000000E+02 0.  0.
    9900012    2    3    3    0    0  0.10199629883E+02  0.12750810710E+01 -0.42165921361E+02  0.47787271830E+02  0.20000003581E+02 0.  0.
         12    1    3    3    0    0 -0.10199629883E+02 -0.12750810710E+01  0.42165921361E+02  0.43400728170E+02  0.00000000000E+00 0. -1.
         11    1    4    4    0    0  0.49491260148E+01 -0.35563174999E+01 -0.16653194851E+01  0.63177948462E+01  0.51100000000E-03 0. -1.
        -11    1    4    4    0    0  0.59133817166E+01  0.54053461959E+01 -0.37318053491E+02  0.38168350337E+02  0.51100000000E-03 0.  1.
         12    1    4    4    0    0 -0.66287784804E+00 -0.57394762494E+00 -0.31825483844E+01  0.33011266466E+01  0.00000000000E+00 0. -1.
</event>
<event>
 8    1  0.8600524E-011  0.9118800E+02  0.7816164E-02  0.1184000E+00
        -11   -1    0    0    0    0  0.00000000000E+00  0.00000000000E+00  0.45593999997E+02  0.45594000000E+02  0.51100000000E-03 0. -1.
         11   -1    0    0    0    0 -0.00000000000E+00 -0.00000000000E+00 -0.45593999997E+02  0.45594000000E+02  0.51100000000E-03 0.  1.
         23    2    1    2    0    0  0.17763568394E-14  0.00000000000E+00  0.00000000000E+00  0.91188000000E+02  0.91188000000E+02 0.  0.
    9900012    2    3    3    0    0  0.13905726869E+02 -0.25978679117E+02  0.31864747702E+02  0.47787272419E+02  0.20000006269E+02 0.  0.
        -12    1    3    3    0    0 -0.13905726869E+02  0.25978679117E+02 -0.31864747702E+02  0.43400727581E+02  0.00000000000E+00 0.  1.
         11    1    4    4    0    0  0.68164195290E+01 -0.31264606437E+01  0.16675420326E+02  0.18284090753E+02  0.51100000000E-03 0. -1.
        -11    1    4    4    0    0 -0.91350174660E+00 -0.80091279821E+01  0.26377066260E+01  0.84816338627E+01  0.51100000000E-03 0.  1.
         12    1    4    4    0    0  0.80028090871E+01 -0.14843090491E+02  0.12551620750E+02  0.21021547803E+02  0.00000000000E+00 0. -1.
</event>
<event>
 8    1  0.8600524E-011  0.9118800E+02  0.7816164E-02  0.1184000E+00
        -11   -1    0    0    0    0  0.00000000000E+00  0.00000000000E+00  0.45593999997E+02  0.45594000000E+02  0.51100000000E-03 0. -1.
         11   -1    0    0    0    0 -0.00000000000E+00 -0.00000000000E+00 -0.45593999997E+02  0.45594000000E+02  0.51100000000E-03 0.  1.
         23    2    1    2    0    0  0.88817841970E-15  0.00000000000E+00  0.00000000000E+00  0.91188000000E+02  0.91188000000E+02 0.  0.
    9900012    2    3    3    0    0 -0.79296350340E+01  0.19703024981E+02 -0.37848844197E+02  0.47787270603E+02  0.19999997986E+02 0.  0.
         12    1    3    3    0    0  0.79296350340E+01 -0.19703024981E+02  0.37848844197E+02  0.43400729397E+02  0.00000000000E+00 0. -1.
         11    1    4    4    0    0 -0.15476109843E+01  0.90696275161E+01 -0.87401270631E+01  0.12690274401E+02  0.51100000000E-03 0. -1.
        -11    1    4    4    0    0  0.44728578867E+01  0.38496180940E+01 -0.14607172318E+02  0.15754221673E+02  0.51100000000E-03 0.  1.
        -12    1    4    4    0    0 -0.10854881936E+02  0.67837793710E+01 -0.14501544816E+02  0.19342774528E+02  0.00000000000E+00 0.  1.
</event>
<event>
 8    1  0.8600524E-011  0.9118800E+02  0.7816164E-02  0.1184000E+00
        -11   -1    0    0    0    0  0.00000000000E+00  0.00000000000E+00  0.45593999997E+02  0.45594000000E+02  0.51100000000E-03 0. -1.
         11   -1    0    0    0    0 -0.00000000000E+00 -0.00000000000E+00 -0.45593999997E+02  0.45594000000E+02  0.51100000000E-03 0.  1.
         23    2    1    2    0    0  0.00000000000E+00  0.00000000000E+00  0.00000000000E+00  0.91188000000E+02  0.91188000000E+02 0.  0.
    9900012    2    3    3    0    0  0.34287165711E+02 -0.32733177226E+01  0.26406419292E+02  0.47787270498E+02  0.19999997510E+02 0.  0.
        -12    1    3    3    0    0 -0.34287165711E+02  0.32733177226E+01 -0.26406419292E+02  0.43400729502E+02  0.00000000000E+00 0.  1.
         11    1    4    4    0    0  0.52812199667E+01 -0.34570615549E+00  0.25607325171E-01  0.52925847257E+01  0.51100000000E-03 0. -1.
        -11    1    4    4    0    0  0.67928795473E+01 -0.25922889945E+01  0.16791136631E+02  0.18297689592E+02  0.51100000000E-03 0.  1.
        -12    1    4    4    0    0  0.22213066197E+02 -0.33532257266E+00  0.95896753359E+01  0.24196996181E+02  0.00000000000E+00 0.  1.
</event>
<event>
 8    1  0.8600524E-011  0.9118800E+02  0.7816164E-02  0.1184000E+00
        -11   -1    0    0    0    0  0.00000000000E+00  0.00000000000E+00  0.45593999997E+02  0.45594000000E+02  0.51100000000E-03 0. -1.
         11   -1    0    0    0    0 -0.00000000000E+00 -0.00000000000E+00 -0.45593999997E+02  0.45594000000E+02  0.51100000000E-03 0.  1.
         23    2    1    2    0    0  0.00000000000E+00 -0.35527136788E-14  0.35527136788E-14  0.91188000000E+02  0.91188000000E+02 0.  0.
    9900012    2    3    3    0    0 -0.20414450397E+02  0.30750819801E+02 -0.22831131823E+02  0.47787270930E+02  0.19999999480E+02 0.  0.
         12    1    3    3    0    0  0.20414450397E+02 -0.30750819801E+02  0.22831131823E+02  0.43400729070E+02  0.00000000000E+00 0. -1.
         11    1    4    4    0    0 -0.62849105917E+01  0.80032606275E+01 -0.11139739454E+02  0.15087944763E+02  0.51100000000E-03 0. -1.
        -11    1    4    4    0    0 -0.87634692759E+01  0.92242744505E+01  0.18091903847E+01  0.12851412490E+02  0.51100000000E-03 0.  1.
        -12    1    4    4    0    0 -0.53660705293E+01  0.13523284723E+02 -0.13500582753E+02  0.19847913677E+02  0.00000000000E+00 0.  1.
</event>
<event>
 8    1  0.8600524E-011  0.9118800E+02  0.7816164E-02  0.1184000E+00
        -11   -1    0    0    0    0  0.00000000000E+00  0.00000000000E+00  0.45593999997E+02  0.45594000000E+02  0.51100000000E-03 0.  1.
         11   -1    0    0    0    0 -0.00000000000E+00 -0.00000000000E+00 -0.45593999997E+02  0.45594000000E+02  0.51100000000E-03 0. -1.
         23    2    1    2    0    0 -0.17763568394E-14  0.00000000000E+00  0.00000000000E+00  0.91188000000E+02  0.91188000000E+02 0.  0.
    9900012    2    3    3    0    0 -0.10990137494E+02  0.35443005987E+02  0.22508519153E+02  0.47787271550E+02  0.20000002305E+02 0.  0.
         12    1    3    3    0    0  0.10990137494E+02 -0.35443005987E+02 -0.22508519153E+02  0.43400728450E+02  0.00000000000E+00 0. -1.
         11    1    4    4    0    0 -0.36528796355E+01  0.31324251868E+01  0.26007735194E+01  0.54698848564E+01  0.51100000000E-03 0. -1.
        -11    1    4    4    0    0 -0.63211557733E+01  0.25607464004E+01  0.62137384434E+00  0.68483967578E+01  0.51100000000E-03 0.  1.
        -12    1    4    4    0    0 -0.10161020855E+01  0.29749834400E+02  0.19286371789E+02  0.35468989936E+02  0.00000000000E+00 0.  1.
</event>
<event>
 8    1  0.8600524E-011  0.9118800E+02  0.7816164E-02  0.1184000E+00
        -11   -1    0    0    0    0  0.00000000000E+00  0.00000000000E+00  0.45593999997E+02  0.45594000000E+02  0.51100000000E-03 0. -1.
         11   -1    0    0    0    0 -0.00000000000E+00 -0.00000000000E+00 -0.45593999997E+02  0.45594000000E+02  0.51100000000E-03 0.  1.
         23    2    1    2    0    0  0.17763568394E-14  0.00000000000E+00  0.00000000000E+00  0.91188000000E+02  0.91188000000E+02 0.  0.
    9900012    2    3    3    0    0 -0.13832836092E+02  0.16033711181E+02 -0.37883983191E+02  0.47787269234E+02  0.19999991746E+02 0.  0.
         12    1    3    3    0    0  0.13832836092E+02 -0.16033711181E+02  0.37883983191E+02  0.43400730766E+02  0.00000000000E+00 0. -1.
         11    1    4    4    0    0  0.36713191173E+01  0.23392177004E+01 -0.42649514238E+01  0.60942870313E+01  0.51100000000E-03 0. -1.
        -11    1    4    4    0    0 -0.12665148881E+02  0.32557994478E+01 -0.16241953738E+02  0.20852033180E+02  0.51100000000E-03 0.  1.
        -12    1    4    4    0    0 -0.48390063279E+01  0.10438694033E+02 -0.17377078030E+02  0.20840949023E+02  0.00000000000E+00 0.  1.
</event>
<event>
 8    1  0.8600524E-011  0.9118800E+02  0.7816164E-02  0.1184000E+00
        -11   -1    0    0    0    0  0.00000000000E+00  0.00000000000E+00  0.45593999997E+02  0.45594000000E+02  0.51100000000E-03 0. -1.
         11   -1    0    0    0    0 -0.00000000000E+00 -0.00000000000E+00 -0.45593999997E+02  0.45594000000E+02  0.51100000000E-03 0.  1.
         23    2    1    2    0    0  0.00000000000E+00  0.00000000000E+00  0.00000000000E+00  0.91188000000E+02  0.91188000000E+02 0.  0.
    9900012    2    3    3    0    0 -0.30042364935E+02  0.17853808525E+02  0.25735601329E+02  0.47787270219E+02  0.19999996235E+02 0.  0.
        -12    1    3    3    0    0  0.30042364935E+02 -0.17853808525E+02 -0.25735601329E+02  0.43400729781E+02  0.00000000000E+00 0.  1.
         11    1    4    4    0    0 -0.16423595662E+01 -0.14188705549E+01  0.54079621994E+01  0.58272286730E+01  0.51100000000E-03 0. -1.
        -11    1    4    4    0    0  0.10594394108E+01  0.26764756001E+01  0.12663888915E+01  0.31447853009E+01  0.51100000000E-03 0.  1.
         12    1    4    4    0    0 -0.29459444780E+02  0.16596203480E+02  0.19061250238E+02  0.38815256245E+02  0.00000000000E+00 0. -1.
</event>
<event>
 8    1  0.8600524E-011  0.9118800E+02  0.7816164E-02  0.1184000E+00
        -11   -1    0    0    0    0  0.00000000000E+00  0.00000000000E+00  0.45593999997E+02  0.45594000000E+02  0.51100000000E-03 0.  1.
         11   -1    0    0    0    0 -0.00000000000E+00 -0.00000000000E+00 -0.45593999997E+02  0.45594000000E+02  0.51100000000E-03 0. -1.
         23    2    1    2    0    0  0.00000000000E+00  0.00000000000E+00  0.00000000000E+00  0.91188000000E+02  0.91188000000E+02 0.  0.
    9900012    2    3    3    0    0 -0.13915301071E+02  0.39481861894E+02  0.11452961358E+02  0.47787270209E+02  0.19999996192E+02 0.  0.
        -12    1    3    3    0    0  0.13915301071E+02 -0.39481861894E+02 -0.11452961358E+02  0.43400729791E+02  0.00000000000E+00 0.  1.
         11    1    4    4    0    0 -0.85343667319E+01  0.85315460689E+01  0.11102108048E+01  0.12118385294E+02  0.51100000000E-03 0. -1.
        -11    1    4    4    0    0 -0.70399846979E+00  0.24016091679E+02  0.12425769668E+02  0.27049362756E+02  0.51100000000E-03 0.  1.
        -12    1    4    4    0    0 -0.46769358689E+01  0.69342241460E+01 -0.20830191148E+01  0.86195221597E+01  0.00000000000E+00 0.  1.
</event>
<event>
 8    1  0.8600524E-011  0.9118800E+02  0.7816164E-02  0.1184000E+00
        -11   -1    0    0    0    0  0.00000000000E+00  0.00000000000E+00  0.45593999997E+02  0.45594000000E+02  0.51100000000E-03 0. -1.
         11   -1    0    0    0    0 -0.00000000000E+00 -0.00000000000E+00 -0.45593999997E+02  0.45594000000E+02  0.51100000000E-03 0.  1.
         23    2    1    2    0    0  0.00000000000E+00  0.00000000000E+00  0.00000000000E+00  0.91188000000E+02  0.91188000000E+02 0.  0.
    9900012    2    3    3    0    0 -0.20010818102E+02 -0.17282500716E+02  0.34416645702E+02  0.47787272201E+02  0.20000005275E+02 0.  0.
        -12    1    3    3    0    0  0.20010818102E+02  0.17282500716E+02 -0.34416645702E+02  0.43400727799E+02  0.00000000000E+00 0.  1.
         11    1    4    4    0    0  0.80804737480E+00 -0.39935303622E+01  0.11134326209E+02  0.11856409478E+02  0.51100000000E-03 0. -1.
        -11    1    4    4    0    0 -0.17137900238E+02 -0.13682495954E+02  0.14207197598E+02  0.26129729886E+02  0.51100000000E-03 0.  1.
        -12    1    4    4    0    0 -0.36809652394E+01  0.39352560056E+00  0.90751218945E+01  0.98011328372E+01  0.00000000000E+00 0.  1.
</event>
<event>
 8    1  0.8600524E-011  0.9118800E+02  0.7816164E-02  0.1184000E+00
        -11   -1    0    0    0    0  0.00000000000E+00  0.00000000000E+00  0.45593999997E+02  0.45594000000E+02  0.51100000000E-03 0. -1.
         11   -1    0    0    0    0 -0.00000000000E+00 -0.00000000000E+00 -0.45593999997E+02  0.45594000000E+02  0.51100000000E-03 0.  1.
         23    2    1    2    0    0  0.00000000000E+00 -0.35527136788E-14  0.00000000000E+00  0.91188000000E+02  0.91188000000E+02 0.  0.
    9900012    2    3    3    0    0  0.18383722147E+02 -0.21924922364E+02  0.32633719401E+02  0.47787273017E+02  0.20000008995E+02 0.  0.
        -12    1    3    3    0    0 -0.18383722147E+02  0.21924922364E+02 -0.32633719401E+02  0.43400726983E+02  0.00000000000E+00 0.  1.
         11    1    4    4    0    0  0.80294208040E+01 -0.17425830480E+02  0.26051954094E+02  0.32354837022E+02  0.51100000000E-03 0. -1.
        -11    1    4    4    0    0  0.64247800702E+01  0.14858646799E+01  0.44744515296E+01  0.79690846117E+01  0.51100000000E-03 0.  1.
         12    1    4    4    0    0  0.39295212729E+01 -0.59849565647E+01  0.21073137777E+01  0.74633513834E+01  0.00000000000E+00 0. -1.
</event>
<event>
 8    1  0.8600524E-011  0.9118800E+02  0.7816164E-02  0.1184000E+00
        -11   -1    0    0    0    0  0.00000000000E+00  0.00000000000E+00  0.45593999997E+02  0.45594000000E+02  0.51100000000E-03 0. -1.
         11   -1    0    0    0    0 -0.00000000000E+00 -0.00000000000E+00 -0.45593999997E+02  0.45594000000E+02  0.51100000000E-03 0.  1.
         23    2    1    2    0    0  0.00000000000E+00  0.00000000000E+00  0.00000000000E+00  0.91188000000E+02  0.91188000000E+02 0.  0.
    9900012    2    3    3    0    0 -0.35556902781E+02 -0.17247862113E+02 -0.17939946168E+02  0.47787265543E+02  0.19999974918E+02 0.  0.
         12    1    3    3    0    0  0.35556902781E+02  0.17247862113E+02  0.17939946168E+02  0.43400734457E+02  0.00000000000E+00 0. -1.
         11    1    4    4    0    0 -0.11828994802E+02 -0.51161666436E+01 -0.25762963904E+01  0.13142967035E+02  0.51100000000E-03 0. -1.
        -11    1    4    4    0    0 -0.12064372555E+02 -0.13870492294E+02 -0.52744327890E+01  0.19124834199E+02  0.51100000000E-03 0.  1.
        -12    1    4    4    0    0 -0.11663535425E+02  0.17387968246E+01 -0.10089216989E+02  0.15519464309E+02  0.00000000000E+00 0.  1.
</event>
<event>
 8    1  0.8600524E-011  0.9118800E+02  0.7816164E-02  0.1184000E+00
        -11   -1    0    0    0    0  0.00000000000E+00  0.00000000000E+00  0.45593999997E+02  0.45594000000E+02  0.51100000000E-03 0. -1.
         11   -1    0    0    0    0 -0.00000000000E+00 -0.00000000000E+00 -0.45593999997E+02  0.45594000000E+02  0.51100000000E-03 0.  1.
         23    2    1    2    0    0  0.00000000000E+00  0.17763568394E-14  0.71054273576E-14  0.91188000000E+02  0.91188000000E+02 0.  0.
    9900012    2    3    3    0    0 -0.15184168034E+02 -0.15344263154E+02 -0.37651265915E+02  0.47787271945E+02  0.20000004108E+02 0.  0.
         12    1    3    3    0    0  0.15184168034E+02  0.15344263154E+02  0.37651265915E+02  0.43400728055E+02  0.00000000000E+00 0. -1.
         11    1    4    4    0    0 -0.82308665553E+01 -0.12670445896E+01 -0.45317733642E+01  0.94810092463E+01  0.51100000000E-03 0. -1.
        -11    1    4    4    0    0 -0.90341308537E+01 -0.14516576329E+02 -0.30009976530E+02  0.34539038785E+02  0.51100000000E-03 0.  1.
         12    1    4    4    0    0  0.20808293750E+01  0.43935776441E+00 -0.31095160216E+01  0.37672239144E+01  0.00000000000E+00 0. -1.
</event>
<event>
 8    1  0.8600524E-011  0.9118800E+02  0.7816164E-02  0.1184000E+00
        -11   -1    0    0    0    0  0.00000000000E+00  0.00000000000E+00  0.45593999997E+02  0.45594000000E+02  0.51100000000E-03 0. -1.
         11   -1    0    0    0    0 -0.00000000000E+00 -0.00000000000E+00 -0.45593999997E+02  0.45594000000E+02  0.51100000000E-03 0.  1.
         23    2    1    2    0    0  0.00000000000E+00 -0.35527136788E-14  0.00000000000E+00  0.91188000000E+02  0.91188000000E+02 0.  0.
    9900012    2    3    3    0    0  0.10170609972E+02 -0.22150130066E+02 -0.35910353577E+02  0.47787273471E+02  0.20000011065E+02 0.  0.
         12    1    3    3    0    0 -0.10170609972E+02  0.22150130066E+02  0.35910353577E+02  0.43400726529E+02  0.00000000000E+00 0. -1.
         11    1    4    4    0    0 -0.33790816053E+01 -0.11123300936E+02 -0.74841627943E+01  0.13826015666E+02  0.51100000000E-03 0. -1.
        -11    1    4    4    0    0  0.78920706759E+01 -0.56336578149E+01 -0.21217825050E+02  0.23328501453E+02  0.51100000000E-03 0.  1.
         12    1    4    4    0    0  0.56576209018E+01 -0.53931713155E+01 -0.72083657330E+01  0.10632756352E+02  0.00000000000E+00 0. -1.
</event>
<event>
 8    1  0.8600524E-011  0.9118800E+02  0.7816164E-02  0.1184000E+00
        -11   -1    0    0    0    0  0.00000000000E+00  0.00000000000E+00  0.45593999997E+02  0.45594000000E+02  0.51100000000E-03 0.  1.
         11   -1    0    0    0    0 -0.00000000000E+00 -0.00000000000E+00 -0.45593999997E+02  0.45594000000E+02  0.51100000000E-03 0. -1.
         23    2    1    2    0    0  0.00000000000E+00  0.71054273576E-14  0.00000000000E+00  0.91188000000E+02  0.91188000000E+02 0.  0.
    9900012    2    3    3    0    0  0.44053782031E+01  0.43060564572E+02 -0.31628202137E+01  0.47787274084E+02  0.20000013857E+02 0.  0.
         12    1    3    3    0    0 -0.44053782031E+01 -0.43060564572E+02  0.31628202137E+01  0.43400725916E+02  0.00000000000E+00 0. -1.
         11    1    4    4    0    0  0.29077507111E+01 -0.85927703257E+00  0.23202144029E-01  0.30321460745E+01  0.51100000000E-03 0. -1.
        -11    1    4    4    0    0  0.14102483215E+01  0.51022977720E+01  0.18600383356E+01  0.56108810140E+01  0.51100000000E-03 0.  1.
         12    1    4    4    0    0  0.87379170556E-01  0.38817543832E+02 -0.50460606934E+01  0.39144246995E+02  0.00000000000E+00 0. -1.
</event>
<event>
 8    1  0.8600524E-011  0.9118800E+02  0.7816164E-02  0.1184000E+00
        -11   -1    0    0    0    0  0.00000000000E+00  0.00000000000E+00  0.45593999997E+02  0.45594000000E+02  0.51100000000E-03 0. -1.
         11   -1    0    0    0    0 -0.00000000000E+00 -0.00000000000E+00 -0.45593999997E+02  0.45594000000E+02  0.51100000000E-03 0.  1.
         23    2    1    2    0    0  0.00000000000E+00  0.00000000000E+00  0.00000000000E+00  0.91188000000E+02  0.91188000000E+02 0.  0.
    9900012    2    3    3    0    0  0.92139742256E+01 -0.15991644367E+02  0.39280955039E+02  0.47787269138E+02  0.19999991309E+02 0.  0.
        -12    1    3    3    0    0 -0.92139742256E+01  0.15991644367E+02 -0.39280955039E+02  0.43400730862E+02  0.00000000000E+00 0.  1.
         11    1    4    4    0    0  0.14262821535E+02 -0.87711609740E+01  0.18651394263E+02  0.25064633474E+02  0.51100000000E-03 0. -1.
        -11    1    4    4    0    0 -0.39348256906E+01 -0.24895124393E+01  0.10590997638E+02  0.11569345557E+02  0.51100000000E-03 0.  1.
         12    1    4    4    0    0 -0.11140216189E+01 -0.47309709540E+01  0.10038563138E+02  0.11153290107E+02  0.00000000000E+00 0. -1.
</event>
<event>
 8    1  0.8600524E-011  0.9118800E+02  0.7816164E-02  0.1184000E+00
        -11   -1    0    0    0    0  0.00000000000E+00  0.00000000000E+00  0.45593999997E+02  0.45594000000E+02  0.51100000000E-03 0. -1.
         11   -1    0    0    0    0 -0.00000000000E+00 -0.00000000000E+00 -0.45593999997E+02  0.45594000000E+02  0.51100000000E-03 0.  1.
         23    2    1    2    0    0  0.00000000000E+00  0.00000000000E+00 -0.71054273576E-14  0.91188000000E+02  0.91188000000E+02 0.  0.
    9900012    2    3    3    0    0 -0.11429735349E+02 -0.21521412674E+02 -0.35913977213E+02  0.47787264834E+02  0.19999971686E+02 0.  0.
         12    1    3    3    0    0  0.11429735349E+02  0.21521412674E+02  0.35913977213E+02  0.43400735166E+02  0.00000000000E+00 0. -1.
         11    1    4    4    0    0 -0.15052171584E+01  0.25559294670E+01 -0.74963835591E+01  0.80618993333E+01  0.51100000000E-03 0. -1.
        -11    1    4    4    0    0 -0.27430888727E+01 -0.18251153966E+02 -0.17734178982E+02  0.25595512538E+02  0.51100000000E-03 0.  1.
        -12    1    4    4    0    0 -0.71814293181E+01 -0.58261881748E+01 -0.10683414672E+02  0.14129852963E+02  0.00000000000E+00 0.  1.
</event>
<event>
 8    1  0.8600524E-011  0.9118800E+02  0.7816164E-02  0.1184000E+00
        -11   -1    0    0    0    0  0.00000000000E+00  0.00000000000E+00  0.45593999997E+02  0.45594000000E+02  0.51100000000E-03 0. -1.
         11   -1    0    0    0    0 -0.00000000000E+00 -0.00000000000E+00 -0.45593999997E+02  0.45594000000E+02  0.51100000000E-03 0.  1.
         23    2    1    2    0    0 -0.17763568394E-14  0.17763568394E-14 -0.71054273576E-14  0.91188000000E+02  0.91188000000E+02 0.  0.
    9900012    2    3    3    0    0  0.98411259009E+01 -0.11387489970E+02  0.40707502490E+02  0.47787269064E+02  0.19999990969E+02 0.  0.
        -12    1    3    3    0    0 -0.98411259009E+01  0.11387489970E+02 -0.40707502490E+02  0.43400730936E+02  0.00000000000E+00 0.  1.
         11    1    4    4    0    0  0.68673253524E+01 -0.71724962429E+00  0.14771101259E+02  0.16305215030E+02  0.51100000000E-03 0. -1.
        -11    1    4    4    0    0  0.27432028800E+01  0.30576325712E+01  0.56132080277E+01  0.69557446478E+01  0.51100000000E-03 0.  1.
        -12    1    4    4    0    0  0.23059766851E+00 -0.13727872916E+02  0.20323193204E+02  0.24526309386E+02  0.00000000000E+00 0.  1.
</event>
<event>
 8    1  0.8600524E-011  0.9118800E+02  0.7816164E-02  0.1184000E+00
        -11   -1    0    0    0    0  0.00000000000E+00  0.00000000000E+00  0.45593999997E+02  0.45594000000E+02  0.51100000000E-03 0. -1.
         11   -1    0    0    0    0 -0.00000000000E+00 -0.00000000000E+00 -0.45593999997E+02  0.45594000000E+02  0.51100000000E-03 0.  1.
         23    2    1    2    0    0  0.00000000000E+00 -0.17763568394E-14  0.00000000000E+00  0.91188000000E+02  0.91188000000E+02 0.  0.
    9900012    2    3    3    0    0  0.21811849800E+02 -0.13306964475E+02 -0.35082634738E+02  0.47787270105E+02  0.19999995717E+02 0.  0.
         12    1    3    3    0    0 -0.21811849800E+02  0.13306964475E+02  0.35082634738E+02  0.43400729895E+02  0.00000000000E+00 0. -1.
         11    1    4    4    0    0 -0.51877594719E-01  0.18685176857E+01 -0.69106151094E+01  0.71589560048E+01  0.51100000000E-03 0. -1.
        -11    1    4    4    0    0  0.63755854141E+01 -0.11213846387E+02 -0.93414288060E+01  0.15926730128E+02  0.51100000000E-03 0.  1.
        -12    1    4    4    0    0  0.15488141981E+02 -0.39616357734E+01 -0.18830590823E+02  0.24701583973E+02  0.00000000000E+00 0.  1.
</event>
<event>
 8    1  0.8600524E-011  0.9118800E+02  0.7816164E-02  0.1184000E+00
        -11   -1    0    0    0    0  0.00000000000E+00  0.00000000000E+00  0.45593999997E+02  0.45594000000E+02  0.51100000000E-03 0. -1.
         11   -1    0    0    0    0 -0.00000000000E+00 -0.00000000000E+00 -0.45593999997E+02  0.45594000000E+02  0.51100000000E-03 0.  1.
         23    2    1    2    0    0  0.00000000000E+00 -0.17763568394E-14  0.00000000000E+00  0.91188000000E+02  0.91188000000E+02 0.  0.
    9900012    2    3    3    0    0 -0.34226281590E+02  0.76606737985E+01  0.25563625353E+02  0.47787271714E+02  0.20000003054E+02 0.  0.
        -12    1    3    3    0    0  0.34226281590E+02 -0.76606737985E+01 -0.25563625353E+02  0.43400728286E+02  0.00000000000E+00 0.  1.
         11    1    4    4    0    0 -0.10302018171E+02  0.23962851522E+01  0.17572778139E+02  0.20510394748E+02  0.51100000000E-03 0. -1.
        -11    1    4    4    0    0  0.27248268050E+00  0.36666757225E+00 -0.92267305766E+00  0.10295716353E+01  0.51100000000E-03 0.  1.
         12    1    4    4    0    0 -0.24196746100E+02  0.48977210740E+01  0.89135202721E+01  0.26247305332E+02  0.00000000000E+00 0. -1.
</event>
<event>
 8    1  0.8600524E-011  0.9118800E+02  0.7816164E-02  0.1184000E+00
        -11   -1    0    0    0    0  0.00000000000E+00  0.00000000000E+00  0.45593999997E+02  0.45594000000E+02  0.51100000000E-03 0. -1.
         11   -1    0    0    0    0 -0.00000000000E+00 -0.00000000000E+00 -0.45593999997E+02  0.45594000000E+02  0.51100000000E-03 0.  1.
         23    2    1    2    0    0 -0.44408920985E-15  0.17763568394E-14  0.00000000000E+00  0.91188000000E+02  0.91188000000E+02 0.  0.
    9900012    2    3    3    0    0  0.17911041270E+01  0.14094909523E+02  0.41009175880E+02  0.47787227717E+02  0.19999802451E+02 0.  0.
        -12    1    3    3    0    0 -0.17911041270E+01 -0.14094909523E+02 -0.41009175880E+02  0.43400772283E+02  0.00000000000E+00 0.  1.
         11    1    4    4    0    0  0.64991537729E+01  0.12973855186E+02  0.21597455098E+02  0.26019415542E+02  0.51100000000E-03 0. -1.
        -11    1    4    4    0    0 -0.25635365569E+01 -0.34628325088E+01  0.56516515178E+01  0.71066232349E+01  0.51100000000E-03 0.  1.
         12    1    4    4    0    0 -0.21445130890E+01  0.45838868463E+01  0.13760069264E+02  0.14661188940E+02  0.00000000000E+00 0. -1.
</event>
<event>
 8    1  0.8600524E-011  0.9118800E+02  0.7816164E-02  0.1184000E+00
        -11   -1    0    0    0    0  0.00000000000E+00  0.00000000000E+00  0.45593999997E+02  0.45594000000E+02  0.51100000000E-03 0. -1.
         11   -1    0    0    0    0 -0.00000000000E+00 -0.00000000000E+00 -0.45593999997E+02  0.45594000000E+02  0.51100000000E-03 0.  1.
         23    2    1    2    0    0  0.17763568394E-14  0.00000000000E+00 -0.35527136788E-14  0.91188000000E+02  0.91188000000E+02 0.  0.
    9900012    2    3    3    0    0  0.13256611937E+02  0.26401918326E+02 -0.31793511349E+02  0.47787234854E+02  0.19999834992E+02 0.  0.
         12    1    3    3    0    0 -0.13256611937E+02 -0.26401918326E+02  0.31793511349E+02  0.43400765146E+02  0.00000000000E+00 0. -1.
         11    1    4    4    0    0 -0.30840464739E+01  0.60794227173E+01 -0.55225312111E+01  0.87732020647E+01  0.51100000000E-03 0. -1.
        -11    1    4    4    0    0  0.17699872095E+02  0.17519546873E+02 -0.25808083394E+02  0.35864706377E+02  0.51100000000E-03 0.  1.
        -12    1    4    4    0    0 -0.13592136836E+01  0.28029487356E+01 -0.46289674422E+00  0.31493264118E+01  0.00000000000E+00 0.  1.
</event>
<event>
 8    1  0.8600524E-011  0.9118800E+02  0.7816164E-02  0.1184000E+00
        -11   -1    0    0    0    0  0.00000000000E+00  0.00000000000E+00  0.45593999997E+02  0.45594000000E+02  0.51100000000E-03 0. -1.
         11   -1    0    0    0    0 -0.00000000000E+00 -0.00000000000E+00 -0.45593999997E+02  0.45594000000E+02  0.51100000000E-03 0.  1.
         23    2    1    2    0    0 -0.35527136788E-14 -0.35527136788E-14  0.71054273576E-14  0.91188000000E+02  0.91188000000E+02 0.  0.
    9900012    2    3    3    0    0  0.30291858802E+02 -0.16628652875E+02  0.26258606336E+02  0.47787271748E+02  0.20000003206E+02 0.  0.
        -12    1    3    3    0    0 -0.30291858802E+02  0.16628652875E+02 -0.26258606336E+02  0.43400728252E+02  0.00000000000E+00 0.  1.
         11    1    4    4    0    0  0.10733794274E+02 -0.36015455719E+01  0.69479204717E+01  0.13283789714E+02  0.51100000000E-03 0. -1.
        -11    1    4    4    0    0  0.50791644050E+01  0.32468478073E+00 -0.20153590095E+01  0.54740299103E+01  0.51100000000E-03 0.  1.
        -12    1    4    4    0    0  0.14478900123E+02 -0.13351792084E+02  0.21326044874E+02  0.29029452123E+02  0.00000000000E+00 0.  1.
</event>
<event>
 8    1  0.8600524E-011  0.9118800E+02  0.7816164E-02  0.1184000E+00
        -11   -1    0    0    0    0  0.00000000000E+00  0.00000000000E+00  0.45593999997E+02  0.45594000000E+02  0.51100000000E-03 0.  1.
         11   -1    0    0    0    0 -0.00000000000E+00 -0.00000000000E+00 -0.45593999997E+02  0.45594000000E+02  0.51100000000E-03 0. -1.
         23    2    1    2    0    0  0.00000000000E+00 -0.71054273576E-14 -0.88817841970E-15  0.91188000000E+02  0.91188000000E+02 0.  0.
    9900012    2    3    3    0    0 -0.21919543718E+02 -0.36662894653E+02 -0.76804878630E+01  0.47787261124E+02  0.19999954769E+02 0.  0.
         12    1    3    3    0    0  0.21919543718E+02  0.36662894653E+02  0.76804878630E+01  0.43400738876E+02  0.00000000000E+00 0. -1.
         11    1    4    4    0    0 -0.24410974487E-01  0.15450259823E+00 -0.10241643330E+01  0.10360404387E+01  0.51100000000E-03 0.  1.
        -11    1    4    4    0    0 -0.16128643862E+00 -0.38672210946E+01  0.43009575274E+01  0.57861600586E+01  0.51100000000E-03 0. -1.
        -12    1    4    4    0    0 -0.21733846305E+02 -0.32950176157E+02 -0.10957281057E+02  0.40965060627E+02  0.00000000000E+00 0.  1.
</event>
<event>
 8    1  0.8600524E-011  0.9118800E+02  0.7816164E-02  0.1184000E+00
        -11   -1    0    0    0    0  0.00000000000E+00  0.00000000000E+00  0.45593999997E+02  0.45594000000E+02  0.51100000000E-03 0. -1.
         11   -1    0    0    0    0 -0.00000000000E+00 -0.00000000000E+00 -0.45593999997E+02  0.45594000000E+02  0.51100000000E-03 0.  1.
         23    2    1    2    0    0  0.00000000000E+00  0.00000000000E+00  0.00000000000E+00  0.91188000000E+02  0.91188000000E+02 0.  0.
    9900012    2    3    3    0    0 -0.24840418598E+02  0.22956024825E+02 -0.27195539630E+02  0.47787275954E+02  0.20000022386E+02 0.  0.
         12    1    3    3    0    0  0.24840418598E+02 -0.22956024825E+02  0.27195539630E+02  0.43400724046E+02  0.00000000000E+00 0. -1.
         11    1    4    4    0    0 -0.21944606009E+02  0.13305830791E+02 -0.16050130080E+02  0.30269085578E+02  0.51100000000E-03 0. -1.
        -11    1    4    4    0    0 -0.13341799189E+01  0.17457873240E+01 -0.88811130312E+01  0.91488785308E+01  0.51100000000E-03 0.  1.
         12    1    4    4    0    0 -0.15616326707E+01  0.79044067099E+01 -0.22642965192E+01  0.83693118451E+01  0.00000000000E+00 0. -1.
</event>
<event>
 8    1  0.8600524E-011  0.9118800E+02  0.7816164E-02  0.1184000E+00
        -11   -1    0    0    0    0  0.00000000000E+00  0.00000000000E+00  0.45593999997E+02  0.45594000000E+02  0.51100000000E-03 0.  1.
         11   -1    0    0    0    0 -0.00000000000E+00 -0.00000000000E+00 -0.45593999997E+02  0.45594000000E+02  0.51100000000E-03 0. -1.
         23    2    1    2    0    0  0.35527136788E-14  0.00000000000E+00  0.71054273576E-14  0.91188000000E+02  0.91188000000E+02 0.  0.
    9900012    2    3    3    0    0  0.20468186421E+02  0.25997634428E+01  0.38182713434E+02  0.47787250807E+02  0.19999907731E+02 0.  0.
        -12    1    3    3    0    0 -0.20468186421E+02 -0.25997634428E+01 -0.38182713434E+02  0.43400749193E+02  0.00000000000E+00 0.  1.
         11    1    4    4    0    0  0.99893031447E+01 -0.14174456915E+00  0.46184144911E+01  0.11006181059E+02  0.51100000000E-03 0. -1.
        -11    1    4    4    0    0 -0.11277505045E+01 -0.15051363166E+00  0.12545871839E+02  0.12597355913E+02  0.51100000000E-03 0.  1.
        -12    1    4    4    0    0  0.11606633781E+02  0.28920216436E+01  0.21018427104E+02  0.24183713834E+02  0.00000000000E+00 0.  1.
</event>
<event>
 8    1  0.8600524E-011  0.9118800E+02  0.7816164E-02  0.1184000E+00
        -11   -1    0    0    0    0  0.00000000000E+00  0.00000000000E+00  0.45593999997E+02  0.45594000000E+02  0.51100000000E-03 0. -1.
         11   -1    0    0    0    0 -0.00000000000E+00 -0.00000000000E+00 -0.45593999997E+02  0.45594000000E+02  0.51100000000E-03 0.  1.
         23    2    1    2    0    0  0.83266726847E-16  0.00000000000E+00  0.00000000000E+00  0.91188000000E+02  0.91188000000E+02 0.  0.
    9900012    2    3    3    0    0  0.23904941374E+00  0.12147423090E+02 -0.41665435904E+02  0.47787244460E+02  0.19999878790E+02 0.  0.
         12    1    3    3    0    0 -0.23904941374E+00 -0.12147423090E+02  0.41665435904E+02  0.43400755540E+02  0.00000000000E+00 0. -1.
         11    1    4    4    0    0  0.55605842007E+01  0.70547354877E+01 -0.25022467788E+02  0.26585960278E+02  0.51100000000E-03 0.  1.
        -11    1    4    4    0    0 -0.67210540202E+01  0.52256650378E+01 -0.58795843393E+01  0.10346480295E+02  0.51100000000E-03 0. -1.
         12    1    4    4    0    0  0.13995192332E+01 -0.13297743527E+00 -0.10763383777E+02  0.10854803887E+02  0.00000000000E+00 0. -1.
</event>
<event>
 8    1  0.8600524E-011  0.9118800E+02  0.7816164E-02  0.1184000E+00
        -11   -1    0    0    0    0  0.00000000000E+00  0.00000000000E+00  0.45593999997E+02  0.45594000000E+02  0.51100000000E-03 0. -1.
         11   -1    0    0    0    0 -0.00000000000E+00 -0.00000000000E+00 -0.45593999997E+02  0.45594000000E+02  0.51100000000E-03 0.  1.
         23    2    1    2    0    0  0.00000000000E+00  0.00000000000E+00  0.00000000000E+00  0.91188000000E+02  0.91188000000E+02 0.  0.
    9900012    2    3    3    0    0  0.13890538289E+02  0.33555266722E+02  0.23763867477E+02  0.47787258346E+02  0.19999942101E+02 0.  0.
        -12    1    3    3    0    0 -0.13890538289E+02 -0.33555266722E+02 -0.23763867477E+02  0.43400741654E+02  0.00000000000E+00 0.  1.
         11    1    4    4    0    0  0.10167690215E+02  0.26509953535E+02  0.20232684291E+02  0.34864323808E+02  0.51100000000E-03 0. -1.
        -11    1    4    4    0    0  0.11705118173E+01 -0.23750666084E+01  0.10814711151E+01  0.28601782013E+01  0.51100000000E-03 0.  1.
         12    1    4    4    0    0  0.25523362560E+01  0.94203797955E+01  0.24497120709E+01  0.10062756336E+02  0.00000000000E+00 0. -1.
</event>
<event>
 8    1  0.8600524E-011  0.9118800E+02  0.7816164E-02  0.1184000E+00
        -11   -1    0    0    0    0  0.00000000000E+00  0.00000000000E+00  0.45593999997E+02  0.45594000000E+02  0.51100000000E-03 0. -1.
         11   -1    0    0    0    0 -0.00000000000E+00 -0.00000000000E+00 -0.45593999997E+02  0.45594000000E+02  0.51100000000E-03 0.  1.
         23    2    1    2    0    0  0.00000000000E+00 -0.44408920985E-15  0.35527136788E-14  0.91188000000E+02  0.91188000000E+02 0.  0.
    9900012    2    3    3    0    0  0.29710440329E+02  0.29480031664E+01  0.31499560130E+02  0.47787271025E+02  0.19999999911E+02 0.  0.
        -12    1    3    3    0    0 -0.29710440329E+02 -0.29480031664E+01 -0.31499560130E+02  0.43400728975E+02  0.00000000000E+00 0.  1.
         11    1    4    4    0    0  0.20449847950E+02  0.48493475301E+01  0.18221112299E+02  0.27815847755E+02  0.51100000000E-03 0. -1.
        -11    1    4    4    0    0 -0.23155477769E+01  0.69223978134E+00  0.37905147708E+00  0.24463519177E+01  0.51100000000E-03 0.  1.
         12    1    4    4    0    0  0.11576140155E+02 -0.25935841451E+01  0.12899396353E+02  0.17525071352E+02  0.00000000000E+00 0. -1.
</event>
<event>
 8    1  0.8600524E-011  0.9118800E+02  0.7816164E-02  0.1184000E+00
        -11   -1    0    0    0    0  0.00000000000E+00  0.00000000000E+00  0.45593999997E+02  0.45594000000E+02  0.51100000000E-03 0.  1.
         11   -1    0    0    0    0 -0.00000000000E+00 -0.00000000000E+00 -0.45593999997E+02  0.45594000000E+02  0.51100000000E-03 0. -1.
         23    2    1    2    0    0 -0.71054273576E-14  0.13322676296E-14  0.00000000000E+00  0.91188000000E+02  0.91188000000E+02 0.  0.
    9900012    2    3    3    0    0 -0.43165824364E+02  0.25078880829E+01 -0.37477338527E+01  0.47787269537E+02  0.19999993127E+02 0.  0.
         12    1    3    3    0    0  0.43165824364E+02 -0.25078880829E+01  0.37477338527E+01  0.43400730463E+02  0.00000000000E+00 0. -1.
         11    1    4    4    0    0 -0.15262175223E+02 -0.23136712551E+01 -0.71404929156E+01  0.17008048287E+02  0.51100000000E-03 0. -1.
        -11    1    4    4    0    0 -0.19457915221E+02  0.86288347774E+01  0.31039264346E+01  0.21510500086E+02  0.51100000000E-03 0.  1.
        -12    1    4    4    0    0 -0.84457339202E+01 -0.38072754395E+01  0.28883262837E+00  0.92687211637E+01  0.00000000000E+00 0.  1.
</event>
<event>
 8    1  0.8600524E-011  0.9118800E+02  0.7816164E-02  0.1184000E+00
        -11   -1    0    0    0    0  0.00000000000E+00  0.00000000000E+00  0.45593999997E+02  0.45594000000E+02  0.51100000000E-03 0. -1.
         11   -1    0    0    0    0 -0.00000000000E+00 -0.00000000000E+00 -0.45593999997E+02  0.45594000000E+02  0.51100000000E-03 0.  1.
         23    2    1    2    0    0  0.00000000000E+00 -0.88817841970E-15  0.00000000000E+00  0.91188000000E+02  0.91188000000E+02 0.  0.
    9900012    2    3    3    0    0  0.17941655451E+01  0.47131006627E+01  0.43106731311E+02  0.47787278437E+02  0.20000033706E+02 0.  0.
        -12    1    3    3    0    0 -0.17941655451E+01 -0.47131006627E+01 -0.43106731311E+02  0.43400721563E+02  0.00000000000E+00 0.  1.
         11    1    4    4    0    0  0.19853128485E+01  0.83861438988E+01  0.10874524269E+02  0.13875307382E+02  0.51100000000E-03 0. -1.
        -11    1    4    4    0    0 -0.17806967826E+00  0.33912701282E+01  0.85900376087E+01  0.92369458303E+01  0.51100000000E-03 0.  1.
         12    1    4    4    0    0 -0.13077625074E-01 -0.70643133643E+01  0.23642169433E+02  0.24675025225E+02  0.00000000000E+00 0. -1.
</event>
<event>
 8    1  0.8600524E-011  0.9118800E+02  0.7816164E-02  0.1184000E+00
        -11   -1    0    0    0    0  0.00000000000E+00  0.00000000000E+00  0.45593999997E+02  0.45594000000E+02  0.51100000000E-03 0. -1.
         11   -1    0    0    0    0 -0.00000000000E+00 -0.00000000000E+00 -0.45593999997E+02  0.45594000000E+02  0.51100000000E-03 0.  1.
         23    2    1    2    0    0 -0.35527136788E-14 -0.44408920985E-15 -0.71054273576E-14  0.91188000000E+02  0.91188000000E+02 0.  0.
    9900012    2    3    3    0    0 -0.18352293827E+02  0.14542927779E+01 -0.39302691594E+02  0.47787271634E+02  0.20000002687E+02 0.  0.
         12    1    3    3    0    0  0.18352293827E+02 -0.14542927779E+01  0.39302691594E+02  0.43400728366E+02  0.00000000000E+00 0. -1.
         11    1    4    4    0    0 -0.83645387703E+01 -0.48816815436E+01 -0.54279007906E+01  0.11102181353E+02  0.51100000000E-03 0. -1.
        -11    1    4    4    0    0 -0.10209759423E+02  0.29593214940E+01 -0.27152100285E+02  0.29158760627E+02  0.51100000000E-03 0.  1.
         12    1    4    4    0    0  0.22200436588E+00  0.33766528275E+01 -0.67226905185E+01  0.75263296541E+01  0.00000000000E+00 0. -1.
</event>
<event>
 8    1  0.8600524E-011  0.9118800E+02  0.7816164E-02  0.1184000E+00
        -11   -1    0    0    0    0  0.00000000000E+00  0.00000000000E+00  0.45593999997E+02  0.45594000000E+02  0.51100000000E-03 0. -1.
         11   -1    0    0    0    0 -0.00000000000E+00 -0.00000000000E+00 -0.45593999997E+02  0.45594000000E+02  0.51100000000E-03 0.  1.
         23    2    1    2    0    0  0.00000000000E+00  0.11102230246E-14  0.00000000000E+00  0.91188000000E+02  0.91188000000E+02 0.  0.
    9900012    2    3    3    0    0 -0.29669956888E+01  0.89202379846E+00 -0.43290027640E+02  0.47787248129E+02  0.19999895518E+02 0.  0.
         12    1    3    3    0    0  0.29669956888E+01 -0.89202379846E+00  0.43290027640E+02  0.43400751871E+02  0.00000000000E+00 0. -1.
         11    1    4    4    0    0 -0.30932066389E+01 -0.66848857262E+01 -0.73963854205E+01  0.10438493284E+02  0.51100000000E-03 0. -1.
        -11    1    4    4    0    0  0.41097468558E+00  0.29228653769E+01 -0.28188580075E+02  0.28342690223E+02  0.51100000000E-03 0.  1.
         12    1    4    4    0    0 -0.28476373548E+00  0.46540441477E+01 -0.77050621452E+01  0.90060646220E+01  0.00000000000E+00 0. -1.
</event>
<event>
 8    1  0.8600524E-011  0.9118800E+02  0.7816164E-02  0.1184000E+00
        -11   -1    0    0    0    0  0.00000000000E+00  0.00000000000E+00  0.45593999997E+02  0.45594000000E+02  0.51100000000E-03 0. -1.
         11   -1    0    0    0    0 -0.00000000000E+00 -0.00000000000E+00 -0.45593999997E+02  0.45594000000E+02  0.51100000000E-03 0.  1.
         23    2    1    2    0    0  0.00000000000E+00 -0.26645352591E-14 -0.71054273576E-14  0.91188000000E+02  0.91188000000E+02 0.  0.
    9900012    2    3    3    0    0  0.21537950995E+01  0.72868824958E+01  0.42730384303E+02  0.47787271520E+02  0.20000002170E+02 0.  0.
        -12    1    3    3    0    0 -0.21537950995E+01 -0.72868824958E+01 -0.42730384303E+02  0.43400728480E+02  0.00000000000E+00 0.  1.
         11    1    4    4    0    0 -0.53743613560E+00  0.68201418016E+01  0.16500004815E+02  0.17862064017E+02  0.51100000000E-03 0. -1.
        -11    1    4    4    0    0  0.75968944589E+01 -0.27235873949E+01  0.18860698961E+02  0.20514792207E+02  0.51100000000E-03 0.  1.
        -12    1    4    4    0    0 -0.49056632238E+01  0.31903280891E+01  0.73696805270E+01  0.94104152964E+01  0.00000000000E+00 0.  1.
</event>
<event>
 8    1  0.8600524E-011  0.9118800E+02  0.7816164E-02  0.1184000E+00
        -11   -1    0    0    0    0  0.00000000000E+00  0.00000000000E+00  0.45593999997E+02  0.45594000000E+02  0.51100000000E-03 0. -1.
         11   -1    0    0    0    0 -0.00000000000E+00 -0.00000000000E+00 -0.45593999997E+02  0.45594000000E+02  0.51100000000E-03 0.  1.
         23    2    1    2    0    0  0.00000000000E+00  0.17763568394E-14  0.00000000000E+00  0.91188000000E+02  0.91188000000E+02 0.  0.
    9900012    2    3    3    0    0 -0.11355042056E+02  0.61773791650E+01 -0.41430979185E+02  0.47787273858E+02  0.20000012829E+02 0.  0.
         12    1    3    3    0    0  0.11355042056E+02 -0.61773791650E+01  0.41430979185E+02  0.43400726142E+02  0.00000000000E+00 0. -1.
         11    1    4    4    0    0 -0.43150231322E+01 -0.33363443770E+01 -0.46206316743E+01  0.71484862568E+01  0.51100000000E-03 0. -1.
        -11    1    4    4    0    0 -0.38023409013E+01  0.11781794694E+02 -0.32560416360E+02  0.34834597692E+02  0.51100000000E-03 0.  1.
        -12    1    4    4    0    0 -0.32376780222E+01 -0.22680711518E+01 -0.42499311503E+01  0.58041899097E+01  0.00000000000E+00 0.  1.
</event>
<event>
 8    1  0.8600524E-011  0.9118800E+02  0.7816164E-02  0.1184000E+00
        -11   -1    0    0    0    0  0.00000000000E+00  0.00000000000E+00  0.45593999997E+02  0.45594000000E+02  0.51100000000E-03 0. -1.
         11   -1    0    0    0    0 -0.00000000000E+00 -0.00000000000E+00 -0.45593999997E+02  0.45594000000E+02  0.51100000000E-03 0.  1.
         23    2    1    2    0    0  0.00000000000E+00  0.00000000000E+00  0.00000000000E+00  0.91188000000E+02  0.91188000000E+02 0.  0.
    9900012    2    3    3    0    0  0.30425757649E+02  0.17578660909E+02 -0.25473255150E+02  0.47787276782E+02  0.20000026162E+02 0.  0.
         12    1    3    3    0    0 -0.30425757649E+02 -0.17578660909E+02  0.25473255150E+02  0.43400723218E+02  0.00000000000E+00 0. -1.
         11    1    4    4    0    0  0.14164941326E+02  0.28917885577E+01 -0.12826028753E+02  0.19326536618E+02  0.51100000000E-03 0. -1.
        -11    1    4    4    0    0  0.29930592981E+01  0.79027584732E+01  0.66800422793E+00  0.84769231068E+01  0.51100000000E-03 0.  1.
        -12    1    4    4    0    0  0.13267757025E+02  0.67841138780E+01 -0.13315230625E+02  0.19983817057E+02  0.00000000000E+00 0.  1.
</event>
<event>
 8    1  0.8600524E-011  0.9118800E+02  0.7816164E-02  0.1184000E+00
        -11   -1    0    0    0    0  0.00000000000E+00  0.00000000000E+00  0.45593999997E+02  0.45594000000E+02  0.51100000000E-03 0. -1.
         11   -1    0    0    0    0 -0.00000000000E+00 -0.00000000000E+00 -0.45593999997E+02  0.45594000000E+02  0.51100000000E-03 0.  1.
         23    2    1    2    0    0  0.00000000000E+00 -0.35527136788E-14  0.35527136788E-14  0.91188000000E+02  0.91188000000E+02 0.  0.
    9900012    2    3    3    0    0 -0.34213106499E+02  0.19386643853E+02 -0.18364213427E+02  0.47787274764E+02  0.20000016960E+02 0.  0.
         12    1    3    3    0    0  0.34213106499E+02 -0.19386643853E+02  0.18364213427E+02  0.43400725236E+02  0.00000000000E+00 0. -1.
         11    1    4    4    0    0 -0.45019906425E+01  0.30031546682E+01  0.22916783110E+01  0.58769590307E+01  0.51100000000E-03 0. -1.
        -11    1    4    4    0    0 -0.14300846965E+02  0.14652444556E+02 -0.15089848400E+02  0.25434462455E+02  0.51100000000E-03 0.  1.
        -12    1    4    4    0    0 -0.15410268891E+02  0.17310446289E+01 -0.55660433382E+01  0.16475853278E+02  0.00000000000E+00 0.  1.
</event>
<event>
 8    1  0.8600524E-011  0.9118800E+02  0.7816164E-02  0.1184000E+00
        -11   -1    0    0    0    0  0.00000000000E+00  0.00000000000E+00  0.45593999997E+02  0.45594000000E+02  0.51100000000E-03 0. -1.
         11   -1    0    0    0    0 -0.00000000000E+00 -0.00000000000E+00 -0.45593999997E+02  0.45594000000E+02  0.51100000000E-03 0.  1.
         23    2    1    2    0    0  0.35527136788E-14  0.00000000000E+00  0.00000000000E+00  0.91188000000E+02  0.91188000000E+02 0.  0.
    9900012    2    3    3    0    0 -0.25685308986E+02 -0.10151987717E+02  0.33478727380E+02  0.47787272595E+02  0.20000007070E+02 0.  0.
        -12    1    3    3    0    0  0.25685308986E+02  0.10151987717E+02 -0.33478727380E+02  0.43400727405E+02  0.00000000000E+00 0.  1.
         11    1    4    4    0    0 -0.85869990183E+01  0.31924064580E+01  0.14996872527E+02  0.17573679096E+02  0.51100000000E-03 0. -1.
        -11    1    4    4    0    0 -0.13303687123E+01  0.44829870266E+00 -0.90505061051E+00  0.16703201808E+01  0.51100000000E-03 0.  1.
         12    1    4    4    0    0 -0.15767941255E+02 -0.13792692878E+02  0.19386905464E+02  0.28543273318E+02  0.00000000000E+00 0. -1.
</event>
<event>
 8    1  0.8600524E-011  0.9118800E+02  0.7816164E-02  0.1184000E+00
        -11   -1    0    0    0    0  0.00000000000E+00  0.00000000000E+00  0.45593999997E+02  0.45594000000E+02  0.51100000000E-03 0. -1.
         11   -1    0    0    0    0 -0.00000000000E+00 -0.00000000000E+00 -0.45593999997E+02  0.45594000000E+02  0.51100000000E-03 0.  1.
         23    2    1    2    0    0  0.00000000000E+00  0.00000000000E+00  0.00000000000E+00  0.91188000000E+02  0.91188000000E+02 0.  0.
    9900012    2    3    3    0    0 -0.33607028100E+02  0.59401132175E+01  0.26812423433E+02  0.47787270362E+02  0.19999996890E+02 0.  0.
        -12    1    3    3    0    0  0.33607028100E+02 -0.59401132175E+01 -0.26812423433E+02  0.43400729638E+02  0.00000000000E+00 0.  1.
         11    1    4    4    0    0 -0.24579753012E+02 -0.94403443318E+00  0.24095905788E+02  0.34433532133E+02  0.51100000000E-03 0. -1.
        -11    1    4    4    0    0 -0.43739391510E+01  0.41526904677E+01 -0.18247442725E+01  0.63012596946E+01  0.51100000000E-03 0.  1.
         12    1    4    4    0    0 -0.46533359363E+01  0.27314571830E+01  0.45412619181E+01  0.70524785351E+01  0.00000000000E+00 0. -1.
</event>
<event>
 8    1  0.8600524E-011  0.9118800E+02  0.7816164E-02  0.1184000E+00
        -11   -1    0    0    0    0  0.00000000000E+00  0.00000000000E+00  0.45593999997E+02  0.45594000000E+02  0.51100000000E-03 0.  1.
         11   -1    0    0    0    0 -0.00000000000E+00 -0.00000000000E+00 -0.45593999997E+02  0.45594000000E+02  0.51100000000E-03 0. -1.
         23    2    1    2    0    0  0.00000000000E+00  0.00000000000E+00  0.00000000000E+00  0.91188000000E+02  0.91188000000E+02 0.  0.
    9900012    2    3    3    0    0 -0.38190999830E+02  0.16018985992E+02 -0.12979329319E+02  0.47787269940E+02  0.19999994963E+02 0.  0.
         12    1    3    3    0    0  0.38190999830E+02 -0.16018985992E+02  0.12979329319E+02  0.43400730060E+02  0.00000000000E+00 0. -1.
         11    1    4    4    0    0  0.18157155842E+01 -0.49114287994E+00 -0.81268831384E+00  0.20490258583E+01  0.51100000000E-03 0. -1.
        -11    1    4    4    0    0 -0.29110717650E+02  0.86429844411E+01 -0.10798308753E+02  0.32229466864E+02  0.51100000000E-03 0.  1.
        -12    1    4    4    0    0 -0.10895997764E+02  0.78671444304E+01 -0.13683322518E+01  0.13508777218E+02  0.00000000000E+00 0.  1.
</event>
<event>
 8    1  0.8600524E-011  0.9118800E+02  0.7816164E-02  0.1184000E+00
        -11   -1    0    0    0    0  0.00000000000E+00  0.00000000000E+00  0.45593999997E+02  0.45594000000E+02  0.51100000000E-03 0. -1.
         11   -1    0    0    0    0 -0.00000000000E+00 -0.00000000000E+00 -0.45593999997E+02  0.45594000000E+02  0.51100000000E-03 0.  1.
         23    2    1    2    0    0  0.00000000000E+00  0.00000000000E+00 -0.71054273576E-14  0.91188000000E+02  0.91188000000E+02 0.  0.
    9900012    2    3    3    0    0 -0.22933313209E+02 -0.17986247117E+02  0.32158687945E+02  0.47787272467E+02  0.20000006486E+02 0.  0.
        -12    1    3    3    0    0  0.22933313209E+02  0.17986247117E+02 -0.32158687945E+02  0.43400727533E+02  0.00000000000E+00 0.  1.
         11    1    4    4    0    0 -0.10758963145E+02 -0.67966076988E+01  0.25791806275E+02  0.28760501306E+02  0.51100000000E-03 0. -1.
        -11    1    4    4    0    0 -0.12401686747E+00 -0.34020648487E+01  0.23185091075E+01  0.41188481595E+01  0.51100000000E-03 0.  1.
         12    1    4    4    0    0 -0.12050333197E+02 -0.77875745693E+01  0.40483725619E+01  0.14907923002E+02  0.00000000000E+00 0. -1.
</event>
