<event>
 7    1  0.4119305E-015  0.9000787E+02  0.7816164E-02  0.1186339E+00
        -11   -1    0    0    0    0  0.00000000000E+00  0.00000000000E+00  0.45593999997E+02  0.45594000000E+02  0.51100000000E-03 0.  1.
         11   -1    0    0    0    0 -0.00000000000E+00 -0.00000000000E+00 -0.45593999997E+02  0.45594000000E+02  0.51100000000E-03 0. -1.
    9900012    2    1    2    0    0 -0.26906926995E+00  0.10599254400E+01  0.44369614893E+00  0.90007870141E+02  0.90000133227E+02 0.  0.
         12    1    1    2    0    0  0.26906926995E+00 -0.10599254400E+01 -0.44369614893E+00  0.11801298586E+01  0.00000000000E+00 0. -1.
         11    1    3    3    0    0  0.49484588949E+01  0.88469972559E+01 -0.16806586398E+01  0.10275272240E+02  0.51100000000E-03 0. -1.
        -11    1    3    3    0    0 -0.33220646146E+02 -0.28786342972E+02  0.65829139305E+01  0.44447717919E+02  0.51100000000E-03 0.  1.
         12    1    3    3    0    0  0.28003117982E+02  0.20999271156E+02 -0.44585591417E+01  0.35284879983E+02  0.00000000000E+00 0. -1.
</event>
<event>
 7    1  0.4119305E-015  0.9000768E+02  0.7816164E-02  0.1186339E+00
        -11   -1    0    0    0    0  0.00000000000E+00  0.00000000000E+00  0.45593999997E+02  0.45594000000E+02  0.51100000000E-03 0.  1.
         11   -1    0    0    0    0 -0.00000000000E+00 -0.00000000000E+00 -0.45593999997E+02  0.45594000000E+02  0.51100000000E-03 0. -1.
    9900012    2    1    2    0    0 -0.81868972893E+00  0.81029069040E+00  0.25754655793E+00  0.90007680507E+02  0.89999941090E+02 0.  0.
         12    1    1    2    0    0  0.81868972893E+00 -0.81029069040E+00 -0.25754655793E+00  0.11803194926E+01  0.00000000000E+00 0. -1.
         11    1    3    3    0    0 -0.90885094347E+01 -0.30687290002E+01 -0.94712908226E+00  0.96392507583E+01  0.51100000000E-03 0. -1.
        -11    1    3    3    0    0 -0.18218349510E+02 -0.29876682058E+02  0.10360570895E+02  0.36494736870E+02  0.51100000000E-03 0.  1.
         12    1    3    3    0    0  0.26488169216E+02  0.33755701748E+02 -0.91558952550E+01  0.43873692879E+02  0.00000000000E+00 0. -1.
</event>
<event>
 7    1  0.4119305E-015  0.9000782E+02  0.7816164E-02  0.1186339E+00
        -11   -1    0    0    0    0  0.00000000000E+00  0.00000000000E+00  0.45593999997E+02  0.45594000000E+02  0.51100000000E-03 0. -1.
         11   -1    0    0    0    0 -0.00000000000E+00 -0.00000000000E+00 -0.45593999997E+02  0.45594000000E+02  0.51100000000E-03 0.  1.
    9900012    2    1    2    0    0  0.11001283711E+01  0.20054490722E+00 -0.37727359002E+00  0.90007815246E+02  0.90000077607E+02 0.  0.
         12    1    1    2    0    0 -0.11001283711E+01 -0.20054490722E+00  0.37727359002E+00  0.11801847544E+01  0.00000000000E+00 0. -1.
         11    1    3    3    0    0  0.12344567623E+02  0.26233122695E+01  0.43838665105E+01  0.13359955199E+02  0.51100000000E-03 0. -1.
        -11    1    3    3    0    0  0.24707496986E+02  0.21958697003E+02 -0.24950282512E+01  0.33149207346E+02  0.51100000000E-03 0.  1.
         12    1    3    3    0    0 -0.35951936238E+02 -0.24381464366E+02 -0.22661118493E+01  0.43498652701E+02  0.00000000000E+00 0. -1.
</event>
<event>
 7    1  0.4119305E-015  0.9000777E+02  0.7816164E-02  0.1186339E+00
        -11   -1    0    0    0    0  0.00000000000E+00  0.00000000000E+00  0.45593999997E+02  0.45594000000E+02  0.51100000000E-03 0. -1.
         11   -1    0    0    0    0 -0.00000000000E+00 -0.00000000000E+00 -0.45593999997E+02  0.45594000000E+02  0.51100000000E-03 0.  1.
    9900012    2    1    2    0    0 -0.15414005458E+00 -0.11255230802E+01  0.31997792199E+00  0.90007768145E+02  0.90000029885E+02 0.  0.
         12    1    1    2    0    0  0.15414005458E+00  0.11255230802E+01 -0.31997792199E+00  0.11802318548E+01  0.00000000000E+00 0. -1.
         11    1    3    3    0    0  0.18870964811E+01  0.89054178948E+01  0.20291740805E+01  0.93265829069E+01  0.51100000000E-03 0. -1.
        -11    1    3    3    0    0  0.28061653550E+02  0.19205210257E+02  0.12720940687E+02  0.36305906313E+02  0.51100000000E-03 0.  1.
         12    1    3    3    0    0 -0.30102890085E+02 -0.29236151232E+02 -0.14430136846E+02  0.44375278926E+02  0.00000000000E+00 0. -1.
</event>
<event>
 7    1  0.4119305E-015  0.9000773E+02  0.7816164E-02  0.1186339E+00
        -11   -1    0    0    0    0  0.00000000000E+00  0.00000000000E+00  0.45593999997E+02  0.45594000000E+02  0.51100000000E-03 0.  1.
         11   -1    0    0    0    0 -0.00000000000E+00 -0.00000000000E+00 -0.45593999997E+02  0.45594000000E+02  0.51100000000E-03 0. -1.
    9900012    2    1    2    0    0 -0.71508147249E+00 -0.76135322100E+00  0.54958439794E+00  0.90007727468E+02  0.89999988671E+02 0.  0.
         12    1    1    2    0    0  0.71508147249E+00  0.76135322100E+00 -0.54958439794E+00  0.11802725320E+01  0.00000000000E+00 0. -1.
         11    1    3    3    0    0  0.74439524349E+01 -0.26326697255E+01 -0.64462066600E+01  0.10192985740E+02  0.51100000000E-03 0. -1.
        -11    1    3    3    0    0  0.33324489056E+02  0.13831537648E+02  0.63576999068E+01  0.36636775963E+02  0.51100000000E-03 0.  1.
         12    1    3    3    0    0 -0.41483522964E+02 -0.11960221144E+02  0.63809115115E+00  0.43177965765E+02  0.00000000000E+00 0. -1.
</event>
<event>
 7    1  0.4119305E-015  0.9000794E+02  0.7816164E-02  0.1186339E+00
        -11   -1    0    0    0    0  0.00000000000E+00  0.00000000000E+00  0.45593999997E+02  0.45594000000E+02  0.51100000000E-03 0.  1.
         11   -1    0    0    0    0 -0.00000000000E+00 -0.00000000000E+00 -0.45593999997E+02  0.45594000000E+02  0.51100000000E-03 0. -1.
    9900012    2    1    2    0    0  0.59322926188E+00 -0.65160260765E-01  0.10180235830E+01  0.90007941174E+02  0.90000205197E+02 0.  0.
         12    1    1    2    0    0 -0.59322926188E+00  0.65160260765E-01 -0.10180235830E+01  0.11800588258E+01  0.00000000000E+00 0. -1.
         11    1    3    3    0    0 -0.85007873316E+01 -0.52720634630E+00 -0.18731622522E+01  0.87206690611E+01  0.51100000000E-03 0. -1.
        -11    1    3    3    0    0  0.17853076763E+02  0.38313029135E+02 -0.66464109902E+00  0.42273659642E+02  0.51100000000E-03 0.  1.
         12    1    3    3    0    0 -0.87590601698E+01 -0.37850983050E+02  0.35558269342E+01  0.39013612472E+02  0.00000000000E+00 0. -1.
</event>
<event>
 7    1  0.4119305E-015  0.9000773E+02  0.7816164E-02  0.1186339E+00
        -11   -1    0    0    0    0  0.00000000000E+00  0.00000000000E+00  0.45593999997E+02  0.45594000000E+02  0.51100000000E-03 0.  1.
         11   -1    0    0    0    0 -0.00000000000E+00 -0.00000000000E+00 -0.45593999997E+02  0.45594000000E+02  0.51100000000E-03 0. -1.
    9900012    2    1    2    0    0 -0.10703319965E+01 -0.69461462218E-01 -0.49253447591E+00  0.90007734908E+02  0.89999996209E+02 0.  0.
         12    1    1    2    0    0  0.10703319965E+01  0.69461462218E-01  0.49253447591E+00  0.11802650920E+01  0.00000000000E+00 0. -1.
         11    1    3    3    0    0 -0.27339738923E+02 -0.22456261495E+02 -0.13270502731E+02  0.37786919002E+02  0.51100000000E-03 0. -1.
        -11    1    3    3    0    0  0.28133681293E+01 -0.30555760208E+01 -0.99754586678E+01  0.10805617101E+02  0.51100000000E-03 0.  1.
        -12    1    3    3    0    0  0.23456038797E+02  0.25442376053E+02  0.22753426923E+02  0.41415198804E+02  0.00000000000E+00 0.  1.
</event>
<event>
 7    1  0.4119305E-015  0.9000736E+02  0.7816164E-02  0.1186340E+00
        -11   -1    0    0    0    0  0.00000000000E+00  0.00000000000E+00  0.45593999997E+02  0.45594000000E+02  0.51100000000E-03 0. -1.
         11   -1    0    0    0    0 -0.00000000000E+00 -0.00000000000E+00 -0.45593999997E+02  0.45594000000E+02  0.51100000000E-03 0.  1.
    9900012    2    1    2    0    0 -0.34076077319E+00 -0.64205399492E+00  0.93035920214E+00  0.90007356327E+02  0.89999612630E+02 0.  0.
         12    1    1    2    0    0  0.34076077319E+00  0.64205399492E+00 -0.93035920214E+00  0.11806436727E+01  0.00000000000E+00 0. -1.
         11    1    3    3    0    0  0.19755235245E+02 -0.37898836344E+02  0.57266914437E+01  0.43120599613E+02  0.51100000000E-03 0. -1.
        -11    1    3    3    0    0  0.27695946912E+01  0.89297708610E+01  0.26736762268E+01  0.97241969956E+01  0.51100000000E-03 0.  1.
        -12    1    3    3    0    0 -0.22865590710E+02  0.28327011488E+02 -0.74700084683E+01  0.37162559719E+02  0.00000000000E+00 0.  1.
</event>
<event>
 7    1  0.4119305E-015  0.9000776E+02  0.7816164E-02  0.1186339E+00
        -11   -1    0    0    0    0  0.00000000000E+00  0.00000000000E+00  0.45593999997E+02  0.45594000000E+02  0.51100000000E-03 0.  1.
         11   -1    0    0    0    0 -0.00000000000E+00 -0.00000000000E+00 -0.45593999997E+02  0.45594000000E+02  0.51100000000E-03 0. -1.
    9900012    2    1    2    0    0  0.30325556738E+00  0.21282087372E+00  0.11205874824E+01  0.90007757241E+02  0.90000018837E+02 0.  0.
         12    1    1    2    0    0 -0.30325556738E+00 -0.21282087372E+00 -0.11205874824E+01  0.11802427585E+01  0.00000000000E+00 0. -1.
         11    1    3    3    0    0 -0.64045872232E+01  0.95577306159E+00 -0.50187765845E+01  0.81927015271E+01  0.51100000000E-03 0. -1.
        -11    1    3    3    0    0  0.63059535979E+01  0.14761599321E+02  0.40799121646E+02  0.43843336924E+02  0.51100000000E-03 0.  1.
         12    1    3    3    0    0  0.40188919276E+00 -0.15504551509E+02 -0.34659757580E+02  0.37971718790E+02  0.00000000000E+00 0. -1.
</event>
<event>
 7    1  0.4119305E-015  0.9000775E+02  0.7816164E-02  0.1186339E+00
        -11   -1    0    0    0    0  0.00000000000E+00  0.00000000000E+00  0.45593999997E+02  0.45594000000E+02  0.51100000000E-03 0.  1.
         11   -1    0    0    0    0 -0.00000000000E+00 -0.00000000000E+00 -0.45593999997E+02  0.45594000000E+02  0.51100000000E-03 0. -1.
    9900012    2    1    2    0    0 -0.61756162704E+00 -0.16493328819E+00  0.99217076358E+00  0.90007750799E+02  0.90000012309E+02 0.  0.
         12    1    1    2    0    0  0.61756162704E+00  0.16493328819E+00 -0.99217076358E+00  0.11802492012E+01  0.00000000000E+00 0. -1.
         11    1    3    3    0    0  0.10374225696E+02  0.23059005242E+02 -0.33499530001E+02  0.41970951765E+02  0.51100000000E-03 0. -1.
        -11    1    3    3    0    0  0.61686725440E+01 -0.51632219558E+01  0.51792188909E+01  0.95674286254E+01  0.51100000000E-03 0.  1.
        -12    1    3    3    0    0 -0.17160459867E+02 -0.18060716574E+02  0.29312481874E+02  0.38469370408E+02  0.00000000000E+00 0.  1.
</event>
<event>
 7    1  0.4119305E-015  0.9000775E+02  0.7816164E-02  0.1186339E+00
        -11   -1    0    0    0    0  0.00000000000E+00  0.00000000000E+00  0.45593999997E+02  0.45594000000E+02  0.51100000000E-03 0. -1.
         11   -1    0    0    0    0 -0.00000000000E+00 -0.00000000000E+00 -0.45593999997E+02  0.45594000000E+02  0.51100000000E-03 0.  1.
    9900012    2    1    2    0    0  0.30604995540E+00  0.81777877313E+00  0.79407716766E+00  0.90007751194E+02  0.90000012709E+02 0.  0.
         12    1    1    2    0    0 -0.30604995540E+00 -0.81777877313E+00 -0.79407716766E+00  0.11802488065E+01  0.00000000000E+00 0. -1.
         11    1    3    3    0    0  0.12852930310E+02  0.70208858687E+01  0.24824299587E+01  0.14854397150E+02  0.51100000000E-03 0. -1.
        -11    1    3    3    0    0  0.21006998048E+02  0.10359558007E+02 -0.22378919705E+02  0.32394914053E+02  0.51100000000E-03 0.  1.
         12    1    3    3    0    0 -0.33553878402E+02 -0.16562665103E+02  0.20690566914E+02  0.42758439990E+02  0.00000000000E+00 0. -1.
</event>
<event>
 7    1  0.4119305E-015  0.9000862E+02  0.7816164E-02  0.1186337E+00
        -11   -1    0    0    0    0  0.00000000000E+00  0.00000000000E+00  0.45593999997E+02  0.45594000000E+02  0.51100000000E-03 0.  1.
         11   -1    0    0    0    0 -0.00000000000E+00 -0.00000000000E+00 -0.45593999997E+02  0.45594000000E+02  0.51100000000E-03 0. -1.
    9900012    2    1    2    0    0  0.92666473029E-01 -0.11705296098E+01 -0.11045421882E+00  0.90008624412E+02  0.90000897450E+02 0.  0.
         12    1    1    2    0    0 -0.92666473029E-01  0.11705296098E+01  0.11045421882E+00  0.11793755878E+01  0.00000000000E+00 0. -1.
         11    1    3    3    0    0 -0.15254436710E+01  0.80207240459E+01  0.25903968535E+01  0.85655792994E+01  0.51100000000E-03 0. -1.
        -11    1    3    3    0    0 -0.20060535573E+02 -0.65674437202E+01  0.33247416349E+02  0.39382065698E+02  0.51100000000E-03 0.  1.
         12    1    3    3    0    0  0.21678645717E+02 -0.26238099356E+01 -0.35948267422E+02  0.42060979415E+02  0.00000000000E+00 0. -1.
</event>
<event>
 7    1  0.4119305E-015  0.9000778E+02  0.7816164E-02  0.1186339E+00
        -11   -1    0    0    0    0  0.00000000000E+00  0.00000000000E+00  0.45593999997E+02  0.45594000000E+02  0.51100000000E-03 0.  1.
         11   -1    0    0    0    0 -0.00000000000E+00 -0.00000000000E+00 -0.45593999997E+02  0.45594000000E+02  0.51100000000E-03 0. -1.
    9900012    2    1    2    0    0  0.39610968500E+00  0.11114251653E+01 -0.27553788860E-01  0.90007776296E+02  0.90000038143E+02 0.  0.
         12    1    1    2    0    0 -0.39610968500E+00 -0.11114251653E+01  0.27553788860E-01  0.11802237041E+01  0.00000000000E+00 0. -1.
         11    1    3    3    0    0 -0.66760747050E+00  0.63985805462E+01  0.74824190792E+01  0.98678330082E+01  0.51100000000E-03 0. -1.
        -11    1    3    3    0    0  0.18211662067E+02  0.18168679962E+02  0.25460259541E+02  0.36193789287E+02  0.51100000000E-03 0.  1.
         12    1    3    3    0    0 -0.17147944912E+02 -0.23455835342E+02 -0.32970232409E+02  0.43946154000E+02  0.00000000000E+00 0. -1.
</event>
<event>
 7    1  0.4119305E-015  0.9000784E+02  0.7816164E-02  0.1186339E+00
        -11   -1    0    0    0    0  0.00000000000E+00  0.00000000000E+00  0.45593999997E+02  0.45594000000E+02  0.51100000000E-03 0.  1.
         11   -1    0    0    0    0 -0.00000000000E+00 -0.00000000000E+00 -0.45593999997E+02  0.45594000000E+02  0.51100000000E-03 0. -1.
    9900012    2    1    2    0    0 -0.54107240821E+00  0.80443408727E+00  0.67298658713E+00  0.90007837088E+02  0.90000099738E+02 0.  0.
         12    1    1    2    0    0  0.54107240821E+00 -0.80443408727E+00 -0.67298658713E+00  0.11801629117E+01  0.00000000000E+00 0. -1.
         11    1    3    3    0    0  0.27710278602E+02  0.11486118868E+02 -0.25997657979E+02  0.39694693443E+02  0.51100000000E-03 0. -1.
        -11    1    3    3    0    0  0.55329319683E+01  0.40925352431E+00  0.90823102487E+01  0.10642799647E+02  0.51100000000E-03 0.  1.
        -12    1    3    3    0    0 -0.33784282979E+02 -0.11090938305E+02  0.17588334318E+02  0.39670343998E+02  0.00000000000E+00 0.  1.
</event>
<event>
 7    1  0.4119305E-015  0.9000786E+02  0.7816164E-02  0.1186339E+00
        -11   -1    0    0    0    0  0.00000000000E+00  0.00000000000E+00  0.45593999997E+02  0.45594000000E+02  0.51100000000E-03 0.  1.
         11   -1    0    0    0    0 -0.00000000000E+00 -0.00000000000E+00 -0.45593999997E+02  0.45594000000E+02  0.51100000000E-03 0. -1.
    9900012    2    1    2    0    0 -0.27909089214E+00  0.10753460375E+01 -0.39806961975E+00  0.90007864309E+02  0.90000127318E+02 0.  0.
         12    1    1    2    0    0  0.27909089214E+00 -0.10753460375E+01  0.39806961975E+00  0.11801356908E+01  0.00000000000E+00 0. -1.
         11    1    3    3    0    0 -0.69870232094E+01 -0.13235492322E+01 -0.79397148584E+01  0.10658768606E+02  0.51100000000E-03 0. -1.
        -11    1    3    3    0    0 -0.32339662434E+02 -0.95026477595E+01 -0.96417910010E+01  0.35058782278E+02  0.51100000000E-03 0.  1.
         12    1    3    3    0    0  0.39047594752E+02  0.11901543029E+02  0.17183436240E+02  0.44290313426E+02  0.00000000000E+00 0. -1.
</event>
<event>
 7    1  0.4119305E-015  0.9000778E+02  0.7816164E-02  0.1186339E+00
        -11   -1    0    0    0    0  0.00000000000E+00  0.00000000000E+00  0.45593999997E+02  0.45594000000E+02  0.51100000000E-03 0.  1.
         11   -1    0    0    0    0 -0.00000000000E+00 -0.00000000000E+00 -0.45593999997E+02  0.45594000000E+02  0.51100000000E-03 0. -1.
    9900012    2    1    2    0    0  0.41263210570E+00 -0.63238412960E+00 -0.90705234053E+00  0.90007780152E+02  0.90000042050E+02 0.  0.
         12    1    1    2    0    0 -0.41263210570E+00  0.63238412960E+00  0.90705234053E+00  0.11802198484E+01  0.00000000000E+00 0. -1.
         11    1    3    3    0    0  0.77513120659E+01 -0.15392327816E+01  0.53285091786E+01  0.95312688885E+01  0.51100000000E-03 0. -1.
        -11    1    3    3    0    0  0.32373064155E+02  0.10244514724E+02 -0.17438335139E+02  0.38171467059E+02  0.51100000000E-03 0.  1.
         12    1    3    3    0    0 -0.39711744115E+02 -0.93376660715E+01  0.11202773620E+02  0.42305044204E+02  0.00000000000E+00 0. -1.
</event>
<event>
 7    1  0.4119305E-015  0.9000772E+02  0.7816164E-02  0.1186339E+00
        -11   -1    0    0    0    0  0.00000000000E+00  0.00000000000E+00  0.45593999997E+02  0.45594000000E+02  0.51100000000E-03 0.  1.
         11   -1    0    0    0    0 -0.00000000000E+00 -0.00000000000E+00 -0.45593999997E+02  0.45594000000E+02  0.51100000000E-03 0. -1.
    9900012    2    1    2    0    0  0.86242880300E+00 -0.47364240767E+00  0.65188217601E+00  0.90007715737E+02  0.89999976785E+02 0.  0.
         12    1    1    2    0    0 -0.86242880300E+00  0.47364240767E+00 -0.65188217601E+00  0.11802842632E+01  0.00000000000E+00 0. -1.
         11    1    3    3    0    0  0.76584471230E+00 -0.30729110665E+01  0.74612228418E+01  0.81055010395E+01  0.51100000000E-03 0. -1.
        -11    1    3    3    0    0 -0.33015348212E+02  0.19993295809E+02  0.11478858266E+02  0.40267968439E+02  0.51100000000E-03 0.  1.
         12    1    3    3    0    0  0.33111932303E+02 -0.17394027150E+02 -0.18288198932E+02  0.41634246258E+02  0.00000000000E+00 0. -1.
</event>
<event>
 7    1  0.4119305E-015  0.9000801E+02  0.7816164E-02  0.1186339E+00
        -11   -1    0    0    0    0  0.00000000000E+00  0.00000000000E+00  0.45593999997E+02  0.45594000000E+02  0.51100000000E-03 0.  1.
         11   -1    0    0    0    0 -0.00000000000E+00 -0.00000000000E+00 -0.45593999997E+02  0.45594000000E+02  0.51100000000E-03 0. -1.
    9900012    2    1    2    0    0  0.44141705173E+00 -0.10804828600E+01 -0.17347278433E+00  0.90008006343E+02  0.90000271226E+02 0.  0.
         12    1    1    2    0    0 -0.44141705173E+00  0.10804828600E+01  0.17347278433E+00  0.11799936572E+01  0.00000000000E+00 0. -1.
         11    1    3    3    0    0 -0.73335057798E+01 -0.87602027105E+01  0.27841042739E+01  0.11758941084E+02  0.51100000000E-03 0. -1.
        -11    1    3    3    0    0  0.20204337948E+02 -0.92873708959E+01  0.31093093626E+02  0.38226312947E+02  0.51100000000E-03 0.  1.
         12    1    3    3    0    0 -0.12429415116E+02  0.16967090746E+02 -0.34050670684E+02  0.40022752311E+02  0.00000000000E+00 0. -1.
</event>
<event>
 7    1  0.4119305E-015  0.9000774E+02  0.7816164E-02  0.1186339E+00
        -11   -1    0    0    0    0  0.00000000000E+00  0.00000000000E+00  0.45593999997E+02  0.45594000000E+02  0.51100000000E-03 0. -1.
         11   -1    0    0    0    0 -0.00000000000E+00 -0.00000000000E+00 -0.45593999997E+02  0.45594000000E+02  0.51100000000E-03 0.  1.
    9900012    2    1    2    0    0 -0.70278474885E+00  0.47224214200E+00 -0.82225533719E+00  0.90007736096E+02  0.89999997412E+02 0.  0.
         12    1    1    2    0    0  0.70278474885E+00 -0.47224214200E+00  0.82225533719E+00  0.11802639041E+01  0.00000000000E+00 0. -1.
         11    1    3    3    0    0 -0.11402144160E+02  0.33980312965E+02 -0.10918077134E+02  0.37468319541E+02  0.51100000000E-03 0. -1.
        -11    1    3    3    0    0 -0.18781096266E+00  0.56648977506E+01 -0.65007593493E+01  0.86247441620E+01  0.51100000000E-03 0.  1.
        -12    1    3    3    0    0  0.10887170374E+02 -0.39172968574E+02  0.16596581146E+02  0.43914672393E+02  0.00000000000E+00 0.  1.
</event>
<event>
 7    1  0.4119305E-015  0.9000755E+02  0.7816164E-02  0.1186339E+00
        -11   -1    0    0    0    0  0.00000000000E+00  0.00000000000E+00  0.45593999997E+02  0.45594000000E+02  0.51100000000E-03 0. -1.
         11   -1    0    0    0    0 -0.00000000000E+00 -0.00000000000E+00 -0.45593999997E+02  0.45594000000E+02  0.51100000000E-03 0.  1.
    9900012    2    1    2    0    0 -0.61806433944E+00  0.49297180184E+00 -0.87660582094E+00  0.90007549878E+02  0.89999808736E+02 0.  0.
         12    1    1    2    0    0  0.61806433944E+00 -0.49297180184E+00  0.87660582094E+00  0.11804501219E+01  0.00000000000E+00 0. -1.
         11    1    3    3    0    0  0.20253951262E+02 -0.31731181970E+02 -0.38061472933E+01  0.37836189137E+02  0.51100000000E-03 0. -1.
        -11    1    3    3    0    0 -0.24247253643E+01 -0.77173579651E+01  0.68867609277E+00  0.81185701990E+01  0.51100000000E-03 0.  1.
        -12    1    3    3    0    0 -0.18447290237E+02  0.39941511737E+02  0.22408653796E+01  0.44052790542E+02  0.00000000000E+00 0.  1.
</event>
<event>
 7    1  0.4119305E-015  0.9000775E+02  0.7816164E-02  0.1186339E+00
        -11   -1    0    0    0    0  0.00000000000E+00  0.00000000000E+00  0.45593999997E+02  0.45594000000E+02  0.51100000000E-03 0. -1.
         11   -1    0    0    0    0 -0.00000000000E+00 -0.00000000000E+00 -0.45593999997E+02  0.45594000000E+02  0.51100000000E-03 0.  1.
    9900012    2    1    2    0    0 -0.87156714061E+00 -0.72465845555E+00 -0.32898693741E+00  0.90007749364E+02  0.90000010856E+02 0.  0.
         12    1    1    2    0    0  0.87156714061E+00  0.72465845555E+00  0.32898693741E+00  0.11802506356E+01  0.00000000000E+00 0. -1.
         11    1    3    3    0    0 -0.42203794497E+01 -0.21965632261E+01  0.86316929817E+01  0.98560954083E+01  0.51100000000E-03 0. -1.
        -11    1    3    3    0    0  0.40487437382E+01  0.20499482954E+02 -0.39197536413E+02  0.44419229939E+02  0.51100000000E-03 0.  1.
         12    1    3    3    0    0 -0.69993142911E+00 -0.19027578183E+02  0.30236856494E+02  0.35732424017E+02  0.00000000000E+00 0. -1.
</event>
<event>
 7    1  0.4119305E-015  0.9000771E+02  0.7816164E-02  0.1186339E+00
        -11   -1    0    0    0    0  0.00000000000E+00  0.00000000000E+00  0.45593999997E+02  0.45594000000E+02  0.51100000000E-03 0. -1.
         11   -1    0    0    0    0 -0.00000000000E+00 -0.00000000000E+00 -0.45593999997E+02  0.45594000000E+02  0.51100000000E-03 0.  1.
    9900012    2    1    2    0    0 -0.52115953721E+00  0.16406040194E+00 -0.10462079987E+01  0.90007714333E+02  0.89999975362E+02 0.  0.
         12    1    1    2    0    0  0.52115953721E+00 -0.16406040194E+00  0.10462079987E+01  0.11802856668E+01  0.00000000000E+00 0. -1.
         11    1    3    3    0    0 -0.39291691695E+01  0.80550953850E+01 -0.36269790721E+01  0.96683974615E+01  0.51100000000E-03 0. -1.
        -11    1    3    3    0    0  0.14098635272E+02 -0.26016566410E+02 -0.29622388919E+02  0.41870265940E+02  0.51100000000E-03 0.  1.
         12    1    3    3    0    0 -0.10690625640E+02  0.18125531427E+02  0.32203159993E+02  0.38469050932E+02  0.00000000000E+00 0. -1.
</event>
<event>
 7    1  0.4119305E-015  0.9000773E+02  0.7816164E-02  0.1186339E+00
        -11   -1    0    0    0    0  0.00000000000E+00  0.00000000000E+00  0.45593999997E+02  0.45594000000E+02  0.51100000000E-03 0.  1.
         11   -1    0    0    0    0 -0.00000000000E+00 -0.00000000000E+00 -0.45593999997E+02  0.45594000000E+02  0.51100000000E-03 0. -1.
    9900012    2    1    2    0    0 -0.10839718216E+01  0.19413220877E+00  0.42469039240E+00  0.90007727085E+02  0.89999988282E+02 0.  0.
         12    1    1    2    0    0  0.10839718216E+01 -0.19413220877E+00 -0.42469039240E+00  0.11802729150E+01  0.00000000000E+00 0. -1.
         11    1    3    3    0    0  0.37120641472E+02  0.11465295766E+02  0.94272436328E+01  0.39978343551E+02  0.51100000000E-03 0. -1.
        -11    1    3    3    0    0  0.25033729879E+00  0.32078425893E+01 -0.83339332909E+01  0.89334969188E+01  0.51100000000E-03 0.  1.
        -12    1    3    3    0    0 -0.38454950593E+02 -0.14479006146E+02 -0.66861994951E+00  0.41095886615E+02  0.00000000000E+00 0.  1.
</event>
<event>
 7    1  0.4119305E-015  0.9000651E+02  0.7816164E-02  0.1186342E+00
        -11   -1    0    0    0    0  0.00000000000E+00  0.00000000000E+00  0.45593999997E+02  0.45594000000E+02  0.51100000000E-03 0.  1.
         11   -1    0    0    0    0 -0.00000000000E+00 -0.00000000000E+00 -0.45593999997E+02  0.45594000000E+02  0.51100000000E-03 0. -1.
    9900012    2    1    2    0    0  0.27024894292E-01 -0.11670247694E+01 -0.18231491786E+00  0.90006511157E+02  0.89998756296E+02 0.  0.
         12    1    1    2    0    0 -0.27024894292E-01  0.11670247694E+01  0.18231491786E+00  0.11814888431E+01  0.00000000000E+00 0. -1.
         11    1    3    3    0    0 -0.19765758429E+02 -0.51989797477E+01 -0.33529953288E+02  0.39267955950E+02  0.51100000000E-03 0. -1.
        -11    1    3    3    0    0 -0.89929171808E+01  0.13080518624E+01  0.56629722420E+01  0.10707605427E+02  0.51100000000E-03 0.  1.
        -12    1    3    3    0    0  0.28785700504E+02  0.27239031160E+01  0.27684666128E+02  0.40030949781E+02  0.00000000000E+00 0.  1.
</event>
<event>
 7    1  0.4119305E-015  0.9000807E+02  0.7816164E-02  0.1186338E+00
        -11   -1    0    0    0    0  0.00000000000E+00  0.00000000000E+00  0.45593999997E+02  0.45594000000E+02  0.51100000000E-03 0. -1.
         11   -1    0    0    0    0 -0.00000000000E+00 -0.00000000000E+00 -0.45593999997E+02  0.45594000000E+02  0.51100000000E-03 0.  1.
    9900012    2    1    2    0    0  0.10537970642E+01 -0.48773957514E+00 -0.20944187530E+00  0.90008066085E+02  0.90000331756E+02 0.  0.
         12    1    1    2    0    0 -0.10537970642E+01  0.48773957514E+00  0.20944187530E+00  0.11799339154E+01  0.00000000000E+00 0. -1.
         11    1    3    3    0    0 -0.16611433053E+02  0.31618970886E+02  0.74045197273E+00  0.35724603530E+02  0.51100000000E-03 0. -1.
        -11    1    3    3    0    0 -0.24401003887E+01  0.54659759788E+01 -0.91049827278E+01  0.10896407392E+02  0.51100000000E-03 0.  1.
        -12    1    3    3    0    0  0.20105330506E+02 -0.37572686440E+02  0.81550888798E+01  0.43387055163E+02  0.00000000000E+00 0.  1.
</event>
<event>
 7    1  0.4119305E-015  0.9000741E+02  0.7816164E-02  0.1186340E+00
        -11   -1    0    0    0    0  0.00000000000E+00  0.00000000000E+00  0.45593999997E+02  0.45594000000E+02  0.51100000000E-03 0. -1.
         11   -1    0    0    0    0 -0.00000000000E+00 -0.00000000000E+00 -0.45593999997E+02  0.45594000000E+02  0.51100000000E-03 0.  1.
    9900012    2    1    2    0    0 -0.28051927591E+00 -0.11463080562E+01  0.32934956577E-01  0.90007407803E+02  0.89999664786E+02 0.  0.
         12    1    1    2    0    0  0.28051927591E+00  0.11463080562E+01 -0.32934956577E-01  0.11805921968E+01  0.00000000000E+00 0. -1.
         11    1    3    3    0    0  0.81582438033E+01  0.23797417720E+01 -0.46868940552E+01  0.97050032973E+01  0.51100000000E-03 0. -1.
        -11    1    3    3    0    0 -0.31958730312E+01 -0.16199948822E+02 -0.34773750087E+02  0.38495008010E+02  0.51100000000E-03 0.  1.
         12    1    3    3    0    0 -0.52428900480E+01  0.12673898994E+02  0.39493579099E+02  0.41807396496E+02  0.00000000000E+00 0. -1.
</event>
<event>
 7    1  0.4119305E-015  0.9000776E+02  0.7816164E-02  0.1186339E+00
        -11   -1    0    0    0    0  0.00000000000E+00  0.00000000000E+00  0.45593999997E+02  0.45594000000E+02  0.51100000000E-03 0. -1.
         11   -1    0    0    0    0 -0.00000000000E+00 -0.00000000000E+00 -0.45593999997E+02  0.45594000000E+02  0.51100000000E-03 0.  1.
    9900012    2    1    2    0    0  0.22200152889E+00  0.11359336352E+01  0.23092198484E+00  0.90007764911E+02  0.90000026608E+02 0.  0.
         12    1    1    2    0    0 -0.22200152889E+00 -0.11359336352E+01 -0.23092198484E+00  0.11802350890E+01  0.00000000000E+00 0. -1.
         11    1    3    3    0    0  0.29306248336E+01 -0.32498129788E+00  0.71109983161E+01  0.76980823633E+01  0.51100000000E-03 0. -1.
        -11    1    3    3    0    0  0.35489370546E+02  0.10447579053E+02 -0.18529404590E+02  0.41376154540E+02  0.51100000000E-03 0.  1.
         12    1    3    3    0    0 -0.38197993851E+02 -0.89866641197E+01  0.11649328259E+02  0.40933528007E+02  0.00000000000E+00 0. -1.
</event>
<event>
 7    1  0.4119305E-015  0.9000777E+02  0.7816164E-02  0.1186339E+00
        -11   -1    0    0    0    0  0.00000000000E+00  0.00000000000E+00  0.45593999997E+02  0.45594000000E+02  0.51100000000E-03 0.  1.
         11   -1    0    0    0    0 -0.00000000000E+00 -0.00000000000E+00 -0.45593999997E+02  0.45594000000E+02  0.51100000000E-03 0. -1.
    9900012    2    1    2    0    0  0.36923412079E+00  0.71218761243E+00  0.86567262501E+00  0.90007773698E+02  0.90000035510E+02 0.  0.
         12    1    1    2    0    0 -0.36923412079E+00 -0.71218761243E+00 -0.86567262501E+00  0.11802263024E+01  0.00000000000E+00 0. -1.
         11    1    3    3    0    0  0.15825910002E+02  0.32549579539E+02 -0.20389786263E+01  0.36250406752E+02  0.51100000000E-03 0. -1.
        -11    1    3    3    0    0  0.49376255093E+01  0.56588342089E+01 -0.66343124201E+01  0.10020810936E+02  0.51100000000E-03 0.  1.
        -12    1    3    3    0    0 -0.20394301391E+02 -0.37496226136E+02  0.95389636714E+01  0.43736556009E+02  0.00000000000E+00 0.  1.
</event>
<event>
 7    1  0.4119305E-015  0.9000766E+02  0.7816164E-02  0.1186339E+00
        -11   -1    0    0    0    0  0.00000000000E+00  0.00000000000E+00  0.45593999997E+02  0.45594000000E+02  0.51100000000E-03 0.  1.
         11   -1    0    0    0    0 -0.00000000000E+00 -0.00000000000E+00 -0.45593999997E+02  0.45594000000E+02  0.51100000000E-03 0. -1.
    9900012    2    1    2    0    0 -0.94739588389E+00 -0.49208194452E+00  0.50348923441E+00  0.90007658943E+02  0.89999919241E+02 0.  0.
         12    1    1    2    0    0  0.94739588389E+00  0.49208194452E+00 -0.50348923441E+00  0.11803410567E+01  0.00000000000E+00 0. -1.
         11    1    3    3    0    0  0.17645280540E+01 -0.76580322299E+01  0.57281917070E+01  0.97247723563E+01  0.51100000000E-03 0. -1.
        -11    1    3    3    0    0 -0.22225168050E+02 -0.23221892181E+02  0.18486893205E+02  0.37080717253E+02  0.51100000000E-03 0.  1.
         12    1    3    3    0    0  0.19513244112E+02  0.30387842467E+02 -0.23711595678E+02  0.43202169334E+02  0.00000000000E+00 0. -1.
</event>
<event>
 7    1  0.4119305E-015  0.9000796E+02  0.7816164E-02  0.1186339E+00
        -11   -1    0    0    0    0  0.00000000000E+00  0.00000000000E+00  0.45593999997E+02  0.45594000000E+02  0.51100000000E-03 0.  1.
         11   -1    0    0    0    0 -0.00000000000E+00 -0.00000000000E+00 -0.45593999997E+02  0.45594000000E+02  0.51100000000E-03 0. -1.
    9900012    2    1    2    0    0  0.59443701398E-01 -0.15333774979E+00  0.11685229954E+01  0.90007961013E+02  0.90000225298E+02 0.  0.
         12    1    1    2    0    0 -0.59443701398E-01  0.15333774979E+00 -0.11685229954E+01  0.11800389866E+01  0.00000000000E+00 0. -1.
         11    1    3    3    0    0 -0.14816793193E+02  0.23453660788E+01 -0.40461864180E+02  0.43153221847E+02  0.51100000000E-03 0. -1.
        -11    1    3    3    0    0 -0.18724532728E+01  0.32132094517E+01  0.89263410759E+01  0.96700755686E+01  0.51100000000E-03 0.  1.
        -12    1    3    3    0    0  0.16748690167E+02 -0.57119132803E+01  0.32704046099E+02  0.37184663598E+02  0.00000000000E+00 0.  1.
</event>
<event>
 7    1  0.4119305E-015  0.9000822E+02  0.7816164E-02  0.1186338E+00
        -11   -1    0    0    0    0  0.00000000000E+00  0.00000000000E+00  0.45593999997E+02  0.45594000000E+02  0.51100000000E-03 0.  1.
         11   -1    0    0    0    0 -0.00000000000E+00 -0.00000000000E+00 -0.45593999997E+02  0.45594000000E+02  0.51100000000E-03 0. -1.
    9900012    2    1    2    0    0 -0.33635014477E+00 -0.10866189512E+01  0.31304466669E+00  0.90008224967E+02  0.90000492735E+02 0.  0.
         12    1    1    2    0    0  0.33635014477E+00  0.10866189512E+01 -0.31304466669E+00  0.11797750329E+01  0.00000000000E+00 0. -1.
         11    1    3    3    0    0 -0.12976460912E+02  0.37583483833E+02 -0.84905944867E+01  0.40657065681E+02  0.51100000000E-03 0. -1.
        -11    1    3    3    0    0  0.47544106612E+01 -0.90586871170E+00 -0.62798625976E+01  0.79285366471E+01  0.51100000000E-03 0.  1.
        -12    1    3    3    0    0  0.78857001056E+01 -0.37764234072E+02  0.15083501751E+02  0.41422622639E+02  0.00000000000E+00 0.  1.
</event>
<event>
 7    1  0.4119305E-015  0.9000784E+02  0.7816164E-02  0.1186339E+00
        -11   -1    0    0    0    0  0.00000000000E+00  0.00000000000E+00  0.45593999997E+02  0.45594000000E+02  0.51100000000E-03 0.  1.
         11   -1    0    0    0    0 -0.00000000000E+00 -0.00000000000E+00 -0.45593999997E+02  0.45594000000E+02  0.51100000000E-03 0. -1.
    9900012    2    1    2    0    0 -0.82596442940E+00  0.38728502335E+00  0.74870813469E+00  0.90007842892E+02  0.90000105618E+02 0.  0.
         12    1    1    2    0    0  0.82596442940E+00 -0.38728502335E+00 -0.74870813469E+00  0.11801571077E+01  0.00000000000E+00 0. -1.
         11    1    3    3    0    0 -0.30976921260E+00  0.15737125010E+01  0.88135097682E+01  0.89582633750E+01  0.51100000000E-03 0. -1.
        -11    1    3    3    0    0  0.34681066336E+02  0.17757422098E+02 -0.12290613992E+02  0.40855374118E+02  0.51100000000E-03 0.  1.
         12    1    3    3    0    0 -0.35197261553E+02 -0.18943849576E+02  0.42258123587E+01  0.40194205399E+02  0.00000000000E+00 0. -1.
</event>
<event>
 7    1  0.4119305E-015  0.9000772E+02  0.7816164E-02  0.1186339E+00
        -11   -1    0    0    0    0  0.00000000000E+00  0.00000000000E+00  0.45593999997E+02  0.45594000000E+02  0.51100000000E-03 0. -1.
         11   -1    0    0    0    0 -0.00000000000E+00 -0.00000000000E+00 -0.45593999997E+02  0.45594000000E+02  0.51100000000E-03 0.  1.
    9900012    2    1    2    0    0  0.10679213202E+01 -0.48033971401E+00 -0.14794206404E+00  0.90007716542E+02  0.89999977600E+02 0.  0.
         12    1    1    2    0    0 -0.10679213202E+01  0.48033971401E+00  0.14794206404E+00  0.11802834580E+01  0.00000000000E+00 0. -1.
         11    1    3    3    0    0 -0.22068824745E+02 -0.82651268643E+01  0.18695872696E+02  0.30081240065E+02  0.51100000000E-03 0. -1.
        -11    1    3    3    0    0  0.43873389598E+01  0.21079713298E+02  0.94154616143E+01  0.23500084543E+02  0.51100000000E-03 0.  1.
        -12    1    3    3    0    0  0.18749407106E+02 -0.13294926147E+02 -0.28259276375E+02  0.36426391934E+02  0.00000000000E+00 0.  1.
</event>
<event>
 7    1  0.4119305E-015  0.9000772E+02  0.7816164E-02  0.1186339E+00
        -11   -1    0    0    0    0  0.00000000000E+00  0.00000000000E+00  0.45593999997E+02  0.45594000000E+02  0.51100000000E-03 0. -1.
         11   -1    0    0    0    0 -0.00000000000E+00 -0.00000000000E+00 -0.45593999997E+02  0.45594000000E+02  0.51100000000E-03 0.  1.
    9900012    2    1    2    0    0 -0.11466687005E+01 -0.19580982803E+00 -0.19966331453E+00  0.90007722051E+02  0.89999983182E+02 0.  0.
         12    1    1    2    0    0  0.11466687005E+01  0.19580982803E+00  0.19966331453E+00  0.11802779489E+01  0.00000000000E+00 0. -1.
         11    1    3    3    0    0  0.10701593489E+02 -0.10643002619E+02 -0.54681793663E+01  0.16052993297E+02  0.51100000000E-03 0. -1.
        -11    1    3    3    0    0 -0.25160123948E+02 -0.48210944353E+01 -0.26127430803E+02  0.36591220658E+02  0.51100000000E-03 0.  1.
         12    1    3    3    0    0  0.13311861758E+02  0.15268287226E+02  0.31395946855E+02  0.37363508096E+02  0.00000000000E+00 0. -1.
</event>
<event>
 7    1  0.4119305E-015  0.9000778E+02  0.7816164E-02  0.1186339E+00
        -11   -1    0    0    0    0  0.00000000000E+00  0.00000000000E+00  0.45593999997E+02  0.45594000000E+02  0.51100000000E-03 0.  1.
         11   -1    0    0    0    0 -0.00000000000E+00 -0.00000000000E+00 -0.45593999997E+02  0.45594000000E+02  0.51100000000E-03 0. -1.
    9900012    2    1    2    0    0  0.52915063872E+00  0.95569401961E+00  0.44671841896E+00  0.90007784425E+02  0.90000046379E+02 0.  0.
         12    1    1    2    0    0 -0.52915063872E+00 -0.95569401961E+00 -0.44671841896E+00  0.11802155750E+01  0.00000000000E+00 0. -1.
         11    1    3    3    0    0 -0.14011296089E+01  0.94082872647E+01 -0.54878837434E+01  0.10981616533E+02  0.51100000000E-03 0. -1.
        -11    1    3    3    0    0 -0.34870547199E+02 -0.60816892542E+01  0.18661203673E+02  0.40014778882E+02  0.51100000000E-03 0.  1.
         12    1    3    3    0    0  0.36800827447E+02 -0.23709039909E+01 -0.12726601511E+02  0.39011389010E+02  0.00000000000E+00 0. -1.
</event>
<event>
 7    1  0.4119305E-015  0.9000791E+02  0.7816164E-02  0.1186339E+00
        -11   -1    0    0    0    0  0.00000000000E+00  0.00000000000E+00  0.45593999997E+02  0.45594000000E+02  0.51100000000E-03 0.  1.
         11   -1    0    0    0    0 -0.00000000000E+00 -0.00000000000E+00 -0.45593999997E+02  0.45594000000E+02  0.51100000000E-03 0. -1.
    9900012    2    1    2    0    0 -0.68580211161E+00 -0.75413824891E+00  0.59461087288E+00  0.90007910544E+02  0.90000174163E+02 0.  0.
         12    1    1    2    0    0  0.68580211161E+00  0.75413824891E+00 -0.59461087288E+00  0.11800894563E+01  0.00000000000E+00 0. -1.
         11    1    3    3    0    0 -0.10860195885E+01 -0.22612599007E+02  0.48643639757E+01  0.23155368915E+02  0.51100000000E-03 0. -1.
        -11    1    3    3    0    0  0.78025938168E+01  0.20649765704E+02  0.26897155542E+02  0.34795836969E+02  0.51100000000E-03 0.  1.
         12    1    3    3    0    0 -0.74023763399E+01  0.12086950547E+01 -0.31166908644E+02  0.32056704660E+02  0.00000000000E+00 0. -1.
</event>
<event>
 7    1  0.4584945E-015  0.9000741E+02  0.7816164E-02  0.1186340E+00
        -11   -1    0    0    0    0  0.00000000000E+00  0.00000000000E+00  0.45593999997E+02  0.45594000000E+02  0.51100000000E-03 0. -1.
         11   -1    0    0    0    0 -0.00000000000E+00 -0.00000000000E+00 -0.45593999997E+02  0.45594000000E+02  0.51100000000E-03 0.  1.
    9900012    2    1    2    0    0  0.57171941219E+00  0.10317399647E+01 -0.49495110274E-01  0.90007406841E+02  0.89999663811E+02 0.  0.
         12    1    1    2    0    0 -0.57171941219E+00 -0.10317399647E+01  0.49495110274E-01  0.11805931590E+01  0.00000000000E+00 0. -1.
         11    1    3    3    0    0 -0.24109616445E+02  0.52635402225E+01  0.25685153007E+02  0.35618893105E+02  0.51100000000E-03 0. -1.
        -11    1    3    3    0    0 -0.81487978052E+01  0.21563448164E+01  0.42764107260E+01  0.94520060091E+01  0.51100000000E-03 0.  1.
        -12    1    3    3    0    0  0.32830133663E+02 -0.63881450742E+01 -0.30011058843E+02  0.44936507727E+02  0.00000000000E+00 0.  1.
</event>
<event>
 7    1  0.4119305E-015  0.9000778E+02  0.7816164E-02  0.1186339E+00
        -11   -1    0    0    0    0  0.00000000000E+00  0.00000000000E+00  0.45593999997E+02  0.45594000000E+02  0.51100000000E-03 0. -1.
         11   -1    0    0    0    0 -0.00000000000E+00 -0.00000000000E+00 -0.45593999997E+02  0.45594000000E+02  0.51100000000E-03 0.  1.
    9900012    2    1    2    0    0  0.78301111806E+00  0.80030622857E+00  0.37327015468E+00  0.90007776683E+02  0.90000038535E+02 0.  0.
         12    1    1    2    0    0 -0.78301111806E+00 -0.80030622857E+00 -0.37327015468E+00  0.11802233174E+01  0.00000000000E+00 0. -1.
         11    1    3    3    0    0 -0.17669625174E+01  0.89818112853E+01  0.43110749840E+01  0.10118322899E+02  0.51100000000E-03 0. -1.
        -11    1    3    3    0    0  0.16963159335E+02  0.30616640728E+02  0.96837964050E+01  0.36316709338E+02  0.51100000000E-03 0.  1.
         12    1    3    3    0    0 -0.14413185700E+02 -0.38798145785E+02 -0.13621601234E+02  0.43572744446E+02  0.00000000000E+00 0. -1.
</event>
<event>
 7    1  0.4119305E-015  0.9000773E+02  0.7816164E-02  0.1186339E+00
        -11   -1    0    0    0    0  0.00000000000E+00  0.00000000000E+00  0.45593999997E+02  0.45594000000E+02  0.51100000000E-03 0.  1.
         11   -1    0    0    0    0 -0.00000000000E+00 -0.00000000000E+00 -0.45593999997E+02  0.45594000000E+02  0.51100000000E-03 0. -1.
    9900012    2    1    2    0    0 -0.63271043481E+00  0.39274038202E+00  0.91567363956E+00  0.90007734896E+02  0.89999996196E+02 0.  0.
         12    1    1    2    0    0  0.63271043481E+00 -0.39274038202E+00 -0.91567363956E+00  0.11802651042E+01  0.00000000000E+00 0. -1.
         11    1    3    3    0    0 -0.12528001638E+02 -0.28611659107E+02 -0.12477506819E+02  0.33634298544E+02  0.51100000000E-03 0. -1.
        -11    1    3    3    0    0  0.25890971357E+02  0.41616721945E+01  0.56149749617E+01  0.26817715364E+02  0.51100000000E-03 0.  1.
        -12    1    3    3    0    0 -0.13995680153E+02  0.24842727294E+02  0.77782054969E+01  0.29555720988E+02  0.00000000000E+00 0.  1.
</event>
<event>
 7    1  0.4119305E-015  0.9000768E+02  0.7816164E-02  0.1186339E+00
        -11   -1    0    0    0    0  0.00000000000E+00  0.00000000000E+00  0.45593999997E+02  0.45594000000E+02  0.51100000000E-03 0. -1.
         11   -1    0    0    0    0 -0.00000000000E+00 -0.00000000000E+00 -0.45593999997E+02  0.45594000000E+02  0.51100000000E-03 0.  1.
    9900012    2    1    2    0    0  0.39589050500E+00 -0.11107890093E+01  0.50686159518E-01  0.90007681991E+02  0.89999942593E+02 0.  0.
         12    1    1    2    0    0 -0.39589050500E+00  0.11107890093E+01 -0.50686159518E-01  0.11803180088E+01  0.00000000000E+00 0. -1.
         11    1    3    3    0    0  0.35097286788E+02  0.17228070484E+02 -0.52985727344E+01  0.39455048166E+02  0.51100000000E-03 0. -1.
        -11    1    3    3    0    0  0.26740446257E+01 -0.78872363651E+01 -0.58291691212E+01  0.10165541060E+02  0.51100000000E-03 0.  1.
        -12    1    3    3    0    0 -0.37375440909E+02 -0.10451623128E+02  0.11178428015E+02  0.40387092765E+02  0.00000000000E+00 0.  1.
</event>
<event>
 7    1  0.4119305E-015  0.9000772E+02  0.7816164E-02  0.1186339E+00
        -11   -1    0    0    0    0  0.00000000000E+00  0.00000000000E+00  0.45593999997E+02  0.45594000000E+02  0.51100000000E-03 0. -1.
         11   -1    0    0    0    0 -0.00000000000E+00 -0.00000000000E+00 -0.45593999997E+02  0.45594000000E+02  0.51100000000E-03 0.  1.
    9900012    2    1    2    0    0  0.11720709601E+01  0.30007754911E-01 -0.13572606438E+00  0.90007715134E+02  0.89999976174E+02 0.  0.
         12    1    1    2    0    0 -0.11720709601E+01 -0.30007754911E-01  0.13572606438E+00  0.11802848662E+01  0.00000000000E+00 0. -1.
         11    1    3    3    0    0 -0.50617448932E+01  0.11650908989E+01  0.95395261573E+01  0.10861917774E+02  0.51100000000E-03 0. -1.
        -11    1    3    3    0    0 -0.14586635748E+02  0.19078141563E+02 -0.33762790374E+02  0.41432733944E+02  0.51100000000E-03 0.  1.
         12    1    3    3    0    0  0.20820451601E+02 -0.20213224707E+02  0.24087538153E+02  0.37713063416E+02  0.00000000000E+00 0. -1.
</event>
<event>
 7    1  0.4119305E-015  0.9000764E+02  0.7816164E-02  0.1186339E+00
        -11   -1    0    0    0    0  0.00000000000E+00  0.00000000000E+00  0.45593999997E+02  0.45594000000E+02  0.51100000000E-03 0.  1.
         11   -1    0    0    0    0 -0.00000000000E+00 -0.00000000000E+00 -0.45593999997E+02  0.45594000000E+02  0.51100000000E-03 0. -1.
    9900012    2    1    2    0    0 -0.54764427817E+00  0.34159074698E+00  0.98825285780E+00  0.90007643188E+02  0.89999903278E+02 0.  0.
         12    1    1    2    0    0  0.54764427817E+00 -0.34159074698E+00 -0.98825285780E+00  0.11803568125E+01  0.00000000000E+00 0. -1.
         11    1    3    3    0    0  0.26076797837E+02  0.30789862365E+02 -0.79824405431E+01  0.41130698598E+02  0.51100000000E-03 0. -1.
        -11    1    3    3    0    0  0.50750556913E+01 -0.68624178877E+01  0.15538397879E+01  0.86754474168E+01  0.51100000000E-03 0.  1.
        -12    1    3    3    0    0 -0.31699497806E+02 -0.23585853731E+02  0.74168536130E+01  0.40201497172E+02  0.00000000000E+00 0.  1.
</event>
<event>
 7    1  0.4119305E-015  0.9000780E+02  0.7816164E-02  0.1186339E+00
        -11   -1    0    0    0    0  0.00000000000E+00  0.00000000000E+00  0.45593999997E+02  0.45594000000E+02  0.51100000000E-03 0.  1.
         11   -1    0    0    0    0 -0.00000000000E+00 -0.00000000000E+00 -0.45593999997E+02  0.45594000000E+02  0.51100000000E-03 0. -1.
    9900012    2    1    2    0    0  0.21871105169E+00 -0.54569874325E+00  0.10233478839E+01  0.90007804027E+02  0.90000066240E+02 0.  0.
         12    1    1    2    0    0 -0.21871105169E+00  0.54569874325E+00 -0.10233478839E+01  0.11801959727E+01  0.00000000000E+00 0. -1.
         11    1    3    3    0    0  0.22980312110E+01  0.11132423356E+01 -0.72353082718E+01  0.76726750221E+01  0.51100000000E-03 0. -1.
        -11    1    3    3    0    0 -0.34060799124E+02 -0.22572734639E+02 -0.64926125537E+01  0.41374151400E+02  0.51100000000E-03 0.  1.
         12    1    3    3    0    0  0.31981478964E+02  0.20913793560E+02  0.14751268709E+02  0.40960977605E+02  0.00000000000E+00 0. -1.
</event>
<event>
 7    1  0.4119305E-015  0.9000778E+02  0.7816164E-02  0.1186339E+00
        -11   -1    0    0    0    0  0.00000000000E+00  0.00000000000E+00  0.45593999997E+02  0.45594000000E+02  0.51100000000E-03 0.  1.
         11   -1    0    0    0    0 -0.00000000000E+00 -0.00000000000E+00 -0.45593999997E+02  0.45594000000E+02  0.51100000000E-03 0. -1.
    9900012    2    1    2    0    0  0.36131080924E+00 -0.98710010423E+00 -0.53665411632E+00  0.90007784021E+02  0.90000045970E+02 0.  0.
         12    1    1    2    0    0 -0.36131080924E+00  0.98710010423E+00  0.53665411632E+00  0.11802159790E+01  0.00000000000E+00 0. -1.
         11    1    3    3    0    0  0.23935820864E+02 -0.35016757813E+01 -0.15920691446E+02  0.28959517781E+02  0.51100000000E-03 0. -1.
        -11    1    3    3    0    0 -0.22194125919E+02  0.98769185419E+01 -0.15798919520E+02  0.28978243622E+02  0.51100000000E-03 0.  1.
        -12    1    3    3    0    0 -0.13803841357E+01 -0.73623428648E+01  0.31182956850E+02  0.32070022618E+02  0.00000000000E+00 0.  1.
</event>
<event>
 7    1  0.4119305E-015  0.9000792E+02  0.7816164E-02  0.1186339E+00
        -11   -1    0    0    0    0  0.00000000000E+00  0.00000000000E+00  0.45593999997E+02  0.45594000000E+02  0.51100000000E-03 0. -1.
         11   -1    0    0    0    0 -0.00000000000E+00 -0.00000000000E+00 -0.45593999997E+02  0.45594000000E+02  0.51100000000E-03 0.  1.
    9900012    2    1    2    0    0  0.57490798586E-01  0.10704496625E+01 -0.49337780014E+00  0.90007919780E+02  0.90000183521E+02 0.  0.
         12    1    1    2    0    0 -0.57490798586E-01 -0.10704496625E+01  0.49337780014E+00  0.11800802200E+01  0.00000000000E+00 0. -1.
         11    1    3    3    0    0 -0.11369753664E+01 -0.58408645533E+01 -0.73000424425E+01  0.94180163324E+01  0.51100000000E-03 0. -1.
        -11    1    3    3    0    0 -0.21498655557E+02  0.16899065648E+02 -0.27156957280E+02  0.38539213011E+02  0.51100000000E-03 0.  1.
         12    1    3    3    0    0  0.22693121722E+02 -0.99877514319E+01  0.33963621922E+02  0.42050690437E+02  0.00000000000E+00 0. -1.
</event>
<event>
 7    1  0.4119305E-015  0.9000761E+02  0.7816164E-02  0.1186339E+00
        -11   -1    0    0    0    0  0.00000000000E+00  0.00000000000E+00  0.45593999997E+02  0.45594000000E+02  0.51100000000E-03 0. -1.
         11   -1    0    0    0    0 -0.00000000000E+00 -0.00000000000E+00 -0.45593999997E+02  0.45594000000E+02  0.51100000000E-03 0.  1.
    9900012    2    1    2    0    0 -0.81184222077E+00 -0.75982974388E+00 -0.39609616828E+00  0.90007609723E+02  0.89999869371E+02 0.  0.
         12    1    1    2    0    0  0.81184222077E+00  0.75982974388E+00  0.39609616828E+00  0.11803902768E+01  0.00000000000E+00 0. -1.
         11    1    3    3    0    0  0.30943250745E+01 -0.72109571564E+01 -0.56293631733E+00  0.78669974155E+01  0.51100000000E-03 0. -1.
        -11    1    3    3    0    0  0.60431877091E+01 -0.28444116820E+02 -0.24698612942E+02  0.38152449212E+02  0.51100000000E-03 0.  1.
         12    1    3    3    0    0 -0.99493550043E+01  0.34895244233E+02  0.24865453091E+02  0.43988163095E+02  0.00000000000E+00 0. -1.
</event>
<event>
 7    1  0.4119305E-015  0.9000787E+02  0.7816164E-02  0.1186339E+00
        -11   -1    0    0    0    0  0.00000000000E+00  0.00000000000E+00  0.45593999997E+02  0.45594000000E+02  0.51100000000E-03 0.  1.
         11   -1    0    0    0    0 -0.00000000000E+00 -0.00000000000E+00 -0.45593999997E+02  0.45594000000E+02  0.51100000000E-03 0. -1.
    9900012    2    1    2    0    0  0.38513480439E+00 -0.58395556892E+00  0.95045814816E+00  0.90007871356E+02  0.90000134458E+02 0.  0.
         12    1    1    2    0    0 -0.38513480439E+00  0.58395556892E+00 -0.95045814816E+00  0.11801286436E+01  0.00000000000E+00 0. -1.
         11    1    3    3    0    0  0.69610954733E+01 -0.62445538218E+01  0.21704014292E+01  0.96001013144E+01  0.51100000000E-03 0. -1.
        -11    1    3    3    0    0  0.18447464429E+02 -0.22715973151E+02 -0.22578867302E+02  0.36961190849E+02  0.51100000000E-03 0.  1.
         12    1    3    3    0    0 -0.25023425098E+02  0.28376571404E+02  0.21358924021E+02  0.43446579193E+02  0.00000000000E+00 0. -1.
</event>
<event>
 7    1  0.4119305E-015  0.9000795E+02  0.7816164E-02  0.1186339E+00
        -11   -1    0    0    0    0  0.00000000000E+00  0.00000000000E+00  0.45593999997E+02  0.45594000000E+02  0.51100000000E-03 0.  1.
         11   -1    0    0    0    0 -0.00000000000E+00 -0.00000000000E+00 -0.45593999997E+02  0.45594000000E+02  0.51100000000E-03 0. -1.
    9900012    2    1    2    0    0 -0.25185172802E+00 -0.94122197688E+00  0.66572852843E+00  0.90007948062E+02  0.90000212176E+02 0.  0.
         12    1    1    2    0    0  0.25185172802E+00  0.94122197688E+00 -0.66572852843E+00  0.11800519379E+01  0.00000000000E+00 0. -1.
         11    1    3    3    0    0  0.39863233067E+02 -0.74339914167E+00 -0.52618690273E+01  0.40215883165E+02  0.51100000000E-03 0. -1.
        -11    1    3    3    0    0 -0.17371463576E+01 -0.19367784789E+01  0.10761776124E+02  0.11071793619E+02  0.51100000000E-03 0.  1.
        -12    1    3    3    0    0 -0.38377938437E+02  0.17389556437E+01 -0.48341785679E+01  0.38720271278E+02  0.00000000000E+00 0.  1.
</event>
<event>
 7    1  0.4119305E-015  0.9000765E+02  0.7816164E-02  0.1186339E+00
        -11   -1    0    0    0    0  0.00000000000E+00  0.00000000000E+00  0.45593999997E+02  0.45594000000E+02  0.51100000000E-03 0.  1.
         11   -1    0    0    0    0 -0.00000000000E+00 -0.00000000000E+00 -0.45593999997E+02  0.45594000000E+02  0.51100000000E-03 0. -1.
    9900012    2    1    2    0    0 -0.11174446497E+01  0.37987759137E+00  0.15111470009E-01  0.90007653489E+02  0.89999913715E+02 0.  0.
         12    1    1    2    0    0  0.11174446497E+01 -0.37987759137E+00 -0.15111470009E-01  0.11803465110E+01  0.00000000000E+00 0. -1.
         11    1    3    3    0    0 -0.39000742450E+01  0.85298219625E+01  0.22826886640E+01  0.96529326956E+01  0.51100000000E-03 0. -1.
        -11    1    3    3    0    0 -0.98863429804E+01  0.35039619165E+01  0.36478697060E+02  0.37956723595E+02  0.51100000000E-03 0.  1.
         12    1    3    3    0    0  0.12668972576E+02 -0.11653906288E+02 -0.38746274254E+02  0.42397997198E+02  0.00000000000E+00 0. -1.
</event>
<event>
 7    1  0.4119305E-015  0.9000776E+02  0.7816164E-02  0.1186339E+00
        -11   -1    0    0    0    0  0.00000000000E+00  0.00000000000E+00  0.45593999997E+02  0.45594000000E+02  0.51100000000E-03 0.  1.
         11   -1    0    0    0    0 -0.00000000000E+00 -0.00000000000E+00 -0.45593999997E+02  0.45594000000E+02  0.51100000000E-03 0. -1.
    9900012    2    1    2    0    0 -0.46035774004E+00 -0.78476336984E+00  0.75178882000E+00  0.90007758827E+02  0.90000020444E+02 0.  0.
         12    1    1    2    0    0  0.46035774004E+00  0.78476336984E+00 -0.75178882000E+00  0.11802411725E+01  0.00000000000E+00 0. -1.
         11    1    3    3    0    0  0.39035995444E+02  0.49368664844E+01 -0.12429343440E+02  0.41263424113E+02  0.51100000000E-03 0. -1.
        -11    1    3    3    0    0 -0.28993573433E+01  0.30367819442E+01  0.10159358740E+02  0.10992765250E+02  0.51100000000E-03 0.  1.
        -12    1    3    3    0    0 -0.36596995840E+02 -0.87584117985E+01  0.30217735202E+01  0.37751569464E+02  0.00000000000E+00 0.  1.
</event>
<event>
 7    1  0.4119305E-015  0.9000767E+02  0.7816164E-02  0.1186339E+00
        -11   -1    0    0    0    0  0.00000000000E+00  0.00000000000E+00  0.45593999997E+02  0.45594000000E+02  0.51100000000E-03 0. -1.
         11   -1    0    0    0    0 -0.00000000000E+00 -0.00000000000E+00 -0.45593999997E+02  0.45594000000E+02  0.51100000000E-03 0.  1.
    9900012    2    1    2    0    0  0.86820281414E+00 -0.54698965943E-01  0.79775316620E+00  0.90007670293E+02  0.89999930741E+02 0.  0.
         12    1    1    2    0    0 -0.86820281414E+00  0.54698965943E-01 -0.79775316620E+00  0.11803297071E+01  0.00000000000E+00 0. -1.
         11    1    3    3    0    0 -0.24678886951E+02 -0.23893941494E+02  0.19273823112E+02  0.39388426712E+02  0.51100000000E-03 0. -1.
        -11    1    3    3    0    0 -0.41173841444E+01 -0.31496182073E+01 -0.73603947490E+01  0.90026861639E+01  0.51100000000E-03 0.  1.
        -12    1    3    3    0    0  0.29664473909E+02  0.26988860735E+02 -0.11115675197E+02  0.41616557417E+02  0.00000000000E+00 0.  1.
</event>
<event>
 7    1  0.4119305E-015  0.9000773E+02  0.7816164E-02  0.1186339E+00
        -11   -1    0    0    0    0  0.00000000000E+00  0.00000000000E+00  0.45593999997E+02  0.45594000000E+02  0.51100000000E-03 0. -1.
         11   -1    0    0    0    0 -0.00000000000E+00 -0.00000000000E+00 -0.45593999997E+02  0.45594000000E+02  0.51100000000E-03 0.  1.
    9900012    2    1    2    0    0  0.62683655458E+00  0.40923796868E+00 -0.91248485392E+00  0.90007733763E+02  0.89999995049E+02 0.  0.
         12    1    1    2    0    0 -0.62683655458E+00 -0.40923796868E+00  0.91248485392E+00  0.11802662368E+01  0.00000000000E+00 0. -1.
         11    1    3    3    0    0 -0.19539072177E+02 -0.32283002325E+01 -0.14009592116E+02  0.24258316831E+02  0.51100000000E-03 0. -1.
        -11    1    3    3    0    0  0.49260490824E+01  0.36815689879E+00 -0.24529648255E+02  0.25022093095E+02  0.51100000000E-03 0.  1.
         12    1    3    3    0    0  0.15239859649E+02  0.32693813024E+01  0.37626755517E+02  0.40727323838E+02  0.00000000000E+00 0. -1.
</event>
<event>
 7    1  0.4119305E-015  0.9000766E+02  0.7816164E-02  0.1186339E+00
        -11   -1    0    0    0    0  0.00000000000E+00  0.00000000000E+00  0.45593999997E+02  0.45594000000E+02  0.51100000000E-03 0. -1.
         11   -1    0    0    0    0 -0.00000000000E+00 -0.00000000000E+00 -0.45593999997E+02  0.45594000000E+02  0.51100000000E-03 0.  1.
    9900012    2    1    2    0    0  0.37270069974E+00  0.19143669373E+00 -0.11034714612E+01  0.90007659759E+02  0.89999920068E+02 0.  0.
         12    1    1    2    0    0 -0.37270069974E+00 -0.19143669373E+00  0.11034714612E+01  0.11803402412E+01  0.00000000000E+00 0. -1.
         11    1    3    3    0    0  0.88764795520E+01 -0.14590480613E+02  0.32396368021E+02  0.36622379428E+02  0.51100000000E-03 0. -1.
        -11    1    3    3    0    0 -0.25669370155E+01  0.58683439144E+01  0.81584226454E+01  0.10372390576E+02  0.51100000000E-03 0.  1.
        -12    1    3    3    0    0 -0.59368418367E+01  0.89135733929E+01 -0.41658262127E+02  0.43012889755E+02  0.00000000000E+00 0.  1.
</event>
<event>
 7    1  0.4119305E-015  0.9000767E+02  0.7816164E-02  0.1186339E+00
        -11   -1    0    0    0    0  0.00000000000E+00  0.00000000000E+00  0.45593999997E+02  0.45594000000E+02  0.51100000000E-03 0. -1.
         11   -1    0    0    0    0 -0.00000000000E+00 -0.00000000000E+00 -0.45593999997E+02  0.45594000000E+02  0.51100000000E-03 0.  1.
    9900012    2    1    2    0    0 -0.11388436505E+01  0.11973107395E+00  0.28612504889E+00  0.90007674649E+02  0.89999935154E+02 0.  0.
         12    1    1    2    0    0  0.11388436505E+01 -0.11973107395E+00 -0.28612504889E+00  0.11803253509E+01  0.00000000000E+00 0. -1.
         11    1    3    3    0    0 -0.26123404061E+02 -0.22765812280E+02  0.20727536831E+02  0.40377533752E+02  0.51100000000E-03 0. -1.
        -11    1    3    3    0    0 -0.67555554830E+01  0.22935371354E+01 -0.52578096040E+01  0.88624152785E+01  0.51100000000E-03 0.  1.
        -12    1    3    3    0    0  0.31740115893E+02  0.20592006219E+02 -0.15183602178E+02  0.40767725619E+02  0.00000000000E+00 0.  1.
</event>
<event>
 7    1  0.4119305E-015  0.9000780E+02  0.7816164E-02  0.1186339E+00
        -11   -1    0    0    0    0  0.00000000000E+00  0.00000000000E+00  0.45593999997E+02  0.45594000000E+02  0.51100000000E-03 0.  1.
         11   -1    0    0    0    0 -0.00000000000E+00 -0.00000000000E+00 -0.45593999997E+02  0.45594000000E+02  0.51100000000E-03 0. -1.
    9900012    2    1    2    0    0 -0.37735143217E-01  0.52767277801E+00 -0.10549931376E+01  0.90007799584E+02  0.90000061738E+02 0.  0.
         12    1    1    2    0    0  0.37735143217E-01 -0.52767277801E+00  0.10549931376E+01  0.11802004161E+01  0.00000000000E+00 0. -1.
         11    1    3    3    0    0  0.25218164040E+02 -0.11594365214E+02 -0.19800537415E+02  0.34094667977E+02  0.51100000000E-03 0. -1.
        -11    1    3    3    0    0 -0.76413642029E+01 -0.16779465885E+02  0.99128006434E+01  0.20933335595E+02  0.51100000000E-03 0.  1.
        -12    1    3    3    0    0 -0.17614534981E+02  0.28901503877E+02  0.88327436341E+01  0.34979796012E+02  0.00000000000E+00 0.  1.
</event>
<event>
 7    1  0.4119305E-015  0.9000770E+02  0.7816164E-02  0.1186339E+00
        -11   -1    0    0    0    0  0.00000000000E+00  0.00000000000E+00  0.45593999997E+02  0.45594000000E+02  0.51100000000E-03 0.  1.
         11   -1    0    0    0    0 -0.00000000000E+00 -0.00000000000E+00 -0.45593999997E+02  0.45594000000E+02  0.51100000000E-03 0. -1.
    9900012    2    1    2    0    0  0.20811676278E+00 -0.88990344540E+00  0.74690213748E+00  0.90007701931E+02  0.89999962796E+02 0.  0.
         12    1    1    2    0    0 -0.20811676278E+00  0.88990344540E+00 -0.74690213748E+00  0.11802980692E+01  0.00000000000E+00 0. -1.
         11    1    3    3    0    0  0.23788166434E+01 -0.30478346270E+01  0.92750749266E+01  0.10048635713E+02  0.51100000000E-03 0. -1.
        -11    1    3    3    0    0 -0.16468904253E+02  0.55185973669E+01  0.32242608388E+02  0.36623292044E+02  0.51100000000E-03 0.  1.
         12    1    3    3    0    0  0.14298204372E+02 -0.33606661854E+01 -0.40770781177E+02  0.43335774174E+02  0.00000000000E+00 0. -1.
</event>
<event>
 7    1  0.4119305E-015  0.9000778E+02  0.7816164E-02  0.1186339E+00
        -11   -1    0    0    0    0  0.00000000000E+00  0.00000000000E+00  0.45593999997E+02  0.45594000000E+02  0.51100000000E-03 0.  1.
         11   -1    0    0    0    0 -0.00000000000E+00 -0.00000000000E+00 -0.45593999997E+02  0.45594000000E+02  0.51100000000E-03 0. -1.
    9900012    2    1    2    0    0 -0.47521493549E+00  0.58132420776E+00  0.91057281415E+00  0.90007783952E+02  0.90000045900E+02 0.  0.
         12    1    1    2    0    0  0.47521493549E+00 -0.58132420776E+00 -0.91057281415E+00  0.11802160477E+01  0.00000000000E+00 0. -1.
         11    1    3    3    0    0  0.56410011140E+01 -0.57829337103E+01 -0.53046743656E+01  0.96645116924E+01  0.51100000000E-03 0. -1.
        -11    1    3    3    0    0  0.33792310655E+02  0.55447909263E+01 -0.12240697528E+02  0.36366188171E+02  0.51100000000E-03 0.  1.
         12    1    3    3    0    0 -0.39908526705E+02  0.81946699179E+00  0.18455944708E+02  0.43977084089E+02  0.00000000000E+00 0. -1.
</event>
<event>
 7    1  0.4119305E-015  0.9000777E+02  0.7816164E-02  0.1186339E+00
        -11   -1    0    0    0    0  0.00000000000E+00  0.00000000000E+00  0.45593999997E+02  0.45594000000E+02  0.51100000000E-03 0.  1.
         11   -1    0    0    0    0 -0.00000000000E+00 -0.00000000000E+00 -0.45593999997E+02  0.45594000000E+02  0.51100000000E-03 0. -1.
    9900012    2    1    2    0    0  0.70518922322E+00 -0.90859424606E+00  0.26479765913E+00  0.90007765640E+02  0.90000027346E+02 0.  0.
         12    1    1    2    0    0 -0.70518922322E+00  0.90859424606E+00 -0.26479765913E+00  0.11802343601E+01  0.00000000000E+00 0. -1.
         11    1    3    3    0    0  0.12724864068E+02 -0.27854941020E+02 -0.33082900110E+01  0.30802024087E+02  0.51100000000E-03 0. -1.
        -11    1    3    3    0    0  0.13207175717E+02  0.88141890686E+01 -0.15956015827E+02  0.22510305655E+02  0.51100000000E-03 0.  1.
        -12    1    3    3    0    0 -0.25226850562E+02  0.18132157706E+02  0.19529103497E+02  0.36695435898E+02  0.00000000000E+00 0.  1.
</event>
<event>
 7    1  0.4119305E-015  0.9000776E+02  0.7816164E-02  0.1186339E+00
        -11   -1    0    0    0    0  0.00000000000E+00  0.00000000000E+00  0.45593999997E+02  0.45594000000E+02  0.51100000000E-03 0. -1.
         11   -1    0    0    0    0 -0.00000000000E+00 -0.00000000000E+00 -0.45593999997E+02  0.45594000000E+02  0.51100000000E-03 0.  1.
    9900012    2    1    2    0    0 -0.11422995635E+01  0.20185511900E-01  0.29615245686E+00  0.90007761878E+02  0.90000023534E+02 0.  0.
         12    1    1    2    0    0  0.11422995635E+01 -0.20185511900E-01 -0.29615245686E+00  0.11802381223E+01  0.00000000000E+00 0. -1.
         11    1    3    3    0    0 -0.15178502616E+02  0.66043730481E+01  0.40501893299E+02  0.43753948920E+02  0.51100000000E-03 0. -1.
        -11    1    3    3    0    0  0.52259287832E+01 -0.69807971371E+01 -0.51971527407E+01  0.10151465765E+02  0.51100000000E-03 0.  1.
        -12    1    3    3    0    0  0.88102742698E+01  0.39660960084E+00 -0.35008588102E+02  0.36102347192E+02  0.00000000000E+00 0.  1.
</event>
<event>
 7    1  0.4119305E-015  0.9000786E+02  0.7816164E-02  0.1186339E+00
        -11   -1    0    0    0    0  0.00000000000E+00  0.00000000000E+00  0.45593999997E+02  0.45594000000E+02  0.51100000000E-03 0.  1.
         11   -1    0    0    0    0 -0.00000000000E+00 -0.00000000000E+00 -0.45593999997E+02  0.45594000000E+02  0.51100000000E-03 0. -1.
    9900012    2    1    2    0    0  0.10051737918E+01 -0.60620447751E+00  0.12199952933E+00  0.90007855049E+02  0.90000117936E+02 0.  0.
         12    1    1    2    0    0 -0.10051737918E+01  0.60620447751E+00 -0.12199952933E+00  0.11801449510E+01  0.00000000000E+00 0. -1.
         11    1    3    3    0    0  0.32894004971E+01 -0.68840285846E+01  0.90751338221E+01  0.11856140153E+02  0.51100000000E-03 0. -1.
        -11    1    3    3    0    0 -0.24155871400E+02 -0.11835206092E+02 -0.31838058056E+02  0.41680213140E+02  0.51100000000E-03 0.  1.
         12    1    3    3    0    0  0.21871644695E+02  0.18113030199E+02  0.22884923763E+02  0.36471501756E+02  0.00000000000E+00 0. -1.
</event>
<event>
 7    1  0.4119305E-015  0.9000766E+02  0.7816164E-02  0.1186339E+00
        -11   -1    0    0    0    0  0.00000000000E+00  0.00000000000E+00  0.45593999997E+02  0.45594000000E+02  0.51100000000E-03 0.  1.
         11   -1    0    0    0    0 -0.00000000000E+00 -0.00000000000E+00 -0.45593999997E+02  0.45594000000E+02  0.51100000000E-03 0. -1.
    9900012    2    1    2    0    0  0.59153474945E+00  0.29420848480E+00  0.97813078361E+00  0.90007656058E+02  0.89999916318E+02 0.  0.
         12    1    1    2    0    0 -0.59153474945E+00 -0.29420848480E+00 -0.97813078361E+00  0.11803439423E+01  0.00000000000E+00 0. -1.
         11    1    3    3    0    0  0.30490544389E+02 -0.12613065792E+02 -0.18681124181E+02  0.37917636091E+02  0.51100000000E-03 0. -1.
        -11    1    3    3    0    0  0.14747887461E+00  0.33961066104E+01 -0.89198958232E+01  0.95456708453E+01  0.51100000000E-03 0.  1.
        -12    1    3    3    0    0 -0.30046488514E+02  0.95111676662E+01  0.28579150788E+02  0.42544349121E+02  0.00000000000E+00 0.  1.
</event>
<event>
 7    1  0.4119305E-015  0.9000772E+02  0.7816164E-02  0.1186339E+00
        -11   -1    0    0    0    0  0.00000000000E+00  0.00000000000E+00  0.45593999997E+02  0.45594000000E+02  0.51100000000E-03 0. -1.
         11   -1    0    0    0    0 -0.00000000000E+00 -0.00000000000E+00 -0.45593999997E+02  0.45594000000E+02  0.51100000000E-03 0.  1.
    9900012    2    1    2    0    0  0.92037774742E+00 -0.29835372194E+00 -0.67598539610E+00  0.90007717662E+02  0.89999978735E+02 0.  0.
         12    1    1    2    0    0 -0.92037774742E+00  0.29835372194E+00  0.67598539610E+00  0.11802823379E+01  0.00000000000E+00 0. -1.
         11    1    3    3    0    0 -0.22797846471E+02 -0.21685966674E+02  0.18175720455E+02  0.36337030267E+02  0.51100000000E-03 0. -1.
        -11    1    3    3    0    0 -0.15218385753E+00 -0.94522565660E+01 -0.98381796842E+01  0.13643976469E+02  0.51100000000E-03 0.  1.
        -12    1    3    3    0    0  0.23870408076E+02  0.30839869519E+02 -0.90135261666E+01  0.40026710926E+02  0.00000000000E+00 0.  1.
</event>
<event>
 7    1  0.4119305E-015  0.9000757E+02  0.7816164E-02  0.1186339E+00
        -11   -1    0    0    0    0  0.00000000000E+00  0.00000000000E+00  0.45593999997E+02  0.45594000000E+02  0.51100000000E-03 0. -1.
         11   -1    0    0    0    0 -0.00000000000E+00 -0.00000000000E+00 -0.45593999997E+02  0.45594000000E+02  0.51100000000E-03 0.  1.
    9900012    2    1    2    0    0  0.25896219921E+00 -0.38164758420E+00 -0.10865947736E+01  0.90007574441E+02  0.89999833623E+02 0.  0.
         12    1    1    2    0    0 -0.25896219921E+00  0.38164758420E+00  0.10865947736E+01  0.11804255594E+01  0.00000000000E+00 0. -1.
         11    1    3    3    0    0  0.35499998099E+02  0.27384628253E+01  0.45582071590E+01  0.35896048479E+02  0.51100000000E-03 0. -1.
        -11    1    3    3    0    0  0.59701342879E+01 -0.38031448698E+01  0.80120257052E+01  0.10691069660E+02  0.51100000000E-03 0.  1.
        -12    1    3    3    0    0 -0.41211170187E+02  0.68303446027E+00 -0.13656827638E+02  0.43420456301E+02  0.00000000000E+00 0.  1.
</event>
<event>
 7    1  0.4119305E-015  0.9000792E+02  0.7816164E-02  0.1186339E+00
        -11   -1    0    0    0    0  0.00000000000E+00  0.00000000000E+00  0.45593999997E+02  0.45594000000E+02  0.51100000000E-03 0. -1.
         11   -1    0    0    0    0 -0.00000000000E+00 -0.00000000000E+00 -0.45593999997E+02  0.45594000000E+02  0.51100000000E-03 0.  1.
    9900012    2    1    2    0    0 -0.41496210263E+00 -0.69005159357E+00 -0.86268707695E+00  0.90007917909E+02  0.90000181625E+02 0.  0.
         12    1    1    2    0    0  0.41496210263E+00  0.69005159357E+00  0.86268707695E+00  0.11800820908E+01  0.00000000000E+00 0. -1.
         11    1    3    3    0    0  0.35728524352E+02 -0.34906278135E+00  0.14481257638E+02  0.38553289357E+02  0.51100000000E-03 0. -1.
        -11    1    3    3    0    0  0.69306713086E+00 -0.84392677639E+01  0.36557141079E+01  0.92231138093E+01  0.51100000000E-03 0.  1.
        -12    1    3    3    0    0 -0.36836553586E+02  0.80982789517E+01 -0.18999658823E+02  0.42231514743E+02  0.00000000000E+00 0.  1.
</event>
<event>
 7    1  0.4119305E-015  0.9000788E+02  0.7816164E-02  0.1186339E+00
        -11   -1    0    0    0    0  0.00000000000E+00  0.00000000000E+00  0.45593999997E+02  0.45594000000E+02  0.51100000000E-03 0. -1.
         11   -1    0    0    0    0 -0.00000000000E+00 -0.00000000000E+00 -0.45593999997E+02  0.45594000000E+02  0.51100000000E-03 0.  1.
    9900012    2    1    2    0    0  0.22246244353E+00 -0.66644409073E+00 -0.94818300481E+00  0.90007877856E+02  0.90000141043E+02 0.  0.
         12    1    1    2    0    0 -0.22246244353E+00  0.66644409073E+00  0.94818300481E+00  0.11801221443E+01  0.00000000000E+00 0. -1.
         11    1    3    3    0    0  0.74021044136E+01 -0.16955957212E+01 -0.59846299118E+01  0.96686084853E+01  0.51100000000E-03 0. -1.
        -11    1    3    3    0    0  0.30816022313E+02  0.15001480313E+02 -0.12143881247E+02  0.36361318661E+02  0.51100000000E-03 0.  1.
         12    1    3    3    0    0 -0.37995664283E+02 -0.13972328682E+02  0.17180328154E+02  0.43977950709E+02  0.00000000000E+00 0. -1.
</event>
<event>
 7    1  0.4119305E-015  0.9000763E+02  0.7816164E-02  0.1186339E+00
        -11   -1    0    0    0    0  0.00000000000E+00  0.00000000000E+00  0.45593999997E+02  0.45594000000E+02  0.51100000000E-03 0. -1.
         11   -1    0    0    0    0 -0.00000000000E+00 -0.00000000000E+00 -0.45593999997E+02  0.45594000000E+02  0.51100000000E-03 0.  1.
    9900012    2    1    2    0    0  0.10566024560E+01  0.10940261646E+00  0.51468898374E+00  0.90007626147E+02  0.89999886012E+02 0.  0.
         12    1    1    2    0    0 -0.10566024560E+01 -0.10940261646E+00 -0.51468898374E+00  0.11803738529E+01  0.00000000000E+00 0. -1.
         11    1    3    3    0    0 -0.66673684016E+01  0.68095778165E+00  0.81734541254E+01  0.10569903382E+02  0.51100000000E-03 0. -1.
        -11    1    3    3    0    0 -0.19645746946E+02 -0.31834236362E+02 -0.15489299663E+01  0.37440261245E+02  0.51100000000E-03 0.  1.
         12    1    3    3    0    0  0.27369717804E+02  0.31262681197E+02 -0.61098351754E+01  0.41997461520E+02  0.00000000000E+00 0. -1.
</event>
<event>
 7    1  0.4119305E-015  0.9000775E+02  0.7816164E-02  0.1186339E+00
        -11   -1    0    0    0    0  0.00000000000E+00  0.00000000000E+00  0.45593999997E+02  0.45594000000E+02  0.51100000000E-03 0. -1.
         11   -1    0    0    0    0 -0.00000000000E+00 -0.00000000000E+00 -0.45593999997E+02  0.45594000000E+02  0.51100000000E-03 0.  1.
    9900012    2    1    2    0    0 -0.22653042953E+00 -0.93377119457E+00 -0.68538649886E+00  0.90007746073E+02  0.90000007521E+02 0.  0.
         12    1    1    2    0    0  0.22653042953E+00  0.93377119457E+00  0.68538649886E+00  0.11802539270E+01  0.00000000000E+00 0. -1.
         11    1    3    3    0    0 -0.54675068553E+01  0.36961106691E+01 -0.13458659300E+02  0.14989675637E+02  0.51100000000E-03 0. -1.
        -11    1    3    3    0    0  0.81669505060E+00  0.26000959552E+02 -0.17795195738E+02  0.31518024685E+02  0.51100000000E-03 0.  1.
         12    1    3    3    0    0  0.44242813752E+01 -0.30630841416E+02  0.30568468539E+02  0.43500045751E+02  0.00000000000E+00 0. -1.
</event>
<event>
 7    1  0.4119305E-015  0.9000802E+02  0.7816164E-02  0.1186338E+00
        -11   -1    0    0    0    0  0.00000000000E+00  0.00000000000E+00  0.45593999997E+02  0.45594000000E+02  0.51100000000E-03 0.  1.
         11   -1    0    0    0    0 -0.00000000000E+00 -0.00000000000E+00 -0.45593999997E+02  0.45594000000E+02  0.51100000000E-03 0. -1.
    9900012    2    1    2    0    0 -0.25642475573E+00 -0.95156563610E+00  0.64893725791E+00  0.90008021026E+02  0.90000286103E+02 0.  0.
         12    1    1    2    0    0  0.25642475573E+00  0.95156563610E+00 -0.64893725791E+00  0.11799789743E+01  0.00000000000E+00 0. -1.
         11    1    3    3    0    0 -0.59763762995E+01 -0.37273621974E+01 -0.44525393969E+01  0.83327912470E+01  0.51100000000E-03 0. -1.
        -11    1    3    3    0    0  0.26758873964E+02 -0.26879989570E+02 -0.14211705724E+02  0.40503626442E+02  0.51100000000E-03 0.  1.
         12    1    3    3    0    0 -0.21038922421E+02  0.29655786131E+02  0.19313182379E+02  0.41171603336E+02  0.00000000000E+00 0. -1.
</event>
<event>
 7    1  0.4119305E-015  0.9000784E+02  0.7816164E-02  0.1186339E+00
        -11   -1    0    0    0    0  0.00000000000E+00  0.00000000000E+00  0.45593999997E+02  0.45594000000E+02  0.51100000000E-03 0.  1.
         11   -1    0    0    0    0 -0.00000000000E+00 -0.00000000000E+00 -0.45593999997E+02  0.45594000000E+02  0.51100000000E-03 0. -1.
    9900012    2    1    2    0    0 -0.10511305155E+01  0.48797212097E+00  0.22312911832E+00  0.90007839522E+02  0.90000102203E+02 0.  0.
         12    1    1    2    0    0  0.10511305155E+01 -0.48797212097E+00 -0.22312911832E+00  0.11801604784E+01  0.00000000000E+00 0. -1.
         11    1    3    3    0    0  0.39253064087E+01  0.21089764283E+02 -0.30927528795E+02  0.37639051868E+02  0.51100000000E-03 0. -1.
        -11    1    3    3    0    0  0.62820231513E+01 -0.38998756095E+01 -0.63855792281E+01  0.97697731285E+01  0.51100000000E-03 0.  1.
        -12    1    3    3    0    0 -0.11258460075E+02 -0.16701916553E+02  0.37536237141E+02  0.42599014525E+02  0.00000000000E+00 0.  1.
</event>
<event>
 7    1  0.4119305E-015  0.9000775E+02  0.7816164E-02  0.1186339E+00
        -11   -1    0    0    0    0  0.00000000000E+00  0.00000000000E+00  0.45593999997E+02  0.45594000000E+02  0.51100000000E-03 0.  1.
         11   -1    0    0    0    0 -0.00000000000E+00 -0.00000000000E+00 -0.45593999997E+02  0.45594000000E+02  0.51100000000E-03 0. -1.
    9900012    2    1    2    0    0 -0.10604125700E+00  0.11248200119E+01  0.34136381726E+00  0.90007748305E+02  0.90000009783E+02 0.  0.
         12    1    1    2    0    0  0.10604125700E+00 -0.11248200119E+01 -0.34136381726E+00  0.11802516948E+01  0.00000000000E+00 0. -1.
         11    1    3    3    0    0 -0.12945343946E+01  0.37862468295E+01 -0.85481192970E+01  0.94383170178E+01  0.51100000000E-03 0. -1.
        -11    1    3    3    0    0 -0.34473604169E+02  0.17425821524E+02  0.88982318650E+01  0.39639212539E+02  0.51100000000E-03 0.  1.
         12    1    3    3    0    0  0.35662097306E+02 -0.20087248342E+02 -0.87487507366E-02  0.40930218748E+02  0.00000000000E+00 0. -1.
</event>
<event>
 7    1  0.4119305E-015  0.9000776E+02  0.7816164E-02  0.1186339E+00
        -11   -1    0    0    0    0  0.00000000000E+00  0.00000000000E+00  0.45593999997E+02  0.45594000000E+02  0.51100000000E-03 0.  1.
         11   -1    0    0    0    0 -0.00000000000E+00 -0.00000000000E+00 -0.45593999997E+02  0.45594000000E+02  0.51100000000E-03 0. -1.
    9900012    2    1    2    0    0 -0.93970016059E-01  0.11641453392E+01 -0.16998755406E+00  0.90007762523E+02  0.90000024188E+02 0.  0.
         12    1    1    2    0    0  0.93970016059E-01 -0.11641453392E+01  0.16998755406E+00  0.11802374774E+01  0.00000000000E+00 0. -1.
         11    1    3    3    0    0 -0.81709618495E+01  0.79394880646E+01 -0.68552003854E+01  0.13296385255E+02  0.51100000000E-03 0. -1.
        -11    1    3    3    0    0 -0.17156780776E+02 -0.21390719151E+02 -0.22487958339E+02  0.35463026703E+02  0.51100000000E-03 0.  1.
         12    1    3    3    0    0  0.25233772609E+02  0.14615376426E+02  0.29173171170E+02  0.41248350565E+02  0.00000000000E+00 0. -1.
</event>
<event>
 7    1  0.4119305E-015  0.9000786E+02  0.7816164E-02  0.1186339E+00
        -11   -1    0    0    0    0  0.00000000000E+00  0.00000000000E+00  0.45593999997E+02  0.45594000000E+02  0.51100000000E-03 0.  1.
         11   -1    0    0    0    0 -0.00000000000E+00 -0.00000000000E+00 -0.45593999997E+02  0.45594000000E+02  0.51100000000E-03 0. -1.
    9900012    2    1    2    0    0  0.80915582384E+00 -0.41576094027E+00  0.75176361239E+00  0.90007856434E+02  0.90000119339E+02 0.  0.
         12    1    1    2    0    0 -0.80915582384E+00  0.41576094027E+00 -0.75176361239E+00  0.11801435657E+01  0.00000000000E+00 0. -1.
         11    1    3    3    0    0 -0.35180482822E+02  0.36268225667E+01 -0.11935964305E+02  0.37326765968E+02  0.51100000000E-03 0. -1.
        -11    1    3    3    0    0 -0.38888687752E+01  0.74992312300E+01  0.66038135826E+01  0.10722505467E+02  0.51100000000E-03 0.  1.
        -12    1    3    3    0    0  0.39878507421E+02 -0.11541814737E+02  0.60839143345E+01  0.41958584999E+02  0.00000000000E+00 0.  1.
</event>
<event>
 7    1  0.4119305E-015  0.9000771E+02  0.7816164E-02  0.1186339E+00
        -11   -1    0    0    0    0  0.00000000000E+00  0.00000000000E+00  0.45593999997E+02  0.45594000000E+02  0.51100000000E-03 0. -1.
         11   -1    0    0    0    0 -0.00000000000E+00 -0.00000000000E+00 -0.45593999997E+02  0.45594000000E+02  0.51100000000E-03 0.  1.
    9900012    2    1    2    0    0 -0.48838868930E+00 -0.88464290907E+00 -0.60989538758E+00  0.90007708099E+02  0.89999969046E+02 0.  0.
         12    1    1    2    0    0  0.48838868930E+00  0.88464290907E+00  0.60989538758E+00  0.11802919013E+01  0.00000000000E+00 0. -1.
         11    1    3    3    0    0 -0.28554047543E+01  0.91917270091E+01 -0.52071987616E+01  0.10943313069E+02  0.51100000000E-03 0. -1.
        -11    1    3    3    0    0  0.31330411102E+02 -0.21052982592E+02 -0.16904345593E+02  0.41359154198E+02  0.51100000000E-03 0.  1.
         12    1    3    3    0    0 -0.28963395037E+02  0.10976612674E+02  0.21501648967E+02  0.37705240831E+02  0.00000000000E+00 0. -1.
</event>
<event>
 7    1  0.4119305E-015  0.9000843E+02  0.7816164E-02  0.1186338E+00
        -11   -1    0    0    0    0  0.00000000000E+00  0.00000000000E+00  0.45593999997E+02  0.45594000000E+02  0.51100000000E-03 0.  1.
         11   -1    0    0    0    0 -0.00000000000E+00 -0.00000000000E+00 -0.45593999997E+02  0.45594000000E+02  0.51100000000E-03 0. -1.
    9900012    2    1    2    0    0 -0.54264132654E-01 -0.15571477685E+00  0.11679867843E+01  0.90008430241E+02  0.90000700718E+02 0.  0.
         12    1    1    2    0    0  0.54264132654E-01  0.15571477685E+00 -0.11679867843E+01  0.11795697589E+01  0.00000000000E+00 0. -1.
         11    1    3    3    0    0  0.19772040288E+01  0.68687990311E+01 -0.21326005779E+01  0.74590697401E+01  0.51100000000E-03 0. -1.
        -11    1    3    3    0    0  0.36488019532E+02 -0.21039353267E+01  0.18357586697E+02  0.40899915682E+02  0.51100000000E-03 0.  1.
         12    1    3    3    0    0 -0.38519487693E+02 -0.49205784813E+01 -0.15056999335E+02  0.41649444819E+02  0.00000000000E+00 0. -1.
</event>
<event>
 7    1  0.4119305E-015  0.9000817E+02  0.7816164E-02  0.1186338E+00
        -11   -1    0    0    0    0  0.00000000000E+00  0.00000000000E+00  0.45593999997E+02  0.45594000000E+02  0.51100000000E-03 0.  1.
         11   -1    0    0    0    0 -0.00000000000E+00 -0.00000000000E+00 -0.45593999997E+02  0.45594000000E+02  0.51100000000E-03 0. -1.
    9900012    2    1    2    0    0  0.67641706332E+00  0.38453729489E+00  0.88689781324E+00  0.90008170900E+02  0.90000437955E+02 0.  0.
         12    1    1    2    0    0 -0.67641706332E+00 -0.38453729489E+00 -0.88689781324E+00  0.11798291003E+01  0.00000000000E+00 0. -1.
         11    1    3    3    0    0 -0.18244214135E+01 -0.47317687886E+01  0.67199155420E+01  0.84187537389E+01  0.51100000000E-03 0. -1.
        -11    1    3    3    0    0  0.36372358487E+01  0.13582699791E+02  0.36127892566E+02  0.38767819641E+02  0.51100000000E-03 0.  1.
         12    1    3    3    0    0 -0.11363973718E+01 -0.84663937075E+01 -0.41960910294E+02  0.42821597520E+02  0.00000000000E+00 0. -1.
</event>
<event>
 7    1  0.4119305E-015  0.9000774E+02  0.7816164E-02  0.1186339E+00
        -11   -1    0    0    0    0  0.00000000000E+00  0.00000000000E+00  0.45593999997E+02  0.45594000000E+02  0.51100000000E-03 0. -1.
         11   -1    0    0    0    0 -0.00000000000E+00 -0.00000000000E+00 -0.45593999997E+02  0.45594000000E+02  0.51100000000E-03 0.  1.
    9900012    2    1    2    0    0  0.47131419875E+00 -0.10273107415E+00 -0.10771838791E+01  0.90007739072E+02  0.90000000428E+02 0.  0.
         12    1    1    2    0    0 -0.47131419875E+00  0.10273107415E+00  0.10771838791E+01  0.11802609275E+01  0.00000000000E+00 0. -1.
         11    1    3    3    0    0 -0.79229645247E+01  0.19401870844E+01 -0.67949562911E+01  0.10616455343E+02  0.51100000000E-03 0. -1.
        -11    1    3    3    0    0  0.15083396572E+02 -0.20278528093E+02 -0.29699579916E+02  0.38997340951E+02  0.51100000000E-03 0.  1.
         12    1    3    3    0    0 -0.66891178486E+01  0.18235609935E+02  0.35417352328E+02  0.40393942779E+02  0.00000000000E+00 0. -1.
</event>
<event>
 7    1  0.4119305E-015  0.9000774E+02  0.7816164E-02  0.1186339E+00
        -11   -1    0    0    0    0  0.00000000000E+00  0.00000000000E+00  0.45593999997E+02  0.45594000000E+02  0.51100000000E-03 0.  1.
         11   -1    0    0    0    0 -0.00000000000E+00 -0.00000000000E+00 -0.45593999997E+02  0.45594000000E+02  0.51100000000E-03 0. -1.
    9900012    2    1    2    0    0  0.11221425257E+01 -0.36575769968E+00 -0.63340180204E-02  0.90007736189E+02  0.89999997507E+02 0.  0.
         12    1    1    2    0    0 -0.11221425257E+01  0.36575769968E+00  0.63340180204E-02  0.11802638106E+01  0.00000000000E+00 0. -1.
         11    1    3    3    0    0  0.97627842350E+01 -0.30202296411E+01  0.38058354004E+00  0.10226367253E+02  0.51100000000E-03 0. -1.
        -11    1    3    3    0    0 -0.21368856824E+02 -0.24275633622E+02 -0.25211217977E+02  0.41006584128E+02  0.51100000000E-03 0.  1.
         12    1    3    3    0    0  0.12728215114E+02  0.26930105563E+02  0.24824300419E+02  0.38774784808E+02  0.00000000000E+00 0. -1.
</event>
<event>
 7    1  0.4119305E-015  0.9000775E+02  0.7816164E-02  0.1186339E+00
        -11   -1    0    0    0    0  0.00000000000E+00  0.00000000000E+00  0.45593999997E+02  0.45594000000E+02  0.51100000000E-03 0. -1.
         11   -1    0    0    0    0 -0.00000000000E+00 -0.00000000000E+00 -0.45593999997E+02  0.45594000000E+02  0.51100000000E-03 0.  1.
    9900012    2    1    2    0    0 -0.67664452601E+00 -0.96251179770E+00 -0.93401690303E-01  0.90007745514E+02  0.90000006955E+02 0.  0.
         12    1    1    2    0    0  0.67664452601E+00  0.96251179770E+00  0.93401690303E-01  0.11802544857E+01  0.00000000000E+00 0. -1.
         11    1    3    3    0    0 -0.65806149479E+00  0.77888456284E+01 -0.45799200162E+01  0.90595159236E+01  0.51100000000E-03 0. -1.
        -11    1    3    3    0    0 -0.34478803646E+02  0.13362304646E+02 -0.85962295345E+01  0.37963591095E+02  0.51100000000E-03 0.  1.
         12    1    3    3    0    0  0.34460220615E+02 -0.22113662072E+02  0.13082747860E+02  0.42984638496E+02  0.00000000000E+00 0. -1.
</event>
<event>
 7    1  0.4119305E-015  0.9000794E+02  0.7816164E-02  0.1186339E+00
        -11   -1    0    0    0    0  0.00000000000E+00  0.00000000000E+00  0.45593999997E+02  0.45594000000E+02  0.51100000000E-03 0. -1.
         11   -1    0    0    0    0 -0.00000000000E+00 -0.00000000000E+00 -0.45593999997E+02  0.45594000000E+02  0.51100000000E-03 0.  1.
    9900012    2    1    2    0    0 -0.70314454194E+00  0.94134913418E+00 -0.10948931790E+00  0.90007941379E+02  0.90000205405E+02 0.  0.
         12    1    1    2    0    0  0.70314454194E+00 -0.94134913418E+00  0.10948931790E+00  0.11800586214E+01  0.00000000000E+00 0. -1.
         11    1    3    3    0    0 -0.16033729931E+02  0.17029001745E+02 -0.41725314098E+01  0.23758733437E+02  0.51100000000E-03 0. -1.
        -11    1    3    3    0    0  0.31074566963E+02  0.35530954788E+01 -0.14985964904E+02  0.34681873418E+02  0.51100000000E-03 0.  1.
         12    1    3    3    0    0 -0.15743981575E+02 -0.19640748089E+02  0.19049006996E+02  0.31567334523E+02  0.00000000000E+00 0. -1.
</event>
<event>
 7    1  0.4119305E-015  0.9000778E+02  0.7816164E-02  0.1186339E+00
        -11   -1    0    0    0    0  0.00000000000E+00  0.00000000000E+00  0.45593999997E+02  0.45594000000E+02  0.51100000000E-03 0.  1.
         11   -1    0    0    0    0 -0.00000000000E+00 -0.00000000000E+00 -0.45593999997E+02  0.45594000000E+02  0.51100000000E-03 0. -1.
    9900012    2    1    2    0    0  0.11924439984E-01 -0.19318270833E+00  0.11642443517E+01  0.90007776859E+02  0.90000038714E+02 0.  0.
         12    1    1    2    0    0 -0.11924439984E-01  0.19318270833E+00 -0.11642443517E+01  0.11802231406E+01  0.00000000000E+00 0. -1.
         11    1    3    3    0    0 -0.50709874413E+01 -0.41951742343E+01  0.69999861165E+01  0.96080282253E+01  0.51100000000E-03 0. -1.
        -11    1    3    3    0    0  0.33769141610E+02  0.18519812402E+02  0.15819170256E+02  0.41636336586E+02  0.51100000000E-03 0.  1.
         12    1    3    3    0    0 -0.28686229729E+02 -0.14517820876E+02 -0.21654912020E+02  0.38763412048E+02  0.00000000000E+00 0. -1.
</event>
<event>
 7    1  0.4119305E-015  0.9000774E+02  0.7816164E-02  0.1186339E+00
        -11   -1    0    0    0    0  0.00000000000E+00  0.00000000000E+00  0.45593999997E+02  0.45594000000E+02  0.51100000000E-03 0.  1.
         11   -1    0    0    0    0 -0.00000000000E+00 -0.00000000000E+00 -0.45593999997E+02  0.45594000000E+02  0.51100000000E-03 0. -1.
    9900012    2    1    2    0    0  0.10556033382E+01 -0.47389223915E+00 -0.23267155806E+00  0.90007742267E+02  0.90000003665E+02 0.  0.
         12    1    1    2    0    0 -0.10556033382E+01  0.47389223915E+00  0.23267155806E+00  0.11802577328E+01  0.00000000000E+00 0. -1.
         11    1    3    3    0    0  0.43008178201E+00  0.35069421455E+02  0.21398053677E+01  0.35137274493E+02  0.51100000000E-03 0. -1.
        -11    1    3    3    0    0 -0.16291825102E+02 -0.21043791681E+01  0.38762043544E+01  0.16878297819E+02  0.51100000000E-03 0.  1.
         12    1    3    3    0    0  0.16917346658E+02 -0.33438934526E+02 -0.62486812801E+01  0.37992169955E+02  0.00000000000E+00 0. -1.
</event>
<event>
 7    1  0.4119305E-015  0.9000762E+02  0.7816164E-02  0.1186339E+00
        -11   -1    0    0    0    0  0.00000000000E+00  0.00000000000E+00  0.45593999997E+02  0.45594000000E+02  0.51100000000E-03 0.  1.
         11   -1    0    0    0    0 -0.00000000000E+00 -0.00000000000E+00 -0.45593999997E+02  0.45594000000E+02  0.51100000000E-03 0. -1.
    9900012    2    1    2    0    0  0.67103064242E+00 -0.55096515455E+00  0.79965791176E+00  0.90007619764E+02  0.89999879545E+02 0.  0.
         12    1    1    2    0    0 -0.67103064242E+00  0.55096515455E+00 -0.79965791176E+00  0.11803802355E+01  0.00000000000E+00 0. -1.
         11    1    3    3    0    0  0.35884449314E+01  0.69945774905E+01 -0.10685969788E+01  0.79336593738E+01  0.51100000000E-03 0. -1.
        -11    1    3    3    0    0  0.32597043378E+02  0.87839293474E+01  0.19724750268E+02  0.39099749681E+02  0.51100000000E-03 0.  1.
         12    1    3    3    0    0 -0.35514457667E+02 -0.16329471992E+02 -0.17856495378E+02  0.42974210709E+02  0.00000000000E+00 0. -1.
</event>
<event>
 7    1  0.4119305E-015  0.9000783E+02  0.7816164E-02  0.1186339E+00
        -11   -1    0    0    0    0  0.00000000000E+00  0.00000000000E+00  0.45593999997E+02  0.45594000000E+02  0.51100000000E-03 0.  1.
         11   -1    0    0    0    0 -0.00000000000E+00 -0.00000000000E+00 -0.45593999997E+02  0.45594000000E+02  0.51100000000E-03 0. -1.
    9900012    2    1    2    0    0  0.87282759388E+00 -0.75217429848E+00  0.25537051983E+00  0.90007827010E+02  0.90000089526E+02 0.  0.
         12    1    1    2    0    0 -0.87282759388E+00  0.75217429848E+00 -0.25537051983E+00  0.11801729900E+01  0.00000000000E+00 0. -1.
         11    1    3    3    0    0  0.12362371068E+02 -0.31798057121E+02 -0.20532547127E+02  0.39818716037E+02  0.51100000000E-03 0. -1.
        -11    1    3    3    0    0  0.55114965341E+01  0.24172823439E+01 -0.51984504260E+01  0.79525929776E+01  0.51100000000E-03 0.  1.
        -12    1    3    3    0    0 -0.17001040008E+02  0.28628600478E+02  0.25986368073E+02  0.42236517995E+02  0.00000000000E+00 0.  1.
</event>
<event>
 7    1  0.4119305E-015  0.9000779E+02  0.7816164E-02  0.1186339E+00
        -11   -1    0    0    0    0  0.00000000000E+00  0.00000000000E+00  0.45593999997E+02  0.45594000000E+02  0.51100000000E-03 0.  1.
         11   -1    0    0    0    0 -0.00000000000E+00 -0.00000000000E+00 -0.45593999997E+02  0.45594000000E+02  0.51100000000E-03 0. -1.
    9900012    2    1    2    0    0 -0.61217738717E+00  0.55392972456E+00  0.84338673596E+00  0.90007787951E+02  0.90000049952E+02 0.  0.
         12    1    1    2    0    0  0.61217738717E+00 -0.55392972456E+00 -0.84338673596E+00  0.11802120485E+01  0.00000000000E+00 0. -1.
         11    1    3    3    0    0  0.21436972940E+02  0.25629905363E+02 -0.12626168948E+02  0.35719126533E+02  0.51100000000E-03 0. -1.
        -11    1    3    3    0    0 -0.97635711830E+00  0.38261137385E+01 -0.10508968697E+02  0.11226345928E+02  0.51100000000E-03 0.  1.
        -12    1    3    3    0    0 -0.21072793209E+02 -0.28902089377E+02  0.23978524380E+02  0.43062315491E+02  0.00000000000E+00 0.  1.
</event>
<event>
 7    1  0.4119305E-015  0.9000778E+02  0.7816164E-02  0.1186339E+00
        -11   -1    0    0    0    0  0.00000000000E+00  0.00000000000E+00  0.45593999997E+02  0.45594000000E+02  0.51100000000E-03 0.  1.
         11   -1    0    0    0    0 -0.00000000000E+00 -0.00000000000E+00 -0.45593999997E+02  0.45594000000E+02  0.51100000000E-03 0. -1.
    9900012    2    1    2    0    0  0.67812193051E+00  0.31699181074E+00  0.91245800325E+00  0.90007782745E+02  0.90000044677E+02 0.  0.
         12    1    1    2    0    0 -0.67812193051E+00 -0.31699181074E+00 -0.91245800325E+00  0.11802172548E+01  0.00000000000E+00 0. -1.
         11    1    3    3    0    0  0.51739677661E+01  0.56016472000E+01  0.10910254947E+02  0.13310975061E+02  0.51100000000E-03 0. -1.
        -11    1    3    3    0    0  0.20431960774E+00 -0.67469693225E+01  0.32865639718E+02  0.33551655933E+02  0.51100000000E-03 0.  1.
         12    1    3    3    0    0 -0.47001654433E+01  0.14623139332E+01 -0.42863436661E+02  0.43145151751E+02  0.00000000000E+00 0. -1.
</event>
<event>
 7    1  0.4119305E-015  0.9000739E+02  0.7816164E-02  0.1186340E+00
        -11   -1    0    0    0    0  0.00000000000E+00  0.00000000000E+00  0.45593999997E+02  0.45594000000E+02  0.51100000000E-03 0.  1.
         11   -1    0    0    0    0 -0.00000000000E+00 -0.00000000000E+00 -0.45593999997E+02  0.45594000000E+02  0.51100000000E-03 0. -1.
    9900012    2    1    2    0    0  0.14928630143E+00  0.11079181994E+01  0.37956777428E+00  0.90007389636E+02  0.89999646379E+02 0.  0.
         12    1    1    2    0    0 -0.14928630143E+00 -0.11079181994E+01 -0.37956777428E+00  0.11806103640E+01  0.00000000000E+00 0. -1.
         11    1    3    3    0    0 -0.13737894371E+01  0.35488947219E+01 -0.12230527050E+02  0.12808893135E+02  0.51100000000E-03 0. -1.
        -11    1    3    3    0    0 -0.12204633652E+02  0.32899521351E+02 -0.49115082476E+01  0.35432393388E+02  0.51100000000E-03 0.  1.
         12    1    3    3    0    0  0.13727709391E+02 -0.35340497873E+02  0.17521603071E+02  0.41766103113E+02  0.00000000000E+00 0. -1.
</event>
<event>
 7    1  0.4119305E-015  0.9000798E+02  0.7816164E-02  0.1186339E+00
        -11   -1    0    0    0    0  0.00000000000E+00  0.00000000000E+00  0.45593999997E+02  0.45594000000E+02  0.51100000000E-03 0. -1.
         11   -1    0    0    0    0 -0.00000000000E+00 -0.00000000000E+00 -0.45593999997E+02  0.45594000000E+02  0.51100000000E-03 0.  1.
    9900012    2    1    2    0    0  0.11278889931E+01  0.13271777590E+00  0.32048084527E+00  0.90007976457E+02  0.90000240946E+02 0.  0.
         12    1    1    2    0    0 -0.11278889931E+01 -0.13271777590E+00 -0.32048084527E+00  0.11800235425E+01  0.00000000000E+00 0. -1.
         11    1    3    3    0    0  0.30983189774E+02 -0.52518715364E+01 -0.16042682891E+02  0.35283252086E+02  0.51100000000E-03 0. -1.
        -11    1    3    3    0    0  0.48525489582E+01 -0.67856421124E+01 -0.72207437604E+01  0.11033191333E+02  0.51100000000E-03 0.  1.
        -12    1    3    3    0    0 -0.34707849739E+02  0.12170231425E+02  0.23583907497E+02  0.43691533038E+02  0.00000000000E+00 0.  1.
</event>
<event>
 7    1  0.4119305E-015  0.9000747E+02  0.7816164E-02  0.1186340E+00
        -11   -1    0    0    0    0  0.00000000000E+00  0.00000000000E+00  0.45593999997E+02  0.45594000000E+02  0.51100000000E-03 0.  1.
         11   -1    0    0    0    0 -0.00000000000E+00 -0.00000000000E+00 -0.45593999997E+02  0.45594000000E+02  0.51100000000E-03 0. -1.
    9900012    2    1    2    0    0  0.11190911512E+01  0.28155930454E+00 -0.24900214921E+00  0.90007473542E+02  0.89999731393E+02 0.  0.
         12    1    1    2    0    0 -0.11190911512E+01 -0.28155930454E+00  0.24900214921E+00  0.11805264575E+01  0.00000000000E+00 0. -1.
         11    1    3    3    0    0 -0.26852624016E+02  0.17458790882E+02 -0.15854720772E+02  0.35738564138E+02  0.51100000000E-03 0. -1.
        -11    1    3    3    0    0 -0.48403041274E+01 -0.15817369155E+01 -0.90349710295E+01  0.10371168569E+02  0.51100000000E-03 0.  1.
        -12    1    3    3    0    0  0.32812019294E+02 -0.15595494662E+02  0.24640689653E+02  0.43897740836E+02  0.00000000000E+00 0.  1.
</event>
<event>
 7    1  0.9068677E-015  0.9000781E+02  0.7816164E-02  0.1186339E+00
        -11   -1    0    0    0    0  0.00000000000E+00  0.00000000000E+00  0.45593999997E+02  0.45594000000E+02  0.51100000000E-03 0. -1.
         11   -1    0    0    0    0 -0.00000000000E+00 -0.00000000000E+00 -0.45593999997E+02  0.45594000000E+02  0.51100000000E-03 0.  1.
    9900012    2    1    2    0    0  0.50397497190E+00 -0.10237823734E+00 -0.10622476574E+01  0.90007812658E+02  0.90000074985E+02 0.  0.
         12    1    1    2    0    0 -0.50397497190E+00  0.10237823734E+00  0.10622476574E+01  0.11801873416E+01  0.00000000000E+00 0. -1.
         11    1    3    3    0    0  0.26141511801E+02 -0.12792259795E+01  0.26339170614E+02  0.37131751470E+02  0.51100000000E-03 0. -1.
        -11    1    3    3    0    0  0.86514634508E+01  0.39631120697E+01 -0.11154739651E+01  0.95811460456E+01  0.51100000000E-03 0.  1.
        -12    1    3    3    0    0 -0.34289000280E+02 -0.27862643276E+01 -0.26285944307E+02  0.43294915142E+02  0.00000000000E+00 0.  1.
</event>
<event>
 7    1  0.4119305E-015  0.9000773E+02  0.7816164E-02  0.1186339E+00
        -11   -1    0    0    0    0  0.00000000000E+00  0.00000000000E+00  0.45593999997E+02  0.45594000000E+02  0.51100000000E-03 0. -1.
         11   -1    0    0    0    0 -0.00000000000E+00 -0.00000000000E+00 -0.45593999997E+02  0.45594000000E+02  0.51100000000E-03 0.  1.
    9900012    2    1    2    0    0 -0.67109107708E+00  0.43086457317E+00  0.87007819333E+00  0.90007727330E+02  0.89999988530E+02 0.  0.
         12    1    1    2    0    0  0.67109107708E+00 -0.43086457317E+00 -0.87007819333E+00  0.11802726705E+01  0.00000000000E+00 0. -1.
         11    1    3    3    0    0  0.18320721964E+02  0.94153019483E+01 -0.73659138724E+01  0.21875864589E+02  0.51100000000E-03 0. -1.
        -11    1    3    3    0    0 -0.18460668998E+02 -0.32433612804E+02 -0.97528379346E+01  0.38572702620E+02  0.51100000000E-03 0.  1.
         12    1    3    3    0    0 -0.53114404267E+00  0.23449175429E+02  0.17988830000E+02  0.29559160121E+02  0.00000000000E+00 0. -1.
</event>
<event>
 7    1  0.4119305E-015  0.9000811E+02  0.7816164E-02  0.1186338E+00
        -11   -1    0    0    0    0  0.00000000000E+00  0.00000000000E+00  0.45593999997E+02  0.45594000000E+02  0.51100000000E-03 0.  1.
         11   -1    0    0    0    0 -0.00000000000E+00 -0.00000000000E+00 -0.45593999997E+02  0.45594000000E+02  0.51100000000E-03 0. -1.
    9900012    2    1    2    0    0 -0.48227632963E+00 -0.69977888922E+00  0.81844509344E+00  0.90008113004E+02  0.90000379295E+02 0.  0.
         12    1    1    2    0    0  0.48227632963E+00  0.69977888922E+00 -0.81844509344E+00  0.11798869958E+01  0.00000000000E+00 0. -1.
         11    1    3    3    0    0  0.47635997726E+00 -0.20084792135E+01  0.92810580658E+01  0.95078360661E+01  0.51100000000E-03 0. -1.
        -11    1    3    3    0    0 -0.38263275372E+02  0.10748265758E+02  0.42583779481E+01  0.39971705518E+02  0.51100000000E-03 0.  1.
         12    1    3    3    0    0  0.37304639065E+02 -0.94395654339E+01 -0.12720990920E+02  0.40528571420E+02  0.00000000000E+00 0. -1.
</event>
<event>
 7    1  0.4119305E-015  0.9000790E+02  0.7816164E-02  0.1186339E+00
        -11   -1    0    0    0    0  0.00000000000E+00  0.00000000000E+00  0.45593999997E+02  0.45594000000E+02  0.51100000000E-03 0. -1.
         11   -1    0    0    0    0 -0.00000000000E+00 -0.00000000000E+00 -0.45593999997E+02  0.45594000000E+02  0.51100000000E-03 0.  1.
    9900012    2    1    2    0    0 -0.79391132275E+00 -0.73108067272E+00 -0.47735487152E+00  0.90007897542E+02  0.90000160989E+02 0.  0.
         12    1    1    2    0    0  0.79391132275E+00  0.73108067272E+00  0.47735487152E+00  0.11801024582E+01  0.00000000000E+00 0. -1.
         11    1    3    3    0    0 -0.44561279214E+00 -0.23613168222E+00 -0.82180252057E+01  0.82334845281E+01  0.51100000000E-03 0. -1.
        -11    1    3    3    0    0 -0.38122413841E+02  0.13850609959E+02  0.81241838203E+01  0.41366172126E+02  0.51100000000E-03 0.  1.
         12    1    3    3    0    0  0.37774115311E+02 -0.14345558950E+02 -0.38351348617E+00  0.40408240888E+02  0.00000000000E+00 0. -1.
</event>
<event>
 7    1  0.4119305E-015  0.9000776E+02  0.7816164E-02  0.1186339E+00
        -11   -1    0    0    0    0  0.00000000000E+00  0.00000000000E+00  0.45593999997E+02  0.45594000000E+02  0.51100000000E-03 0. -1.
         11   -1    0    0    0    0 -0.00000000000E+00 -0.00000000000E+00 -0.45593999997E+02  0.45594000000E+02  0.51100000000E-03 0.  1.
    9900012    2    1    2    0    0 -0.51127409763E+00 -0.96433154783E+00 -0.44903742034E+00  0.90007758016E+02  0.90000019621E+02 0.  0.
         12    1    1    2    0    0  0.51127409763E+00  0.96433154783E+00  0.44903742034E+00  0.11802419845E+01  0.00000000000E+00 0. -1.
         11    1    3    3    0    0  0.10958403195E+01 -0.10878003802E+02  0.27066310732E+01  0.11263111682E+02  0.51100000000E-03 0. -1.
        -11    1    3    3    0    0 -0.18540102956E+02  0.40017718116E+02 -0.29833592095E+01  0.44204678636E+02  0.51100000000E-03 0.  1.
         12    1    3    3    0    0  0.16932988539E+02 -0.30104045862E+02 -0.17230928406E+00  0.34539967698E+02  0.00000000000E+00 0. -1.
</event>
<event>
 7    1  0.4119305E-015  0.9000723E+02  0.7816164E-02  0.1186340E+00
        -11   -1    0    0    0    0  0.00000000000E+00  0.00000000000E+00  0.45593999997E+02  0.45594000000E+02  0.51100000000E-03 0.  1.
         11   -1    0    0    0    0 -0.00000000000E+00 -0.00000000000E+00 -0.45593999997E+02  0.45594000000E+02  0.51100000000E-03 0. -1.
    9900012    2    1    2    0    0  0.54126294671E+00 -0.12066938872E+00  0.10424401108E+01  0.90007234120E+02  0.89999488809E+02 0.  0.
         12    1    1    2    0    0 -0.54126294671E+00  0.12066938872E+00 -0.10424401108E+01  0.11807658800E+01  0.00000000000E+00 0. -1.
         11    1    3    3    0    0  0.35758572081E+01 -0.74187774748E+01  0.51174985697E+01  0.96960716718E+01  0.51100000000E-03 0. -1.
        -11    1    3    3    0    0  0.25536298696E+02  0.32076241341E+02 -0.95523168628E+01  0.42097916425E+02  0.51100000000E-03 0.  1.
         12    1    3    3    0    0 -0.28570892957E+02 -0.24778133255E+02  0.54772584039E+01  0.38213246023E+02  0.00000000000E+00 0. -1.
</event>
<event>
 7    1  0.4119305E-015  0.9000772E+02  0.7816164E-02  0.1186339E+00
        -11   -1    0    0    0    0  0.00000000000E+00  0.00000000000E+00  0.45593999997E+02  0.45594000000E+02  0.51100000000E-03 0. -1.
         11   -1    0    0    0    0 -0.00000000000E+00 -0.00000000000E+00 -0.45593999997E+02  0.45594000000E+02  0.51100000000E-03 0.  1.
    9900012    2    1    2    0    0  0.10217942014E+01  0.56392028489E+00 -0.17605712003E+00  0.90007718005E+02  0.89999979083E+02 0.  0.
         12    1    1    2    0    0 -0.10217942014E+01 -0.56392028489E+00  0.17605712003E+00  0.11802819948E+01  0.00000000000E+00 0. -1.
         11    1    3    3    0    0 -0.13377725794E+02  0.24359043526E+01  0.55810890306E+01  0.14698494224E+02  0.51100000000E-03 0. -1.
        -11    1    3    3    0    0 -0.12593193451E+02  0.30464080509E+02 -0.21987010328E+01  0.33037599928E+02  0.51100000000E-03 0.  1.
         12    1    3    3    0    0  0.26992713446E+02 -0.32336064577E+02 -0.35584451179E+01  0.42271623853E+02  0.00000000000E+00 0. -1.
</event>
<event>
 7    1  0.4119305E-015  0.9000774E+02  0.7816164E-02  0.1186339E+00
        -11   -1    0    0    0    0  0.00000000000E+00  0.00000000000E+00  0.45593999997E+02  0.45594000000E+02  0.51100000000E-03 0. -1.
         11   -1    0    0    0    0 -0.00000000000E+00 -0.00000000000E+00 -0.45593999997E+02  0.45594000000E+02  0.51100000000E-03 0.  1.
    9900012    2    1    2    0    0 -0.20524652937E+00  0.46797454566E+00 -0.10638979381E+01  0.90007743614E+02  0.90000005030E+02 0.  0.
         12    1    1    2    0    0  0.20524652937E+00 -0.46797454566E+00  0.10638979381E+01  0.11802563856E+01  0.00000000000E+00 0. -1.
         11    1    3    3    0    0 -0.27377009540E+02  0.73206874485E+01 -0.23411866101E+02  0.36758789298E+02  0.51100000000E-03 0. -1.
        -11    1    3    3    0    0 -0.53510075887E+01 -0.34518848327E+01 -0.68912975965E+01  0.93828979498E+01  0.51100000000E-03 0.  1.
        -12    1    3    3    0    0  0.32522770599E+02 -0.34008280701E+01  0.29239265759E+02  0.43866056367E+02  0.00000000000E+00 0.  1.
</event>
<event>
 7    1  0.4119305E-015  0.9000771E+02  0.7816164E-02  0.1186339E+00
        -11   -1    0    0    0    0  0.00000000000E+00  0.00000000000E+00  0.45593999997E+02  0.45594000000E+02  0.51100000000E-03 0.  1.
         11   -1    0    0    0    0 -0.00000000000E+00 -0.00000000000E+00 -0.45593999997E+02  0.45594000000E+02  0.51100000000E-03 0. -1.
    9900012    2    1    2    0    0 -0.11879242406E+00 -0.18572775461E-01  0.11741519172E+01  0.90007707955E+02  0.89999968900E+02 0.  0.
         12    1    1    2    0    0  0.11879242406E+00  0.18572775461E-01 -0.11741519172E+01  0.11802920455E+01  0.00000000000E+00 0. -1.
         11    1    3    3    0    0 -0.10028136913E+02 -0.31080334419E+02 -0.14393199708E+02  0.35689142826E+02  0.51100000000E-03 0. -1.
        -11    1    3    3    0    0 -0.47362803534E+01 -0.23110819533E+01 -0.89556054259E+01  0.10391165487E+02  0.51100000000E-03 0.  1.
        -12    1    3    3    0    0  0.14645624842E+02  0.33372843596E+02  0.24522957051E+02  0.43927399642E+02  0.00000000000E+00 0.  1.
</event>
<event>
 7    1  0.4119305E-015  0.9000723E+02  0.7816164E-02  0.1186340E+00
        -11   -1    0    0    0    0  0.00000000000E+00  0.00000000000E+00  0.45593999997E+02  0.45594000000E+02  0.51100000000E-03 0. -1.
         11   -1    0    0    0    0 -0.00000000000E+00 -0.00000000000E+00 -0.45593999997E+02  0.45594000000E+02  0.51100000000E-03 0.  1.
    9900012    2    1    2    0    0  0.67051639080E+00 -0.19522427572E+00 -0.95210671289E+00  0.90007232478E+02  0.89999487145E+02 0.  0.
         12    1    1    2    0    0 -0.67051639080E+00  0.19522427572E+00  0.95210671289E+00  0.11807675219E+01  0.00000000000E+00 0. -1.
         11    1    3    3    0    0 -0.28991638161E+01 -0.11037605504E+02  0.44920182626E+01  0.12264261674E+02  0.51100000000E-03 0. -1.
        -11    1    3    3    0    0 -0.23717562880E+02 -0.21249904641E+02  0.91971308797E+01  0.33146167997E+02  0.51100000000E-03 0.  1.
         12    1    3    3    0    0  0.27287243087E+02  0.32092285869E+02 -0.14641255855E+02  0.44596802807E+02  0.00000000000E+00 0. -1.
</event>
<event>
 7    1  0.4119305E-015  0.9000774E+02  0.7816164E-02  0.1186339E+00
        -11   -1    0    0    0    0  0.00000000000E+00  0.00000000000E+00  0.45593999997E+02  0.45594000000E+02  0.51100000000E-03 0. -1.
         11   -1    0    0    0    0 -0.00000000000E+00 -0.00000000000E+00 -0.45593999997E+02  0.45594000000E+02  0.51100000000E-03 0.  1.
    9900012    2    1    2    0    0  0.10143940912E+01  0.13797943011E+00  0.58735104572E+00  0.90007739458E+02  0.90000000819E+02 0.  0.
         12    1    1    2    0    0 -0.10143940912E+01 -0.13797943011E+00 -0.58735104572E+00  0.11802605417E+01  0.00000000000E+00 0. -1.
         11    1    3    3    0    0  0.26760671687E+02  0.12378996532E+02 -0.20689931809E+02  0.36020083048E+02  0.51100000000E-03 0. -1.
        -11    1    3    3    0    0  0.24750796928E+01  0.25940324468E+01 -0.92044006834E+01  0.98780573001E+01  0.51100000000E-03 0.  1.
        -12    1    3    3    0    0 -0.28221357289E+02 -0.14835049549E+02  0.30481683538E+02  0.44109599110E+02  0.00000000000E+00 0.  1.
</event>
<event>
 7    1  0.4119305E-015  0.9000772E+02  0.7816164E-02  0.1186339E+00
        -11   -1    0    0    0    0  0.00000000000E+00  0.00000000000E+00  0.45593999997E+02  0.45594000000E+02  0.51100000000E-03 0.  1.
         11   -1    0    0    0    0 -0.00000000000E+00 -0.00000000000E+00 -0.45593999997E+02  0.45594000000E+02  0.51100000000E-03 0. -1.
    9900012    2    1    2    0    0 -0.43231374342E+00  0.48217232233E+00  0.98675435153E+00  0.90007716360E+02  0.89999977416E+02 0.  0.
         12    1    1    2    0    0  0.43231374342E+00 -0.48217232233E+00 -0.98675435153E+00  0.11802836403E+01  0.00000000000E+00 0. -1.
         11    1    3    3    0    0  0.37983212272E+01 -0.77680299637E+00 -0.35327006256E+02  0.35539105761E+02  0.51100000000E-03 0. -1.
        -11    1    3    3    0    0  0.72364352742E+01 -0.16699961275E+02  0.10556605670E+02  0.21040357069E+02  0.51100000000E-03 0.  1.
        -12    1    3    3    0    0 -0.11467070245E+02  0.17958936593E+02  0.25757154937E+02  0.33428253529E+02  0.00000000000E+00 0.  1.
</event>
<event>
 7    1  0.4119305E-015  0.9000774E+02  0.7816164E-02  0.1186339E+00
        -11   -1    0    0    0    0  0.00000000000E+00  0.00000000000E+00  0.45593999997E+02  0.45594000000E+02  0.51100000000E-03 0.  1.
         11   -1    0    0    0    0 -0.00000000000E+00 -0.00000000000E+00 -0.45593999997E+02  0.45594000000E+02  0.51100000000E-03 0. -1.
    9900012    2    1    2    0    0  0.64665739780E+00  0.11260900004E+00  0.98090008323E+00  0.90007740897E+02  0.90000002277E+02 0.  0.
         12    1    1    2    0    0 -0.64665739780E+00 -0.11260900004E+00 -0.98090008323E+00  0.11802591030E+01  0.00000000000E+00 0. -1.
         11    1    3    3    0    0 -0.26937419936E+02 -0.21154995815E+02 -0.16477981268E+02  0.38008976672E+02  0.51100000000E-03 0. -1.
        -11    1    3    3    0    0 -0.54464198289E+01  0.36019459160E+01 -0.50885494763E+01  0.82783355434E+01  0.51100000000E-03 0.  1.
        -12    1    3    3    0    0  0.33030497163E+02  0.17665658899E+02  0.22547430827E+02  0.43720428681E+02  0.00000000000E+00 0.  1.
</event>
<event>
 7    1  0.4119305E-015  0.9000806E+02  0.7816164E-02  0.1186338E+00
        -11   -1    0    0    0    0  0.00000000000E+00  0.00000000000E+00  0.45593999997E+02  0.45594000000E+02  0.51100000000E-03 0.  1.
         11   -1    0    0    0    0 -0.00000000000E+00 -0.00000000000E+00 -0.45593999997E+02  0.45594000000E+02  0.51100000000E-03 0. -1.
    9900012    2    1    2    0    0 -0.18878094315E+00 -0.11276552900E+01  0.29159089171E+00  0.90008055109E+02  0.90000320636E+02 0.  0.
         12    1    1    2    0    0  0.18878094315E+00  0.11276552900E+01 -0.29159089171E+00  0.11799448910E+01  0.00000000000E+00 0. -1.
         11    1    3    3    0    0 -0.36586974706E+02 -0.25390547755E+01  0.91555896720E+01  0.37800507136E+02  0.51100000000E-03 0. -1.
        -11    1    3    3    0    0 -0.59814259163E+01 -0.56739158927E+01 -0.33025303190E+01  0.88812996976E+01  0.51100000000E-03 0.  1.
        -12    1    3    3    0    0  0.42379619679E+02  0.70853153783E+01 -0.55614684613E+01  0.43326248275E+02  0.00000000000E+00 0.  1.
</event>
<event>
 7    1  0.4119305E-015  0.9000768E+02  0.7816164E-02  0.1186339E+00
        -11   -1    0    0    0    0  0.00000000000E+00  0.00000000000E+00  0.45593999997E+02  0.45594000000E+02  0.51100000000E-03 0.  1.
         11   -1    0    0    0    0 -0.00000000000E+00 -0.00000000000E+00 -0.45593999997E+02  0.45594000000E+02  0.51100000000E-03 0. -1.
    9900012    2    1    2    0    0 -0.23537517250E+00 -0.56917391316E-01  0.11552167175E+01  0.90007675161E+02  0.89999935673E+02 0.  0.
         12    1    1    2    0    0  0.23537517250E+00  0.56917391316E-01 -0.11552167175E+01  0.11803248391E+01  0.00000000000E+00 0. -1.
         11    1    3    3    0    0 -0.80281973262E+00  0.84191928335E+01  0.40044644258E+01  0.93575137237E+01  0.51100000000E-03 0. -1.
        -11    1    3    3    0    0 -0.13619850691E+02 -0.10811809010E+02  0.35589265729E+02  0.39610495861E+02  0.51100000000E-03 0.  1.
         12    1    3    3    0    0  0.14187295251E+02  0.23356987851E+01 -0.38438513437E+02  0.41039665577E+02  0.00000000000E+00 0. -1.
</event>
<event>
 7    1  0.4119305E-015  0.9000792E+02  0.7816164E-02  0.1186339E+00
        -11   -1    0    0    0    0  0.00000000000E+00  0.00000000000E+00  0.45593999997E+02  0.45594000000E+02  0.51100000000E-03 0.  1.
         11   -1    0    0    0    0 -0.00000000000E+00 -0.00000000000E+00 -0.45593999997E+02  0.45594000000E+02  0.51100000000E-03 0. -1.
    9900012    2    1    2    0    0 -0.21249954612E+00  0.79997689891E+00  0.84111461524E+00  0.90007918269E+02  0.90000181990E+02 0.  0.
         12    1    1    2    0    0  0.21249954612E+00 -0.79997689891E+00 -0.84111461524E+00  0.11800817310E+01  0.00000000000E+00 0. -1.
         11    1    3    3    0    0 -0.25934691115E+02 -0.22641362899E+02  0.99604813626E+01  0.35839234177E+02  0.51100000000E-03 0. -1.
        -11    1    3    3    0    0 -0.44658777672E+01 -0.84031645663E+01 -0.16638532953E+01  0.96605200175E+01  0.51100000000E-03 0.  1.
        -12    1    3    3    0    0  0.30188069336E+02  0.31844504364E+02 -0.74555134521E+01  0.44508164074E+02  0.00000000000E+00 0.  1.
</event>
<event>
 7    1  0.4119305E-015  0.9000773E+02  0.7816164E-02  0.1186339E+00
        -11   -1    0    0    0    0  0.00000000000E+00  0.00000000000E+00  0.45593999997E+02  0.45594000000E+02  0.51100000000E-03 0. -1.
         11   -1    0    0    0    0 -0.00000000000E+00 -0.00000000000E+00 -0.45593999997E+02  0.45594000000E+02  0.51100000000E-03 0.  1.
    9900012    2    1    2    0    0  0.26551575355E+00  0.11889719572E-01 -0.11499503163E+01  0.90007734898E+02  0.89999996199E+02 0.  0.
         12    1    1    2    0    0 -0.26551575355E+00 -0.11889719572E-01  0.11499503163E+01  0.11802651019E+01  0.00000000000E+00 0. -1.
         11    1    3    3    0    0  0.89424637965E+01  0.25652693080E+02  0.22531812053E+02  0.35294629558E+02  0.51100000000E-03 0. -1.
        -11    1    3    3    0    0  0.73531622890E+01  0.73961188073E+01  0.98655828157E+00  0.10475918411E+02  0.51100000000E-03 0.  1.
        -12    1    3    3    0    0 -0.16030110332E+02 -0.33036922168E+02 -0.24668320651E+02  0.44237186928E+02  0.00000000000E+00 0.  1.
</event>
<event>
 7    1  0.4119305E-015  0.9000778E+02  0.7816164E-02  0.1186339E+00
        -11   -1    0    0    0    0  0.00000000000E+00  0.00000000000E+00  0.45593999997E+02  0.45594000000E+02  0.51100000000E-03 0. -1.
         11   -1    0    0    0    0 -0.00000000000E+00 -0.00000000000E+00 -0.45593999997E+02  0.45594000000E+02  0.51100000000E-03 0.  1.
    9900012    2    1    2    0    0  0.10730213332E+01  0.39407983681E+00 -0.29368640624E+00  0.90007777392E+02  0.90000039254E+02 0.  0.
         12    1    1    2    0    0 -0.10730213332E+01 -0.39407983681E+00  0.29368640624E+00  0.11802226081E+01  0.00000000000E+00 0. -1.
         11    1    3    3    0    0  0.94436949012E+01  0.11017177515E+01 -0.27814898432E+01  0.99062526416E+01  0.51100000000E-03 0. -1.
        -11    1    3    3    0    0  0.19268453180E+02 -0.32572412867E+02 -0.29608113551E-01  0.37844897210E+02  0.51100000000E-03 0.  1.
         12    1    3    3    0    0 -0.27639126747E+02  0.31864774953E+02  0.25174115505E+01  0.42256627540E+02  0.00000000000E+00 0. -1.
</event>
<event>
 7    1  0.4119305E-015  0.9000766E+02  0.7816164E-02  0.1186339E+00
        -11   -1    0    0    0    0  0.00000000000E+00  0.00000000000E+00  0.45593999997E+02  0.45594000000E+02  0.51100000000E-03 0.  1.
         11   -1    0    0    0    0 -0.00000000000E+00 -0.00000000000E+00 -0.45593999997E+02  0.45594000000E+02  0.51100000000E-03 0. -1.
    9900012    2    1    2    0    0 -0.14352286896E+00  0.11511826848E+01 -0.21769246968E+00  0.90007656661E+02  0.89999916928E+02 0.  0.
         12    1    1    2    0    0  0.14352286896E+00 -0.11511826848E+01  0.21769246968E+00  0.11803433394E+01  0.00000000000E+00 0. -1.
         11    1    3    3    0    0  0.29350615413E+01 -0.24754284977E+02 -0.28210799701E+02  0.37646227315E+02  0.51100000000E-03 0. -1.
        -11    1    3    3    0    0 -0.15624213675E+02  0.20151704283E+01  0.40009039679E+01  0.16253744111E+02  0.51100000000E-03 0.  1.
        -12    1    3    3    0    0  0.12545629264E+02  0.23890297234E+02  0.23992203264E+02  0.36107685235E+02  0.00000000000E+00 0.  1.
</event>
<event>
 7    1  0.4119305E-015  0.9000775E+02  0.7816164E-02  0.1186339E+00
        -11   -1    0    0    0    0  0.00000000000E+00  0.00000000000E+00  0.45593999997E+02  0.45594000000E+02  0.51100000000E-03 0. -1.
         11   -1    0    0    0    0 -0.00000000000E+00 -0.00000000000E+00 -0.45593999997E+02  0.45594000000E+02  0.51100000000E-03 0.  1.
    9900012    2    1    2    0    0  0.86831144879E+00 -0.70243271494E+00  0.38159792757E+00  0.90007748557E+02  0.90000010038E+02 0.  0.
         12    1    1    2    0    0 -0.86831144879E+00  0.70243271494E+00 -0.38159792757E+00  0.11802514433E+01  0.00000000000E+00 0. -1.
         11    1    3    3    0    0 -0.81380818854E+01  0.85624153557E+00  0.74782160653E+00  0.82171019075E+01  0.51100000000E-03 0. -1.
        -11    1    3    3    0    0 -0.29300635639E+02  0.12093826586E+02 -0.19108419545E+02  0.37012424780E+02  0.51100000000E-03 0.  1.
         12    1    3    3    0    0  0.38307028973E+02 -0.13652500836E+02  0.18742195866E+02  0.44778221869E+02  0.00000000000E+00 0. -1.
</event>
<event>
 7    1  0.4119305E-015  0.9000778E+02  0.7816164E-02  0.1186339E+00
        -11   -1    0    0    0    0  0.00000000000E+00  0.00000000000E+00  0.45593999997E+02  0.45594000000E+02  0.51100000000E-03 0.  1.
         11   -1    0    0    0    0 -0.00000000000E+00 -0.00000000000E+00 -0.45593999997E+02  0.45594000000E+02  0.51100000000E-03 0. -1.
    9900012    2    1    2    0    0 -0.11516893424E+01 -0.17632430129E+00 -0.18824694990E+00  0.90007781582E+02  0.90000043499E+02 0.  0.
         12    1    1    2    0    0  0.11516893424E+01  0.17632430129E+00  0.18824694990E+00  0.11802184182E+01  0.00000000000E+00 0. -1.
         11    1    3    3    0    0 -0.61124041994E+01  0.31217918504E+02  0.18136876018E+02  0.36617839816E+02  0.51100000000E-03 0. -1.
        -11    1    3    3    0    0 -0.10795871474E+02  0.38990332372E+01 -0.36093796255E+01  0.12032494446E+02  0.51100000000E-03 0.  1.
        -12    1    3    3    0    0  0.15756586331E+02 -0.35293276043E+02 -0.14715743343E+02  0.41357447319E+02  0.00000000000E+00 0.  1.
</event>
<event>
 7    1  0.4119305E-015  0.9000777E+02  0.7816164E-02  0.1186339E+00
        -11   -1    0    0    0    0  0.00000000000E+00  0.00000000000E+00  0.45593999997E+02  0.45594000000E+02  0.51100000000E-03 0.  1.
         11   -1    0    0    0    0 -0.00000000000E+00 -0.00000000000E+00 -0.45593999997E+02  0.45594000000E+02  0.51100000000E-03 0. -1.
    9900012    2    1    2    0    0 -0.17830747146E+00  0.16256840217E+00  0.11553041280E+01  0.90007767113E+02  0.90000028839E+02 0.  0.
         12    1    1    2    0    0  0.17830747146E+00 -0.16256840217E+00 -0.11553041280E+01  0.11802328871E+01  0.00000000000E+00 0. -1.
         11    1    3    3    0    0 -0.71279303192E+01  0.17773258451E+02 -0.32193116579E+02  0.37457881173E+02  0.51100000000E-03 0. -1.
        -11    1    3    3    0    0 -0.11650603825E+02 -0.26399806383E+01  0.52057721242E+00  0.11957301876E+02  0.51100000000E-03 0.  1.
        -12    1    3    3    0    0  0.18600226673E+02 -0.14970709411E+02  0.32827843495E+02  0.40592584065E+02  0.00000000000E+00 0.  1.
</event>
<event>
 7    1  0.4119305E-015  0.9000774E+02  0.7816164E-02  0.1186339E+00
        -11   -1    0    0    0    0  0.00000000000E+00  0.00000000000E+00  0.45593999997E+02  0.45594000000E+02  0.51100000000E-03 0.  1.
         11   -1    0    0    0    0 -0.00000000000E+00 -0.00000000000E+00 -0.45593999997E+02  0.45594000000E+02  0.51100000000E-03 0. -1.
    9900012    2    1    2    0    0  0.25740976212E-01 -0.10267406459E+01  0.58151643893E+00  0.90007737182E+02  0.89999998512E+02 0.  0.
         12    1    1    2    0    0 -0.25740976212E-01  0.10267406459E+01 -0.58151643893E+00  0.11802628184E+01  0.00000000000E+00 0. -1.
         11    1    3    3    0    0  0.59897949459E+01 -0.71060187367E+01 -0.28829573142E+01  0.97306006452E+01  0.51100000000E-03 0. -1.
        -11    1    3    3    0    0 -0.22716581867E+01 -0.10599439595E+02  0.39198558860E+02  0.40669836090E+02  0.51100000000E-03 0.  1.
         12    1    3    3    0    0 -0.36923957829E+01  0.16678717686E+02 -0.35734085107E+02  0.39607300447E+02  0.00000000000E+00 0. -1.
</event>
<event>
 7    1  0.4119305E-015  0.9000791E+02  0.7816164E-02  0.1186339E+00
        -11   -1    0    0    0    0  0.00000000000E+00  0.00000000000E+00  0.45593999997E+02  0.45594000000E+02  0.51100000000E-03 0.  1.
         11   -1    0    0    0    0 -0.00000000000E+00 -0.00000000000E+00 -0.45593999997E+02  0.45594000000E+02  0.51100000000E-03 0. -1.
    9900012    2    1    2    0    0 -0.30974805169E+00  0.89740884696E+00  0.70093968515E+00  0.90007914013E+02  0.90000177678E+02 0.  0.
         12    1    1    2    0    0  0.30974805169E+00 -0.89740884696E+00 -0.70093968515E+00  0.11800859868E+01  0.00000000000E+00 0. -1.
         11    1    3    3    0    0 -0.92382517258E+00  0.76600693849E+01  0.55912990644E+01  0.95285225203E+01  0.51100000000E-03 0. -1.
        -11    1    3    3    0    0  0.46461951288E+00  0.36147401557E+01  0.37072979651E+02  0.37251685038E+02  0.51100000000E-03 0.  1.
         12    1    3    3    0    0  0.14945760801E+00 -0.10377400694E+02 -0.41963339031E+02  0.43227706455E+02  0.00000000000E+00 0. -1.
</event>
<event>
 7    1  0.4119305E-015  0.9000777E+02  0.7816164E-02  0.1186339E+00
        -11   -1    0    0    0    0  0.00000000000E+00  0.00000000000E+00  0.45593999997E+02  0.45594000000E+02  0.51100000000E-03 0.  1.
         11   -1    0    0    0    0 -0.00000000000E+00 -0.00000000000E+00 -0.45593999997E+02  0.45594000000E+02  0.51100000000E-03 0. -1.
    9900012    2    1    2    0    0 -0.27814464160E+00  0.11682522226E+00  0.11410259811E+01  0.90007765759E+02  0.90000027467E+02 0.  0.
         12    1    1    2    0    0  0.27814464160E+00 -0.11682522226E+00 -0.11410259811E+01  0.11802342411E+01  0.00000000000E+00 0. -1.
         11    1    3    3    0    0 -0.62167754343E+01 -0.17027430587E+02  0.22818990924E+01  0.18269886505E+02  0.51100000000E-03 0. -1.
        -11    1    3    3    0    0  0.27430630342E+02 -0.13353783346E+02  0.11109493044E+02  0.32468197464E+02  0.51100000000E-03 0.  1.
         12    1    3    3    0    0 -0.21491999549E+02  0.30498039155E+02 -0.12250366156E+02  0.39269681790E+02  0.00000000000E+00 0. -1.
</event>
<event>
 7    1  0.4119305E-015  0.9000779E+02  0.7816164E-02  0.1186339E+00
        -11   -1    0    0    0    0  0.00000000000E+00  0.00000000000E+00  0.45593999997E+02  0.45594000000E+02  0.51100000000E-03 0. -1.
         11   -1    0    0    0    0 -0.00000000000E+00 -0.00000000000E+00 -0.45593999997E+02  0.45594000000E+02  0.51100000000E-03 0.  1.
    9900012    2    1    2    0    0 -0.64782624991E+00 -0.70038790807E+00 -0.69474619788E+00  0.90007790548E+02  0.90000052583E+02 0.  0.
         12    1    1    2    0    0  0.64782624991E+00  0.70038790807E+00  0.69474619788E+00  0.11802094523E+01  0.00000000000E+00 0. -1.
         11    1    3    3    0    0  0.32585248524E+01  0.23633090397E+01  0.81344678575E+01  0.90759452078E+01  0.51100000000E-03 0. -1.
        -11    1    3    3    0    0 -0.26959702660E+02  0.28952476083E+02  0.31895567660E+01  0.39689352621E+02  0.51100000000E-03 0.  1.
         12    1    3    3    0    0  0.23053351558E+02 -0.32016173031E+02 -0.12018770821E+02  0.41242492719E+02  0.00000000000E+00 0. -1.
</event>
<event>
 7    1  0.4119305E-015  0.9000868E+02  0.7816164E-02  0.1186337E+00
        -11   -1    0    0    0    0  0.00000000000E+00  0.00000000000E+00  0.45593999997E+02  0.45594000000E+02  0.51100000000E-03 0. -1.
         11   -1    0    0    0    0 -0.00000000000E+00 -0.00000000000E+00 -0.45593999997E+02  0.45594000000E+02  0.51100000000E-03 0.  1.
    9900012    2    1    2    0    0 -0.87207542093E+00  0.49079117838E+00 -0.62402133054E+00  0.90008680645E+02  0.90000954424E+02 0.  0.
         12    1    1    2    0    0  0.87207542093E+00 -0.49079117838E+00  0.62402133054E+00  0.11793193552E+01  0.00000000000E+00 0. -1.
         11    1    3    3    0    0  0.33792101178E-01 -0.10161017435E+00 -0.94975324834E+01  0.94981361365E+01  0.51100000000E-03 0. -1.
        -11    1    3    3    0    0  0.20420509450E+02  0.32580898629E+02 -0.66990724699E+01  0.39030625590E+02  0.51100000000E-03 0.  1.
         12    1    3    3    0    0 -0.21326376973E+02 -0.31988497277E+02  0.15572583623E+02  0.41479918918E+02  0.00000000000E+00 0. -1.
</event>
<event>
 7    1  0.4119305E-015  0.9000764E+02  0.7816164E-02  0.1186339E+00
        -11   -1    0    0    0    0  0.00000000000E+00  0.00000000000E+00  0.45593999997E+02  0.45594000000E+02  0.51100000000E-03 0.  1.
         11   -1    0    0    0    0 -0.00000000000E+00 -0.00000000000E+00 -0.45593999997E+02  0.45594000000E+02  0.51100000000E-03 0. -1.
    9900012    2    1    2    0    0 -0.43754026067E+00  0.69265952812E+00  0.84972318888E+00  0.90007640648E+02  0.89999900705E+02 0.  0.
         12    1    1    2    0    0  0.43754026067E+00 -0.69265952812E+00 -0.84972318888E+00  0.11803593518E+01  0.00000000000E+00 0. -1.
         11    1    3    3    0    0  0.12566869861E+02 -0.18311785036E+02 -0.31181264351E+02  0.38282096809E+02  0.51100000000E-03 0. -1.
        -11    1    3    3    0    0  0.87111754434E+01 -0.19285304921E+01  0.19612621847E+01  0.91351166978E+01  0.51100000000E-03 0.  1.
        -12    1    3    3    0    0 -0.21715585565E+02  0.20932975057E+02  0.30069725355E+02  0.42590427141E+02  0.00000000000E+00 0.  1.
</event>
<event>
 7    1  0.4119305E-015  0.9000772E+02  0.7816164E-02  0.1186339E+00
        -11   -1    0    0    0    0  0.00000000000E+00  0.00000000000E+00  0.45593999997E+02  0.45594000000E+02  0.51100000000E-03 0.  1.
         11   -1    0    0    0    0 -0.00000000000E+00 -0.00000000000E+00 -0.45593999997E+02  0.45594000000E+02  0.51100000000E-03 0. -1.
    9900012    2    1    2    0    0  0.58115888469E+00  0.83525787619E+00  0.59803698355E+00  0.90007724777E+02  0.89999985944E+02 0.  0.
         12    1    1    2    0    0 -0.58115888469E+00 -0.83525787619E+00 -0.59803698355E+00  0.11802752233E+01  0.00000000000E+00 0. -1.
         11    1    3    3    0    0  0.27831282612E+02  0.15064072959E+02 -0.23247371855E+01  0.31731860789E+02  0.51100000000E-03 0. -1.
        -11    1    3    3    0    0  0.83960779885E+01  0.79303820993E+01  0.10519023510E+02  0.15621617768E+02  0.51100000000E-03 0.  1.
        -12    1    3    3    0    0 -0.35646201715E+02 -0.22159197182E+02 -0.75962493409E+01  0.42654246219E+02  0.00000000000E+00 0.  1.
</event>
<event>
 7    1  0.4119305E-015  0.9000777E+02  0.7816164E-02  0.1186339E+00
        -11   -1    0    0    0    0  0.00000000000E+00  0.00000000000E+00  0.45593999997E+02  0.45594000000E+02  0.51100000000E-03 0.  1.
         11   -1    0    0    0    0 -0.00000000000E+00 -0.00000000000E+00 -0.45593999997E+02  0.45594000000E+02  0.51100000000E-03 0. -1.
    9900012    2    1    2    0    0 -0.44647499201E+00 -0.51935870891E+00 -0.96117799522E+00  0.90007772681E+02  0.90000034480E+02 0.  0.
         12    1    1    2    0    0  0.44647499201E+00  0.51935870891E+00  0.96117799522E+00  0.11802273194E+01  0.00000000000E+00 0. -1.
         11    1    3    3    0    0  0.33377396636E+01  0.90306197252E+01  0.59480730691E+01  0.11316897639E+02  0.51100000000E-03 0. -1.
        -11    1    3    3    0    0  0.31532149903E+02 -0.19292979927E+02  0.10068022446E+02  0.38312669291E+02  0.51100000000E-03 0.  1.
         12    1    3    3    0    0 -0.35316364559E+02  0.97430014927E+01 -0.16977273511E+02  0.40378205750E+02  0.00000000000E+00 0. -1.
</event>
<event>
 7    1  0.4119305E-015  0.9000795E+02  0.7816164E-02  0.1186339E+00
        -11   -1    0    0    0    0  0.00000000000E+00  0.00000000000E+00  0.45593999997E+02  0.45594000000E+02  0.51100000000E-03 0.  1.
         11   -1    0    0    0    0 -0.00000000000E+00 -0.00000000000E+00 -0.45593999997E+02  0.45594000000E+02  0.51100000000E-03 0. -1.
    9900012    2    1    2    0    0 -0.11018529211E+01  0.30695299864E+00 -0.29020961800E+00  0.90007948465E+02  0.90000212584E+02 0.  0.
         12    1    1    2    0    0  0.11018529211E+01 -0.30695299864E+00  0.29020961800E+00  0.11800515351E+01  0.00000000000E+00 0. -1.
         11    1    3    3    0    0 -0.28910541879E+01 -0.30574740858E+02  0.13622988345E+02  0.33597005589E+02  0.51100000000E-03 0. -1.
        -11    1    3    3    0    0  0.65617933394E-01 -0.10388886874E+02 -0.10802270565E+02  0.14987405573E+02  0.51100000000E-03 0.  1.
        -12    1    3    3    0    0  0.17235833334E+01  0.41270580731E+02 -0.31109273977E+01  0.41423537302E+02  0.00000000000E+00 0.  1.
</event>
<event>
 7    1  0.4119305E-015  0.9000763E+02  0.7816164E-02  0.1186339E+00
        -11   -1    0    0    0    0  0.00000000000E+00  0.00000000000E+00  0.45593999997E+02  0.45594000000E+02  0.51100000000E-03 0.  1.
         11   -1    0    0    0    0 -0.00000000000E+00 -0.00000000000E+00 -0.45593999997E+02  0.45594000000E+02  0.51100000000E-03 0. -1.
    9900012    2    1    2    0    0  0.21948661022E+00 -0.11596132881E+01  0.20183777007E-01  0.90007625172E+02  0.89999885024E+02 0.  0.
         12    1    1    2    0    0 -0.21948661022E+00  0.11596132881E+01 -0.20183777007E-01  0.11803748281E+01  0.00000000000E+00 0. -1.
         11    1    3    3    0    0  0.22673617712E+02  0.22308564533E+02 -0.25092827065E+02  0.40514379695E+02  0.51100000000E-03 0. -1.
        -11    1    3    3    0    0  0.11621112062E+01 -0.93467951640E+01 -0.32619077390E+01  0.99676037568E+01  0.51100000000E-03 0.  1.
        -12    1    3    3    0    0 -0.23616242308E+02 -0.14121382657E+02  0.28374918581E+02  0.39525641720E+02  0.00000000000E+00 0.  1.
</event>
<event>
 7    1  0.4119305E-015  0.9000746E+02  0.7816164E-02  0.1186340E+00
        -11   -1    0    0    0    0  0.00000000000E+00  0.00000000000E+00  0.45593999997E+02  0.45594000000E+02  0.51100000000E-03 0.  1.
         11   -1    0    0    0    0 -0.00000000000E+00 -0.00000000000E+00 -0.45593999997E+02  0.45594000000E+02  0.51100000000E-03 0. -1.
    9900012    2    1    2    0    0  0.32392967899E+00  0.70074749751E+00 -0.89313499517E+00  0.90007462999E+02  0.89999720710E+02 0.  0.
         12    1    1    2    0    0 -0.32392967899E+00 -0.70074749751E+00  0.89313499517E+00  0.11805370014E+01  0.00000000000E+00 0. -1.
         11    1    3    3    0    0 -0.96430512143E+00 -0.46216756018E+01  0.81872995132E+01  0.94510128196E+01  0.51100000000E-03 0. -1.
        -11    1    3    3    0    0  0.28266588859E+02  0.11143520019E+02  0.23095613375E+02  0.38165238655E+02  0.51100000000E-03 0.  1.
         12    1    3    3    0    0 -0.26978354058E+02 -0.58210969201E+01 -0.32176047884E+02  0.42391211524E+02  0.00000000000E+00 0. -1.
</event>
<event>
 7    1  0.4119305E-015  0.9000774E+02  0.7816164E-02  0.1186339E+00
        -11   -1    0    0    0    0  0.00000000000E+00  0.00000000000E+00  0.45593999997E+02  0.45594000000E+02  0.51100000000E-03 0. -1.
         11   -1    0    0    0    0 -0.00000000000E+00 -0.00000000000E+00 -0.45593999997E+02  0.45594000000E+02  0.51100000000E-03 0.  1.
    9900012    2    1    2    0    0  0.10934476589E+01  0.63091686220E-02 -0.44424949290E+00  0.90007735114E+02  0.89999996418E+02 0.  0.
         12    1    1    2    0    0 -0.10934476589E+01 -0.63091686220E-02  0.44424949290E+00  0.11802648857E+01  0.00000000000E+00 0. -1.
         11    1    3    3    0    0 -0.94275222936E+01  0.44573565748E+01  0.31314696673E+02  0.33005400046E+02  0.51100000000E-03 0. -1.
        -11    1    3    3    0    0 -0.14123343942E+01  0.16526150057E+02  0.64460496583E+00  0.16598910807E+02  0.51100000000E-03 0.  1.
        -12    1    3    3    0    0  0.11933304347E+02 -0.20977197463E+02 -0.32403551132E+02  0.40403424261E+02  0.00000000000E+00 0.  1.
</event>
<event>
 7    1  0.4119305E-015  0.9000784E+02  0.7816164E-02  0.1186339E+00
        -11   -1    0    0    0    0  0.00000000000E+00  0.00000000000E+00  0.45593999997E+02  0.45594000000E+02  0.51100000000E-03 0.  1.
         11   -1    0    0    0    0 -0.00000000000E+00 -0.00000000000E+00 -0.45593999997E+02  0.45594000000E+02  0.51100000000E-03 0. -1.
    9900012    2    1    2    0    0  0.11139508913E+01  0.38771791813E+00 -0.39703050504E-01  0.90007835560E+02  0.90000098190E+02 0.  0.
         12    1    1    2    0    0 -0.11139508913E+01 -0.38771791813E+00  0.39703050504E-01  0.11801644396E+01  0.00000000000E+00 0. -1.
         11    1    3    3    0    0 -0.58180796051E+00  0.99561496116E+01  0.25187602635E+01  0.10286280626E+02  0.51100000000E-03 0. -1.
        -11    1    3    3    0    0  0.15224566748E+02  0.28830817676E+02  0.14369381219E+02  0.35629799290E+02  0.51100000000E-03 0.  1.
         12    1    3    3    0    0 -0.13528807897E+02 -0.38399249370E+02 -0.16927844533E+02  0.44091755644E+02  0.00000000000E+00 0. -1.
</event>
<event>
 7    1  0.4119305E-015  0.9000770E+02  0.7816164E-02  0.1186339E+00
        -11   -1    0    0    0    0  0.00000000000E+00  0.00000000000E+00  0.45593999997E+02  0.45594000000E+02  0.51100000000E-03 0. -1.
         11   -1    0    0    0    0 -0.00000000000E+00 -0.00000000000E+00 -0.45593999997E+02  0.45594000000E+02  0.51100000000E-03 0.  1.
    9900012    2    1    2    0    0 -0.10421904868E+01 -0.52058220640E+00  0.18958771176E+00  0.90007699045E+02  0.89999959872E+02 0.  0.
         12    1    1    2    0    0  0.10421904868E+01  0.52058220640E+00 -0.18958771176E+00  0.11803009552E+01  0.00000000000E+00 0. -1.
         11    1    3    3    0    0  0.22468394238E+02  0.38382613928E+01  0.94260239489E+01  0.24665987066E+02  0.51100000000E-03 0. -1.
        -11    1    3    3    0    0  0.11365444954E+02  0.14799266699E+02  0.99710677368E+01  0.21156886017E+02  0.51100000000E-03 0.  1.
        -12    1    3    3    0    0 -0.34876029680E+02 -0.19158110299E+02 -0.19207503974E+02  0.44184825962E+02  0.00000000000E+00 0.  1.
</event>
<event>
 7    1  0.4119305E-015  0.9000796E+02  0.7816164E-02  0.1186339E+00
        -11   -1    0    0    0    0  0.00000000000E+00  0.00000000000E+00  0.45593999997E+02  0.45594000000E+02  0.51100000000E-03 0.  1.
         11   -1    0    0    0    0 -0.00000000000E+00 -0.00000000000E+00 -0.45593999997E+02  0.45594000000E+02  0.51100000000E-03 0. -1.
    9900012    2    1    2    0    0  0.10431537266E+01 -0.37142458466E+00  0.40789255469E+00  0.90007956672E+02  0.90000220900E+02 0.  0.
         12    1    1    2    0    0 -0.10431537266E+01  0.37142458466E+00 -0.40789255469E+00  0.11800433278E+01  0.00000000000E+00 0. -1.
         11    1    3    3    0    0  0.18747413297E+01  0.84549281548E+01 -0.15529391604E+01  0.87984138032E+01  0.51100000000E-03 0. -1.
        -11    1    3    3    0    0  0.10474155446E+02 -0.31908356842E+02  0.28659458388E+02  0.44149923261E+02  0.51100000000E-03 0.  1.
         12    1    3    3    0    0 -0.11305743049E+02  0.23082004102E+02 -0.26698626673E+02  0.37059619608E+02  0.00000000000E+00 0. -1.
</event>
<event>
 7    1  0.4119305E-015  0.9000775E+02  0.7816164E-02  0.1186339E+00
        -11   -1    0    0    0    0  0.00000000000E+00  0.00000000000E+00  0.45593999997E+02  0.45594000000E+02  0.51100000000E-03 0.  1.
         11   -1    0    0    0    0 -0.00000000000E+00 -0.00000000000E+00 -0.45593999997E+02  0.45594000000E+02  0.51100000000E-03 0. -1.
    9900012    2    1    2    0    0 -0.42061452453E+00  0.15214168900E+00  0.10922102315E+01  0.90007751356E+02  0.90000012874E+02 0.  0.
         12    1    1    2    0    0  0.42061452453E+00 -0.15214168900E+00 -0.10922102315E+01  0.11802486440E+01  0.00000000000E+00 0. -1.
         11    1    3    3    0    0 -0.15459929856E+02 -0.22201181388E+02 -0.25193782483E+02  0.36967939654E+02  0.51100000000E-03 0. -1.
        -11    1    3    3    0    0 -0.61336858390E+01 -0.59552297551E+01 -0.68308076703E+00  0.85763315586E+01  0.51100000000E-03 0.  1.
        -12    1    3    3    0    0  0.21173001170E+02  0.28308552832E+02  0.26969073482E+02  0.44463480144E+02  0.00000000000E+00 0.  1.
</event>
<event>
 7    1  0.4119305E-015  0.9000785E+02  0.7816164E-02  0.1186339E+00
        -11   -1    0    0    0    0  0.00000000000E+00  0.00000000000E+00  0.45593999997E+02  0.45594000000E+02  0.51100000000E-03 0.  1.
         11   -1    0    0    0    0 -0.00000000000E+00 -0.00000000000E+00 -0.45593999997E+02  0.45594000000E+02  0.51100000000E-03 0. -1.
    9900012    2    1    2    0    0 -0.73461663094E+00 -0.13900090883E-01  0.92352506927E+00  0.90007850280E+02  0.90000113104E+02 0.  0.
         12    1    1    2    0    0  0.73461663094E+00  0.13900090883E-01 -0.92352506927E+00  0.11801497195E+01  0.00000000000E+00 0. -1.
         11    1    3    3    0    0 -0.81513975492E+01 -0.35093507204E+01 -0.40360887122E+01  0.97494018707E+01  0.51100000000E-03 0. -1.
        -11    1    3    3    0    0  0.18754420161E+02 -0.33457800369E+02  0.13519613751E+02  0.40668570633E+02  0.51100000000E-03 0.  1.
         12    1    3    3    0    0 -0.11337639243E+02  0.36953250998E+02 -0.85599999691E+01  0.39589877777E+02  0.00000000000E+00 0. -1.
</event>
<event>
 7    1  0.4119305E-015  0.9000778E+02  0.7816164E-02  0.1186339E+00
        -11   -1    0    0    0    0  0.00000000000E+00  0.00000000000E+00  0.45593999997E+02  0.45594000000E+02  0.51100000000E-03 0. -1.
         11   -1    0    0    0    0 -0.00000000000E+00 -0.00000000000E+00 -0.45593999997E+02  0.45594000000E+02  0.51100000000E-03 0.  1.
    9900012    2    1    2    0    0 -0.59852032659E+00 -0.76940971902E+00  0.66535722051E+00  0.90007780475E+02  0.90000042377E+02 0.  0.
         12    1    1    2    0    0  0.59852032659E+00  0.76940971902E+00 -0.66535722051E+00  0.11802195253E+01  0.00000000000E+00 0. -1.
         11    1    3    3    0    0 -0.81903631831E+01 -0.55744679133E+01 -0.35000243347E+01  0.10507469352E+02  0.51100000000E-03 0. -1.
        -11    1    3    3    0    0 -0.31337352898E+02  0.27467969691E+01 -0.16344960629E+02  0.35450420568E+02  0.51100000000E-03 0.  1.
         12    1    3    3    0    0  0.38929195754E+02  0.20582612252E+01  0.20510342184E+02  0.44049890554E+02  0.00000000000E+00 0. -1.
</event>
<event>
 7    1  0.4119305E-015  0.9000769E+02  0.7816164E-02  0.1186339E+00
        -11   -1    0    0    0    0  0.00000000000E+00  0.00000000000E+00  0.45593999997E+02  0.45594000000E+02  0.51100000000E-03 0. -1.
         11   -1    0    0    0    0 -0.00000000000E+00 -0.00000000000E+00 -0.45593999997E+02  0.45594000000E+02  0.51100000000E-03 0.  1.
    9900012    2    1    2    0    0 -0.11232026306E+01 -0.16927370033E+00 -0.32078174189E+00  0.90007687050E+02  0.89999947719E+02 0.  0.
         12    1    1    2    0    0  0.11232026306E+01  0.16927370033E+00  0.32078174189E+00  0.11803129505E+01  0.00000000000E+00 0. -1.
         11    1    3    3    0    0  0.24366229764E+02 -0.11335252641E+02  0.27807912281E+02  0.38671450593E+02  0.51100000000E-03 0. -1.
        -11    1    3    3    0    0 -0.78022902153E+00 -0.91531517618E+01 -0.72849092262E+00  0.92151854993E+01  0.51100000000E-03 0.  1.
        -12    1    3    3    0    0 -0.24709203373E+02  0.20319130702E+02 -0.27400203100E+02  0.42121050957E+02  0.00000000000E+00 0.  1.
</event>
<event>
 7    1  0.4119305E-015  0.9000736E+02  0.7816164E-02  0.1186340E+00
        -11   -1    0    0    0    0  0.00000000000E+00  0.00000000000E+00  0.45593999997E+02  0.45594000000E+02  0.51100000000E-03 0. -1.
         11   -1    0    0    0    0 -0.00000000000E+00 -0.00000000000E+00 -0.45593999997E+02  0.45594000000E+02  0.51100000000E-03 0.  1.
    9900012    2    1    2    0    0  0.84263459359E+00 -0.64844658199E+00 -0.51321746478E+00  0.90007361108E+02  0.89999617473E+02 0.  0.
         12    1    1    2    0    0 -0.84263459359E+00  0.64844658199E+00  0.51321746478E+00  0.11806388924E+01  0.00000000000E+00 0. -1.
         11    1    3    3    0    0 -0.17069902826E+02 -0.11279628405E+02  0.31274529170E+02  0.37372553759E+02  0.51100000000E-03 0. -1.
        -11    1    3    3    0    0 -0.16088843990E+00 -0.14786623878E+01  0.75429304991E+01  0.76881810802E+01  0.51100000000E-03 0.  1.
        -12    1    3    3    0    0  0.18073425859E+02  0.12109844211E+02 -0.39330677134E+02  0.44946626268E+02  0.00000000000E+00 0.  1.
</event>
<event>
 7    1  0.4119305E-015  0.9000773E+02  0.7816164E-02  0.1186339E+00
        -11   -1    0    0    0    0  0.00000000000E+00  0.00000000000E+00  0.45593999997E+02  0.45594000000E+02  0.51100000000E-03 0. -1.
         11   -1    0    0    0    0 -0.00000000000E+00 -0.00000000000E+00 -0.45593999997E+02  0.45594000000E+02  0.51100000000E-03 0.  1.
    9900012    2    1    2    0    0 -0.40686159220E+00 -0.40950473939E+00 -0.10294729384E+01  0.90007726719E+02  0.89999987912E+02 0.  0.
         12    1    1    2    0    0  0.40686159220E+00  0.40950473939E+00  0.10294729384E+01  0.11802732809E+01  0.00000000000E+00 0. -1.
         11    1    3    3    0    0 -0.27050629468E+01  0.76380048809E+01  0.34003138194E+02  0.34955255562E+02  0.51100000000E-03 0. -1.
        -11    1    3    3    0    0  0.71308182714E+01  0.20137973279E+01  0.78183068413E+01  0.10771716252E+02  0.51100000000E-03 0.  1.
        -12    1    3    3    0    0 -0.48326169168E+01 -0.10061306948E+02 -0.42850917973E+02  0.44280754905E+02  0.00000000000E+00 0.  1.
</event>
<event>
 7    1  0.4119305E-015  0.9000773E+02  0.7816164E-02  0.1186339E+00
        -11   -1    0    0    0    0  0.00000000000E+00  0.00000000000E+00  0.45593999997E+02  0.45594000000E+02  0.51100000000E-03 0.  1.
         11   -1    0    0    0    0 -0.00000000000E+00 -0.00000000000E+00 -0.45593999997E+02  0.45594000000E+02  0.51100000000E-03 0. -1.
    9900012    2    1    2    0    0  0.57839143227E+00 -0.48516273188E+00  0.90725677917E+00  0.90007731222E+02  0.89999992474E+02 0.  0.
         12    1    1    2    0    0 -0.57839143227E+00  0.48516273188E+00 -0.90725677917E+00  0.11802687782E+01  0.00000000000E+00 0. -1.
         11    1    3    3    0    0  0.54070035795E+01 -0.78796945411E+01  0.86895850522E+01  0.12916429941E+02  0.51100000000E-03 0. -1.
        -11    1    3    3    0    0 -0.19448067723E+00 -0.34421806869E+02 -0.71687655794E+00  0.34429820260E+02  0.51100000000E-03 0.  1.
         12    1    3    3    0    0 -0.46341314700E+01  0.41816338679E+02 -0.70654517151E+01  0.42661481021E+02  0.00000000000E+00 0. -1.
</event>
<event>
 7    1  0.4119305E-015  0.9000772E+02  0.7816164E-02  0.1186339E+00
        -11   -1    0    0    0    0  0.00000000000E+00  0.00000000000E+00  0.45593999997E+02  0.45594000000E+02  0.51100000000E-03 0.  1.
         11   -1    0    0    0    0 -0.00000000000E+00 -0.00000000000E+00 -0.45593999997E+02  0.45594000000E+02  0.51100000000E-03 0. -1.
    9900012    2    1    2    0    0  0.62708509839E+00 -0.99537444699E+00 -0.95145046863E-01  0.90007720969E+02  0.89999982086E+02 0.  0.
         12    1    1    2    0    0 -0.62708509839E+00  0.99537444699E+00  0.95145046863E-01  0.11802790307E+01  0.00000000000E+00 0. -1.
         11    1    3    3    0    0 -0.82871828316E+01  0.40997056049E+02 -0.10303172072E+02  0.43076575525E+02  0.51100000000E-03 0. -1.
        -11    1    3    3    0    0  0.17492291951E+01 -0.77694749419E+01 -0.43291652809E+01  0.90645582320E+01  0.51100000000E-03 0.  1.
        -12    1    3    3    0    0  0.71650387348E+01 -0.34222955554E+02  0.14537192306E+02  0.37866587212E+02  0.00000000000E+00 0.  1.
</event>
<event>
 7    1  0.4119305E-015  0.9000769E+02  0.7816164E-02  0.1186339E+00
        -11   -1    0    0    0    0  0.00000000000E+00  0.00000000000E+00  0.45593999997E+02  0.45594000000E+02  0.51100000000E-03 0. -1.
         11   -1    0    0    0    0 -0.00000000000E+00 -0.00000000000E+00 -0.45593999997E+02  0.45594000000E+02  0.51100000000E-03 0.  1.
    9900012    2    1    2    0    0 -0.44588429663E+00 -0.10916737280E+01 -0.50699219741E-01  0.90007688708E+02  0.89999949399E+02 0.  0.
         12    1    1    2    0    0  0.44588429663E+00  0.10916737280E+01  0.50699219741E-01  0.11803112916E+01  0.00000000000E+00 0. -1.
         11    1    3    3    0    0 -0.35958374221E+01 -0.27751379147E+02  0.21964874765E+02  0.35574215593E+02  0.51100000000E-03 0. -1.
        -11    1    3    3    0    0  0.28932538159E+01 -0.67669267030E+01  0.70093000772E+01  0.10163291912E+02  0.51100000000E-03 0.  1.
        -12    1    3    3    0    0  0.25669930955E+00  0.33426632122E+02 -0.29024874062E+02  0.44270181204E+02  0.00000000000E+00 0.  1.
</event>
<event>
 7    1  0.4119305E-015  0.9000774E+02  0.7816164E-02  0.1186339E+00
        -11   -1    0    0    0    0  0.00000000000E+00  0.00000000000E+00  0.45593999997E+02  0.45594000000E+02  0.51100000000E-03 0.  1.
         11   -1    0    0    0    0 -0.00000000000E+00 -0.00000000000E+00 -0.45593999997E+02  0.45594000000E+02  0.51100000000E-03 0. -1.
    9900012    2    1    2    0    0  0.75541839901E+00 -0.49183305698E+00 -0.76187186073E+00  0.90007743483E+02  0.90000004897E+02 0.  0.
         12    1    1    2    0    0 -0.75541839901E+00  0.49183305698E+00  0.76187186073E+00  0.11802565169E+01  0.00000000000E+00 0. -1.
         11    1    3    3    0    0  0.10966792367E+02  0.55373723310E+01 -0.33842340903E+02  0.36003292422E+02  0.51100000000E-03 0. -1.
        -11    1    3    3    0    0  0.47737858707E+01  0.68600439524E+01 -0.59467339854E+01  0.10257332983E+02  0.51100000000E-03 0.  1.
        -12    1    3    3    0    0 -0.14985159838E+02 -0.12889249340E+02  0.39027203028E+02  0.43747118078E+02  0.00000000000E+00 0.  1.
</event>
<event>
 7    1  0.4119305E-015  0.9000775E+02  0.7816164E-02  0.1186339E+00
        -11   -1    0    0    0    0  0.00000000000E+00  0.00000000000E+00  0.45593999997E+02  0.45594000000E+02  0.51100000000E-03 0.  1.
         11   -1    0    0    0    0 -0.00000000000E+00 -0.00000000000E+00 -0.45593999997E+02  0.45594000000E+02  0.51100000000E-03 0. -1.
    9900012    2    1    2    0    0 -0.71573416808E+00 -0.12079226214E+00  0.93065144550E+00  0.90007754990E+02  0.90000016556E+02 0.  0.
         12    1    1    2    0    0  0.71573416808E+00  0.12079226214E+00 -0.93065144550E+00  0.11802450097E+01  0.00000000000E+00 0. -1.
         11    1    3    3    0    0  0.46414579513E+01  0.65623540200E+01  0.60892855894E+01  0.10083998287E+02  0.51100000000E-03 0. -1.
        -11    1    3    3    0    0 -0.32082546675E+02  0.13065182334E+02  0.18367064383E+02  0.39208900073E+02  0.51100000000E-03 0.  1.
         12    1    3    3    0    0  0.26725354556E+02 -0.19748328616E+02 -0.23525698527E+02  0.40714856631E+02  0.00000000000E+00 0. -1.
</event>
<event>
 7    1  0.4119305E-015  0.9000769E+02  0.7816164E-02  0.1186339E+00
        -11   -1    0    0    0    0  0.00000000000E+00  0.00000000000E+00  0.45593999997E+02  0.45594000000E+02  0.51100000000E-03 0. -1.
         11   -1    0    0    0    0 -0.00000000000E+00 -0.00000000000E+00 -0.45593999997E+02  0.45594000000E+02  0.51100000000E-03 0.  1.
    9900012    2    1    2    0    0  0.10709546308E+01  0.49546466300E+00 -0.26547185095E-01  0.90007689106E+02  0.89999949802E+02 0.  0.
         12    1    1    2    0    0 -0.10709546308E+01 -0.49546466300E+00  0.26547185095E-01  0.11803108940E+01  0.00000000000E+00 0. -1.
         11    1    3    3    0    0 -0.22383193769E+01  0.86865335197E+00  0.88447433062E+01  0.91648304236E+01  0.51100000000E-03 0. -1.
        -11    1    3    3    0    0  0.31531559503E+02 -0.16650448650E+02  0.16749432296E+02  0.39395687168E+02  0.51100000000E-03 0.  1.
         12    1    3    3    0    0 -0.28222285495E+02  0.16277259961E+02 -0.25620722787E+02  0.41447171514E+02  0.00000000000E+00 0. -1.
</event>
<event>
 7    1  0.4119305E-015  0.9000771E+02  0.7816164E-02  0.1186339E+00
        -11   -1    0    0    0    0  0.00000000000E+00  0.00000000000E+00  0.45593999997E+02  0.45594000000E+02  0.51100000000E-03 0.  1.
         11   -1    0    0    0    0 -0.00000000000E+00 -0.00000000000E+00 -0.45593999997E+02  0.45594000000E+02  0.51100000000E-03 0. -1.
    9900012    2    1    2    0    0 -0.77071957445E+00  0.42805858539E+00  0.78475312425E+00  0.90007711781E+02  0.89999972776E+02 0.  0.
         12    1    1    2    0    0  0.77071957445E+00 -0.42805858539E+00 -0.78475312425E+00  0.11802882195E+01  0.00000000000E+00 0. -1.
         11    1    3    3    0    0 -0.37481141856E+02 -0.13454448037E+02 -0.38030794253E+01  0.40004019550E+02  0.51100000000E-03 0. -1.
        -11    1    3    3    0    0  0.26435297770E+01 -0.85623107200E+01  0.10192805307E+00  0.89616853402E+01  0.51100000000E-03 0.  1.
        -12    1    3    3    0    0  0.34066892504E+02  0.22444817343E+02  0.44859044965E+01  0.41042006890E+02  0.00000000000E+00 0.  1.
</event>
<event>
 7    1  0.4119305E-015  0.9000771E+02  0.7816164E-02  0.1186339E+00
        -11   -1    0    0    0    0  0.00000000000E+00  0.00000000000E+00  0.45593999997E+02  0.45594000000E+02  0.51100000000E-03 0.  1.
         11   -1    0    0    0    0 -0.00000000000E+00 -0.00000000000E+00 -0.45593999997E+02  0.45594000000E+02  0.51100000000E-03 0. -1.
    9900012    2    1    2    0    0 -0.76976926564E+00  0.65306092539E+00  0.61159427219E+00  0.90007711540E+02  0.89999972533E+02 0.  0.
         12    1    1    2    0    0  0.76976926564E+00 -0.65306092539E+00 -0.61159427219E+00  0.11802884598E+01  0.00000000000E+00 0. -1.
         11    1    3    3    0    0  0.35106494270E+02  0.16409039790E+02 -0.62646887968E+00  0.38757128251E+02  0.51100000000E-03 0. -1.
        -11    1    3    3    0    0 -0.36563080093E+00 -0.43305558104E+00 -0.10745969180E+02  0.10760905022E+02  0.51100000000E-03 0.  1.
        -12    1    3    3    0    0 -0.35510632735E+02 -0.15322923283E+02  0.11984032332E+02  0.40489678266E+02  0.00000000000E+00 0.  1.
</event>
<event>
 7    1  0.4119305E-015  0.9000765E+02  0.7816164E-02  0.1186339E+00
        -11   -1    0    0    0    0  0.00000000000E+00  0.00000000000E+00  0.45593999997E+02  0.45594000000E+02  0.51100000000E-03 0.  1.
         11   -1    0    0    0    0 -0.00000000000E+00 -0.00000000000E+00 -0.45593999997E+02  0.45594000000E+02  0.51100000000E-03 0. -1.
    9900012    2    1    2    0    0  0.42390823215E-01  0.91097172725E+00 -0.74936975654E+00  0.90007651957E+02  0.89999912163E+02 0.  0.
         12    1    1    2    0    0 -0.42390823215E-01 -0.91097172725E+00  0.74936975654E+00  0.11803480426E+01  0.00000000000E+00 0. -1.
         11    1    3    3    0    0  0.14921704518E+02  0.15754483082E+02  0.22054620482E+02  0.30939736388E+02  0.51100000000E-03 0. -1.
        -11    1    3    3    0    0  0.48889286223E+01  0.13767820607E+02  0.40147652568E+01  0.15151661548E+02  0.51100000000E-03 0.  1.
        -12    1    3    3    0    0 -0.19768242317E+02 -0.28611331962E+02 -0.26818755495E+02  0.43916254021E+02  0.00000000000E+00 0.  1.
</event>
<event>
 7    1  0.4119305E-015  0.9000781E+02  0.7816164E-02  0.1186339E+00
        -11   -1    0    0    0    0  0.00000000000E+00  0.00000000000E+00  0.45593999997E+02  0.45594000000E+02  0.51100000000E-03 0. -1.
         11   -1    0    0    0    0 -0.00000000000E+00 -0.00000000000E+00 -0.45593999997E+02  0.45594000000E+02  0.51100000000E-03 0.  1.
    9900012    2    1    2    0    0 -0.23426471997E+00  0.11565358760E+01  0.20081471530E-01  0.90007805755E+02  0.90000067990E+02 0.  0.
         12    1    1    2    0    0  0.23426471997E+00 -0.11565358760E+01 -0.20081471530E-01  0.11801942455E+01  0.00000000000E+00 0. -1.
         11    1    3    3    0    0  0.31333492475E+02 -0.83722846687E+01  0.29163141610E+02  0.43616186560E+02  0.51100000000E-03 0. -1.
        -11    1    3    3    0    0 -0.41329370183E+01  0.33163515611E+01  0.74167165078E+00  0.53506479208E+01  0.51100000000E-03 0.  1.
        -12    1    3    3    0    0 -0.27434820177E+02  0.62124689836E+01 -0.29884731789E+02  0.41040971274E+02  0.00000000000E+00 0.  1.
</event>
<event>
 7    1  0.4119305E-015  0.9000778E+02  0.7816164E-02  0.1186339E+00
        -11   -1    0    0    0    0  0.00000000000E+00  0.00000000000E+00  0.45593999997E+02  0.45594000000E+02  0.51100000000E-03 0.  1.
         11   -1    0    0    0    0 -0.00000000000E+00 -0.00000000000E+00 -0.45593999997E+02  0.45594000000E+02  0.51100000000E-03 0. -1.
    9900012    2    1    2    0    0 -0.85342125595E+00  0.81271439438E+00  0.63897405561E-01  0.90007781628E+02  0.90000043546E+02 0.  0.
         12    1    1    2    0    0  0.85342125595E+00 -0.81271439438E+00 -0.63897405561E-01  0.11802183719E+01  0.00000000000E+00 0. -1.
         11    1    3    3    0    0 -0.30036935965E+02 -0.84503541660E+01 -0.23428226274E+02  0.39019325908E+02  0.51100000000E-03 0. -1.
        -11    1    3    3    0    0  0.14126512118E+02 -0.66071913279E+01 -0.37598139230E+01  0.16042117157E+02  0.51100000000E-03 0.  1.
        -12    1    3    3    0    0  0.15057002591E+02  0.15870259888E+02  0.27251937602E+02  0.34946338564E+02  0.00000000000E+00 0.  1.
</event>
<event>
 7    1  0.4119305E-015  0.9000774E+02  0.7816164E-02  0.1186339E+00
        -11   -1    0    0    0    0  0.00000000000E+00  0.00000000000E+00  0.45593999997E+02  0.45594000000E+02  0.51100000000E-03 0. -1.
         11   -1    0    0    0    0 -0.00000000000E+00 -0.00000000000E+00 -0.45593999997E+02  0.45594000000E+02  0.51100000000E-03 0.  1.
    9900012    2    1    2    0    0 -0.11143068817E+01 -0.13143052540E-01 -0.38880576765E+00  0.90007736262E+02  0.89999997581E+02 0.  0.
         12    1    1    2    0    0  0.11143068817E+01  0.13143052540E-01  0.38880576765E+00  0.11802637381E+01  0.00000000000E+00 0. -1.
         11    1    3    3    0    0 -0.71825019779E+01  0.30256484136E+01 -0.10136326396E+01  0.78594105615E+01  0.51100000000E-03 0. -1.
        -11    1    3    3    0    0 -0.15368882040E+02 -0.35566541007E+02 -0.13015666419E+02  0.40872838743E+02  0.51100000000E-03 0.  1.
         12    1    3    3    0    0  0.21437077136E+02  0.32527749541E+02  0.13640493291E+02  0.41275486957E+02  0.00000000000E+00 0. -1.
</event>
<event>
 7    1  0.4119305E-015  0.9000769E+02  0.7816164E-02  0.1186339E+00
        -11   -1    0    0    0    0  0.00000000000E+00  0.00000000000E+00  0.45593999997E+02  0.45594000000E+02  0.51100000000E-03 0.  1.
         11   -1    0    0    0    0 -0.00000000000E+00 -0.00000000000E+00 -0.45593999997E+02  0.45594000000E+02  0.51100000000E-03 0. -1.
    9900012    2    1    2    0    0 -0.41397844077E+00  0.43541024479E+00  0.10159537590E+01  0.90007693993E+02  0.89999954753E+02 0.  0.
         12    1    1    2    0    0  0.41397844077E+00 -0.43541024479E+00 -0.10159537590E+01  0.11803060074E+01  0.00000000000E+00 0. -1.
         11    1    3    3    0    0  0.21367485508E+02 -0.24897490583E+02 -0.12283279086E+02  0.35033318707E+02  0.51100000000E-03 0. -1.
        -11    1    3    3    0    0 -0.23830834157E+02  0.14033080516E+02 -0.96672836123E+01  0.29296627418E+02  0.51100000000E-03 0.  1.
        -12    1    3    3    0    0  0.20493702077E+01  0.11299820312E+02  0.22966516457E+02  0.25677747867E+02  0.00000000000E+00 0.  1.
</event>
<event>
 7    1  0.4119305E-015  0.9000767E+02  0.7816164E-02  0.1186339E+00
        -11   -1    0    0    0    0  0.00000000000E+00  0.00000000000E+00  0.45593999997E+02  0.45594000000E+02  0.51100000000E-03 0.  1.
         11   -1    0    0    0    0 -0.00000000000E+00 -0.00000000000E+00 -0.45593999997E+02  0.45594000000E+02  0.51100000000E-03 0. -1.
    9900012    2    1    2    0    0 -0.11250141634E+01  0.83664396302E-01  0.34717977001E+00  0.90007665136E+02  0.89999925516E+02 0.  0.
         12    1    1    2    0    0  0.11250141634E+01 -0.83664396302E-01 -0.34717977001E+00  0.11803348642E+01  0.00000000000E+00 0. -1.
         11    1    3    3    0    0 -0.15386929500E+02 -0.18933962296E+02 -0.27881990032E+02  0.37049398052E+02  0.51100000000E-03 0. -1.
        -11    1    3    3    0    0 -0.18438015564E+00 -0.10320648932E+02  0.93878227137E+00  0.10364897628E+02  0.51100000000E-03 0.  1.
        -12    1    3    3    0    0  0.14446295492E+02  0.29338275624E+02  0.27290387530E+02  0.42593369456E+02  0.00000000000E+00 0.  1.
</event>
<event>
 7    1  0.4119305E-015  0.9000764E+02  0.7816164E-02  0.1186339E+00
        -11   -1    0    0    0    0  0.00000000000E+00  0.00000000000E+00  0.45593999997E+02  0.45594000000E+02  0.51100000000E-03 0.  1.
         11   -1    0    0    0    0 -0.00000000000E+00 -0.00000000000E+00 -0.45593999997E+02  0.45594000000E+02  0.51100000000E-03 0. -1.
    9900012    2    1    2    0    0 -0.30687018205E+00  0.66230916236E+00  0.92758858750E+00  0.90007642714E+02  0.89999902798E+02 0.  0.
         12    1    1    2    0    0  0.30687018205E+00 -0.66230916236E+00 -0.92758858750E+00  0.11803572861E+01  0.00000000000E+00 0. -1.
         11    1    3    3    0    0  0.10592524177E+02 -0.28480704891E+01  0.11891744988E+02  0.16177968756E+02  0.51100000000E-03 0. -1.
        -11    1    3    3    0    0 -0.24661597019E+02  0.24772295427E+02  0.14565290109E+02  0.37868306860E+02  0.51100000000E-03 0.  1.
         12    1    3    3    0    0  0.13762202659E+02 -0.21261915775E+02 -0.25529446509E+02  0.35961367098E+02  0.00000000000E+00 0. -1.
</event>
<event>
 7    1  0.4119305E-015  0.9000771E+02  0.7816164E-02  0.1186339E+00
        -11   -1    0    0    0    0  0.00000000000E+00  0.00000000000E+00  0.45593999997E+02  0.45594000000E+02  0.51100000000E-03 0.  1.
         11   -1    0    0    0    0 -0.00000000000E+00 -0.00000000000E+00 -0.45593999997E+02  0.45594000000E+02  0.51100000000E-03 0. -1.
    9900012    2    1    2    0    0 -0.11273646166E+01 -0.33145999642E+00  0.11073648642E+00  0.90007712206E+02  0.89999973207E+02 0.  0.
         12    1    1    2    0    0  0.11273646166E+01  0.33145999642E+00 -0.11073648642E+00  0.11802877943E+01  0.00000000000E+00 0. -1.
         11    1    3    3    0    0  0.14485432758E+02 -0.35504065608E+02  0.33507223876E+00  0.38346821388E+02  0.51100000000E-03 0. -1.
        -11    1    3    3    0    0 -0.68139105564E+01 -0.10612904413E+01 -0.10879898093E+02  0.12881300293E+02  0.51100000000E-03 0.  1.
        -12    1    3    3    0    0 -0.87988868178E+01  0.36233896053E+02  0.10655562341E+02  0.38779590524E+02  0.00000000000E+00 0.  1.
</event>
<event>
 7    1  0.4119305E-015  0.9000773E+02  0.7816164E-02  0.1186339E+00
        -11   -1    0    0    0    0  0.00000000000E+00  0.00000000000E+00  0.45593999997E+02  0.45594000000E+02  0.51100000000E-03 0. -1.
         11   -1    0    0    0    0 -0.00000000000E+00 -0.00000000000E+00 -0.45593999997E+02  0.45594000000E+02  0.51100000000E-03 0.  1.
    9900012    2    1    2    0    0 -0.17616317094E+00 -0.33995503706E+00 -0.11164332720E+01  0.90007734716E+02  0.89999996014E+02 0.  0.
         12    1    1    2    0    0  0.17616317094E+00  0.33995503706E+00  0.11164332720E+01  0.11802652841E+01  0.00000000000E+00 0. -1.
         11    1    3    3    0    0  0.11311270923E+02  0.36107453411E+02 -0.80586386458E+01  0.38686363216E+02  0.51100000000E-03 0. -1.
        -11    1    3    3    0    0  0.28235267349E+01  0.32982503003E+01  0.79582459868E+01  0.90655632872E+01  0.51100000000E-03 0.  1.
        -12    1    3    3    0    0 -0.14310960829E+02 -0.39745658749E+02 -0.10160406130E+01  0.42255808213E+02  0.00000000000E+00 0.  1.
</event>
<event>
 7    1  0.4119305E-015  0.9000772E+02  0.7816164E-02  0.1186339E+00
        -11   -1    0    0    0    0  0.00000000000E+00  0.00000000000E+00  0.45593999997E+02  0.45594000000E+02  0.51100000000E-03 0.  1.
         11   -1    0    0    0    0 -0.00000000000E+00 -0.00000000000E+00 -0.45593999997E+02  0.45594000000E+02  0.51100000000E-03 0. -1.
    9900012    2    1    2    0    0  0.10768639159E+01 -0.28482091771E+00  0.39027160277E+00  0.90007715809E+02  0.89999976857E+02 0.  0.
         12    1    1    2    0    0 -0.10768639159E+01  0.28482091771E+00 -0.39027160277E+00  0.11802841914E+01  0.00000000000E+00 0. -1.
         11    1    3    3    0    0 -0.28176681780E+01 -0.49206333120E+01 -0.90366325848E+01  0.10668299531E+02  0.51100000000E-03 0. -1.
        -11    1    3    3    0    0  0.29192215895E+02 -0.25782391497E+02  0.79378483691E+01  0.39748290745E+02  0.51100000000E-03 0.  1.
         12    1    3    3    0    0 -0.25297683802E+02  0.30418203891E+02  0.14890558184E+01  0.39591125532E+02  0.00000000000E+00 0. -1.
</event>
<event>
 7    1  0.4119305E-015  0.9000783E+02  0.7816164E-02  0.1186339E+00
        -11   -1    0    0    0    0  0.00000000000E+00  0.00000000000E+00  0.45593999997E+02  0.45594000000E+02  0.51100000000E-03 0. -1.
         11   -1    0    0    0    0 -0.00000000000E+00 -0.00000000000E+00 -0.45593999997E+02  0.45594000000E+02  0.51100000000E-03 0.  1.
    9900012    2    1    2    0    0  0.63233621540E+00  0.45085606675E+00 -0.88864282042E+00  0.90007827833E+02  0.90000090360E+02 0.  0.
         12    1    1    2    0    0 -0.63233621540E+00 -0.45085606675E+00  0.88864282042E+00  0.11801721673E+01  0.00000000000E+00 0. -1.
         11    1    3    3    0    0 -0.70101946574E+01 -0.12227794596E+01  0.44528422456E+01  0.83943923584E+01  0.51100000000E-03 0. -1.
        -11    1    3    3    0    0  0.72333282163E+01  0.39513821888E+02  0.89621250396E+01  0.41158022824E+02  0.51100000000E-03 0.  1.
         12    1    3    3    0    0  0.40920265650E+00 -0.37840186361E+02 -0.14303610106E+02  0.40455412651E+02  0.00000000000E+00 0. -1.
</event>
<event>
 7    1  0.4119305E-015  0.9000773E+02  0.7816164E-02  0.1186339E+00
        -11   -1    0    0    0    0  0.00000000000E+00  0.00000000000E+00  0.45593999997E+02  0.45594000000E+02  0.51100000000E-03 0. -1.
         11   -1    0    0    0    0 -0.00000000000E+00 -0.00000000000E+00 -0.45593999997E+02  0.45594000000E+02  0.51100000000E-03 0.  1.
    9900012    2    1    2    0    0 -0.52244394700E+00 -0.12588186104E+00 -0.10508340741E+01  0.90007726230E+02  0.89999987416E+02 0.  0.
         12    1    1    2    0    0  0.52244394700E+00  0.12588186104E+00  0.10508340741E+01  0.11802737699E+01  0.00000000000E+00 0. -1.
         11    1    3    3    0    0 -0.52329716973E-01  0.85679880947E-01  0.12753595016E+02  0.12753990181E+02  0.51100000000E-03 0. -1.
        -11    1    3    3    0    0 -0.13227211824E+02 -0.33431895136E+02 -0.19986311834E+02  0.41135184526E+02  0.51100000000E-03 0.  1.
         12    1    3    3    0    0  0.12757097594E+02  0.33220333394E+02  0.61818827439E+01  0.36118551522E+02  0.00000000000E+00 0. -1.
</event>
<event>
 7    1  0.4119305E-015  0.9000798E+02  0.7816164E-02  0.1186339E+00
        -11   -1    0    0    0    0  0.00000000000E+00  0.00000000000E+00  0.45593999997E+02  0.45594000000E+02  0.51100000000E-03 0.  1.
         11   -1    0    0    0    0 -0.00000000000E+00 -0.00000000000E+00 -0.45593999997E+02  0.45594000000E+02  0.51100000000E-03 0. -1.
    9900012    2    1    2    0    0  0.10852676713E+01  0.59575129508E-01  0.45943974102E+00  0.90007983055E+02  0.90000247631E+02 0.  0.
         12    1    1    2    0    0 -0.10852676713E+01 -0.59575129508E-01 -0.45943974102E+00  0.11800169448E+01  0.00000000000E+00 0. -1.
         11    1    3    3    0    0  0.66238962826E+01  0.24557712939E+01 -0.70100181972E+01  0.99522444703E+01  0.51100000000E-03 0. -1.
        -11    1    3    3    0    0  0.16427499046E+02 -0.20671588481E+02 -0.25306263367E+02  0.36572999071E+02  0.51100000000E-03 0.  1.
         12    1    3    3    0    0 -0.21966127657E+02  0.18275392316E+02  0.32775721305E+02  0.43482739514E+02  0.00000000000E+00 0. -1.
</event>
<event>
 7    1  0.4119305E-015  0.9000773E+02  0.7816164E-02  0.1186339E+00
        -11   -1    0    0    0    0  0.00000000000E+00  0.00000000000E+00  0.45593999997E+02  0.45594000000E+02  0.51100000000E-03 0.  1.
         11   -1    0    0    0    0 -0.00000000000E+00 -0.00000000000E+00 -0.45593999997E+02  0.45594000000E+02  0.51100000000E-03 0. -1.
    9900012    2    1    2    0    0 -0.21705227334E+00  0.11600884821E+01  0.10555528509E-01  0.90007733761E+02  0.89999995047E+02 0.  0.
         12    1    1    2    0    0  0.21705227334E+00 -0.11600884821E+01 -0.10555528509E-01  0.11802662389E+01  0.00000000000E+00 0. -1.
         11    1    3    3    0    0  0.71464494928E+01  0.17312913939E+01  0.63459789979E+01  0.97129068741E+01  0.51100000000E-03 0. -1.
        -11    1    3    3    0    0 -0.22838246157E+02 -0.87729705273E+01  0.30742075573E+02  0.39289002408E+02  0.51100000000E-03 0.  1.
         12    1    3    3    0    0  0.15474744391E+02  0.82017676155E+01 -0.37077499042E+02  0.41005824479E+02  0.00000000000E+00 0. -1.
</event>
<event>
 7    1  0.4119305E-015  0.9000773E+02  0.7816164E-02  0.1186339E+00
        -11   -1    0    0    0    0  0.00000000000E+00  0.00000000000E+00  0.45593999997E+02  0.45594000000E+02  0.51100000000E-03 0. -1.
         11   -1    0    0    0    0 -0.00000000000E+00 -0.00000000000E+00 -0.45593999997E+02  0.45594000000E+02  0.51100000000E-03 0.  1.
    9900012    2    1    2    0    0 -0.39790183218E+00 -0.11071948335E+01  0.94034368696E-01  0.90007725146E+02  0.89999986318E+02 0.  0.
         12    1    1    2    0    0  0.39790183218E+00  0.11071948335E+01 -0.94034368696E-01  0.11802748536E+01  0.00000000000E+00 0. -1.
         11    1    3    3    0    0  0.19251737549E+02 -0.18641876863E+01  0.39105136455E+02  0.43627013327E+02  0.51100000000E-03 0. -1.
        -11    1    3    3    0    0  0.18073376499E+01 -0.17126770138E+01 -0.94328229130E+01  0.97559151443E+01  0.51100000000E-03 0.  1.
        -12    1    3    3    0    0 -0.21456977032E+02  0.24696698666E+01 -0.29578279174E+02  0.36624796675E+02  0.00000000000E+00 0.  1.
</event>
<event>
 7    1  0.4119305E-015  0.9000774E+02  0.7816164E-02  0.1186339E+00
        -11   -1    0    0    0    0  0.00000000000E+00  0.00000000000E+00  0.45593999997E+02  0.45594000000E+02  0.51100000000E-03 0.  1.
         11   -1    0    0    0    0 -0.00000000000E+00 -0.00000000000E+00 -0.45593999997E+02  0.45594000000E+02  0.51100000000E-03 0. -1.
    9900012    2    1    2    0    0  0.58185080732E+00  0.98684626357E+00  0.28390995806E+00  0.90007736989E+02  0.89999998318E+02 0.  0.
         12    1    1    2    0    0 -0.58185080732E+00 -0.98684626357E+00 -0.28390995806E+00  0.11802630106E+01  0.00000000000E+00 0. -1.
         11    1    3    3    0    0  0.47314566749E+01  0.43267795317E+01 -0.46926567816E+01  0.79453591054E+01  0.51100000000E-03 0. -1.
        -11    1    3    3    0    0  0.10449028473E+02 -0.40536441542E+02  0.44801792345E+01  0.42100561697E+02  0.51100000000E-03 0.  1.
         12    1    3    3    0    0 -0.14598634341E+02  0.37196508274E+02  0.49638750515E+00  0.39961816187E+02  0.00000000000E+00 0. -1.
</event>
<event>
 7    1  0.4119305E-015  0.9000774E+02  0.7816164E-02  0.1186339E+00
        -11   -1    0    0    0    0  0.00000000000E+00  0.00000000000E+00  0.45593999997E+02  0.45594000000E+02  0.51100000000E-03 0. -1.
         11   -1    0    0    0    0 -0.00000000000E+00 -0.00000000000E+00 -0.45593999997E+02  0.45594000000E+02  0.51100000000E-03 0.  1.
    9900012    2    1    2    0    0  0.39312764862E+00  0.63854524857E+00 -0.91143560249E+00  0.90007743994E+02  0.90000005415E+02 0.  0.
         12    1    1    2    0    0 -0.39312764862E+00 -0.63854524857E+00  0.91143560249E+00  0.11802560062E+01  0.00000000000E+00 0. -1.
         11    1    3    3    0    0 -0.65047399567E+01  0.27108061791E+01 -0.80568596208E+01  0.10703882438E+02  0.51100000000E-03 0. -1.
        -11    1    3    3    0    0  0.16277394376E+02 -0.38246103421E+02  0.24200855393E+01  0.41636219915E+02  0.51100000000E-03 0.  1.
         12    1    3    3    0    0 -0.93795267706E+01  0.36173842491E+02  0.47253384790E+01  0.37667641640E+02  0.00000000000E+00 0. -1.
</event>
<event>
 7    1  0.4119305E-015  0.9000786E+02  0.7816164E-02  0.1186339E+00
        -11   -1    0    0    0    0  0.00000000000E+00  0.00000000000E+00  0.45593999997E+02  0.45594000000E+02  0.51100000000E-03 0.  1.
         11   -1    0    0    0    0 -0.00000000000E+00 -0.00000000000E+00 -0.45593999997E+02  0.45594000000E+02  0.51100000000E-03 0. -1.
    9900012    2    1    2    0    0  0.63963042486E+00 -0.65877848197E+00  0.74136209803E+00  0.90007858513E+02  0.90000121445E+02 0.  0.
         12    1    1    2    0    0 -0.63963042486E+00  0.65877848197E+00 -0.74136209803E+00  0.11801414869E+01  0.00000000000E+00 0. -1.
         11    1    3    3    0    0  0.32271119250E+02 -0.19129860556E+02 -0.13543057549E+02  0.39884722772E+02  0.51100000000E-03 0. -1.
        -11    1    3    3    0    0  0.32207212262E+01  0.74461082429E+01 -0.42278824340E+01  0.91483639695E+01  0.51100000000E-03 0.  1.
        -12    1    3    3    0    0 -0.34852210051E+02  0.11024973831E+02  0.18512302081E+02  0.40974771772E+02  0.00000000000E+00 0.  1.
</event>
<event>
 7    1  0.4119305E-015  0.9000779E+02  0.7816164E-02  0.1186339E+00
        -11   -1    0    0    0    0  0.00000000000E+00  0.00000000000E+00  0.45593999997E+02  0.45594000000E+02  0.51100000000E-03 0. -1.
         11   -1    0    0    0    0 -0.00000000000E+00 -0.00000000000E+00 -0.45593999997E+02  0.45594000000E+02  0.51100000000E-03 0.  1.
    9900012    2    1    2    0    0 -0.36744673299E+00  0.10488857710E+01 -0.39714373220E+00  0.90007787474E+02  0.90000049469E+02 0.  0.
         12    1    1    2    0    0  0.36744673299E+00 -0.10488857710E+01  0.39714373220E+00  0.11802125258E+01  0.00000000000E+00 0. -1.
         11    1    3    3    0    0  0.57947557667E+01 -0.12234338797E+01 -0.71115276892E+01  0.92547183204E+01  0.51100000000E-03 0. -1.
        -11    1    3    3    0    0  0.20716500703E+02 -0.31061895779E+02  0.66955080470E+01  0.37932105123E+02  0.51100000000E-03 0.  1.
         12    1    3    3    0    0 -0.26878703203E+02  0.33334215430E+02  0.18875910054E-01  0.42820964031E+02  0.00000000000E+00 0. -1.
</event>
<event>
 7    1  0.4119305E-015  0.9000783E+02  0.7816164E-02  0.1186339E+00
        -11   -1    0    0    0    0  0.00000000000E+00  0.00000000000E+00  0.45593999997E+02  0.45594000000E+02  0.51100000000E-03 0.  1.
         11   -1    0    0    0    0 -0.00000000000E+00 -0.00000000000E+00 -0.45593999997E+02  0.45594000000E+02  0.51100000000E-03 0. -1.
    9900012    2    1    2    0    0 -0.50606277258E+00  0.13832693310E+00  0.10571540922E+01  0.90007826858E+02  0.90000089373E+02 0.  0.
         12    1    1    2    0    0  0.50606277258E+00 -0.13832693310E+00 -0.10571540922E+01  0.11801731419E+01  0.00000000000E+00 0. -1.
         11    1    3    3    0    0  0.37550447515E+02  0.22926641887E+02 -0.35979879918E+01  0.44143091585E+02  0.51100000000E-03 0. -1.
        -11    1    3    3    0    0 -0.88117453164E+01 -0.22546750477E+01  0.44609181274E+01  0.10130656736E+02  0.51100000000E-03 0.  1.
        -12    1    3    3    0    0 -0.29244764971E+02 -0.20533639907E+02  0.19422395656E+00  0.35734078538E+02  0.00000000000E+00 0.  1.
</event>
<event>
 7    1  0.4119305E-015  0.9000772E+02  0.7816164E-02  0.1186339E+00
        -11   -1    0    0    0    0  0.00000000000E+00  0.00000000000E+00  0.45593999997E+02  0.45594000000E+02  0.51100000000E-03 0. -1.
         11   -1    0    0    0    0 -0.00000000000E+00 -0.00000000000E+00 -0.45593999997E+02  0.45594000000E+02  0.51100000000E-03 0.  1.
    9900012    2    1    2    0    0  0.26362609937E+00 -0.71248807633E+00 -0.90327945066E+00  0.90007723869E+02  0.89999985024E+02 0.  0.
         12    1    1    2    0    0 -0.26362609937E+00  0.71248807633E+00  0.90327945066E+00  0.11802761309E+01  0.00000000000E+00 0. -1.
         11    1    3    3    0    0  0.55134098857E+01  0.14448293899E+02  0.31783330214E+02  0.35345876207E+02  0.51100000000E-03 0. -1.
        -11    1    3    3    0    0  0.53539023539E+01 -0.56636131525E+01  0.82330744228E+01  0.11336855784E+02  0.51100000000E-03 0.  1.
        -12    1    3    3    0    0 -0.10603686140E+02 -0.94971688223E+01 -0.40919684087E+02  0.43324991878E+02  0.00000000000E+00 0.  1.
</event>
<event>
 7    1  0.4119305E-015  0.9000772E+02  0.7816164E-02  0.1186339E+00
        -11   -1    0    0    0    0  0.00000000000E+00  0.00000000000E+00  0.45593999997E+02  0.45594000000E+02  0.51100000000E-03 0.  1.
         11   -1    0    0    0    0 -0.00000000000E+00 -0.00000000000E+00 -0.45593999997E+02  0.45594000000E+02  0.51100000000E-03 0. -1.
    9900012    2    1    2    0    0 -0.19536210115E+00 -0.11638285881E+01  0.19883568494E-01  0.90007720927E+02  0.89999982044E+02 0.  0.
         12    1    1    2    0    0  0.19536210115E+00  0.11638285881E+01 -0.19883568494E-01  0.11802790727E+01  0.00000000000E+00 0. -1.
         11    1    3    3    0    0  0.37696624279E+00  0.65508727784E+01 -0.27202366319E+00  0.65673461034E+01  0.51100000000E-03 0. -1.
        -11    1    3    3    0    0  0.40029576365E+02 -0.11741545618E+02  0.63344082846E+01  0.42194260345E+02  0.51100000000E-03 0.  1.
         12    1    3    3    0    0 -0.40601904709E+02  0.40268442514E+01 -0.60425010529E+01  0.41246114479E+02  0.00000000000E+00 0. -1.
</event>
<event>
 7    1  0.4119305E-015  0.9000780E+02  0.7816164E-02  0.1186339E+00
        -11   -1    0    0    0    0  0.00000000000E+00  0.00000000000E+00  0.45593999997E+02  0.45594000000E+02  0.51100000000E-03 0. -1.
         11   -1    0    0    0    0 -0.00000000000E+00 -0.00000000000E+00 -0.45593999997E+02  0.45594000000E+02  0.51100000000E-03 0.  1.
    9900012    2    1    2    0    0  0.51101467799E-01 -0.11777378692E+01  0.56430920263E-01  0.90007804128E+02  0.90000066342E+02 0.  0.
         12    1    1    2    0    0 -0.51101467799E-01  0.11777378692E+01 -0.56430920263E-01  0.11801958724E+01  0.00000000000E+00 0. -1.
         11    1    3    3    0    0  0.20693491225E+01  0.44733673311E+00 -0.96620214389E+01  0.98912574777E+01  0.51100000000E-03 0. -1.
        -11    1    3    3    0    0  0.24600635197E+02  0.29435066233E+02  0.79226029688E+01  0.39171188574E+02  0.51100000000E-03 0.  1.
         12    1    3    3    0    0 -0.26618882852E+02 -0.31060140835E+02  0.17958493904E+01  0.40945358076E+02  0.00000000000E+00 0. -1.
</event>
<event>
 7    1  0.4119305E-015  0.9000754E+02  0.7816164E-02  0.1186339E+00
        -11   -1    0    0    0    0  0.00000000000E+00  0.00000000000E+00  0.45593999997E+02  0.45594000000E+02  0.51100000000E-03 0. -1.
         11   -1    0    0    0    0 -0.00000000000E+00 -0.00000000000E+00 -0.45593999997E+02  0.45594000000E+02  0.51100000000E-03 0.  1.
    9900012    2    1    2    0    0 -0.13586269643E+00  0.11136934710E+01 -0.36704836223E+00  0.90007535549E+02  0.89999794218E+02 0.  0.
         12    1    1    2    0    0  0.13586269643E+00 -0.11136934710E+01  0.36704836223E+00  0.11804644509E+01  0.00000000000E+00 0. -1.
         11    1    3    3    0    0  0.62838776753E+00 -0.60293613132E+01  0.45321808340E+01  0.75689320518E+01  0.51100000000E-03 0. -1.
        -11    1    3    3    0    0  0.61422883574E+01 -0.36854379517E+02 -0.62502352910E+01  0.37881901184E+02  0.51100000000E-03 0.  1.
         12    1    3    3    0    0 -0.69065388214E+01  0.43997434301E+02  0.13510060947E+01  0.44556702313E+02  0.00000000000E+00 0. -1.
</event>
<event>
 7    1  0.4119305E-015  0.9000778E+02  0.7816164E-02  0.1186339E+00
        -11   -1    0    0    0    0  0.00000000000E+00  0.00000000000E+00  0.45593999997E+02  0.45594000000E+02  0.51100000000E-03 0.  1.
         11   -1    0    0    0    0 -0.00000000000E+00 -0.00000000000E+00 -0.45593999997E+02  0.45594000000E+02  0.51100000000E-03 0. -1.
    9900012    2    1    2    0    0 -0.89201751617E+00 -0.11583439845E+00  0.76407993529E+00  0.90007775020E+02  0.90000036850E+02 0.  0.
         12    1    1    2    0    0  0.89201751617E+00  0.11583439845E+00 -0.76407993529E+00  0.11802249805E+01  0.00000000000E+00 0. -1.
         11    1    3    3    0    0 -0.22462663587E+01 -0.97258023402E+01  0.43967393704E+01  0.10907257266E+02  0.51100000000E-03 0. -1.
        -11    1    3    3    0    0  0.12744150419E+02 -0.51581696180E+01  0.34233252832E+02  0.36890861788E+02  0.51100000000E-03 0.  1.
         12    1    3    3    0    0 -0.11389901577E+02  0.14768137560E+02 -0.37865912267E+02  0.42209655966E+02  0.00000000000E+00 0. -1.
</event>
<event>
 7    1  0.4119305E-015  0.9000685E+02  0.7816164E-02  0.1186341E+00
        -11   -1    0    0    0    0  0.00000000000E+00  0.00000000000E+00  0.45593999997E+02  0.45594000000E+02  0.51100000000E-03 0.  1.
         11   -1    0    0    0    0 -0.00000000000E+00 -0.00000000000E+00 -0.45593999997E+02  0.45594000000E+02  0.51100000000E-03 0. -1.
    9900012    2    1    2    0    0 -0.83721769998E+00  0.76561715240E+00  0.32865898095E+00  0.90006848093E+02  0.89999097683E+02 0.  0.
         12    1    1    2    0    0  0.83721769998E+00 -0.76561715240E+00 -0.32865898095E+00  0.11811519068E+01  0.00000000000E+00 0. -1.
         11    1    3    3    0    0  0.72341022865E+01 -0.47078590813E+01 -0.61997320207E+01  0.10626986892E+02  0.51100000000E-03 0. -1.
        -11    1    3    3    0    0  0.17336316370E+02  0.22315355137E+02 -0.23379034277E+02  0.36675634747E+02  0.51100000000E-03 0.  1.
         12    1    3    3    0    0 -0.25407636356E+02 -0.16841878903E+02  0.29907425278E+02  0.42704226453E+02  0.00000000000E+00 0. -1.
</event>
<event>
 7    1  0.4242189E-015  0.9000767E+02  0.7816164E-02  0.1186339E+00
        -11   -1    0    0    0    0  0.00000000000E+00  0.00000000000E+00  0.45593999997E+02  0.45594000000E+02  0.51100000000E-03 0.  1.
         11   -1    0    0    0    0 -0.00000000000E+00 -0.00000000000E+00 -0.45593999997E+02  0.45594000000E+02  0.51100000000E-03 0. -1.
    9900012    2    1    2    0    0  0.19895565266E+00 -0.10236868432E+00  0.11589300413E+01  0.90007668885E+02  0.89999929315E+02 0.  0.
         12    1    1    2    0    0 -0.19895565266E+00  0.10236868432E+00 -0.11589300413E+01  0.11803311145E+01  0.00000000000E+00 0. -1.
         11    1    3    3    0    0 -0.80526566793E+01 -0.15916129655E+02 -0.35057672421E+02  0.39334575867E+02  0.51100000000E-03 0. -1.
        -11    1    3    3    0    0 -0.10137432152E+01  0.91078812161E+01 -0.31408562373E+01  0.96874224496E+01  0.51100000000E-03 0.  1.
        -12    1    3    3    0    0  0.92653555472E+01  0.67058797548E+01  0.39357458700E+02  0.40985670569E+02  0.00000000000E+00 0.  1.
</event>
<event>
 7    1  0.4119305E-015  0.9000777E+02  0.7816164E-02  0.1186339E+00
        -11   -1    0    0    0    0  0.00000000000E+00  0.00000000000E+00  0.45593999997E+02  0.45594000000E+02  0.51100000000E-03 0. -1.
         11   -1    0    0    0    0 -0.00000000000E+00 -0.00000000000E+00 -0.45593999997E+02  0.45594000000E+02  0.51100000000E-03 0.  1.
    9900012    2    1    2    0    0 -0.20747365464E+00  0.89865518146E+00 -0.73642590523E+00  0.90007767156E+02  0.90000028882E+02 0.  0.
         12    1    1    2    0    0  0.20747365464E+00 -0.89865518146E+00  0.73642590523E+00  0.11802328442E+01  0.00000000000E+00 0. -1.
         11    1    3    3    0    0  0.10321413772E+01  0.63482625773E+01  0.73872571987E+01  0.97947599641E+01  0.51100000000E-03 0. -1.
        -11    1    3    3    0    0 -0.29087704458E+02  0.11851670376E+02 -0.27826859267E+02  0.41962968654E+02  0.51100000000E-03 0.  1.
         12    1    3    3    0    0  0.27848089427E+02 -0.17301277771E+02  0.19703176163E+02  0.38250038538E+02  0.00000000000E+00 0. -1.
</event>
<event>
 7    1  0.4119305E-015  0.9000782E+02  0.7816164E-02  0.1186339E+00
        -11   -1    0    0    0    0  0.00000000000E+00  0.00000000000E+00  0.45593999997E+02  0.45594000000E+02  0.51100000000E-03 0. -1.
         11   -1    0    0    0    0 -0.00000000000E+00 -0.00000000000E+00 -0.45593999997E+02  0.45594000000E+02  0.51100000000E-03 0.  1.
    9900012    2    1    2    0    0 -0.33012514644E+00  0.54311130467E+00 -0.99441759436E+00  0.90007822533E+02  0.90000084990E+02 0.  0.
         12    1    1    2    0    0  0.33012514644E+00 -0.54311130467E+00  0.99441759436E+00  0.11801774670E+01  0.00000000000E+00 0. -1.
         11    1    3    3    0    0 -0.19541749658E+01 -0.38011876872E+02 -0.89221908632E+01  0.39093823977E+02  0.51100000000E-03 0. -1.
        -11    1    3    3    0    0  0.13445617326E+01  0.21660557014E+01 -0.10019609900E+02  0.10338869685E+02  0.51100000000E-03 0.  1.
        -12    1    3    3    0    0  0.27948808681E+00  0.36388932475E+02  0.17947383169E+02  0.40575128871E+02  0.00000000000E+00 0.  1.
</event>
<event>
 7    1  0.4119305E-015  0.9000774E+02  0.7816164E-02  0.1186339E+00
        -11   -1    0    0    0    0  0.00000000000E+00  0.00000000000E+00  0.45593999997E+02  0.45594000000E+02  0.51100000000E-03 0. -1.
         11   -1    0    0    0    0 -0.00000000000E+00 -0.00000000000E+00 -0.45593999997E+02  0.45594000000E+02  0.51100000000E-03 0.  1.
    9900012    2    1    2    0    0 -0.68901387540E+00  0.56170653575E+00 -0.77637175752E+00  0.90007742630E+02  0.90000004033E+02 0.  0.
         12    1    1    2    0    0  0.68901387540E+00 -0.56170653575E+00  0.77637175752E+00  0.11802573697E+01  0.00000000000E+00 0. -1.
         11    1    3    3    0    0 -0.65665971673E+01 -0.77503019570E+01  0.54893466821E+01  0.11546441272E+02  0.51100000000E-03 0. -1.
        -11    1    3    3    0    0 -0.10339789648E+02 -0.28776838261E+02 -0.19031186958E+02  0.36016714836E+02  0.51100000000E-03 0.  1.
         12    1    3    3    0    0  0.16217372940E+02  0.37088846754E+02  0.12765468518E+02  0.42444586523E+02  0.00000000000E+00 0. -1.
</event>
<event>
 7    1  0.4119305E-015  0.9000730E+02  0.7816164E-02  0.1186340E+00
        -11   -1    0    0    0    0  0.00000000000E+00  0.00000000000E+00  0.45593999997E+02  0.45594000000E+02  0.51100000000E-03 0. -1.
         11   -1    0    0    0    0 -0.00000000000E+00 -0.00000000000E+00 -0.45593999997E+02  0.45594000000E+02  0.51100000000E-03 0.  1.
    9900012    2    1    2    0    0  0.17387152799E+00  0.10490328439E+01 -0.51318470264E+00  0.90007296923E+02  0.89999552442E+02 0.  0.
         12    1    1    2    0    0 -0.17387152799E+00 -0.10490328439E+01  0.51318470264E+00  0.11807030765E+01  0.00000000000E+00 0. -1.
         11    1    3    3    0    0 -0.22436145261E+02  0.97574659019E+01  0.27611535891E+02  0.36891539267E+02  0.51100000000E-03 0. -1.
        -11    1    3    3    0    0 -0.60174364262E+00 -0.57175292306E+00  0.87506169115E+01  0.87898972354E+01  0.51100000000E-03 0.  1.
        -12    1    3    3    0    0  0.23211760431E+02 -0.81366801350E+01 -0.36875337505E+02  0.44325860421E+02  0.00000000000E+00 0.  1.
</event>
<event>
 7    1  0.4119305E-015  0.9000774E+02  0.7816164E-02  0.1186339E+00
        -11   -1    0    0    0    0  0.00000000000E+00  0.00000000000E+00  0.45593999997E+02  0.45594000000E+02  0.51100000000E-03 0.  1.
         11   -1    0    0    0    0 -0.00000000000E+00 -0.00000000000E+00 -0.45593999997E+02  0.45594000000E+02  0.51100000000E-03 0. -1.
    9900012    2    1    2    0    0  0.24768094147E+00  0.10669076539E+01 -0.43974067847E+00  0.90007741700E+02  0.90000003090E+02 0.  0.
         12    1    1    2    0    0 -0.24768094147E+00 -0.10669076539E+01  0.43974067847E+00  0.11802583001E+01  0.00000000000E+00 0. -1.
         11    1    3    3    0    0 -0.46344181635E+00 -0.44320127949E+01  0.82923363560E+01  0.94138386555E+01  0.51100000000E-03 0. -1.
        -11    1    3    3    0    0 -0.27427646449E+02 -0.23960164962E+01  0.24134603489E+02  0.36612781520E+02  0.51100000000E-03 0.  1.
         12    1    3    3    0    0  0.28138769207E+02  0.78949369450E+01 -0.32866680524E+02  0.43981121524E+02  0.00000000000E+00 0. -1.
</event>
<event>
 7    1  0.4119305E-015  0.9000776E+02  0.7816164E-02  0.1186339E+00
        -11   -1    0    0    0    0  0.00000000000E+00  0.00000000000E+00  0.45593999997E+02  0.45594000000E+02  0.51100000000E-03 0. -1.
         11   -1    0    0    0    0 -0.00000000000E+00 -0.00000000000E+00 -0.45593999997E+02  0.45594000000E+02  0.51100000000E-03 0.  1.
    9900012    2    1    2    0    0  0.11658594663E+01  0.17779194431E+00  0.46039593533E-01  0.90007763619E+02  0.90000025299E+02 0.  0.
         12    1    1    2    0    0 -0.11658594663E+01 -0.17779194431E+00 -0.46039593533E-01  0.11802363809E+01  0.00000000000E+00 0. -1.
         11    1    3    3    0    0  0.31140561532E+02  0.74886187258E+01 -0.24713403409E+02  0.40454496552E+02  0.51100000000E-03 0. -1.
        -11    1    3    3    0    0  0.24909193123E+01 -0.77745548252E+01 -0.83924689289E+00  0.82068701317E+01  0.51100000000E-03 0.  1.
        -12    1    3    3    0    0 -0.32465621378E+02  0.46372804367E+00  0.25598689895E+02  0.41346396935E+02  0.00000000000E+00 0.  1.
</event>
<event>
 7    1  0.4119305E-015  0.9000769E+02  0.7816164E-02  0.1186339E+00
        -11   -1    0    0    0    0  0.00000000000E+00  0.00000000000E+00  0.45593999997E+02  0.45594000000E+02  0.51100000000E-03 0. -1.
         11   -1    0    0    0    0 -0.00000000000E+00 -0.00000000000E+00 -0.45593999997E+02  0.45594000000E+02  0.51100000000E-03 0.  1.
    9900012    2    1    2    0    0  0.53921877404E-01 -0.76939126723E+00 -0.89344881695E+00  0.90007694413E+02  0.89999955179E+02 0.  0.
         12    1    1    2    0    0 -0.53921877404E-01  0.76939126723E+00  0.89344881695E+00  0.11803055873E+01  0.00000000000E+00 0. -1.
         11    1    3    3    0    0 -0.26230707379E+01  0.43251498253E+01  0.94546554934E+01  0.10722776313E+02  0.51100000000E-03 0. -1.
        -11    1    3    3    0    0 -0.33316861959E+02 -0.18250293192E+02 -0.14663825191E+02  0.40719949188E+02  0.51100000000E-03 0.  1.
         12    1    3    3    0    0  0.35993854574E+02  0.13155752100E+02  0.43157208810E+01  0.38564968911E+02  0.00000000000E+00 0. -1.
</event>
<event>
 7    1  0.4119305E-015  0.9000767E+02  0.7816164E-02  0.1186339E+00
        -11   -1    0    0    0    0  0.00000000000E+00  0.00000000000E+00  0.45593999997E+02  0.45594000000E+02  0.51100000000E-03 0.  1.
         11   -1    0    0    0    0 -0.00000000000E+00 -0.00000000000E+00 -0.45593999997E+02  0.45594000000E+02  0.51100000000E-03 0. -1.
    9900012    2    1    2    0    0  0.30349079452E+00 -0.11250790461E+01  0.18777738828E+00  0.90007673829E+02  0.89999934324E+02 0.  0.
         12    1    1    2    0    0 -0.30349079452E+00  0.11250790461E+01 -0.18777738828E+00  0.11803261710E+01  0.00000000000E+00 0. -1.
         11    1    3    3    0    0 -0.85620257530E+01 -0.21009342497E+01 -0.75141635063E+01  0.11583819024E+02  0.51100000000E-03 0. -1.
        -11    1    3    3    0    0 -0.10085720820E+02  0.33522233907E+02  0.18022503020E+02  0.39373500555E+02  0.51100000000E-03 0.  1.
         12    1    3    3    0    0  0.18951237368E+02 -0.32546378703E+02 -0.10320562126E+02  0.39050354250E+02  0.00000000000E+00 0. -1.
</event>
<event>
 7    1  0.4119305E-015  0.9000770E+02  0.7816164E-02  0.1186339E+00
        -11   -1    0    0    0    0  0.00000000000E+00  0.00000000000E+00  0.45593999997E+02  0.45594000000E+02  0.51100000000E-03 0. -1.
         11   -1    0    0    0    0 -0.00000000000E+00 -0.00000000000E+00 -0.45593999997E+02  0.45594000000E+02  0.51100000000E-03 0.  1.
    9900012    2    1    2    0    0  0.19563293554E+00  0.11156834412E+01  0.33177736683E+00  0.90007704271E+02  0.89999965168E+02 0.  0.
         12    1    1    2    0    0 -0.19563293554E+00 -0.11156834412E+01 -0.33177736683E+00  0.11802957288E+01  0.00000000000E+00 0. -1.
         11    1    3    3    0    0 -0.28620491959E+01 -0.83663487253E+01 -0.31427713475E+01  0.93842489628E+01  0.51100000000E-03 0. -1.
        -11    1    3    3    0    0 -0.25104266181E+02  0.31731075067E+02 -0.10991717926E+02  0.41927355851E+02  0.51100000000E-03 0.  1.
         12    1    3    3    0    0  0.28161948312E+02 -0.22249042901E+02  0.14466266640E+02  0.38696099458E+02  0.00000000000E+00 0. -1.
</event>
<event>
 7    1  0.4119305E-015  0.9000776E+02  0.7816164E-02  0.1186339E+00
        -11   -1    0    0    0    0  0.00000000000E+00  0.00000000000E+00  0.45593999997E+02  0.45594000000E+02  0.51100000000E-03 0.  1.
         11   -1    0    0    0    0 -0.00000000000E+00 -0.00000000000E+00 -0.45593999997E+02  0.45594000000E+02  0.51100000000E-03 0. -1.
    9900012    2    1    2    0    0  0.65037523538E+00 -0.92288705307E+00 -0.34387855951E+00  0.90007762345E+02  0.90000024008E+02 0.  0.
         12    1    1    2    0    0 -0.65037523538E+00  0.92288705307E+00  0.34387855951E+00  0.11802376554E+01  0.00000000000E+00 0. -1.
         11    1    3    3    0    0 -0.75057931324E+01 -0.12013181314E+02 -0.19106618780E+02  0.23784792143E+02  0.51100000000E-03 0. -1.
        -11    1    3    3    0    0 -0.16673634411E+02  0.24155783876E+02  0.23711199675E+02  0.37732386214E+02  0.51100000000E-03 0.  1.
         12    1    3    3    0    0  0.24829802779E+02 -0.13065489616E+02 -0.49484594541E+01  0.28490583987E+02  0.00000000000E+00 0. -1.
</event>
<event>
 7    1  0.4119305E-015  0.9000775E+02  0.7816164E-02  0.1186339E+00
        -11   -1    0    0    0    0  0.00000000000E+00  0.00000000000E+00  0.45593999997E+02  0.45594000000E+02  0.51100000000E-03 0.  1.
         11   -1    0    0    0    0 -0.00000000000E+00 -0.00000000000E+00 -0.45593999997E+02  0.45594000000E+02  0.51100000000E-03 0. -1.
    9900012    2    1    2    0    0 -0.86560328538E+00  0.41008770367E+00  0.68960772632E+00  0.90007745880E+02  0.90000007325E+02 0.  0.
         12    1    1    2    0    0  0.86560328538E+00 -0.41008770367E+00 -0.68960772632E+00  0.11802541203E+01  0.00000000000E+00 0. -1.
         11    1    3    3    0    0  0.24008111721E+02  0.27841162194E+02 -0.15971691535E+02  0.40082598112E+02  0.51100000000E-03 0. -1.
        -11    1    3    3    0    0  0.39009811923E+00 -0.78210704120E+01 -0.67114274513E+01  0.10313320398E+02  0.51100000000E-03 0.  1.
        -12    1    3    3    0    0 -0.25263813126E+02 -0.19610004078E+02  0.23372726712E+02  0.39611827369E+02  0.00000000000E+00 0.  1.
</event>
<event>
 7    1  0.4119305E-015  0.9000770E+02  0.7816164E-02  0.1186339E+00
        -11   -1    0    0    0    0  0.00000000000E+00  0.00000000000E+00  0.45593999997E+02  0.45594000000E+02  0.51100000000E-03 0. -1.
         11   -1    0    0    0    0 -0.00000000000E+00 -0.00000000000E+00 -0.45593999997E+02  0.45594000000E+02  0.51100000000E-03 0.  1.
    9900012    2    1    2    0    0 -0.94274796858E+00 -0.56192499781E+00 -0.43425366696E+00  0.90007699325E+02  0.89999960156E+02 0.  0.
         12    1    1    2    0    0  0.94274796858E+00  0.56192499781E+00  0.43425366696E+00  0.11803006747E+01  0.00000000000E+00 0. -1.
         11    1    3    3    0    0 -0.13964956988E+01  0.32970364227E+02  0.16837566026E+02  0.37047250201E+02  0.51100000000E-03 0. -1.
        -11    1    3    3    0    0  0.46568720888E+01  0.70247472715E+01 -0.68880045199E+01  0.10884766346E+02  0.51100000000E-03 0.  1.
        -12    1    3    3    0    0 -0.42031243586E+01 -0.40557036496E+02 -0.10383815173E+02  0.42075682779E+02  0.00000000000E+00 0.  1.
</event>
<event>
 7    1  0.4119305E-015  0.9000767E+02  0.7816164E-02  0.1186339E+00
        -11   -1    0    0    0    0  0.00000000000E+00  0.00000000000E+00  0.45593999997E+02  0.45594000000E+02  0.51100000000E-03 0.  1.
         11   -1    0    0    0    0 -0.00000000000E+00 -0.00000000000E+00 -0.45593999997E+02  0.45594000000E+02  0.51100000000E-03 0. -1.
    9900012    2    1    2    0    0  0.54654724879E+00 -0.69447876776E+00 -0.78240734870E+00  0.90007671269E+02  0.89999931730E+02 0.  0.
         12    1    1    2    0    0 -0.54654724879E+00  0.69447876776E+00  0.78240734870E+00  0.11803287310E+01  0.00000000000E+00 0. -1.
         11    1    3    3    0    0 -0.11463764634E+02 -0.16562367181E+02 -0.38284144478E+01  0.20503332990E+02  0.51100000000E-03 0. -1.
        -11    1    3    3    0    0 -0.38577279075E+00 -0.51102079780E+01  0.31573590912E+02  0.31986789297E+02  0.51100000000E-03 0.  1.
         12    1    3    3    0    0  0.12396084674E+02  0.20978096392E+02 -0.28527583813E+02  0.37517548982E+02  0.00000000000E+00 0. -1.
</event>
<event>
 7    1  0.4119305E-015  0.9000771E+02  0.7816164E-02  0.1186339E+00
        -11   -1    0    0    0    0  0.00000000000E+00  0.00000000000E+00  0.45593999997E+02  0.45594000000E+02  0.51100000000E-03 0.  1.
         11   -1    0    0    0    0 -0.00000000000E+00 -0.00000000000E+00 -0.45593999997E+02  0.45594000000E+02  0.51100000000E-03 0. -1.
    9900012    2    1    2    0    0 -0.56194647234E+00  0.87713965736E+00  0.55490637440E+00  0.90007712365E+02  0.89999973369E+02 0.  0.
         12    1    1    2    0    0  0.56194647234E+00 -0.87713965736E+00 -0.55490637440E+00  0.11802876347E+01  0.00000000000E+00 0. -1.
         11    1    3    3    0    0  0.11124427957E+02  0.24623510569E+01  0.37748987874E+02  0.39430979646E+02  0.51100000000E-03 0. -1.
        -11    1    3    3    0    0 -0.93985923594E+01  0.29514974025E+01  0.28156915114E+01  0.10245632933E+02  0.51100000000E-03 0.  1.
        -12    1    3    3    0    0 -0.22877820697E+01 -0.45367088021E+01 -0.40009773011E+02  0.40331099786E+02  0.00000000000E+00 0.  1.
</event>
<event>
 7    1  0.4119305E-015  0.9000768E+02  0.7816164E-02  0.1186339E+00
        -11   -1    0    0    0    0  0.00000000000E+00  0.00000000000E+00  0.45593999997E+02  0.45594000000E+02  0.51100000000E-03 0. -1.
         11   -1    0    0    0    0 -0.00000000000E+00 -0.00000000000E+00 -0.45593999997E+02  0.45594000000E+02  0.51100000000E-03 0.  1.
    9900012    2    1    2    0    0  0.77911843259E+00 -0.74342545934E+00  0.48315583459E+00  0.90007683726E+02  0.89999944351E+02 0.  0.
         12    1    1    2    0    0 -0.77911843259E+00  0.74342545934E+00 -0.48315583459E+00  0.11803162738E+01  0.00000000000E+00 0. -1.
         11    1    3    3    0    0  0.15148627908E+01 -0.24378270298E+02  0.27240671563E+02  0.36587553341E+02  0.51100000000E-03 0. -1.
        -11    1    3    3    0    0  0.10896876985E+02 -0.33708143833E+01  0.27816081331E+01  0.11740598865E+02  0.51100000000E-03 0.  1.
        -12    1    3    3    0    0 -0.11632621343E+02  0.27005659222E+02 -0.29539123861E+02  0.41679531521E+02  0.00000000000E+00 0.  1.
</event>
<event>
 7    1  0.4119305E-015  0.9000777E+02  0.7816164E-02  0.1186339E+00
        -11   -1    0    0    0    0  0.00000000000E+00  0.00000000000E+00  0.45593999997E+02  0.45594000000E+02  0.51100000000E-03 0.  1.
         11   -1    0    0    0    0 -0.00000000000E+00 -0.00000000000E+00 -0.45593999997E+02  0.45594000000E+02  0.51100000000E-03 0. -1.
    9900012    2    1    2    0    0  0.11647437584E+01 -0.54741206573E-01  0.18254513332E+00  0.90007768096E+02  0.90000029834E+02 0.  0.
         12    1    1    2    0    0 -0.11647437584E+01  0.54741206573E-01 -0.18254513332E+00  0.11802319044E+01  0.00000000000E+00 0. -1.
         11    1    3    3    0    0  0.18738279540E+02 -0.24431791387E+02 -0.27646661285E+02  0.41380834102E+02  0.51100000000E-03 0. -1.
        -11    1    3    3    0    0  0.65313227528E+01  0.61666282600E+01  0.28400583693E+01  0.94207968241E+01  0.51100000000E-03 0.  1.
        -12    1    3    3    0    0 -0.24104858535E+02  0.18210421920E+02  0.24989148050E+02  0.39206137169E+02  0.00000000000E+00 0.  1.
</event>
<event>
 7    1  0.4119305E-015  0.9000776E+02  0.7816164E-02  0.1186339E+00
        -11   -1    0    0    0    0  0.00000000000E+00  0.00000000000E+00  0.45593999997E+02  0.45594000000E+02  0.51100000000E-03 0.  1.
         11   -1    0    0    0    0 -0.00000000000E+00 -0.00000000000E+00 -0.45593999997E+02  0.45594000000E+02  0.51100000000E-03 0. -1.
    9900012    2    1    2    0    0 -0.10495999849E+00 -0.40515866887E+00  0.11035352285E+01  0.90007762673E+02  0.90000024340E+02 0.  0.
         12    1    1    2    0    0  0.10495999849E+00  0.40515866887E+00 -0.11035352285E+01  0.11802373273E+01  0.00000000000E+00 0. -1.
         11    1    3    3    0    0  0.55231351752E+01 -0.44025412711E+01 -0.33419061066E+01  0.78138165127E+01  0.51100000000E-03 0. -1.
        -11    1    3    3    0    0  0.18460612352E+02 -0.20921295707E+02  0.28594701691E+02  0.39951868386E+02  0.51100000000E-03 0.  1.
         12    1    3    3    0    0 -0.24088707525E+02  0.24918678309E+02 -0.24149260356E+02  0.42242077774E+02  0.00000000000E+00 0. -1.
</event>
<event>
 7    1  0.4119305E-015  0.9000766E+02  0.7816164E-02  0.1186339E+00
        -11   -1    0    0    0    0  0.00000000000E+00  0.00000000000E+00  0.45593999997E+02  0.45594000000E+02  0.51100000000E-03 0.  1.
         11   -1    0    0    0    0 -0.00000000000E+00 -0.00000000000E+00 -0.45593999997E+02  0.45594000000E+02  0.51100000000E-03 0. -1.
    9900012    2    1    2    0    0  0.52510117857E-01  0.37731681991E+00  0.11171786198E+01  0.90007655405E+02  0.89999915656E+02 0.  0.
         12    1    1    2    0    0 -0.52510117857E-01 -0.37731681991E+00 -0.11171786198E+01  0.11803445953E+01  0.00000000000E+00 0. -1.
         11    1    3    3    0    0  0.14947372083E+01 -0.92806200475E+01 -0.28176556139E+00  0.94044425609E+01  0.51100000000E-03 0. -1.
        -11    1    3    3    0    0  0.29554421940E+02 -0.20049147387E+02 -0.81251541137E+01  0.36625814622E+02  0.51100000000E-03 0.  1.
         12    1    3    3    0    0 -0.30996649030E+02  0.29707084254E+02  0.95240982949E+01  0.43977398221E+02  0.00000000000E+00 0. -1.
</event>
<event>
 7    1  0.4119305E-015  0.9000807E+02  0.7816164E-02  0.1186338E+00
        -11   -1    0    0    0    0  0.00000000000E+00  0.00000000000E+00  0.45593999997E+02  0.45594000000E+02  0.51100000000E-03 0.  1.
         11   -1    0    0    0    0 -0.00000000000E+00 -0.00000000000E+00 -0.45593999997E+02  0.45594000000E+02  0.51100000000E-03 0. -1.
    9900012    2    1    2    0    0  0.42209118210E+00 -0.35311420540E+00  0.10437379501E+01  0.90008068003E+02  0.90000333700E+02 0.  0.
         12    1    1    2    0    0 -0.42209118210E+00  0.35311420540E+00 -0.10437379501E+01  0.11799319966E+01  0.00000000000E+00 0. -1.
         11    1    3    3    0    0  0.24261435074E+01  0.80535838453E+01  0.82050437189E+01  0.11750282029E+02  0.51100000000E-03 0. -1.
        -11    1    3    3    0    0  0.23390828773E+02  0.15620906830E+02  0.19555799989E+02  0.34257450494E+02  0.51100000000E-03 0.  1.
         12    1    3    3    0    0 -0.25394881098E+02 -0.24027604881E+02 -0.26717105758E+02  0.44000335480E+02  0.00000000000E+00 0. -1.
</event>
<event>
 7    1  0.4119305E-015  0.9000776E+02  0.7816164E-02  0.1186339E+00
        -11   -1    0    0    0    0  0.00000000000E+00  0.00000000000E+00  0.45593999997E+02  0.45594000000E+02  0.51100000000E-03 0.  1.
         11   -1    0    0    0    0 -0.00000000000E+00 -0.00000000000E+00 -0.45593999997E+02  0.45594000000E+02  0.51100000000E-03 0. -1.
    9900012    2    1    2    0    0 -0.38132303031E+00 -0.63629551722E+00  0.91798361142E+00  0.90007757165E+02  0.90000018760E+02 0.  0.
         12    1    1    2    0    0  0.38132303031E+00  0.63629551722E+00 -0.91798361142E+00  0.11802428350E+01  0.00000000000E+00 0. -1.
         11    1    3    3    0    0  0.26330991779E+02 -0.24782179669E+02  0.16066319606E+02  0.39567716426E+02  0.51100000000E-03 0. -1.
        -11    1    3    3    0    0 -0.94637393124E+01 -0.53100174741E+01  0.36780501729E+01  0.11458040875E+02  0.51100000000E-03 0.  1.
        -12    1    3    3    0    0 -0.17248575497E+02  0.29455901626E+02 -0.18826386168E+02  0.38981999864E+02  0.00000000000E+00 0.  1.
</event>
<event>
 7    1  0.4119305E-015  0.9000777E+02  0.7816164E-02  0.1186339E+00
        -11   -1    0    0    0    0  0.00000000000E+00  0.00000000000E+00  0.45593999997E+02  0.45594000000E+02  0.51100000000E-03 0.  1.
         11   -1    0    0    0    0 -0.00000000000E+00 -0.00000000000E+00 -0.45593999997E+02  0.45594000000E+02  0.51100000000E-03 0. -1.
    9900012    2    1    2    0    0  0.11293358591E+00 -0.71419603542E+00  0.93279422606E+00  0.90007773310E+02  0.90000035118E+02 0.  0.
         12    1    1    2    0    0 -0.11293358591E+00  0.71419603542E+00 -0.93279422606E+00  0.11802266901E+01  0.00000000000E+00 0. -1.
         11    1    3    3    0    0 -0.40303845339E+02  0.12941725502E+02 -0.25071637471E+01  0.42404882719E+02  0.51100000000E-03 0. -1.
        -11    1    3    3    0    0  0.47694076749E+01  0.31897278325E+01 -0.46123293662E+01  0.73617386301E+01  0.51100000000E-03 0.  1.
        -12    1    3    3    0    0  0.35647371250E+02 -0.16845649369E+02  0.80522873394E+01  0.40241151961E+02  0.00000000000E+00 0.  1.
</event>
<event>
 7    1  0.4119305E-015  0.9000776E+02  0.7816164E-02  0.1186339E+00
        -11   -1    0    0    0    0  0.00000000000E+00  0.00000000000E+00  0.45593999997E+02  0.45594000000E+02  0.51100000000E-03 0. -1.
         11   -1    0    0    0    0 -0.00000000000E+00 -0.00000000000E+00 -0.45593999997E+02  0.45594000000E+02  0.51100000000E-03 0.  1.
    9900012    2    1    2    0    0  0.10133550823E+01  0.13498145384E+00 -0.58979044379E+00  0.90007762192E+02  0.90000023853E+02 0.  0.
         12    1    1    2    0    0 -0.10133550823E+01 -0.13498145384E+00  0.58979044379E+00  0.11802378080E+01  0.00000000000E+00 0. -1.
         11    1    3    3    0    0 -0.36270019244E+02 -0.13150686362E+02  0.17344069196E+02  0.42299782320E+02  0.51100000000E-03 0. -1.
        -11    1    3    3    0    0 -0.66388689089E+00  0.50122201874E+01 -0.39946801650E+01  0.64436454661E+01  0.51100000000E-03 0.  1.
        -12    1    3    3    0    0  0.37947261217E+02  0.82734476280E+01 -0.13939179475E+02  0.41264334406E+02  0.00000000000E+00 0.  1.
</event>
<event>
 7    1  0.4119305E-015  0.9000791E+02  0.7816164E-02  0.1186339E+00
        -11   -1    0    0    0    0  0.00000000000E+00  0.00000000000E+00  0.45593999997E+02  0.45594000000E+02  0.51100000000E-03 0.  1.
         11   -1    0    0    0    0 -0.00000000000E+00 -0.00000000000E+00 -0.45593999997E+02  0.45594000000E+02  0.51100000000E-03 0. -1.
    9900012    2    1    2    0    0  0.86406246355E+00 -0.78494653049E+00  0.17282762916E+00  0.90007909162E+02  0.90000172763E+02 0.  0.
         12    1    1    2    0    0 -0.86406246355E+00  0.78494653049E+00 -0.17282762916E+00  0.11800908380E+01  0.00000000000E+00 0. -1.
         11    1    3    3    0    0 -0.52436214711E+01 -0.20521133594E+01 -0.68836948462E+01  0.88933677743E+01  0.51100000000E-03 0. -1.
        -11    1    3    3    0    0 -0.10932703536E+02 -0.34309611187E+02  0.17887519231E+02  0.40207421838E+02  0.51100000000E-03 0.  1.
         12    1    3    3    0    0  0.17040387471E+02  0.35576778016E+02 -0.10830996755E+02  0.40907119549E+02  0.00000000000E+00 0. -1.
</event>
<event>
 7    1  0.4119305E-015  0.9000778E+02  0.7816164E-02  0.1186339E+00
        -11   -1    0    0    0    0  0.00000000000E+00  0.00000000000E+00  0.45593999997E+02  0.45594000000E+02  0.51100000000E-03 0. -1.
         11   -1    0    0    0    0 -0.00000000000E+00 -0.00000000000E+00 -0.45593999997E+02  0.45594000000E+02  0.51100000000E-03 0.  1.
    9900012    2    1    2    0    0 -0.10303833053E+00 -0.10970807329E+00 -0.11705887475E+01  0.90007775117E+02  0.90000036948E+02 0.  0.
         12    1    1    2    0    0  0.10303833053E+00  0.10970807329E+00  0.11705887475E+01  0.11802248831E+01  0.00000000000E+00 0. -1.
         11    1    3    3    0    0 -0.10270250237E+01  0.14163949493E+02  0.36640012714E+02  0.39295836644E+02  0.51100000000E-03 0. -1.
        -11    1    3    3    0    0  0.81621343563E+01 -0.69593396294E+01  0.79763787672E+00  0.10755885448E+02  0.51100000000E-03 0.  1.
        -12    1    3    3    0    0 -0.72381476632E+01 -0.73143179365E+01 -0.38608239338E+02  0.39956053024E+02  0.00000000000E+00 0.  1.
</event>
<event>
 7    1  0.4119305E-015  0.9000754E+02  0.7816164E-02  0.1186339E+00
        -11   -1    0    0    0    0  0.00000000000E+00  0.00000000000E+00  0.45593999997E+02  0.45594000000E+02  0.51100000000E-03 0.  1.
         11   -1    0    0    0    0 -0.00000000000E+00 -0.00000000000E+00 -0.45593999997E+02  0.45594000000E+02  0.51100000000E-03 0. -1.
    9900012    2    1    2    0    0 -0.11231346779E+01  0.13447570931E+00 -0.33760644059E+00  0.90007536816E+02  0.89999795501E+02 0.  0.
         12    1    1    2    0    0  0.11231346779E+01 -0.13447570931E+00  0.33760644059E+00  0.11804631844E+01  0.00000000000E+00 0. -1.
         11    1    3    3    0    0 -0.53354370722E+01  0.76667409263E+00  0.96149363095E+01  0.11022779977E+02  0.51100000000E-03 0. -1.
        -11    1    3    3    0    0 -0.18122062184E+02  0.21128867134E+02  0.21136962873E+02  0.34951528778E+02  0.51100000000E-03 0.  1.
         12    1    3    3    0    0  0.22334364578E+02 -0.21761065518E+02 -0.31089505623E+02  0.44033228061E+02  0.00000000000E+00 0. -1.
</event>
<event>
 7    1  0.4119305E-015  0.9000775E+02  0.7816164E-02  0.1186339E+00
        -11   -1    0    0    0    0  0.00000000000E+00  0.00000000000E+00  0.45593999997E+02  0.45594000000E+02  0.51100000000E-03 0.  1.
         11   -1    0    0    0    0 -0.00000000000E+00 -0.00000000000E+00 -0.45593999997E+02  0.45594000000E+02  0.51100000000E-03 0. -1.
    9900012    2    1    2    0    0  0.96970440536E+00  0.53645970351E+00 -0.40605465474E+00  0.90007747472E+02  0.90000008939E+02 0.  0.
         12    1    1    2    0    0 -0.96970440536E+00 -0.53645970351E+00  0.40605465474E+00  0.11802525280E+01  0.00000000000E+00 0. -1.
         11    1    3    3    0    0 -0.20877387623E+02 -0.26037639652E+02  0.69831496727E+01  0.34096750171E+02  0.51100000000E-03 0. -1.
        -11    1    3    3    0    0 -0.59169004873E+01 -0.79226958264E+01 -0.60839969308E+01  0.11610074911E+02  0.51100000000E-03 0.  1.
        -12    1    3    3    0    0  0.27763992515E+02  0.34496795182E+02 -0.13052073966E+01  0.44300922390E+02  0.00000000000E+00 0.  1.
</event>
<event>
 7    1  0.4119305E-015  0.9000768E+02  0.7816164E-02  0.1186339E+00
        -11   -1    0    0    0    0  0.00000000000E+00  0.00000000000E+00  0.45593999997E+02  0.45594000000E+02  0.51100000000E-03 0.  1.
         11   -1    0    0    0    0 -0.00000000000E+00 -0.00000000000E+00 -0.45593999997E+02  0.45594000000E+02  0.51100000000E-03 0. -1.
    9900012    2    1    2    0    0  0.14406778114E+00 -0.27659442221E+00  0.11383789968E+01  0.90007675155E+02  0.89999935667E+02 0.  0.
         12    1    1    2    0    0 -0.14406778114E+00  0.27659442221E+00 -0.11383789968E+01  0.11803248453E+01  0.00000000000E+00 0. -1.
         11    1    3    3    0    0 -0.34580708069E+02 -0.32612465781E+01  0.10496568706E+02  0.36285521282E+02  0.51100000000E-03 0. -1.
        -11    1    3    3    0    0 -0.26061825365E+01  0.11829542014E+01  0.10859121262E+02  0.11229963620E+02  0.51100000000E-03 0.  1.
        -12    1    3    3    0    0  0.37330958387E+02  0.18016979545E+01 -0.20217310971E+02  0.42492190253E+02  0.00000000000E+00 0.  1.
</event>
<event>
 7    1  0.4119305E-015  0.9000761E+02  0.7816164E-02  0.1186339E+00
        -11   -1    0    0    0    0  0.00000000000E+00  0.00000000000E+00  0.45593999997E+02  0.45594000000E+02  0.51100000000E-03 0.  1.
         11   -1    0    0    0    0 -0.00000000000E+00 -0.00000000000E+00 -0.45593999997E+02  0.45594000000E+02  0.51100000000E-03 0. -1.
    9900012    2    1    2    0    0  0.38738557384E+00 -0.10120761064E+01  0.46793340491E+00  0.90007607142E+02  0.89999866756E+02 0.  0.
         12    1    1    2    0    0 -0.38738557384E+00  0.10120761064E+01 -0.46793340491E+00  0.11803928581E+01  0.00000000000E+00 0. -1.
         11    1    3    3    0    0 -0.20963914908E+01 -0.66043868056E+01 -0.71979606738E+01  0.99911671232E+01  0.51100000000E-03 0. -1.
        -11    1    3    3    0    0 -0.25538443386E+02 -0.22611883213E+02 -0.11344109224E+02  0.35947157987E+02  0.51100000000E-03 0.  1.
         12    1    3    3    0    0  0.28022220450E+02  0.28204193913E+02  0.19010003302E+02  0.44069282032E+02  0.00000000000E+00 0. -1.
</event>
<event>
 7    1  0.4119305E-015  0.9000769E+02  0.7816164E-02  0.1186339E+00
        -11   -1    0    0    0    0  0.00000000000E+00  0.00000000000E+00  0.45593999997E+02  0.45594000000E+02  0.51100000000E-03 0.  1.
         11   -1    0    0    0    0 -0.00000000000E+00 -0.00000000000E+00 -0.45593999997E+02  0.45594000000E+02  0.51100000000E-03 0. -1.
    9900012    2    1    2    0    0  0.41483387334E+00 -0.10417215567E+01  0.36858251851E+00  0.90007693253E+02  0.89999954004E+02 0.  0.
         12    1    1    2    0    0 -0.41483387334E+00  0.10417215567E+01 -0.36858251851E+00  0.11803067470E+01  0.00000000000E+00 0. -1.
         11    1    3    3    0    0  0.10591311299E+02  0.91760611088E+01 -0.39815330860E+02  0.42209436673E+02  0.51100000000E-03 0. -1.
        -11    1    3    3    0    0  0.12163453176E+01  0.58071025586E+01  0.65401780867E+01  0.88303944263E+01  0.51100000000E-03 0.  1.
        -12    1    3    3    0    0 -0.11392822743E+02 -0.16024885224E+02  0.33643735291E+02  0.38967862154E+02  0.00000000000E+00 0.  1.
</event>
<event>
 7    1  0.4119305E-015  0.9000773E+02  0.7816164E-02  0.1186339E+00
        -11   -1    0    0    0    0  0.00000000000E+00  0.00000000000E+00  0.45593999997E+02  0.45594000000E+02  0.51100000000E-03 0. -1.
         11   -1    0    0    0    0 -0.00000000000E+00 -0.00000000000E+00 -0.45593999997E+02  0.45594000000E+02  0.51100000000E-03 0.  1.
    9900012    2    1    2    0    0  0.72220756124E-01  0.65321890222E+00 -0.98037344887E+00  0.90007727628E+02  0.89999988833E+02 0.  0.
         12    1    1    2    0    0 -0.72220756124E-01 -0.65321890222E+00  0.98037344887E+00  0.11802723716E+01  0.00000000000E+00 0. -1.
         11    1    3    3    0    0  0.31355523161E+02 -0.31269631946E+02 -0.52959864390E+01  0.44598275609E+02  0.51100000000E-03 0. -1.
        -11    1    3    3    0    0 -0.88086854396E+01  0.59671567994E+01  0.29831907430E+01  0.11049856411E+02  0.51100000000E-03 0.  1.
        -12    1    3    3    0    0 -0.22474616965E+02  0.25955694048E+02  0.13324222471E+01  0.34359595608E+02  0.00000000000E+00 0.  1.
</event>
<event>
 7    1  0.4119305E-015  0.9000770E+02  0.7816164E-02  0.1186339E+00
        -11   -1    0    0    0    0  0.00000000000E+00  0.00000000000E+00  0.45593999997E+02  0.45594000000E+02  0.51100000000E-03 0.  1.
         11   -1    0    0    0    0 -0.00000000000E+00 -0.00000000000E+00 -0.45593999997E+02  0.45594000000E+02  0.51100000000E-03 0. -1.
    9900012    2    1    2    0    0 -0.14403691517E-01  0.35806409997E-01  0.11796679346E+01  0.90007700885E+02  0.89999961737E+02 0.  0.
         12    1    1    2    0    0  0.14403691517E-01 -0.35806409997E-01 -0.11796679346E+01  0.11802991152E+01  0.00000000000E+00 0. -1.
         11    1    3    3    0    0  0.28669408457E+02  0.22875292893E+02 -0.36522079511E+01  0.36858548933E+02  0.51100000000E-03 0. -1.
        -11    1    3    3    0    0  0.20964940997E+01  0.72219643528E+01 -0.49804377978E+01  0.90198014137E+01  0.51100000000E-03 0.  1.
        -12    1    3    3    0    0 -0.30780306249E+02 -0.30061450836E+02  0.98123136834E+01  0.44129350538E+02  0.00000000000E+00 0.  1.
</event>
<event>
 7    1  0.4119305E-015  0.9000770E+02  0.7816164E-02  0.1186339E+00
        -11   -1    0    0    0    0  0.00000000000E+00  0.00000000000E+00  0.45593999997E+02  0.45594000000E+02  0.51100000000E-03 0. -1.
         11   -1    0    0    0    0 -0.00000000000E+00 -0.00000000000E+00 -0.45593999997E+02  0.45594000000E+02  0.51100000000E-03 0.  1.
    9900012    2    1    2    0    0  0.10887519539E+01  0.45073842585E+00  0.67478521045E-01  0.90007703725E+02  0.89999964614E+02 0.  0.
         12    1    1    2    0    0 -0.10887519539E+01 -0.45073842585E+00 -0.67478521045E-01  0.11802962749E+01  0.00000000000E+00 0. -1.
         11    1    3    3    0    0  0.32923869279E+02  0.20184890060E+02  0.93285572635E+01  0.39729497051E+02  0.51100000000E-03 0. -1.
        -11    1    3    3    0    0 -0.26026563606E+01  0.32473306381E+01  0.82019073979E+01  0.91972964304E+01  0.51100000000E-03 0.  1.
        -12    1    3    3    0    0 -0.29232460965E+02 -0.22981482272E+02 -0.17462986140E+02  0.41080910244E+02  0.00000000000E+00 0.  1.
</event>
<event>
 7    1  0.4119305E-015  0.9000786E+02  0.7816164E-02  0.1186339E+00
        -11   -1    0    0    0    0  0.00000000000E+00  0.00000000000E+00  0.45593999997E+02  0.45594000000E+02  0.51100000000E-03 0.  1.
         11   -1    0    0    0    0 -0.00000000000E+00 -0.00000000000E+00 -0.45593999997E+02  0.45594000000E+02  0.51100000000E-03 0. -1.
    9900012    2    1    2    0    0 -0.33045678984E+00  0.48849022924E+00  0.10222108038E+01  0.90007856228E+02  0.90000119131E+02 0.  0.
         12    1    1    2    0    0  0.33045678984E+00 -0.48849022924E+00 -0.10222108038E+01  0.11801437715E+01  0.00000000000E+00 0. -1.
         11    1    3    3    0    0 -0.27256798157E+00 -0.10080542975E+02  0.16895462921E+01  0.10224783954E+02  0.51100000000E-03 0. -1.
        -11    1    3    3    0    0  0.19771786741E+02  0.22551477334E+02  0.29283578883E+02  0.41916830430E+02  0.51100000000E-03 0.  1.
         12    1    3    3    0    0 -0.19829675549E+02 -0.11982444129E+02 -0.29950914371E+02  0.37866241844E+02  0.00000000000E+00 0. -1.
</event>
<event>
 7    1  0.4119305E-015  0.9000777E+02  0.7816164E-02  0.1186339E+00
        -11   -1    0    0    0    0  0.00000000000E+00  0.00000000000E+00  0.45593999997E+02  0.45594000000E+02  0.51100000000E-03 0. -1.
         11   -1    0    0    0    0 -0.00000000000E+00 -0.00000000000E+00 -0.45593999997E+02  0.45594000000E+02  0.51100000000E-03 0.  1.
    9900012    2    1    2    0    0  0.30156996918E+00 -0.43221106477E+00 -0.10560218403E+01  0.90007774183E+02  0.90000036003E+02 0.  0.
         12    1    1    2    0    0 -0.30156996918E+00  0.43221106477E+00  0.10560218403E+01  0.11802258165E+01  0.00000000000E+00 0. -1.
         11    1    3    3    0    0 -0.62473128482E+01 -0.39784680429E+01 -0.96137799921E+01  0.12135975107E+02  0.51100000000E-03 0. -1.
        -11    1    3    3    0    0  0.36740887964E+02 -0.13649796417E+02 -0.69783618829E+01  0.39810894557E+02  0.51100000000E-03 0.  1.
         12    1    3    3    0    0 -0.30192005147E+02  0.17196053395E+02  0.15536120035E+02  0.38060904520E+02  0.00000000000E+00 0. -1.
</event>
<event>
 7    1  0.4119305E-015  0.9000770E+02  0.7816164E-02  0.1186339E+00
        -11   -1    0    0    0    0  0.00000000000E+00  0.00000000000E+00  0.45593999997E+02  0.45594000000E+02  0.51100000000E-03 0. -1.
         11   -1    0    0    0    0 -0.00000000000E+00 -0.00000000000E+00 -0.45593999997E+02  0.45594000000E+02  0.51100000000E-03 0.  1.
    9900012    2    1    2    0    0 -0.60413872877E+00  0.89202023838E+00  0.48211446167E+00  0.90007695775E+02  0.89999956559E+02 0.  0.
         12    1    1    2    0    0  0.60413872877E+00 -0.89202023838E+00 -0.48211446167E+00  0.11803042249E+01  0.00000000000E+00 0. -1.
         11    1    3    3    0    0  0.37421620317E+00 -0.24132621740E+01 -0.14636308602E+02  0.14838645553E+02  0.51100000000E-03 0. -1.
        -11    1    3    3    0    0  0.25924511860E+02 -0.13248543154E+02 -0.13912443283E+02  0.32267015500E+02  0.51100000000E-03 0.  1.
         12    1    3    3    0    0 -0.26902866792E+02  0.16553825566E+02  0.29030866346E+02  0.42902034723E+02  0.00000000000E+00 0. -1.
</event>
<event>
 7    1  0.4119305E-015  0.9000791E+02  0.7816164E-02  0.1186339E+00
        -11   -1    0    0    0    0  0.00000000000E+00  0.00000000000E+00  0.45593999997E+02  0.45594000000E+02  0.51100000000E-03 0. -1.
         11   -1    0    0    0    0 -0.00000000000E+00 -0.00000000000E+00 -0.45593999997E+02  0.45594000000E+02  0.51100000000E-03 0.  1.
    9900012    2    1    2    0    0  0.11417981847E+01  0.27454541145E+00 -0.11637225843E+00  0.90007906453E+02  0.90000170018E+02 0.  0.
         12    1    1    2    0    0 -0.11417981847E+01 -0.27454541145E+00  0.11637225843E+00  0.11800935472E+01  0.00000000000E+00 0. -1.
         11    1    3    3    0    0 -0.29218934519E+02  0.25027908143E+02  0.10939710471E+02  0.39997744760E+02  0.51100000000E-03 0. -1.
        -11    1    3    3    0    0 -0.49530573036E+01 -0.36839273180E+00 -0.42943423235E+01  0.65658103925E+01  0.51100000000E-03 0.  1.
        -12    1    3    3    0    0  0.35313790008E+02 -0.24384969999E+02 -0.67617404059E+01  0.43444351300E+02  0.00000000000E+00 0.  1.
</event>
<event>
 7    1  0.4119305E-015  0.9000775E+02  0.7816164E-02  0.1186339E+00
        -11   -1    0    0    0    0  0.00000000000E+00  0.00000000000E+00  0.45593999997E+02  0.45594000000E+02  0.51100000000E-03 0.  1.
         11   -1    0    0    0    0 -0.00000000000E+00 -0.00000000000E+00 -0.45593999997E+02  0.45594000000E+02  0.51100000000E-03 0. -1.
    9900012    2    1    2    0    0 -0.31524573704E+00 -0.80854103026E+00  0.79992640427E+00  0.90007745483E+02  0.90000006924E+02 0.  0.
         12    1    1    2    0    0  0.31524573704E+00  0.80854103026E+00 -0.79992640427E+00  0.11802545169E+01  0.00000000000E+00 0. -1.
         11    1    3    3    0    0 -0.97862379520E+01  0.36276636734E+02 -0.86272412054E+01  0.38551188271E+02  0.51100000000E-03 0. -1.
        -11    1    3    3    0    0  0.45327018652E+01 -0.12882701652E+01 -0.95436501540E+01  0.10643602996E+02  0.51100000000E-03 0.  1.
        -12    1    3    3    0    0  0.49382903498E+01 -0.35796907599E+02  0.18970817764E+02  0.40812954216E+02  0.00000000000E+00 0.  1.
</event>
<event>
 7    1  0.4119305E-015  0.9000777E+02  0.7816164E-02  0.1186339E+00
        -11   -1    0    0    0    0  0.00000000000E+00  0.00000000000E+00  0.45593999997E+02  0.45594000000E+02  0.51100000000E-03 0. -1.
         11   -1    0    0    0    0 -0.00000000000E+00 -0.00000000000E+00 -0.45593999997E+02  0.45594000000E+02  0.51100000000E-03 0.  1.
    9900012    2    1    2    0    0 -0.10672550169E-01 -0.58712870877E+00 -0.10237759588E+01  0.90007766448E+02  0.90000028165E+02 0.  0.
         12    1    1    2    0    0  0.10672550169E-01  0.58712870877E+00  0.10237759588E+01  0.11802335522E+01  0.00000000000E+00 0. -1.
         11    1    3    3    0    0 -0.81620243337E+01  0.24890849414E+02  0.19305976936E+02  0.32540647988E+02  0.51100000000E-03 0. -1.
        -11    1    3    3    0    0 -0.92278240936E+01  0.71106872266E+01  0.50054900625E+01  0.12679492946E+02  0.51100000000E-03 0.  1.
        -12    1    3    3    0    0  0.17379175877E+02 -0.32588665350E+02 -0.25335242957E+02  0.44787625514E+02  0.00000000000E+00 0.  1.
</event>
<event>
 7    1  0.4119305E-015  0.9000782E+02  0.7816164E-02  0.1186339E+00
        -11   -1    0    0    0    0  0.00000000000E+00  0.00000000000E+00  0.45593999997E+02  0.45594000000E+02  0.51100000000E-03 0.  1.
         11   -1    0    0    0    0 -0.00000000000E+00 -0.00000000000E+00 -0.45593999997E+02  0.45594000000E+02  0.51100000000E-03 0. -1.
    9900012    2    1    2    0    0 -0.90918262113E+00  0.99967808398E-01  0.74580361311E+00  0.90007817967E+02  0.90000080364E+02 0.  0.
         12    1    1    2    0    0  0.90918262113E+00 -0.99967808398E-01 -0.74580361311E+00  0.11801820328E+01  0.00000000000E+00 0. -1.
         11    1    3    3    0    0 -0.28978985436E+01  0.26413495156E+01  0.88562526948E+01  0.96854403766E+01  0.51100000000E-03 0. -1.
        -11    1    3    3    0    0 -0.59977872462E+01 -0.36182016782E+02  0.14027419741E+02  0.39266783610E+02  0.51100000000E-03 0.  1.
         12    1    3    3    0    0  0.79865031687E+01  0.33640635074E+02 -0.22137868823E+02  0.41055593980E+02  0.00000000000E+00 0. -1.
</event>
<event>
 7    1  0.4119305E-015  0.9000797E+02  0.7816164E-02  0.1186339E+00
        -11   -1    0    0    0    0  0.00000000000E+00  0.00000000000E+00  0.45593999997E+02  0.45594000000E+02  0.51100000000E-03 0.  1.
         11   -1    0    0    0    0 -0.00000000000E+00 -0.00000000000E+00 -0.45593999997E+02  0.45594000000E+02  0.51100000000E-03 0. -1.
    9900012    2    1    2    0    0 -0.10866265906E+01 -0.15553668220E+00  0.43303798262E+00  0.90007969957E+02  0.90000234361E+02 0.  0.
         12    1    1    2    0    0  0.10866265906E+01  0.15553668220E+00 -0.43303798262E+00  0.11800300425E+01  0.00000000000E+00 0. -1.
         11    1    3    3    0    0 -0.85002053489E+01 -0.33033338625E+02 -0.18429377463E+02  0.38769793727E+02  0.51100000000E-03 0. -1.
        -11    1    3    3    0    0 -0.48956296737E+01 -0.50429456842E+01  0.62962406886E+01  0.94361611975E+01  0.51100000000E-03 0.  1.
        -12    1    3    3    0    0  0.12309208432E+02  0.37920747627E+02  0.12566174757E+02  0.41802015033E+02  0.00000000000E+00 0.  1.
</event>
<event>
 7    1  0.4119305E-015  0.9000773E+02  0.7816164E-02  0.1186339E+00
        -11   -1    0    0    0    0  0.00000000000E+00  0.00000000000E+00  0.45593999997E+02  0.45594000000E+02  0.51100000000E-03 0. -1.
         11   -1    0    0    0    0 -0.00000000000E+00 -0.00000000000E+00 -0.45593999997E+02  0.45594000000E+02  0.51100000000E-03 0.  1.
    9900012    2    1    2    0    0  0.51762667936E+00  0.24537106935E+00  0.10319331991E+01  0.90007732883E+02  0.89999994157E+02 0.  0.
         12    1    1    2    0    0 -0.51762667936E+00 -0.24537106935E+00 -0.10319331991E+01  0.11802671173E+01  0.00000000000E+00 0. -1.
         11    1    3    3    0    0 -0.27809043292E+02 -0.13417648974E+02  0.25245494038E+02  0.39883720517E+02  0.51100000000E-03 0. -1.
        -11    1    3    3    0    0 -0.44160523580E+01  0.76492031068E+01  0.21052004787E+00  0.88349389103E+01  0.51100000000E-03 0.  1.
        -12    1    3    3    0    0  0.32742722329E+02  0.60138169364E+01 -0.24424080887E+02  0.41289073456E+02  0.00000000000E+00 0.  1.
</event>
<event>
 7    1  0.4119305E-015  0.9000751E+02  0.7816164E-02  0.1186340E+00
        -11   -1    0    0    0    0  0.00000000000E+00  0.00000000000E+00  0.45593999997E+02  0.45594000000E+02  0.51100000000E-03 0.  1.
         11   -1    0    0    0    0 -0.00000000000E+00 -0.00000000000E+00 -0.45593999997E+02  0.45594000000E+02  0.51100000000E-03 0. -1.
    9900012    2    1    2    0    0  0.11910262204E+00 -0.84546009480E+00  0.81520929091E+00  0.90007510951E+02  0.89999769295E+02 0.  0.
         12    1    1    2    0    0 -0.11910262204E+00  0.84546009480E+00 -0.81520929091E+00  0.11804890489E+01  0.00000000000E+00 0. -1.
         11    1    3    3    0    0 -0.21949378018E+02 -0.13676917110E+02 -0.21931304717E+02  0.33908927790E+02  0.51100000000E-03 0. -1.
        -11    1    3    3    0    0 -0.10251616191E+02  0.15719763875E+02  0.96929626082E+01  0.21122503053E+02  0.51100000000E-03 0.  1.
        -12    1    3    3    0    0  0.32320096830E+02 -0.28883068600E+01  0.13053551399E+02  0.34976080109E+02  0.00000000000E+00 0.  1.
</event>
<event>
 7    1  0.4119305E-015  0.9000782E+02  0.7816164E-02  0.1186339E+00
        -11   -1    0    0    0    0  0.00000000000E+00  0.00000000000E+00  0.45593999997E+02  0.45594000000E+02  0.51100000000E-03 0.  1.
         11   -1    0    0    0    0 -0.00000000000E+00 -0.00000000000E+00 -0.45593999997E+02  0.45594000000E+02  0.51100000000E-03 0. -1.
    9900012    2    1    2    0    0 -0.31212484433E+00  0.10577233131E+01  0.42027999368E+00  0.90007815354E+02  0.90000077717E+02 0.  0.
         12    1    1    2    0    0  0.31212484433E+00 -0.10577233131E+01 -0.42027999368E+00  0.11801846459E+01  0.00000000000E+00 0. -1.
         11    1    3    3    0    0  0.39632689057E+02  0.14172995372E+02 -0.24069633406E+01  0.42159427326E+02  0.51100000000E-03 0. -1.
        -11    1    3    3    0    0 -0.11399175096E+02  0.60600404547E+01  0.37641563372E+01  0.13447459105E+02  0.51100000000E-03 0.  1.
        -12    1    3    3    0    0 -0.28545638806E+02 -0.19175312513E+02 -0.93691300300E+00  0.34400928923E+02  0.00000000000E+00 0.  1.
</event>
<event>
 7    1  0.4119305E-015  0.9000771E+02  0.7816164E-02  0.1186339E+00
        -11   -1    0    0    0    0  0.00000000000E+00  0.00000000000E+00  0.45593999997E+02  0.45594000000E+02  0.51100000000E-03 0.  1.
         11   -1    0    0    0    0 -0.00000000000E+00 -0.00000000000E+00 -0.45593999997E+02  0.45594000000E+02  0.51100000000E-03 0. -1.
    9900012    2    1    2    0    0 -0.34756740556E+00  0.49216701071E+00  0.10149133891E+01  0.90007711622E+02  0.89999972615E+02 0.  0.
         12    1    1    2    0    0  0.34756740556E+00 -0.49216701071E+00 -0.10149133891E+01  0.11802883780E+01  0.00000000000E+00 0. -1.
         11    1    3    3    0    0 -0.35277676125E+02 -0.14782069914E+01 -0.20050592524E+02  0.40604504547E+02  0.51100000000E-03 0. -1.
        -11    1    3    3    0    0  0.74032624080E+01  0.11378113213E+02  0.15149837475E+00  0.13575444987E+02  0.51100000000E-03 0.  1.
        -12    1    3    3    0    0  0.27526846312E+02 -0.94077392108E+01  0.20914007538E+02  0.35827762088E+02  0.00000000000E+00 0.  1.
</event>
<event>
 7    1  0.4119305E-015  0.9000765E+02  0.7816164E-02  0.1186339E+00
        -11   -1    0    0    0    0  0.00000000000E+00  0.00000000000E+00  0.45593999997E+02  0.45594000000E+02  0.51100000000E-03 0.  1.
         11   -1    0    0    0    0 -0.00000000000E+00 -0.00000000000E+00 -0.45593999997E+02  0.45594000000E+02  0.51100000000E-03 0. -1.
    9900012    2    1    2    0    0 -0.99552594516E+00 -0.16036986388E+00  0.61354861364E+00  0.90007647382E+02  0.89999907528E+02 0.  0.
         12    1    1    2    0    0  0.99552594516E+00  0.16036986388E+00 -0.61354861364E+00  0.11803526177E+01  0.00000000000E+00 0. -1.
         11    1    3    3    0    0 -0.29258997427E+00  0.11614666300E+02  0.75163212195E+01  0.13837672026E+02  0.51100000000E-03 0. -1.
        -11    1    3    3    0    0 -0.35018883871E+02 -0.18752821738E+02 -0.10154085909E+02  0.41001170856E+02  0.51100000000E-03 0.  1.
         12    1    3    3    0    0  0.34315947900E+02  0.69777855741E+01  0.32513133028E+01  0.35168804500E+02  0.00000000000E+00 0. -1.
</event>
<event>
 7    1  0.4119305E-015  0.9000778E+02  0.7816164E-02  0.1186339E+00
        -11   -1    0    0    0    0  0.00000000000E+00  0.00000000000E+00  0.45593999997E+02  0.45594000000E+02  0.51100000000E-03 0. -1.
         11   -1    0    0    0    0 -0.00000000000E+00 -0.00000000000E+00 -0.45593999997E+02  0.45594000000E+02  0.51100000000E-03 0.  1.
    9900012    2    1    2    0    0  0.92267261533E+00 -0.43297829761E+00 -0.59509063039E+00  0.90007776369E+02  0.90000038217E+02 0.  0.
         12    1    1    2    0    0 -0.92267261533E+00  0.43297829761E+00  0.59509063039E+00  0.11802236312E+01  0.00000000000E+00 0. -1.
         11    1    3    3    0    0  0.11577624777E+02 -0.84867727066E+01 -0.74431680017E+01  0.16169955368E+02  0.51100000000E-03 0. -1.
        -11    1    3    3    0    0  0.12826927601E+02  0.17008446049E+02 -0.25273023093E+02  0.33053638305E+02  0.51100000000E-03 0.  1.
         12    1    3    3    0    0 -0.23481879762E+02 -0.89546516399E+01  0.32121100464E+02  0.40784182696E+02  0.00000000000E+00 0. -1.
</event>
<event>
 7    1  0.4119305E-015  0.9000780E+02  0.7816164E-02  0.1186339E+00
        -11   -1    0    0    0    0  0.00000000000E+00  0.00000000000E+00  0.45593999997E+02  0.45594000000E+02  0.51100000000E-03 0.  1.
         11   -1    0    0    0    0 -0.00000000000E+00 -0.00000000000E+00 -0.45593999997E+02  0.45594000000E+02  0.51100000000E-03 0. -1.
    9900012    2    1    2    0    0  0.38281903290E+00 -0.19252687189E+00 -0.10996625198E+01  0.90007798888E+02  0.90000061033E+02 0.  0.
         12    1    1    2    0    0 -0.38281903290E+00  0.19252687189E+00  0.10996625198E+01  0.11802011124E+01  0.00000000000E+00 0. -1.
         11    1    3    3    0    0  0.12477546026E+02  0.20041834441E+02  0.14662770072E+02  0.27791385519E+02  0.51100000000E-03 0. -1.
        -11    1    3    3    0    0  0.10659808753E+02  0.11083364673E+02  0.74412907648E+01  0.17083480431E+02  0.51100000000E-03 0.  1.
        -12    1    3    3    0    0 -0.22754535746E+02 -0.31317725986E+02 -0.23203723357E+02  0.45132932938E+02  0.00000000000E+00 0.  1.
</event>
<event>
 7    1  0.4119305E-015  0.9000780E+02  0.7816164E-02  0.1186339E+00
        -11   -1    0    0    0    0  0.00000000000E+00  0.00000000000E+00  0.45593999997E+02  0.45594000000E+02  0.51100000000E-03 0.  1.
         11   -1    0    0    0    0 -0.00000000000E+00 -0.00000000000E+00 -0.45593999997E+02  0.45594000000E+02  0.51100000000E-03 0. -1.
    9900012    2    1    2    0    0 -0.55995883783E+00  0.10379288570E+01 -0.45005637319E-01  0.90007798441E+02  0.90000060581E+02 0.  0.
         12    1    1    2    0    0  0.55995883783E+00 -0.10379288570E+01  0.45005637319E-01  0.11802015589E+01  0.00000000000E+00 0. -1.
         11    1    3    3    0    0 -0.31753413293E+01 -0.19472560306E+02 -0.27821274861E+02  0.34106989498E+02  0.51100000000E-03 0. -1.
        -11    1    3    3    0    0  0.30359370127E+01 -0.13834449536E+02  0.82229383861E+01  0.16377595168E+02  0.51100000000E-03 0.  1.
        -12    1    3    3    0    0 -0.42055452114E+00  0.34344938699E+02  0.19553330838E+02  0.39523213776E+02  0.00000000000E+00 0.  1.
</event>
<event>
 7    1  0.4225658E-015  0.9000778E+02  0.7816164E-02  0.1186339E+00
        -11   -1    0    0    0    0  0.00000000000E+00  0.00000000000E+00  0.45593999997E+02  0.45594000000E+02  0.51100000000E-03 0.  1.
         11   -1    0    0    0    0 -0.00000000000E+00 -0.00000000000E+00 -0.45593999997E+02  0.45594000000E+02  0.51100000000E-03 0. -1.
    9900012    2    1    2    0    0 -0.48163580534E+00  0.72493689069E+00  0.79712301433E+00  0.90007783221E+02  0.90000045160E+02 0.  0.
         12    1    1    2    0    0  0.48163580534E+00 -0.72493689069E+00 -0.79712301433E+00  0.11802167786E+01  0.00000000000E+00 0. -1.
         11    1    3    3    0    0  0.16140006972E+01 -0.34743959307E+02 -0.15498609908E+02  0.38078269602E+02  0.51100000000E-03 0. -1.
        -11    1    3    3    0    0 -0.85096207899E+01 -0.75684852493E+00 -0.45142111146E+01  0.96625342393E+01  0.51100000000E-03 0.  1.
        -12    1    3    3    0    0  0.64139842874E+01  0.36225744722E+02  0.20809944036E+02  0.42266979380E+02  0.00000000000E+00 0.  1.
</event>
<event>
 7    1  0.4119305E-015  0.9000772E+02  0.7816164E-02  0.1186339E+00
        -11   -1    0    0    0    0  0.00000000000E+00  0.00000000000E+00  0.45593999997E+02  0.45594000000E+02  0.51100000000E-03 0. -1.
         11   -1    0    0    0    0 -0.00000000000E+00 -0.00000000000E+00 -0.45593999997E+02  0.45594000000E+02  0.51100000000E-03 0.  1.
    9900012    2    1    2    0    0 -0.11502653647E+01 -0.26362937709E+00 -0.21000936835E-01  0.90007723805E+02  0.89999984959E+02 0.  0.
         12    1    1    2    0    0  0.11502653647E+01  0.26362937709E+00  0.21000936835E-01  0.11802761952E+01  0.00000000000E+00 0. -1.
         11    1    3    3    0    0 -0.18706113570E+02 -0.12742771351E+02  0.29404994279E+02  0.37107284936E+02  0.51100000000E-03 0. -1.
        -11    1    3    3    0    0 -0.30814746771E+01 -0.94378659909E+01  0.11467372722E+01  0.99941886755E+01  0.51100000000E-03 0.  1.
        -12    1    3    3    0    0  0.20637322882E+02  0.21917007964E+02 -0.30572732488E+02  0.42906250193E+02  0.00000000000E+00 0.  1.
</event>
<event>
 7    1  0.4119305E-015  0.9000783E+02  0.7816164E-02  0.1186339E+00
        -11   -1    0    0    0    0  0.00000000000E+00  0.00000000000E+00  0.45593999997E+02  0.45594000000E+02  0.51100000000E-03 0. -1.
         11   -1    0    0    0    0 -0.00000000000E+00 -0.00000000000E+00 -0.45593999997E+02  0.45594000000E+02  0.51100000000E-03 0.  1.
    9900012    2    1    2    0    0  0.35978413925E+00  0.85772211478E+00 -0.72641430987E+00  0.90007826452E+02  0.90000088961E+02 0.  0.
         12    1    1    2    0    0 -0.35978413925E+00 -0.85772211478E+00  0.72641430987E+00  0.11801735477E+01  0.00000000000E+00 0. -1.
         11    1    3    3    0    0 -0.15357610038E+02  0.10448677959E+02 -0.33719235882E+02  0.38496985933E+02  0.51100000000E-03 0. -1.
        -11    1    3    3    0    0  0.51169016408E+01  0.41570216138E+01 -0.59456453770E+01  0.88777367785E+01  0.51100000000E-03 0.  1.
        -12    1    3    3    0    0  0.10600492536E+02 -0.13747977458E+02  0.38938466949E+02  0.42633103741E+02  0.00000000000E+00 0.  1.
</event>
<event>
 7    1  0.4119305E-015  0.9000789E+02  0.7816164E-02  0.1186339E+00
        -11   -1    0    0    0    0  0.00000000000E+00  0.00000000000E+00  0.45593999997E+02  0.45594000000E+02  0.51100000000E-03 0.  1.
         11   -1    0    0    0    0 -0.00000000000E+00 -0.00000000000E+00 -0.45593999997E+02  0.45594000000E+02  0.51100000000E-03 0. -1.
    9900012    2    1    2    0    0  0.37626632543E+00  0.19927523448E+00  0.11006284783E+01  0.90007885593E+02  0.90000148883E+02 0.  0.
         12    1    1    2    0    0 -0.37626632543E+00 -0.19927523448E+00 -0.11006284783E+01  0.11801144072E+01  0.00000000000E+00 0. -1.
         11    1    3    3    0    0  0.36447922025E+01 -0.40753031355E+01  0.74354922851E+01  0.92292552044E+01  0.51100000000E-03 0. -1.
        -11    1    3    3    0    0 -0.70909926755E+01  0.41238709313E+02  0.44608212623E+01  0.42081020063E+02  0.51100000000E-03 0.  1.
         12    1    3    3    0    0  0.38224667984E+01 -0.36964130943E+02 -0.10795685069E+02  0.38697610326E+02  0.00000000000E+00 0. -1.
</event>
<event>
 7    1  0.4119305E-015  0.9000730E+02  0.7816164E-02  0.1186340E+00
        -11   -1    0    0    0    0  0.00000000000E+00  0.00000000000E+00  0.45593999997E+02  0.45594000000E+02  0.51100000000E-03 0. -1.
         11   -1    0    0    0    0 -0.00000000000E+00 -0.00000000000E+00 -0.45593999997E+02  0.45594000000E+02  0.51100000000E-03 0.  1.
    9900012    2    1    2    0    0 -0.15859385894E+00  0.11695721548E+01  0.31550364441E-01  0.90007302552E+02  0.89999558145E+02 0.  0.
         12    1    1    2    0    0  0.15859385894E+00 -0.11695721548E+01 -0.31550364441E-01  0.11806974476E+01  0.00000000000E+00 0. -1.
         11    1    3    3    0    0  0.41646905008E+01  0.37157950207E+02  0.92488521526E+01  0.38517517793E+02  0.51100000000E-03 0. -1.
        -11    1    3    3    0    0 -0.29114902409E+01  0.47683746728E+01 -0.91355304348E+01  0.10708505453E+02  0.51100000000E-03 0.  1.
        -12    1    3    3    0    0 -0.14117941188E+01 -0.40756752725E+02 -0.81771353393E-01  0.40781279306E+02  0.00000000000E+00 0.  1.
</event>
<event>
 7    1  0.4119305E-015  0.9000777E+02  0.7816164E-02  0.1186339E+00
        -11   -1    0    0    0    0  0.00000000000E+00  0.00000000000E+00  0.45593999997E+02  0.45594000000E+02  0.51100000000E-03 0. -1.
         11   -1    0    0    0    0 -0.00000000000E+00 -0.00000000000E+00 -0.45593999997E+02  0.45594000000E+02  0.51100000000E-03 0.  1.
    9900012    2    1    2    0    0 -0.66977122315E+00 -0.51049467966E+00 -0.82688172319E+00  0.90007774728E+02  0.90000036554E+02 0.  0.
         12    1    1    2    0    0  0.66977122315E+00  0.51049467966E+00  0.82688172319E+00  0.11802252723E+01  0.00000000000E+00 0. -1.
         11    1    3    3    0    0  0.25971913622E+01  0.58208972855E+01 -0.64010393871E+00  0.64060894072E+01  0.51100000000E-03 0. -1.
        -11    1    3    3    0    0  0.47073604398E+00 -0.20461493469E+02 -0.37945223132E+02  0.43113040559E+02  0.51100000000E-03 0.  1.
         12    1    3    3    0    0 -0.37376986293E+01  0.14130101504E+02  0.37758445348E+02  0.40488644762E+02  0.00000000000E+00 0. -1.
</event>
<event>
 7    1  0.4119305E-015  0.9000774E+02  0.7816164E-02  0.1186339E+00
        -11   -1    0    0    0    0  0.00000000000E+00  0.00000000000E+00  0.45593999997E+02  0.45594000000E+02  0.51100000000E-03 0.  1.
         11   -1    0    0    0    0 -0.00000000000E+00 -0.00000000000E+00 -0.45593999997E+02  0.45594000000E+02  0.51100000000E-03 0. -1.
    9900012    2    1    2    0    0  0.70965046027E+00 -0.90351113193E+00  0.27032798483E+00  0.90007740130E+02  0.90000001500E+02 0.  0.
         12    1    1    2    0    0 -0.70965046027E+00  0.90351113193E+00 -0.27032798483E+00  0.11802598700E+01  0.00000000000E+00 0. -1.
         11    1    3    3    0    0 -0.22165074708E+02 -0.30496880271E+02  0.97648512468E+01  0.38944865685E+02  0.51100000000E-03 0. -1.
        -11    1    3    3    0    0 -0.11713183595E+01  0.11061687514E+02  0.10021893414E+02  0.14972350023E+02  0.51100000000E-03 0.  1.
        -12    1    3    3    0    0  0.24046043528E+02  0.18531681626E+02 -0.19516416676E+02  0.36090524422E+02  0.00000000000E+00 0.  1.
</event>
<event>
 7    1  0.4119305E-015  0.9000767E+02  0.7816164E-02  0.1186339E+00
        -11   -1    0    0    0    0  0.00000000000E+00  0.00000000000E+00  0.45593999997E+02  0.45594000000E+02  0.51100000000E-03 0. -1.
         11   -1    0    0    0    0 -0.00000000000E+00 -0.00000000000E+00 -0.45593999997E+02  0.45594000000E+02  0.51100000000E-03 0.  1.
    9900012    2    1    2    0    0 -0.52417330828E+00 -0.73271917310E+00 -0.76258741914E+00  0.90007671819E+02  0.89999932287E+02 0.  0.
         12    1    1    2    0    0  0.52417330828E+00  0.73271917310E+00  0.76258741914E+00  0.11803281813E+01  0.00000000000E+00 0. -1.
         11    1    3    3    0    0  0.74855552015E+01  0.66097715597E+00 -0.77380756860E+01  0.10786484277E+02  0.51100000000E-03 0. -1.
        -11    1    3    3    0    0 -0.14803063200E+02 -0.18535643374E+02 -0.29796071565E+02  0.38085517410E+02  0.51100000000E-03 0.  1.
         12    1    3    3    0    0  0.67933346898E+01  0.17141947045E+02  0.36771559832E+02  0.41135670132E+02  0.00000000000E+00 0. -1.
</event>
<event>
 7    1  0.4119305E-015  0.9000770E+02  0.7816164E-02  0.1186339E+00
        -11   -1    0    0    0    0  0.00000000000E+00  0.00000000000E+00  0.45593999997E+02  0.45594000000E+02  0.51100000000E-03 0. -1.
         11   -1    0    0    0    0 -0.00000000000E+00 -0.00000000000E+00 -0.45593999997E+02  0.45594000000E+02  0.51100000000E-03 0.  1.
    9900012    2    1    2    0    0  0.33834552203E+00 -0.10804124936E+01  0.33366253381E+00  0.90007703624E+02  0.89999964512E+02 0.  0.
         12    1    1    2    0    0 -0.33834552203E+00  0.10804124936E+01 -0.33366253381E+00  0.11802963760E+01  0.00000000000E+00 0. -1.
         11    1    3    3    0    0 -0.72558226629E+01  0.81443949962E+01  0.64780092660E+00  0.10926929059E+02  0.51100000000E-03 0. -1.
        -11    1    3    3    0    0  0.32320051224E+02  0.11120164662E+02  0.21460543681E+02  0.40358378418E+02  0.51100000000E-03 0.  1.
         12    1    3    3    0    0 -0.24725883039E+02 -0.20344972152E+02 -0.21774682073E+02  0.38722396146E+02  0.00000000000E+00 0. -1.
</event>
<event>
 7    1  0.4119305E-015  0.9000787E+02  0.7816164E-02  0.1186339E+00
        -11   -1    0    0    0    0  0.00000000000E+00  0.00000000000E+00  0.45593999997E+02  0.45594000000E+02  0.51100000000E-03 0.  1.
         11   -1    0    0    0    0 -0.00000000000E+00 -0.00000000000E+00 -0.45593999997E+02  0.45594000000E+02  0.51100000000E-03 0. -1.
    9900012    2    1    2    0    0  0.89783364599E+00 -0.42352924417E+00  0.63814291814E+00  0.90007869219E+02  0.90000132292E+02 0.  0.
         12    1    1    2    0    0 -0.89783364599E+00  0.42352924417E+00 -0.63814291814E+00  0.11801307811E+01  0.00000000000E+00 0. -1.
         11    1    3    3    0    0  0.31325832209E+02  0.23633925211E+02 -0.23780636431E+01  0.39313170457E+02  0.51100000000E-03 0. -1.
        -11    1    3    3    0    0 -0.18704463621E+01  0.76526736671E+01 -0.36987088056E+00  0.78866208593E+01  0.51100000000E-03 0.  1.
        -12    1    3    3    0    0 -0.28557552201E+02 -0.31710128122E+02  0.33860774418E+01  0.42808077902E+02  0.00000000000E+00 0.  1.
</event>
<event>
 7    1  0.4119305E-015  0.9000785E+02  0.7816164E-02  0.1186339E+00
        -11   -1    0    0    0    0  0.00000000000E+00  0.00000000000E+00  0.45593999997E+02  0.45594000000E+02  0.51100000000E-03 0.  1.
         11   -1    0    0    0    0 -0.00000000000E+00 -0.00000000000E+00 -0.45593999997E+02  0.45594000000E+02  0.51100000000E-03 0. -1.
    9900012    2    1    2    0    0 -0.46000291806E+00  0.63599003093E-01  0.10849479554E+01  0.90007847644E+02  0.90000110433E+02 0.  0.
         12    1    1    2    0    0  0.46000291806E+00 -0.63599003093E-01 -0.10849479554E+01  0.11801523562E+01  0.00000000000E+00 0. -1.
         11    1    3    3    0    0 -0.61894365958E+01  0.22896889724E+01 -0.47921817745E+01  0.81557836769E+01  0.51100000000E-03 0. -1.
        -11    1    3    3    0    0 -0.57773006156E+01  0.37553680278E+02 -0.66827335080E+01  0.38578686243E+02  0.51100000000E-03 0.  1.
         12    1    3    3    0    0  0.11506734293E+02 -0.39779770248E+02  0.12559863238E+02  0.43273377724E+02  0.00000000000E+00 0. -1.
</event>
<event>
 7    1  0.4119305E-015  0.9000766E+02  0.7816164E-02  0.1186339E+00
        -11   -1    0    0    0    0  0.00000000000E+00  0.00000000000E+00  0.45593999997E+02  0.45594000000E+02  0.51100000000E-03 0. -1.
         11   -1    0    0    0    0 -0.00000000000E+00 -0.00000000000E+00 -0.45593999997E+02  0.45594000000E+02  0.51100000000E-03 0.  1.
    9900012    2    1    2    0    0 -0.61953720322E+00 -0.53026100798E+00 -0.85334375523E+00  0.90007661639E+02  0.89999921972E+02 0.  0.
         12    1    1    2    0    0  0.61953720322E+00  0.53026100798E+00  0.85334375523E+00  0.11803383614E+01  0.00000000000E+00 0. -1.
         11    1    3    3    0    0 -0.86737266544E+01  0.22310797109E+01 -0.12022388769E+00  0.89568803049E+01  0.51100000000E-03 0. -1.
        -11    1    3    3    0    0 -0.23343622189E+02 -0.10744722016E+02 -0.28505755545E+02  0.38379054802E+02  0.51100000000E-03 0.  1.
         12    1    3    3    0    0  0.31397811640E+02  0.79833812971E+01  0.27772635677E+02  0.42671726531E+02  0.00000000000E+00 0. -1.
</event>
<event>
 7    1  0.4119305E-015  0.9000769E+02  0.7816164E-02  0.1186339E+00
        -11   -1    0    0    0    0  0.00000000000E+00  0.00000000000E+00  0.45593999997E+02  0.45594000000E+02  0.51100000000E-03 0. -1.
         11   -1    0    0    0    0 -0.00000000000E+00 -0.00000000000E+00 -0.45593999997E+02  0.45594000000E+02  0.51100000000E-03 0.  1.
    9900012    2    1    2    0    0  0.10959267316E+01  0.27652629721E+00  0.34000615547E+00  0.90007692252E+02  0.89999952990E+02 0.  0.
         12    1    1    2    0    0 -0.10959267316E+01 -0.27652629721E+00 -0.34000615547E+00  0.11803077480E+01  0.00000000000E+00 0. -1.
         11    1    3    3    0    0 -0.16561636161E+02 -0.94030194433E+01  0.37161131354E+02  0.41757086234E+02  0.51100000000E-03 0. -1.
        -11    1    3    3    0    0  0.91669232356E+01 -0.35444446780E+01 -0.19750636677E+01  0.10024791591E+02  0.51100000000E-03 0.  1.
        -12    1    3    3    0    0  0.84906396570E+01  0.13223990419E+02 -0.34846061531E+02  0.38225814427E+02  0.00000000000E+00 0.  1.
</event>
<event>
 7    1  0.4119305E-015  0.9000773E+02  0.7816164E-02  0.1186339E+00
        -11   -1    0    0    0    0  0.00000000000E+00  0.00000000000E+00  0.45593999997E+02  0.45594000000E+02  0.51100000000E-03 0. -1.
         11   -1    0    0    0    0 -0.00000000000E+00 -0.00000000000E+00 -0.45593999997E+02  0.45594000000E+02  0.51100000000E-03 0.  1.
    9900012    2    1    2    0    0 -0.57234295524E+00  0.10227216686E+01 -0.13963037517E+00  0.90007731932E+02  0.89999993194E+02 0.  0.
         12    1    1    2    0    0  0.57234295524E+00 -0.10227216686E+01  0.13963037517E+00  0.11802680676E+01  0.00000000000E+00 0. -1.
         11    1    3    3    0    0 -0.36133074248E+01  0.96883509719E+00 -0.35377900724E+01  0.51488436419E+01  0.51100000000E-03 0. -1.
        -11    1    3    3    0    0  0.63628850249E+01 -0.25980171242E+02 -0.31415963894E+02  0.41260373135E+02  0.51100000000E-03 0.  1.
         12    1    3    3    0    0 -0.33219205553E+01  0.26034057813E+02  0.34814123591E+02  0.43598515156E+02  0.00000000000E+00 0. -1.
</event>
<event>
 7    1  0.4119305E-015  0.9000775E+02  0.7816164E-02  0.1186339E+00
        -11   -1    0    0    0    0  0.00000000000E+00  0.00000000000E+00  0.45593999997E+02  0.45594000000E+02  0.51100000000E-03 0.  1.
         11   -1    0    0    0    0 -0.00000000000E+00 -0.00000000000E+00 -0.45593999997E+02  0.45594000000E+02  0.51100000000E-03 0. -1.
    9900012    2    1    2    0    0 -0.95600263059E+00  0.43611166801E+00  0.53744312433E+00  0.90007754463E+02  0.90000016022E+02 0.  0.
         12    1    1    2    0    0  0.95600263059E+00 -0.43611166801E+00 -0.53744312433E+00  0.11802455374E+01  0.00000000000E+00 0. -1.
         11    1    3    3    0    0  0.16191860887E+01 -0.38719781214E+02 -0.13809772956E+02  0.41140649609E+02  0.51100000000E-03 0. -1.
        -11    1    3    3    0    0 -0.34185708383E+01  0.61707467313E+01 -0.67007244959E+01  0.97295658089E+01  0.51100000000E-03 0.  1.
        -12    1    3    3    0    0  0.84338211902E+00  0.32985146151E+02  0.21047940576E+02  0.39137539045E+02  0.00000000000E+00 0.  1.
</event>
<event>
 7    1  0.4119305E-015  0.9000774E+02  0.7816164E-02  0.1186339E+00
        -11   -1    0    0    0    0  0.00000000000E+00  0.00000000000E+00  0.45593999997E+02  0.45594000000E+02  0.51100000000E-03 0.  1.
         11   -1    0    0    0    0 -0.00000000000E+00 -0.00000000000E+00 -0.45593999997E+02  0.45594000000E+02  0.51100000000E-03 0. -1.
    9900012    2    1    2    0    0 -0.53141391948E+00  0.13727686684E+00  0.10448812709E+01  0.90007736232E+02  0.89999997550E+02 0.  0.
         12    1    1    2    0    0  0.53141391948E+00 -0.13727686684E+00 -0.10448812709E+01  0.11802637681E+01  0.00000000000E+00 0. -1.
         11    1    3    3    0    0 -0.28937204168E+02 -0.81398852828E+01  0.23115567932E+02  0.37920297975E+02  0.51100000000E-03 0. -1.
        -11    1    3    3    0    0 -0.80528813294E+01 -0.30367757764E+01 -0.68157346606E+01  0.10978394420E+02  0.51100000000E-03 0.  1.
        -12    1    3    3    0    0  0.36458671578E+02  0.11313937926E+02 -0.15254952000E+02  0.41109043836E+02  0.00000000000E+00 0.  1.
</event>
<event>
 7    1  0.4119305E-015  0.9000816E+02  0.7816164E-02  0.1186338E+00
        -11   -1    0    0    0    0  0.00000000000E+00  0.00000000000E+00  0.45593999997E+02  0.45594000000E+02  0.51100000000E-03 0. -1.
         11   -1    0    0    0    0 -0.00000000000E+00 -0.00000000000E+00 -0.45593999997E+02  0.45594000000E+02  0.51100000000E-03 0.  1.
    9900012    2    1    2    0    0  0.31686521808E+00  0.11310996190E+01 -0.11065177596E+00  0.90008155209E+02  0.90000422057E+02 0.  0.
         12    1    1    2    0    0 -0.31686521808E+00 -0.11310996190E+01  0.11065177596E+00  0.11798447907E+01  0.00000000000E+00 0. -1.
         11    1    3    3    0    0  0.32093765720E-01  0.15272660279E+01  0.10790071588E+02  0.10897670240E+02  0.51100000000E-03 0. -1.
        -11    1    3    3    0    0 -0.37626655064E+02 -0.23726727740E+01 -0.15711107772E+02  0.40844016148E+02  0.51100000000E-03 0.  1.
         12    1    3    3    0    0  0.37911426516E+02  0.19765063651E+01  0.48103844084E+01  0.38266468821E+02  0.00000000000E+00 0. -1.
</event>
<event>
 7    1  0.4119305E-015  0.9000768E+02  0.7816164E-02  0.1186339E+00
        -11   -1    0    0    0    0  0.00000000000E+00  0.00000000000E+00  0.45593999997E+02  0.45594000000E+02  0.51100000000E-03 0. -1.
         11   -1    0    0    0    0 -0.00000000000E+00 -0.00000000000E+00 -0.45593999997E+02  0.45594000000E+02  0.51100000000E-03 0.  1.
    9900012    2    1    2    0    0  0.44828445477E+00 -0.25583593887E+00 -0.10614847152E+01  0.90007677679E+02  0.89999938225E+02 0.  0.
         12    1    1    2    0    0 -0.44828445477E+00  0.25583593887E+00  0.10614847152E+01  0.11803223207E+01  0.00000000000E+00 0. -1.
         11    1    3    3    0    0 -0.16871154440E+02  0.12094673017E+02  0.34504206464E+02  0.40267322130E+02  0.51100000000E-03 0. -1.
        -11    1    3    3    0    0 -0.41949808291E+01 -0.52629803064E+01  0.92208733885E+00  0.67931635623E+01  0.51100000000E-03 0.  1.
        -12    1    3    3    0    0  0.21514419724E+02 -0.70875286499E+01 -0.36487778518E+02  0.42947191987E+02  0.00000000000E+00 0.  1.
</event>
<event>
 7    1  0.4119305E-015  0.9000775E+02  0.7816164E-02  0.1186339E+00
        -11   -1    0    0    0    0  0.00000000000E+00  0.00000000000E+00  0.45593999997E+02  0.45594000000E+02  0.51100000000E-03 0. -1.
         11   -1    0    0    0    0 -0.00000000000E+00 -0.00000000000E+00 -0.45593999997E+02  0.45594000000E+02  0.51100000000E-03 0.  1.
    9900012    2    1    2    0    0  0.48602295976E+00 -0.10690442713E+01  0.11793743834E+00  0.90007752903E+02  0.90000014441E+02 0.  0.
         12    1    1    2    0    0 -0.48602295976E+00  0.10690442713E+01 -0.11793743834E+00  0.11802470973E+01  0.00000000000E+00 0. -1.
         11    1    3    3    0    0 -0.83821749149E+01 -0.23619989319E+02  0.28714975757E+02  0.38114493106E+02  0.51100000000E-03 0. -1.
        -11    1    3    3    0    0  0.74060202423E+01 -0.87864358764E+01 -0.45236928922E+01  0.12349671610E+02  0.51100000000E-03 0.  1.
        -12    1    3    3    0    0  0.14621776324E+01  0.31337380924E+02 -0.24073345427E+02  0.39543588186E+02  0.00000000000E+00 0.  1.
</event>
<event>
 7    1  0.4119305E-015  0.9000709E+02  0.7816164E-02  0.1186340E+00
        -11   -1    0    0    0    0  0.00000000000E+00  0.00000000000E+00  0.45593999997E+02  0.45594000000E+02  0.51100000000E-03 0.  1.
         11   -1    0    0    0    0 -0.00000000000E+00 -0.00000000000E+00 -0.45593999997E+02  0.45594000000E+02  0.51100000000E-03 0. -1.
    9900012    2    1    2    0    0  0.47403956326E+00  0.10138934616E+01  0.37663501032E+00  0.90007090440E+02  0.89999343231E+02 0.  0.
         12    1    1    2    0    0 -0.47403956326E+00 -0.10138934616E+01 -0.37663501032E+00  0.11809095605E+01  0.00000000000E+00 0. -1.
         11    1    3    3    0    0 -0.20447263826E+02  0.19478107502E+02  0.30092934064E+02  0.41268292315E+02  0.51100000000E-03 0. -1.
        -11    1    3    3    0    0  0.59341377054E+01 -0.28965060483E+01  0.46969092451E+01  0.81033754888E+01  0.51100000000E-03 0.  1.
        -12    1    3    3    0    0  0.14987165683E+02 -0.15567707992E+02 -0.34413208298E+02  0.40635422635E+02  0.00000000000E+00 0.  1.
</event>
<event>
 7    1  0.4119305E-015  0.9000773E+02  0.7816164E-02  0.1186339E+00
        -11   -1    0    0    0    0  0.00000000000E+00  0.00000000000E+00  0.45593999997E+02  0.45594000000E+02  0.51100000000E-03 0.  1.
         11   -1    0    0    0    0 -0.00000000000E+00 -0.00000000000E+00 -0.45593999997E+02  0.45594000000E+02  0.51100000000E-03 0. -1.
    9900012    2    1    2    0    0  0.60491894282E+00 -0.44056743586E+00  0.91269911180E+00  0.90007726192E+02  0.89999987378E+02 0.  0.
         12    1    1    2    0    0 -0.60491894282E+00  0.44056743586E+00 -0.91269911180E+00  0.11802738079E+01  0.00000000000E+00 0. -1.
         11    1    3    3    0    0 -0.63122873178E+01 -0.62697188591E-01  0.86655554693E+01  0.10721042579E+02  0.51100000000E-03 0. -1.
        -11    1    3    3    0    0 -0.32520800605E+02  0.84908130002E+01 -0.17226706162E+02  0.37768449569E+02  0.51100000000E-03 0.  1.
         12    1    3    3    0    0  0.39438006865E+02 -0.88686832474E+01  0.94738498044E+01  0.41518234045E+02  0.00000000000E+00 0. -1.
</event>
<event>
 7    1  0.4119305E-015  0.9000769E+02  0.7816164E-02  0.1186339E+00
        -11   -1    0    0    0    0  0.00000000000E+00  0.00000000000E+00  0.45593999997E+02  0.45594000000E+02  0.51100000000E-03 0.  1.
         11   -1    0    0    0    0 -0.00000000000E+00 -0.00000000000E+00 -0.45593999997E+02  0.45594000000E+02  0.51100000000E-03 0. -1.
    9900012    2    1    2    0    0  0.70639946862E-01 -0.11585140341E+01  0.21442688850E+00  0.90007693404E+02  0.89999954157E+02 0.  0.
         12    1    1    2    0    0 -0.70639946862E-01  0.11585140341E+01 -0.21442688850E+00  0.11803065957E+01  0.00000000000E+00 0. -1.
         11    1    3    3    0    0 -0.90212402437E+01  0.27608484031E+01  0.41802967440E+00  0.94435061555E+01  0.51100000000E-03 0. -1.
        -11    1    3    3    0    0 -0.30593250938E+02 -0.18070920068E+02  0.10579588523E+02  0.37073344179E+02  0.51100000000E-03 0.  1.
         12    1    3    3    0    0  0.39685131129E+02  0.14151557631E+02 -0.10783191309E+02  0.43490843069E+02  0.00000000000E+00 0. -1.
</event>
<event>
 7    1  0.4119305E-015  0.9000771E+02  0.7816164E-02  0.1186339E+00
        -11   -1    0    0    0    0  0.00000000000E+00  0.00000000000E+00  0.45593999997E+02  0.45594000000E+02  0.51100000000E-03 0. -1.
         11   -1    0    0    0    0 -0.00000000000E+00 -0.00000000000E+00 -0.45593999997E+02  0.45594000000E+02  0.51100000000E-03 0.  1.
    9900012    2    1    2    0    0  0.29982408423E+00  0.10725916157E+01 -0.39081844568E+00  0.90007709225E+02  0.89999970187E+02 0.  0.
         12    1    1    2    0    0 -0.29982408423E+00 -0.10725916157E+01  0.39081844568E+00  0.11802907748E+01  0.00000000000E+00 0. -1.
         11    1    3    3    0    0 -0.64868243223E+01  0.48732100130E+01 -0.45631612088E+01  0.93085716465E+01  0.51100000000E-03 0. -1.
        -11    1    3    3    0    0  0.15138318213E+02 -0.39254640335E+01 -0.36220081217E+02  0.39452151143E+02  0.51100000000E-03 0.  1.
         12    1    3    3    0    0 -0.83516698062E+01  0.12484563627E+00  0.40392423980E+02  0.41246986435E+02  0.00000000000E+00 0. -1.
</event>
<event>
 7    1  0.4119305E-015  0.9000767E+02  0.7816164E-02  0.1186339E+00
        -11   -1    0    0    0    0  0.00000000000E+00  0.00000000000E+00  0.45593999997E+02  0.45594000000E+02  0.51100000000E-03 0.  1.
         11   -1    0    0    0    0 -0.00000000000E+00 -0.00000000000E+00 -0.45593999997E+02  0.45594000000E+02  0.51100000000E-03 0. -1.
    9900012    2    1    2    0    0 -0.16794680515E+00  0.11598262184E+01  0.14060952174E+00  0.90007672069E+02  0.89999932541E+02 0.  0.
         12    1    1    2    0    0  0.16794680515E+00 -0.11598262184E+01 -0.14060952174E+00  0.11803279307E+01  0.00000000000E+00 0. -1.
         11    1    3    3    0    0 -0.23632538251E+02  0.56480503178E+00 -0.36851363130E+02  0.43781718031E+02  0.51100000000E-03 0. -1.
        -11    1    3    3    0    0  0.81866624725E+01 -0.14776691561E+01  0.29003502376E+01  0.88100499622E+01  0.51100000000E-03 0.  1.
        -12    1    3    3    0    0  0.15277928974E+02  0.20726903428E+01  0.34091622414E+02  0.37415904076E+02  0.00000000000E+00 0.  1.
</event>
<event>
 7    1  0.4119305E-015  0.9000773E+02  0.7816164E-02  0.1186339E+00
        -11   -1    0    0    0    0  0.00000000000E+00  0.00000000000E+00  0.45593999997E+02  0.45594000000E+02  0.51100000000E-03 0.  1.
         11   -1    0    0    0    0 -0.00000000000E+00 -0.00000000000E+00 -0.45593999997E+02  0.45594000000E+02  0.51100000000E-03 0. -1.
    9900012    2    1    2    0    0 -0.86095033740E+00  0.10037029503E-01  0.80728476431E+00  0.90007726762E+02  0.89999987955E+02 0.  0.
         12    1    1    2    0    0  0.86095033740E+00 -0.10037029503E-01 -0.80728476431E+00  0.11802732379E+01  0.00000000000E+00 0. -1.
         11    1    3    3    0    0  0.19965763209E+02 -0.29910257361E+02 -0.17262886897E+02  0.39890631233E+02  0.51100000000E-03 0. -1.
        -11    1    3    3    0    0 -0.20035148665E+01  0.66369397905E+01 -0.78802222597E+01  0.10495758416E+02  0.51100000000E-03 0.  1.
        -12    1    3    3    0    0 -0.18823198680E+02  0.23283354600E+02  0.25950393921E+02  0.39621337113E+02  0.00000000000E+00 0.  1.
</event>
<event>
 7    1  0.4119305E-015  0.9000771E+02  0.7816164E-02  0.1186339E+00
        -11   -1    0    0    0    0  0.00000000000E+00  0.00000000000E+00  0.45593999997E+02  0.45594000000E+02  0.51100000000E-03 0.  1.
         11   -1    0    0    0    0 -0.00000000000E+00 -0.00000000000E+00 -0.45593999997E+02  0.45594000000E+02  0.51100000000E-03 0. -1.
    9900012    2    1    2    0    0  0.10751337726E+01 -0.30503984609E+00  0.37964067893E+00  0.90007708095E+02  0.89999969042E+02 0.  0.
         12    1    1    2    0    0 -0.10751337726E+01  0.30503984609E+00 -0.37964067893E+00  0.11802919053E+01  0.00000000000E+00 0. -1.
         11    1    3    3    0    0  0.51520330185E+01 -0.10044709027E+01 -0.79237264329E+01  0.95046223945E+01  0.51100000000E-03 0. -1.
        -11    1    3    3    0    0 -0.84916569698E+01 -0.33720156291E+02 -0.15858467764E+02  0.38218427211E+02  0.51100000000E-03 0.  1.
         12    1    3    3    0    0  0.44147577239E+01  0.34419587348E+02  0.24161834876E+02  0.42284658489E+02  0.00000000000E+00 0. -1.
</event>
<event>
 7    1  0.4119305E-015  0.9000779E+02  0.7816164E-02  0.1186339E+00
        -11   -1    0    0    0    0  0.00000000000E+00  0.00000000000E+00  0.45593999997E+02  0.45594000000E+02  0.51100000000E-03 0. -1.
         11   -1    0    0    0    0 -0.00000000000E+00 -0.00000000000E+00 -0.45593999997E+02  0.45594000000E+02  0.51100000000E-03 0.  1.
    9900012    2    1    2    0    0 -0.11024630154E+01 -0.26839964023E+00  0.32471841872E+00  0.90007785986E+02  0.90000047961E+02 0.  0.
         12    1    1    2    0    0  0.11024630154E+01  0.26839964023E+00 -0.32471841872E+00  0.11802140139E+01  0.00000000000E+00 0. -1.
         11    1    3    3    0    0 -0.20105392772E+02  0.27753460104E+02 -0.22463487173E+02  0.40976696090E+02  0.51100000000E-03 0. -1.
        -11    1    3    3    0    0 -0.26510279331E+01  0.12581164366E+01  0.10019364941E+02  0.10440233721E+02  0.51100000000E-03 0.  1.
        -12    1    3    3    0    0  0.21653957690E+02 -0.29279976181E+02  0.12768840650E+02  0.38590856175E+02  0.00000000000E+00 0.  1.
</event>
<event>
 7    1  0.4119305E-015  0.9000782E+02  0.7816164E-02  0.1186339E+00
        -11   -1    0    0    0    0  0.00000000000E+00  0.00000000000E+00  0.45593999997E+02  0.45594000000E+02  0.51100000000E-03 0. -1.
         11   -1    0    0    0    0 -0.00000000000E+00 -0.00000000000E+00 -0.45593999997E+02  0.45594000000E+02  0.51100000000E-03 0.  1.
    9900012    2    1    2    0    0 -0.10715836279E+00  0.73940027998E+00 -0.91358103827E+00  0.90007819504E+02  0.90000081922E+02 0.  0.
         12    1    1    2    0    0  0.10715836279E+00 -0.73940027998E+00  0.91358103827E+00  0.11801804956E+01  0.00000000000E+00 0. -1.
         11    1    3    3    0    0  0.44834581019E+01  0.43792904227E+01  0.68989079395E+01  0.93206497723E+01  0.51100000000E-03 0. -1.
        -11    1    3    3    0    0  0.16165003385E+02  0.15823686446E+02 -0.34776791093E+02  0.41486402425E+02  0.51100000000E-03 0.  1.
         12    1    3    3    0    0 -0.20755619849E+02 -0.19463576588E+02  0.26964302115E+02  0.39200767308E+02  0.00000000000E+00 0. -1.
</event>
<event>
 7    1  0.4119305E-015  0.9000724E+02  0.7816164E-02  0.1186340E+00
        -11   -1    0    0    0    0  0.00000000000E+00  0.00000000000E+00  0.45593999997E+02  0.45594000000E+02  0.51100000000E-03 0.  1.
         11   -1    0    0    0    0 -0.00000000000E+00 -0.00000000000E+00 -0.45593999997E+02  0.45594000000E+02  0.51100000000E-03 0. -1.
    9900012    2    1    2    0    0  0.10797298298E+00  0.68516815538E+00  0.95555630350E+00  0.90007236935E+02  0.89999491661E+02 0.  0.
         12    1    1    2    0    0 -0.10797298298E+00 -0.68516815538E+00 -0.95555630350E+00  0.11807630649E+01  0.00000000000E+00 0. -1.
         11    1    3    3    0    0 -0.84634944040E+00 -0.95846530825E+01  0.33600893726E+01  0.10191765448E+02  0.51100000000E-03 0. -1.
        -11    1    3    3    0    0 -0.11690845439E+02 -0.28478591250E+02  0.16452277030E+02  0.34905349825E+02  0.51100000000E-03 0.  1.
         12    1    3    3    0    0  0.12645167862E+02  0.38748412488E+02 -0.18856810099E+02  0.44910121662E+02  0.00000000000E+00 0. -1.
</event>
<event>
 7    1  0.4119305E-015  0.9000773E+02  0.7816164E-02  0.1186339E+00
        -11   -1    0    0    0    0  0.00000000000E+00  0.00000000000E+00  0.45593999997E+02  0.45594000000E+02  0.51100000000E-03 0.  1.
         11   -1    0    0    0    0 -0.00000000000E+00 -0.00000000000E+00 -0.45593999997E+02  0.45594000000E+02  0.51100000000E-03 0. -1.
    9900012    2    1    2    0    0  0.75314023320E+00 -0.29675556022E+00  0.85892523572E+00  0.90007730271E+02  0.89999991510E+02 0.  0.
         12    1    1    2    0    0 -0.75314023320E+00  0.29675556022E+00 -0.85892523572E+00  0.11802697293E+01  0.00000000000E+00 0. -1.
         11    1    3    3    0    0 -0.54934471753E+01  0.14451192987E-01 -0.84498510512E+01  0.10078598799E+02  0.51100000000E-03 0. -1.
        -11    1    3    3    0    0 -0.32638328888E+02 -0.13275950067E+02  0.15465996438E+02  0.38479974127E+02  0.51100000000E-03 0.  1.
         12    1    3    3    0    0  0.38884916296E+02  0.12964743313E+02 -0.61572201514E+01  0.41449157344E+02  0.00000000000E+00 0. -1.
</event>
<event>
 7    1  0.4370102E-015  0.9000777E+02  0.7816164E-02  0.1186339E+00
        -11   -1    0    0    0    0  0.00000000000E+00  0.00000000000E+00  0.45593999997E+02  0.45594000000E+02  0.51100000000E-03 0.  1.
         11   -1    0    0    0    0 -0.00000000000E+00 -0.00000000000E+00 -0.45593999997E+02  0.45594000000E+02  0.51100000000E-03 0. -1.
    9900012    2    1    2    0    0  0.47246545315E+00  0.94825135180E+00  0.52013429991E+00  0.90007769548E+02  0.90000031306E+02 0.  0.
         12    1    1    2    0    0 -0.47246545315E+00 -0.94825135180E+00 -0.52013429991E+00  0.11802304523E+01  0.00000000000E+00 0. -1.
         11    1    3    3    0    0  0.16235259910E+01  0.29034080208E+02 -0.27169647728E+02  0.39797027629E+02  0.51100000000E-03 0. -1.
        -11    1    3    3    0    0  0.43163829509E+01 -0.56632661480E+01 -0.60422854032E+01  0.93387878441E+01  0.51100000000E-03 0.  1.
        -12    1    3    3    0    0 -0.54674434888E+01 -0.22422562708E+02  0.33732067432E+02  0.40871954075E+02  0.00000000000E+00 0.  1.
</event>
<event>
 7    1  0.4704573E-015  0.9000770E+02  0.7816164E-02  0.1186339E+00
        -11   -1    0    0    0    0  0.00000000000E+00  0.00000000000E+00  0.45593999997E+02  0.45594000000E+02  0.51100000000E-03 0. -1.
         11   -1    0    0    0    0 -0.00000000000E+00 -0.00000000000E+00 -0.45593999997E+02  0.45594000000E+02  0.51100000000E-03 0.  1.
    9900012    2    1    2    0    0  0.11238558842E+01 -0.32744509354E+00 -0.15110833935E+00  0.90007700857E+02  0.89999961708E+02 0.  0.
         12    1    1    2    0    0 -0.11238558842E+01  0.32744509354E+00  0.15110833935E+00  0.11802991434E+01  0.00000000000E+00 0. -1.
         11    1    3    3    0    0 -0.82706479785E+01 -0.16739807633E+02 -0.32428320560E+02  0.37419523677E+02  0.51100000000E-03 0. -1.
        -11    1    3    3    0    0  0.62192270078E+01 -0.59411960733E+01 -0.42906355430E+01  0.96117713757E+01  0.51100000000E-03 0.  1.
        -12    1    3    3    0    0  0.31752768549E+01  0.22353558613E+02  0.36567847764E+02  0.42976405804E+02  0.00000000000E+00 0.  1.
</event>
<event>
 7    1  0.4119305E-015  0.9000776E+02  0.7816164E-02  0.1186339E+00
        -11   -1    0    0    0    0  0.00000000000E+00  0.00000000000E+00  0.45593999997E+02  0.45594000000E+02  0.51100000000E-03 0.  1.
         11   -1    0    0    0    0 -0.00000000000E+00 -0.00000000000E+00 -0.45593999997E+02  0.45594000000E+02  0.51100000000E-03 0. -1.
    9900012    2    1    2    0    0  0.72350961482E+00  0.78102762695E+00  0.50941677236E+00  0.90007756057E+02  0.90000017637E+02 0.  0.
         12    1    1    2    0    0 -0.72350961482E+00 -0.78102762695E+00 -0.50941677236E+00  0.11802439429E+01  0.00000000000E+00 0. -1.
         11    1    3    3    0    0 -0.12596919714E+02 -0.33394972830E+02 -0.27193896276E+00  0.35692864100E+02  0.51100000000E-03 0. -1.
        -11    1    3    3    0    0  0.35358772420E+01 -0.97060021524E+00 -0.14355384801E+02  0.14816260179E+02  0.51100000000E-03 0.  1.
        -12    1    3    3    0    0  0.97845520872E+01  0.35146600672E+02  0.15136740536E+02  0.39498631779E+02  0.00000000000E+00 0.  1.
</event>
<event>
 7    1  0.4119305E-015  0.9000800E+02  0.7816164E-02  0.1186339E+00
        -11   -1    0    0    0    0  0.00000000000E+00  0.00000000000E+00  0.45593999997E+02  0.45594000000E+02  0.51100000000E-03 0.  1.
         11   -1    0    0    0    0 -0.00000000000E+00 -0.00000000000E+00 -0.45593999997E+02  0.45594000000E+02  0.51100000000E-03 0. -1.
    9900012    2    1    2    0    0  0.37478886371E+00  0.11183909615E+01  0.33735701240E-01  0.90007998673E+02  0.90000263455E+02 0.  0.
         12    1    1    2    0    0 -0.37478886371E+00 -0.11183909615E+01 -0.33735701240E-01  0.11800013274E+01  0.00000000000E+00 0. -1.
         11    1    3    3    0    0 -0.24093638668E+01 -0.17407355526E+01  0.86955089150E+01  0.91895086952E+01  0.51100000000E-03 0. -1.
        -11    1    3    3    0    0 -0.60567117576E+01 -0.37775507972E+02 -0.86932224828E+01  0.39233211407E+02  0.51100000000E-03 0.  1.
         12    1    3    3    0    0  0.88408644882E+01  0.40634634486E+02  0.31449269072E-01  0.41585278571E+02  0.00000000000E+00 0. -1.
</event>
<event>
 7    1  0.4119305E-015  0.9000773E+02  0.7816164E-02  0.1186339E+00
        -11   -1    0    0    0    0  0.00000000000E+00  0.00000000000E+00  0.45593999997E+02  0.45594000000E+02  0.51100000000E-03 0.  1.
         11   -1    0    0    0    0 -0.00000000000E+00 -0.00000000000E+00 -0.45593999997E+02  0.45594000000E+02  0.51100000000E-03 0. -1.
    9900012    2    1    2    0    0  0.34518732003E+00  0.12510000535E+00  0.11217061589E+01  0.90007733503E+02  0.89999994785E+02 0.  0.
         12    1    1    2    0    0 -0.34518732003E+00 -0.12510000535E+00 -0.11217061589E+01  0.11802664971E+01  0.00000000000E+00 0. -1.
         11    1    3    3    0    0  0.32920686738E+02  0.15074855666E+02  0.19936477389E+02  0.41333836256E+02  0.51100000000E-03 0. -1.
        -11    1    3    3    0    0 -0.93022088195E+00 -0.12165693506E+02 -0.97535052818E+00  0.12240127381E+02  0.51100000000E-03 0.  1.
        -12    1    3    3    0    0 -0.31645278536E+02 -0.27840621544E+01 -0.17839420702E+02  0.36433769867E+02  0.00000000000E+00 0.  1.
</event>
<event>
 7    1  0.4119305E-015  0.9000890E+02  0.7816164E-02  0.1186337E+00
        -11   -1    0    0    0    0  0.00000000000E+00  0.00000000000E+00  0.45593999997E+02  0.45594000000E+02  0.51100000000E-03 0.  1.
         11   -1    0    0    0    0 -0.00000000000E+00 -0.00000000000E+00 -0.45593999997E+02  0.45594000000E+02  0.51100000000E-03 0. -1.
    9900012    2    1    2    0    0 -0.62042401284E-01 -0.10714258691E+00  0.11725801507E+01  0.90008901614E+02  0.90001178308E+02 0.  0.
         12    1    1    2    0    0  0.62042401284E-01  0.10714258691E+00 -0.11725801507E+01  0.11790983858E+01  0.00000000000E+00 0. -1.
         11    1    3    3    0    0  0.87957812316E+01 -0.85472513307E+00  0.15808072038E+00  0.88386261547E+01  0.51100000000E-03 0. -1.
        -11    1    3    3    0    0  0.19284174285E+02 -0.29237186993E+02  0.14479872950E+02  0.37899329836E+02  0.51100000000E-03 0.  1.
         12    1    3    3    0    0 -0.28141997918E+02  0.29984769539E+02 -0.13465373520E+02  0.43270945623E+02  0.00000000000E+00 0. -1.
</event>
<event>
 7    1  0.4119305E-015  0.9000774E+02  0.7816164E-02  0.1186339E+00
        -11   -1    0    0    0    0  0.00000000000E+00  0.00000000000E+00  0.45593999997E+02  0.45594000000E+02  0.51100000000E-03 0.  1.
         11   -1    0    0    0    0 -0.00000000000E+00 -0.00000000000E+00 -0.45593999997E+02  0.45594000000E+02  0.51100000000E-03 0. -1.
    9900012    2    1    2    0    0 -0.18045401687E+00  0.19654478231E+00  0.11497019962E+01  0.90007742323E+02  0.90000003722E+02 0.  0.
         12    1    1    2    0    0  0.18045401687E+00 -0.19654478231E+00 -0.11497019962E+01  0.11802576769E+01  0.00000000000E+00 0. -1.
         11    1    3    3    0    0  0.29096017453E+02  0.10232826871E+02 -0.14766726273E+02  0.34195689531E+02  0.51100000000E-03 0. -1.
        -11    1    3    3    0    0  0.11546954841E+02 -0.59710012071E+00  0.42368660454E+01  0.12314208412E+02  0.51100000000E-03 0.  1.
        -12    1    3    3    0    0 -0.40823426311E+02 -0.94391819681E+01  0.11679562224E+02  0.43497844381E+02  0.00000000000E+00 0.  1.
</event>
<event>
 7    1  0.4119305E-015  0.9000756E+02  0.7816164E-02  0.1186339E+00
        -11   -1    0    0    0    0  0.00000000000E+00  0.00000000000E+00  0.45593999997E+02  0.45594000000E+02  0.51100000000E-03 0. -1.
         11   -1    0    0    0    0 -0.00000000000E+00 -0.00000000000E+00 -0.45593999997E+02  0.45594000000E+02  0.51100000000E-03 0.  1.
    9900012    2    1    2    0    0  0.57653833307E+00 -0.80797525351E+00 -0.63891640958E+00  0.90007561675E+02  0.89999820689E+02 0.  0.
         12    1    1    2    0    0 -0.57653833307E+00  0.80797525351E+00  0.63891640958E+00  0.11804383246E+01  0.00000000000E+00 0. -1.
         11    1    3    3    0    0  0.19160475059E+01  0.88966495884E+01  0.22641025770E+01  0.93780473812E+01  0.51100000000E-03 0. -1.
        -11    1    3    3    0    0 -0.36229695164E+02  0.20300860292E+01 -0.18405608264E+02  0.40687571527E+02  0.51100000000E-03 0.  1.
         12    1    3    3    0    0  0.34890185991E+02 -0.11734710871E+02  0.15502589278E+02  0.39941942767E+02  0.00000000000E+00 0. -1.
</event>
<event>
 7    1  0.4119305E-015  0.9000645E+02  0.7816164E-02  0.1186342E+00
        -11   -1    0    0    0    0  0.00000000000E+00  0.00000000000E+00  0.45593999997E+02  0.45594000000E+02  0.51100000000E-03 0. -1.
         11   -1    0    0    0    0 -0.00000000000E+00 -0.00000000000E+00 -0.45593999997E+02  0.45594000000E+02  0.51100000000E-03 0.  1.
    9900012    2    1    2    0    0 -0.15835087057E+00  0.11020739575E+01 -0.39551215360E+00  0.90006445147E+02  0.89998689414E+02 0.  0.
         12    1    1    2    0    0  0.15835087057E+00 -0.11020739575E+01  0.39551215360E+00  0.11815548526E+01  0.00000000000E+00 0. -1.
         11    1    3    3    0    0  0.24600509197E+02 -0.15137176686E+02  0.13754652713E+02  0.31992337243E+02  0.51100000000E-03 0. -1.
        -11    1    3    3    0    0 -0.15358944862E+02 -0.12599718242E+02  0.69702065082E+01  0.21053120103E+02  0.51100000000E-03 0.  1.
        -12    1    3    3    0    0 -0.93999152052E+01  0.28838968885E+02 -0.21120371374E+02  0.36960987801E+02  0.00000000000E+00 0.  1.
</event>
<event>
 7    1  0.4119305E-015  0.9000820E+02  0.7816164E-02  0.1186338E+00
        -11   -1    0    0    0    0  0.00000000000E+00  0.00000000000E+00  0.45593999997E+02  0.45594000000E+02  0.51100000000E-03 0. -1.
         11   -1    0    0    0    0 -0.00000000000E+00 -0.00000000000E+00 -0.45593999997E+02  0.45594000000E+02  0.51100000000E-03 0.  1.
    9900012    2    1    2    0    0 -0.94123516901E-01  0.43373459079E+00 -0.10931339538E+01  0.90008200537E+02  0.90000467983E+02 0.  0.
         12    1    1    2    0    0  0.94123516901E-01 -0.43373459079E+00  0.10931339538E+01  0.11797994629E+01  0.00000000000E+00 0. -1.
         11    1    3    3    0    0 -0.42254451991E+01 -0.38297989887E+01  0.36472861373E+01  0.67693754404E+01  0.51100000000E-03 0. -1.
        -11    1    3    3    0    0  0.20916359615E+02 -0.17002394794E+02 -0.33982934140E+02  0.43375284914E+02  0.51100000000E-03 0.  1.
         12    1    3    3    0    0 -0.16785037933E+02  0.21265928374E+02  0.29242514049E+02  0.39863540183E+02  0.00000000000E+00 0. -1.
</event>
<event>
 7    1  0.4119305E-015  0.9000773E+02  0.7816164E-02  0.1186339E+00
        -11   -1    0    0    0    0  0.00000000000E+00  0.00000000000E+00  0.45593999997E+02  0.45594000000E+02  0.51100000000E-03 0.  1.
         11   -1    0    0    0    0 -0.00000000000E+00 -0.00000000000E+00 -0.45593999997E+02  0.45594000000E+02  0.51100000000E-03 0. -1.
    9900012    2    1    2    0    0 -0.35288611800E+00  0.11060129912E+01 -0.21269313380E+00  0.90007732353E+02  0.89999993620E+02 0.  0.
         12    1    1    2    0    0  0.35288611800E+00 -0.11060129912E+01  0.21269313380E+00  0.11802676468E+01  0.00000000000E+00 0. -1.
         11    1    3    3    0    0 -0.28857140421E+02  0.25069803366E+02 -0.12935362253E+02  0.40355336586E+02  0.51100000000E-03 0. -1.
        -11    1    3    3    0    0  0.18771028775E+01  0.62717600433E+01  0.58539265559E+01  0.87821948074E+01  0.51100000000E-03 0.  1.
        -12    1    3    3    0    0  0.26627151426E+02 -0.30235550418E+02  0.68687425633E+01  0.40870200960E+02  0.00000000000E+00 0.  1.
</event>
<event>
 7    1  0.4119305E-015  0.9000803E+02  0.7816164E-02  0.1186338E+00
        -11   -1    0    0    0    0  0.00000000000E+00  0.00000000000E+00  0.45593999997E+02  0.45594000000E+02  0.51100000000E-03 0.  1.
         11   -1    0    0    0    0 -0.00000000000E+00 -0.00000000000E+00 -0.45593999997E+02  0.45594000000E+02  0.51100000000E-03 0. -1.
    9900012    2    1    2    0    0 -0.56056028008E+00  0.97365202712E+00  0.36069054191E+00  0.90008032304E+02  0.90000297530E+02 0.  0.
         12    1    1    2    0    0  0.56056028008E+00 -0.97365202712E+00 -0.36069054191E+00  0.11799676964E+01  0.00000000000E+00 0. -1.
         11    1    3    3    0    0  0.67718823269E+01 -0.41753825836E+01  0.55336727985E+00  0.79748621039E+01  0.51100000000E-03 0. -1.
        -11    1    3    3    0    0  0.24250624948E+02 -0.83642111193E+01  0.27721285814E+02  0.37769333135E+02  0.51100000000E-03 0.  1.
         12    1    3    3    0    0 -0.31583067555E+02  0.13513245730E+02 -0.27913962552E+02  0.44263837065E+02  0.00000000000E+00 0. -1.
</event>
<event>
 7    1  0.4119305E-015  0.9000788E+02  0.7816164E-02  0.1186339E+00
        -11   -1    0    0    0    0  0.00000000000E+00  0.00000000000E+00  0.45593999997E+02  0.45594000000E+02  0.51100000000E-03 0. -1.
         11   -1    0    0    0    0 -0.00000000000E+00 -0.00000000000E+00 -0.45593999997E+02  0.45594000000E+02  0.51100000000E-03 0.  1.
    9900012    2    1    2    0    0  0.94246920757E+00 -0.55000574827E+00  0.44937588936E+00  0.90007875761E+02  0.90000138921E+02 0.  0.
         12    1    1    2    0    0 -0.94246920757E+00  0.55000574827E+00 -0.44937588936E+00  0.11801242393E+01  0.00000000000E+00 0. -1.
         11    1    3    3    0    0 -0.70096336315E+01  0.64909055075E+01  0.64370044520E+01  0.11519628663E+02  0.51100000000E-03 0. -1.
        -11    1    3    3    0    0  0.28884771500E+02  0.26013536203E+02  0.22684935384E+00  0.38872683870E+02  0.51100000000E-03 0.  1.
         12    1    3    3    0    0 -0.20932668661E+02 -0.33054447459E+02 -0.62144779165E+01  0.39615563228E+02  0.00000000000E+00 0. -1.
</event>
<event>
 7    1  0.4119305E-015  0.9000777E+02  0.7816164E-02  0.1186339E+00
        -11   -1    0    0    0    0  0.00000000000E+00  0.00000000000E+00  0.45593999997E+02  0.45594000000E+02  0.51100000000E-03 0.  1.
         11   -1    0    0    0    0 -0.00000000000E+00 -0.00000000000E+00 -0.45593999997E+02  0.45594000000E+02  0.51100000000E-03 0. -1.
    9900012    2    1    2    0    0  0.79901200637E+00  0.14197660530E+00  0.85695620553E+00  0.90007766345E+02  0.90000028061E+02 0.  0.
         12    1    1    2    0    0 -0.79901200637E+00 -0.14197660530E+00 -0.85695620553E+00  0.11802336552E+01  0.00000000000E+00 0. -1.
         11    1    3    3    0    0  0.40729549608E+01  0.19780344298E+01  0.82238646990E+01  0.93879461634E+01  0.51100000000E-03 0. -1.
        -11    1    3    3    0    0 -0.96002933560E+01 -0.22556462488E+01  0.35726445606E+02  0.37062548326E+02  0.51100000000E-03 0.  1.
         12    1    3    3    0    0  0.63263504016E+01  0.41958842422E+00 -0.43093354100E+02  0.43557271855E+02  0.00000000000E+00 0. -1.
</event>
<event>
 7    1  0.4119305E-015  0.9000775E+02  0.7816164E-02  0.1186339E+00
        -11   -1    0    0    0    0  0.00000000000E+00  0.00000000000E+00  0.45593999997E+02  0.45594000000E+02  0.51100000000E-03 0. -1.
         11   -1    0    0    0    0 -0.00000000000E+00 -0.00000000000E+00 -0.45593999997E+02  0.45594000000E+02  0.51100000000E-03 0.  1.
    9900012    2    1    2    0    0  0.74933691919E+00  0.16845110295E+00 -0.89615855535E+00  0.90007753522E+02  0.90000015068E+02 0.  0.
         12    1    1    2    0    0 -0.74933691919E+00 -0.16845110295E+00  0.89615855535E+00  0.11802464780E+01  0.00000000000E+00 0. -1.
         11    1    3    3    0    0  0.12750938111E+01 -0.45605779135E+01  0.81806298581E+01  0.94523774929E+01  0.51100000000E-03 0. -1.
        -11    1    3    3    0    0 -0.36250558654E+02  0.19646832168E+02 -0.66491940117E+01  0.41764970947E+02  0.51100000000E-03 0.  1.
         12    1    3    3    0    0  0.35724801762E+02 -0.14917803152E+02 -0.24275944018E+01  0.38790405082E+02  0.00000000000E+00 0. -1.
</event>
<event>
 7    1  0.4119305E-015  0.9000773E+02  0.7816164E-02  0.1186339E+00
        -11   -1    0    0    0    0  0.00000000000E+00  0.00000000000E+00  0.45593999997E+02  0.45594000000E+02  0.51100000000E-03 0.  1.
         11   -1    0    0    0    0 -0.00000000000E+00 -0.00000000000E+00 -0.45593999997E+02  0.45594000000E+02  0.51100000000E-03 0. -1.
    9900012    2    1    2    0    0  0.66549015400E+00 -0.25600829516E-01  0.97442439453E+00  0.90007730773E+02  0.89999992019E+02 0.  0.
         12    1    1    2    0    0 -0.66549015400E+00  0.25600829516E-01 -0.97442439453E+00  0.11802692270E+01  0.00000000000E+00 0. -1.
         11    1    3    3    0    0 -0.30961898569E+02  0.83353543299E+01 -0.16878862000E+02  0.36235525076E+02  0.51100000000E-03 0. -1.
        -11    1    3    3    0    0 -0.87890771219E+01  0.16653462260E+01  0.46857932057E+01  0.10098411406E+02  0.51100000000E-03 0.  1.
        -12    1    3    3    0    0  0.40416465845E+02 -0.10026301385E+02  0.13167493189E+02  0.43673794291E+02  0.00000000000E+00 0.  1.
</event>
<event>
 7    1  0.4119305E-015  0.9000780E+02  0.7816164E-02  0.1186339E+00
        -11   -1    0    0    0    0  0.00000000000E+00  0.00000000000E+00  0.45593999997E+02  0.45594000000E+02  0.51100000000E-03 0.  1.
         11   -1    0    0    0    0 -0.00000000000E+00 -0.00000000000E+00 -0.45593999997E+02  0.45594000000E+02  0.51100000000E-03 0. -1.
    9900012    2    1    2    0    0 -0.10652630733E+00  0.11474962377E+01 -0.25452701724E+00  0.90007796851E+02  0.90000058970E+02 0.  0.
         12    1    1    2    0    0  0.10652630733E+00 -0.11474962377E+01  0.25452701724E+00  0.11802031487E+01  0.00000000000E+00 0. -1.
         11    1    3    3    0    0  0.45965216467E+01 -0.46161202535E+01 -0.40331896529E+01  0.76618011251E+01  0.51100000000E-03 0. -1.
        -11    1    3    3    0    0 -0.32891661396E+02  0.41462902447E+01 -0.25384293585E+02  0.41754227010E+02  0.51100000000E-03 0.  1.
         12    1    3    3    0    0  0.28188613442E+02  0.16173262465E+01  0.29162956221E+02  0.40591768716E+02  0.00000000000E+00 0. -1.
</event>
<event>
 7    1  0.4119305E-015  0.9000773E+02  0.7816164E-02  0.1186339E+00
        -11   -1    0    0    0    0  0.00000000000E+00  0.00000000000E+00  0.45593999997E+02  0.45594000000E+02  0.51100000000E-03 0.  1.
         11   -1    0    0    0    0 -0.00000000000E+00 -0.00000000000E+00 -0.45593999997E+02  0.45594000000E+02  0.51100000000E-03 0. -1.
    9900012    2    1    2    0    0  0.56897565815E+00 -0.79535413139E+00  0.66084400336E+00  0.90007730416E+02  0.89999991658E+02 0.  0.
         12    1    1    2    0    0 -0.56897565815E+00  0.79535413139E+00 -0.66084400336E+00  0.11802695839E+01  0.00000000000E+00 0. -1.
         11    1    3    3    0    0 -0.40755964822E+02 -0.50260751997E+01 -0.35557187999E+01  0.41218360435E+02  0.51100000000E-03 0. -1.
        -11    1    3    3    0    0  0.23716092648E+01  0.88536817416E+01  0.26083184405E+01  0.95297185811E+01  0.51100000000E-03 0.  1.
        -12    1    3    3    0    0  0.38953331215E+02 -0.46229606733E+01  0.16082443628E+01  0.39259651400E+02  0.00000000000E+00 0.  1.
</event>
<event>
 7    1  0.4119305E-015  0.9000752E+02  0.7816164E-02  0.1186339E+00
        -11   -1    0    0    0    0  0.00000000000E+00  0.00000000000E+00  0.45593999997E+02  0.45594000000E+02  0.51100000000E-03 0. -1.
         11   -1    0    0    0    0 -0.00000000000E+00 -0.00000000000E+00 -0.45593999997E+02  0.45594000000E+02  0.51100000000E-03 0.  1.
    9900012    2    1    2    0    0 -0.64033920388E-01 -0.11574220050E+01 -0.22318269373E+00  0.90007518507E+02  0.89999776951E+02 0.  0.
         12    1    1    2    0    0  0.64033920388E-01  0.11574220050E+01  0.22318269373E+00  0.11804814930E+01  0.00000000000E+00 0. -1.
         11    1    3    3    0    0 -0.33345761659E+02  0.62087671461E+01 -0.15341593833E+02  0.37227048120E+02  0.51100000000E-03 0. -1.
        -11    1    3    3    0    0 -0.74183562999E+01 -0.37483863684E+01  0.75421161760E+01  0.11223454336E+02  0.51100000000E-03 0.  1.
        -12    1    3    3    0    0  0.40700084039E+02 -0.36178027828E+01  0.75762949631E+01  0.41557016051E+02  0.00000000000E+00 0.  1.
</event>
<event>
 7    1  0.4119305E-015  0.9000773E+02  0.7816164E-02  0.1186339E+00
        -11   -1    0    0    0    0  0.00000000000E+00  0.00000000000E+00  0.45593999997E+02  0.45594000000E+02  0.51100000000E-03 0.  1.
         11   -1    0    0    0    0 -0.00000000000E+00 -0.00000000000E+00 -0.45593999997E+02  0.45594000000E+02  0.51100000000E-03 0. -1.
    9900012    2    1    2    0    0 -0.16119539562E+00 -0.10447611979E+01  0.52490495708E+00  0.90007730908E+02  0.89999992156E+02 0.  0.
         12    1    1    2    0    0  0.16119539562E+00  0.10447611979E+01 -0.52490495708E+00  0.11802690922E+01  0.00000000000E+00 0. -1.
         11    1    3    3    0    0  0.51264603090E+01 -0.64523958471E+01  0.42370680973E+01  0.92664315564E+01  0.51100000000E-03 0. -1.
        -11    1    3    3    0    0  0.16767548317E+02 -0.23955034851E+02  0.21415728540E+02  0.36244003648E+02  0.51100000000E-03 0.  1.
         12    1    3    3    0    0 -0.22055204022E+02  0.29362669500E+02 -0.25127891681E+02  0.44497295703E+02  0.00000000000E+00 0. -1.
</event>
<event>
 7    1  0.4119305E-015  0.9000771E+02  0.7816164E-02  0.1186339E+00
        -11   -1    0    0    0    0  0.00000000000E+00  0.00000000000E+00  0.45593999997E+02  0.45594000000E+02  0.51100000000E-03 0. -1.
         11   -1    0    0    0    0 -0.00000000000E+00 -0.00000000000E+00 -0.45593999997E+02  0.45594000000E+02  0.51100000000E-03 0.  1.
    9900012    2    1    2    0    0  0.78637824801E+00  0.63068318465E+00  0.61394209856E+00  0.90007713201E+02  0.89999974215E+02 0.  0.
         12    1    1    2    0    0 -0.78637824801E+00 -0.63068318465E+00 -0.61394209856E+00  0.11802867993E+01  0.00000000000E+00 0. -1.
         11    1    3    3    0    0 -0.93274724212E+01 -0.11101172836E+02 -0.43602729099E+01  0.15140996011E+02  0.51100000000E-03 0. -1.
        -11    1    3    3    0    0 -0.92939293156E+01  0.22283799274E+01 -0.31254224385E+02  0.32682860056E+02  0.51100000000E-03 0.  1.
        -12    1    3    3    0    0  0.19407779985E+02  0.95034760928E+01  0.36228439394E+02  0.42183857134E+02  0.00000000000E+00 0.  1.
</event>
<event>
 7    1  0.4119305E-015  0.9000810E+02  0.7816164E-02  0.1186338E+00
        -11   -1    0    0    0    0  0.00000000000E+00  0.00000000000E+00  0.45593999997E+02  0.45594000000E+02  0.51100000000E-03 0. -1.
         11   -1    0    0    0    0 -0.00000000000E+00 -0.00000000000E+00 -0.45593999997E+02  0.45594000000E+02  0.51100000000E-03 0.  1.
    9900012    2    1    2    0    0 -0.27632129077E-01 -0.21557790961E+00 -0.11597115868E+01  0.90008098168E+02  0.90000364263E+02 0.  0.
         12    1    1    2    0    0  0.27632129077E-01  0.21557790961E+00  0.11597115868E+01  0.11799018324E+01  0.00000000000E+00 0. -1.
         11    1    3    3    0    0 -0.46508323670E+01 -0.12185336740E+02  0.72715808803E+01  0.14932801543E+02  0.51100000000E-03 0. -1.
        -11    1    3    3    0    0  0.24025454952E+02 -0.23814709414E+02 -0.22558896266E+01  0.33903567783E+02  0.51100000000E-03 0.  1.
         12    1    3    3    0    0 -0.19402254714E+02  0.35784468244E+02 -0.61754028405E+01  0.41171728841E+02  0.00000000000E+00 0. -1.
</event>
<event>
 7    1  0.4119305E-015  0.9000771E+02  0.7816164E-02  0.1186339E+00
        -11   -1    0    0    0    0  0.00000000000E+00  0.00000000000E+00  0.45593999997E+02  0.45594000000E+02  0.51100000000E-03 0.  1.
         11   -1    0    0    0    0 -0.00000000000E+00 -0.00000000000E+00 -0.45593999997E+02  0.45594000000E+02  0.51100000000E-03 0. -1.
    9900012    2    1    2    0    0  0.37930671882E+00 -0.10633804212E+01 -0.34415459553E+00  0.90007706014E+02  0.89999966934E+02 0.  0.
         12    1    1    2    0    0 -0.37930671882E+00  0.10633804212E+01  0.34415459553E+00  0.11802939858E+01  0.00000000000E+00 0. -1.
         11    1    3    3    0    0 -0.77490257447E+01 -0.81450203021E+01  0.40191580635E+01  0.11939111672E+02  0.51100000000E-03 0. -1.
        -11    1    3    3    0    0  0.16372416444E+02 -0.31838948406E+02  0.74475681564E+01  0.36568304958E+02  0.51100000000E-03 0.  1.
         12    1    3    3    0    0 -0.82440839801E+01  0.38920588287E+02 -0.11810880815E+02  0.41500289384E+02  0.00000000000E+00 0. -1.
</event>
<event>
 7    1  0.4119305E-015  0.9000743E+02  0.7816164E-02  0.1186340E+00
        -11   -1    0    0    0    0  0.00000000000E+00  0.00000000000E+00  0.45593999997E+02  0.45594000000E+02  0.51100000000E-03 0.  1.
         11   -1    0    0    0    0 -0.00000000000E+00 -0.00000000000E+00 -0.45593999997E+02  0.45594000000E+02  0.51100000000E-03 0. -1.
    9900012    2    1    2    0    0 -0.60603537960E-01  0.91072987778E+00  0.74876311032E+00  0.90007428996E+02  0.89999686259E+02 0.  0.
         12    1    1    2    0    0  0.60603537960E-01 -0.91072987778E+00 -0.74876311032E+00  0.11805710036E+01  0.00000000000E+00 0. -1.
         11    1    3    3    0    0 -0.11426563310E+01 -0.35992488863E+01  0.75925277225E+01  0.84797838129E+01  0.51100000000E-03 0. -1.
        -11    1    3    3    0    0 -0.22565973286E+02  0.31727544210E+02  0.12135677233E+02  0.40781550659E+02  0.51100000000E-03 0.  1.
         12    1    3    3    0    0  0.23648026079E+02 -0.27217565446E+02 -0.18979441845E+02  0.40746094525E+02  0.00000000000E+00 0. -1.
</event>
<event>
 7    1  0.4119305E-015  0.9000673E+02  0.7816164E-02  0.1186341E+00
        -11   -1    0    0    0    0  0.00000000000E+00  0.00000000000E+00  0.45593999997E+02  0.45594000000E+02  0.51100000000E-03 0.  1.
         11   -1    0    0    0    0 -0.00000000000E+00 -0.00000000000E+00 -0.45593999997E+02  0.45594000000E+02  0.51100000000E-03 0. -1.
    9900012    2    1    2    0    0  0.77644034199E+00 -0.14791979889E+00  0.87787668747E+00  0.90006726386E+02  0.89998974369E+02 0.  0.
         12    1    1    2    0    0 -0.77644034199E+00  0.14791979889E+00 -0.87787668747E+00  0.11812736135E+01  0.00000000000E+00 0. -1.
         11    1    3    3    0    0 -0.88220580716E+01  0.14130128571E+02  0.10430342302E+02  0.19654039861E+02  0.51100000000E-03 0. -1.
        -11    1    3    3    0    0 -0.15020105734E+02 -0.33216776230E+02  0.35797237564E+01  0.36630209143E+02  0.51100000000E-03 0.  1.
         12    1    3    3    0    0  0.24618604148E+02  0.18938727860E+02 -0.13132189371E+02  0.33722477383E+02  0.00000000000E+00 0. -1.
</event>
<event>
 7    1  0.4119305E-015  0.9000771E+02  0.7816164E-02  0.1186339E+00
        -11   -1    0    0    0    0  0.00000000000E+00  0.00000000000E+00  0.45593999997E+02  0.45594000000E+02  0.51100000000E-03 0. -1.
         11   -1    0    0    0    0 -0.00000000000E+00 -0.00000000000E+00 -0.45593999997E+02  0.45594000000E+02  0.51100000000E-03 0.  1.
    9900012    2    1    2    0    0  0.16632199112E+00  0.38111629333E+00 -0.11046127930E+01  0.90007711028E+02  0.89999972014E+02 0.  0.
         12    1    1    2    0    0 -0.16632199112E+00 -0.38111629333E+00  0.11046127930E+01  0.11802889715E+01  0.00000000000E+00 0. -1.
         11    1    3    3    0    0 -0.85536659314E+01  0.84556785345E+00 -0.20682059631E+01  0.88406822151E+01  0.51100000000E-03 0. -1.
        -11    1    3    3    0    0  0.52585474765E+01 -0.31367592927E+02 -0.25160130697E+02  0.40553796179E+02  0.51100000000E-03 0.  1.
         12    1    3    3    0    0  0.34614404461E+01  0.30903141367E+02  0.26123723867E+02  0.40613232634E+02  0.00000000000E+00 0. -1.
</event>
<event>
 7    1  0.4119305E-015  0.9000780E+02  0.7816164E-02  0.1186339E+00
        -11   -1    0    0    0    0  0.00000000000E+00  0.00000000000E+00  0.45593999997E+02  0.45594000000E+02  0.51100000000E-03 0.  1.
         11   -1    0    0    0    0 -0.00000000000E+00 -0.00000000000E+00 -0.45593999997E+02  0.45594000000E+02  0.51100000000E-03 0. -1.
    9900012    2    1    2    0    0 -0.95885261980E+00 -0.68309894341E+00  0.82755637061E-01  0.90007800437E+02  0.90000062603E+02 0.  0.
         12    1    1    2    0    0  0.95885261980E+00  0.68309894341E+00 -0.82755637061E-01  0.11801995630E+01  0.00000000000E+00 0. -1.
         11    1    3    3    0    0  0.10718152048E+02 -0.35646564978E+02  0.22173309286E+01  0.37289045774E+02  0.51100000000E-03 0. -1.
        -11    1    3    3    0    0  0.90608035542E+01  0.56043441034E+00  0.70715787800E+01  0.11507366097E+02  0.51100000000E-03 0.  1.
        -12    1    3    3    0    0 -0.20737808222E+02  0.34403031624E+02 -0.92061540715E+01  0.41211388566E+02  0.00000000000E+00 0.  1.
</event>
<event>
 7    1  0.4119305E-015  0.9000771E+02  0.7816164E-02  0.1186339E+00
        -11   -1    0    0    0    0  0.00000000000E+00  0.00000000000E+00  0.45593999997E+02  0.45594000000E+02  0.51100000000E-03 0.  1.
         11   -1    0    0    0    0 -0.00000000000E+00 -0.00000000000E+00 -0.45593999997E+02  0.45594000000E+02  0.51100000000E-03 0. -1.
    9900012    2    1    2    0    0  0.23103476656E+00 -0.77224536204E+00  0.86217629311E+00  0.90007708543E+02  0.89999969496E+02 0.  0.
         12    1    1    2    0    0 -0.23103476656E+00  0.77224536204E+00 -0.86217629311E+00  0.11802914568E+01  0.00000000000E+00 0. -1.
         11    1    3    3    0    0 -0.17345360303E+01 -0.36364364618E+00 -0.69647504243E+01  0.71866960891E+01  0.51100000000E-03 0. -1.
        -11    1    3    3    0    0 -0.17888075283E+02  0.36432606912E+02  0.31198007272E+01  0.40706894264E+02  0.51100000000E-03 0.  1.
         12    1    3    3    0    0  0.19853646080E+02 -0.36841208628E+02  0.47071259903E+01  0.42114118190E+02  0.00000000000E+00 0. -1.
</event>
<event>
 7    1  0.4119305E-015  0.9000771E+02  0.7816164E-02  0.1186339E+00
        -11   -1    0    0    0    0  0.00000000000E+00  0.00000000000E+00  0.45593999997E+02  0.45594000000E+02  0.51100000000E-03 0.  1.
         11   -1    0    0    0    0 -0.00000000000E+00 -0.00000000000E+00 -0.45593999997E+02  0.45594000000E+02  0.51100000000E-03 0. -1.
    9900012    2    1    2    0    0 -0.98329547201E+00 -0.64393044463E+00  0.10758693860E+00  0.90007707091E+02  0.89999968024E+02 0.  0.
         12    1    1    2    0    0  0.98329547201E+00  0.64393044463E+00 -0.10758693860E+00  0.11802929095E+01  0.00000000000E+00 0. -1.
         11    1    3    3    0    0 -0.42119513393E+01  0.55509095244E-02  0.65989747691E+01  0.78286035256E+01  0.51100000000E-03 0. -1.
        -11    1    3    3    0    0 -0.23470753622E+02 -0.21100951439E+02  0.21693924590E+02  0.38298208725E+02  0.51100000000E-03 0.  1.
         12    1    3    3    0    0  0.26699409489E+02  0.20451470085E+02 -0.28185312420E+02  0.43880894840E+02  0.00000000000E+00 0. -1.
</event>
<event>
 7    1  0.4119305E-015  0.9000773E+02  0.7816164E-02  0.1186339E+00
        -11   -1    0    0    0    0  0.00000000000E+00  0.00000000000E+00  0.45593999997E+02  0.45594000000E+02  0.51100000000E-03 0.  1.
         11   -1    0    0    0    0 -0.00000000000E+00 -0.00000000000E+00 -0.45593999997E+02  0.45594000000E+02  0.51100000000E-03 0. -1.
    9900012    2    1    2    0    0 -0.37474678218E+00  0.38118527992E+00  0.10522820882E+01  0.90007730979E+02  0.89999992228E+02 0.  0.
         12    1    1    2    0    0  0.37474678218E+00 -0.38118527992E+00 -0.10522820882E+01  0.11802690208E+01  0.00000000000E+00 0. -1.
         11    1    3    3    0    0 -0.26706676405E+01 -0.36666993170E+02 -0.60335046509E+01  0.37255926138E+02  0.51100000000E-03 0. -1.
        -11    1    3    3    0    0 -0.63221460228E+01 -0.47331518041E+01 -0.37405122994E+01  0.87386319786E+01  0.51100000000E-03 0.  1.
        -12    1    3    3    0    0  0.86180668811E+01  0.41781330254E+02  0.10826299038E+02  0.44013172863E+02  0.00000000000E+00 0.  1.
</event>
<event>
 7    1  0.4119305E-015  0.9000722E+02  0.7816164E-02  0.1186340E+00
        -11   -1    0    0    0    0  0.00000000000E+00  0.00000000000E+00  0.45593999997E+02  0.45594000000E+02  0.51100000000E-03 0.  1.
         11   -1    0    0    0    0 -0.00000000000E+00 -0.00000000000E+00 -0.45593999997E+02  0.45594000000E+02  0.51100000000E-03 0. -1.
    9900012    2    1    2    0    0  0.33821445124E-01  0.82617669476E+00 -0.84292879796E+00  0.90007220266E+02  0.89999474772E+02 0.  0.
         12    1    1    2    0    0 -0.33821445124E-01 -0.82617669476E+00  0.84292879796E+00  0.11807797337E+01  0.00000000000E+00 0. -1.
         11    1    3    3    0    0 -0.87634174161E+01 -0.82877524311E+01  0.56711798730E+01  0.13328413506E+02  0.51100000000E-03 0. -1.
        -11    1    3    3    0    0 -0.18371485853E+02  0.62533978840E+01  0.27119673417E+02  0.33348060874E+02  0.51100000000E-03 0.  1.
         12    1    3    3    0    0  0.27168724715E+02  0.28605312418E+01 -0.33633782087E+02  0.43330745887E+02  0.00000000000E+00 0. -1.
</event>
<event>
 7    1  0.4119305E-015  0.9000777E+02  0.7816164E-02  0.1186339E+00
        -11   -1    0    0    0    0  0.00000000000E+00  0.00000000000E+00  0.45593999997E+02  0.45594000000E+02  0.51100000000E-03 0. -1.
         11   -1    0    0    0    0 -0.00000000000E+00 -0.00000000000E+00 -0.45593999997E+02  0.45594000000E+02  0.51100000000E-03 0.  1.
    9900012    2    1    2    0    0  0.59509823894E+00 -0.99946103660E+00  0.19967169971E+00  0.90007774146E+02  0.90000035965E+02 0.  0.
         12    1    1    2    0    0 -0.59509823894E+00  0.99946103660E+00 -0.19967169971E+00  0.11802258535E+01  0.00000000000E+00 0. -1.
         11    1    3    3    0    0 -0.98097484563E+01  0.18233060830E+01 -0.15617103524E+00  0.99789778786E+01  0.51100000000E-03 0. -1.
        -11    1    3    3    0    0 -0.19900790299E+02  0.20112607951E+02 -0.22084155228E+02  0.35892455551E+02  0.51100000000E-03 0.  1.
         12    1    3    3    0    0  0.30305636994E+02 -0.22935375071E+02  0.22439997963E+02  0.44136340716E+02  0.00000000000E+00 0. -1.
</event>
<event>
 7    1  0.4119305E-015  0.9000817E+02  0.7816164E-02  0.1186338E+00
        -11   -1    0    0    0    0  0.00000000000E+00  0.00000000000E+00  0.45593999997E+02  0.45594000000E+02  0.51100000000E-03 0.  1.
         11   -1    0    0    0    0 -0.00000000000E+00 -0.00000000000E+00 -0.45593999997E+02  0.45594000000E+02  0.51100000000E-03 0. -1.
    9900012    2    1    2    0    0  0.40666811774E-01 -0.46203184154E+00  0.10848366264E+01  0.90008170471E+02  0.90000437520E+02 0.  0.
         12    1    1    2    0    0 -0.40666811774E-01  0.46203184154E+00 -0.10848366264E+01  0.11798295293E+01  0.00000000000E+00 0. -1.
         11    1    3    3    0    0  0.56367673162E+01  0.72385361370E+01  0.16838767906E+01  0.93276466748E+01  0.51100000000E-03 0. -1.
        -11    1    3    3    0    0  0.32772133336E+02 -0.22011650418E+02 -0.34656748178E+01  0.39629993436E+02  0.51100000000E-03 0.  1.
         12    1    3    3    0    0 -0.38368233840E+02  0.14311082439E+02  0.28666346537E+01  0.41050530360E+02  0.00000000000E+00 0. -1.
</event>
<event>
 7    1  0.4119305E-015  0.9000770E+02  0.7816164E-02  0.1186339E+00
        -11   -1    0    0    0    0  0.00000000000E+00  0.00000000000E+00  0.45593999997E+02  0.45594000000E+02  0.51100000000E-03 0. -1.
         11   -1    0    0    0    0 -0.00000000000E+00 -0.00000000000E+00 -0.45593999997E+02  0.45594000000E+02  0.51100000000E-03 0.  1.
    9900012    2    1    2    0    0  0.68282967862E+00 -0.14611249848E+00 -0.95157369250E+00  0.90007704391E+02  0.89999965289E+02 0.  0.
         12    1    1    2    0    0 -0.68282967862E+00  0.14611249848E+00  0.95157369250E+00  0.11802956089E+01  0.00000000000E+00 0. -1.
         11    1    3    3    0    0  0.41566966273E+01 -0.14703037099E+01 -0.76674706241E+01  0.88447739306E+01  0.51100000000E-03 0. -1.
        -11    1    3    3    0    0  0.73732070401E+01 -0.86494424653E+01 -0.35064331454E+02  0.36860336103E+02  0.51100000000E-03 0.  1.
         12    1    3    3    0    0 -0.10847073989E+02  0.99736336766E+01  0.41780228386E+02  0.44302594358E+02  0.00000000000E+00 0. -1.
</event>
<event>
 7    1  0.4119305E-015  0.9000772E+02  0.7816164E-02  0.1186339E+00
        -11   -1    0    0    0    0  0.00000000000E+00  0.00000000000E+00  0.45593999997E+02  0.45594000000E+02  0.51100000000E-03 0. -1.
         11   -1    0    0    0    0 -0.00000000000E+00 -0.00000000000E+00 -0.45593999997E+02  0.45594000000E+02  0.51100000000E-03 0.  1.
    9900012    2    1    2    0    0  0.39572847546E+00 -0.11110299724E+01 -0.45636520547E-01  0.90007715578E+02  0.89999976623E+02 0.  0.
         12    1    1    2    0    0 -0.39572847546E+00  0.11110299724E+01  0.45636520547E-01  0.11802844225E+01  0.00000000000E+00 0. -1.
         11    1    3    3    0    0  0.43849188735E+01  0.25041101006E+01 -0.96108028939E+01  0.10856593087E+02  0.51100000000E-03 0. -1.
        -11    1    3    3    0    0 -0.71874145703E+01  0.36924453512E+02  0.12148241787E+01  0.37637082690E+02  0.51100000000E-03 0.  1.
         12    1    3    3    0    0  0.31982241723E+01 -0.40539593585E+02  0.83503421947E+01  0.41514039801E+02  0.00000000000E+00 0. -1.
</event>
<event>
 7    1  0.4119305E-015  0.9000802E+02  0.7816164E-02  0.1186338E+00
        -11   -1    0    0    0    0  0.00000000000E+00  0.00000000000E+00  0.45593999997E+02  0.45594000000E+02  0.51100000000E-03 0. -1.
         11   -1    0    0    0    0 -0.00000000000E+00 -0.00000000000E+00 -0.45593999997E+02  0.45594000000E+02  0.51100000000E-03 0.  1.
    9900012    2    1    2    0    0  0.62447302482E+00  0.35281160786E+00 -0.93697369456E+00  0.90008015977E+02  0.90000280988E+02 0.  0.
         12    1    1    2    0    0 -0.62447302482E+00 -0.35281160786E+00  0.93697369456E+00  0.11799840226E+01  0.00000000000E+00 0. -1.
         11    1    3    3    0    0 -0.25259641729E+00 -0.84337326260E+00  0.48773053366E+01  0.49561266144E+01  0.51100000000E-03 0. -1.
        -11    1    3    3    0    0 -0.11709798249E+02  0.31927241882E+02 -0.28882694713E+02  0.44617016971E+02  0.51100000000E-03 0.  1.
         12    1    3    3    0    0  0.12586867691E+02 -0.30731057012E+02  0.23068415681E+02  0.40434872392E+02  0.00000000000E+00 0. -1.
</event>
<event>
 7    1  0.4119305E-015  0.9000780E+02  0.7816164E-02  0.1186339E+00
        -11   -1    0    0    0    0  0.00000000000E+00  0.00000000000E+00  0.45593999997E+02  0.45594000000E+02  0.51100000000E-03 0.  1.
         11   -1    0    0    0    0 -0.00000000000E+00 -0.00000000000E+00 -0.45593999997E+02  0.45594000000E+02  0.51100000000E-03 0. -1.
    9900012    2    1    2    0    0  0.68492206222E+00  0.66757132420E+00  0.69144391601E+00  0.90007803240E+02  0.90000065442E+02 0.  0.
         12    1    1    2    0    0 -0.68492206222E+00 -0.66757132420E+00 -0.69144391601E+00  0.11801967604E+01  0.00000000000E+00 0. -1.
         11    1    3    3    0    0 -0.10175470084E+02 -0.26436810209E+02  0.25213730736E+02  0.37923308708E+02  0.51100000000E-03 0. -1.
        -11    1    3    3    0    0  0.73746546890E+01 -0.39758095788E+01  0.44199400755E+01  0.94725109724E+01  0.51100000000E-03 0.  1.
        -12    1    3    3    0    0  0.34857374570E+01  0.31080191112E+02 -0.28942226896E+02  0.42611983559E+02  0.00000000000E+00 0.  1.
</event>
<event>
 7    1  0.4119305E-015  0.9000774E+02  0.7816164E-02  0.1186339E+00
        -11   -1    0    0    0    0  0.00000000000E+00  0.00000000000E+00  0.45593999997E+02  0.45594000000E+02  0.51100000000E-03 0.  1.
         11   -1    0    0    0    0 -0.00000000000E+00 -0.00000000000E+00 -0.45593999997E+02  0.45594000000E+02  0.51100000000E-03 0. -1.
    9900012    2    1    2    0    0  0.11769595010E+01 -0.87662976778E-01 -0.10088206605E-01  0.90007737217E+02  0.89999998548E+02 0.  0.
         12    1    1    2    0    0 -0.11769595010E+01  0.87662976778E-01  0.10088206605E-01  0.11802627828E+01  0.00000000000E+00 0. -1.
         11    1    3    3    0    0 -0.50407677016E+01 -0.15655606775E+01  0.72688533335E+01  0.89831257534E+01  0.51100000000E-03 0. -1.
        -11    1    3    3    0    0 -0.17568200660E+01 -0.32090562925E+02  0.19284953503E+02  0.37480662713E+02  0.51100000000E-03 0.  1.
         12    1    3    3    0    0  0.79745472687E+01  0.33568460625E+02 -0.26563895043E+02  0.43543948750E+02  0.00000000000E+00 0. -1.
</event>
<event>
 7    1  0.4119305E-015  0.9000775E+02  0.7816164E-02  0.1186339E+00
        -11   -1    0    0    0    0  0.00000000000E+00  0.00000000000E+00  0.45593999997E+02  0.45594000000E+02  0.51100000000E-03 0.  1.
         11   -1    0    0    0    0 -0.00000000000E+00 -0.00000000000E+00 -0.45593999997E+02  0.45594000000E+02  0.51100000000E-03 0. -1.
    9900012    2    1    2    0    0  0.97266985064E+00 -0.34444478677E+00  0.57293275511E+00  0.90007753928E+02  0.90000015479E+02 0.  0.
         12    1    1    2    0    0 -0.97266985064E+00  0.34444478677E+00 -0.57293275511E+00  0.11802460724E+01  0.00000000000E+00 0. -1.
         11    1    3    3    0    0  0.19011042502E+01 -0.52104269633E-01 -0.13468284810E+02  0.13601897228E+02  0.51100000000E-03 0. -1.
        -11    1    3    3    0    0 -0.28753568036E+01 -0.33211490674E+02  0.24986196783E+02  0.41660302682E+02  0.51100000000E-03 0.  1.
         12    1    3    3    0    0  0.19469224041E+01  0.32919150157E+02 -0.10944979219E+02  0.34745554018E+02  0.00000000000E+00 0. -1.
</event>
<event>
 7    1  0.4119305E-015  0.9000774E+02  0.7816164E-02  0.1186339E+00
        -11   -1    0    0    0    0  0.00000000000E+00  0.00000000000E+00  0.45593999997E+02  0.45594000000E+02  0.51100000000E-03 0.  1.
         11   -1    0    0    0    0 -0.00000000000E+00 -0.00000000000E+00 -0.45593999997E+02  0.45594000000E+02  0.51100000000E-03 0. -1.
    9900012    2    1    2    0    0  0.76370816919E+00  0.88280950566E+00 -0.17436420072E+00  0.90007743390E+02  0.90000004803E+02 0.  0.
         12    1    1    2    0    0 -0.76370816919E+00 -0.88280950566E+00  0.17436420072E+00  0.11802566100E+01  0.00000000000E+00 0. -1.
         11    1    3    3    0    0  0.80664404350E+01 -0.15842871960E+01 -0.11059884583E+01  0.82946149966E+01  0.51100000000E-03 0. -1.
        -11    1    3    3    0    0 -0.37471038601E+01  0.18070378593E+02  0.37500683543E+02  0.41795701170E+02  0.51100000000E-03 0.  1.
         12    1    3    3    0    0 -0.35556284058E+01 -0.15603281892E+02 -0.36569059285E+02  0.39917427224E+02  0.00000000000E+00 0. -1.
</event>
<event>
 7    1  0.4119305E-015  0.9000780E+02  0.7816164E-02  0.1186339E+00
        -11   -1    0    0    0    0  0.00000000000E+00  0.00000000000E+00  0.45593999997E+02  0.45594000000E+02  0.51100000000E-03 0.  1.
         11   -1    0    0    0    0 -0.00000000000E+00 -0.00000000000E+00 -0.45593999997E+02  0.45594000000E+02  0.51100000000E-03 0. -1.
    9900012    2    1    2    0    0 -0.46057754192E-01  0.33066213981E-01  0.11788325030E+01  0.90007804778E+02  0.90000067001E+02 0.  0.
         12    1    1    2    0    0  0.46057754192E-01 -0.33066213981E-01 -0.11788325030E+01  0.11801952217E+01  0.00000000000E+00 0. -1.
         11    1    3    3    0    0 -0.44989753051E+01 -0.38504129572E+02 -0.13439181307E+02  0.41029506058E+02  0.51100000000E-03 0. -1.
        -11    1    3    3    0    0  0.12597900200E+02  0.17747814609E+02 -0.90698992812E+00  0.21783357038E+02  0.51100000000E-03 0.  1.
        -12    1    3    3    0    0 -0.81449826493E+01  0.20789381177E+02  0.15525003738E+02  0.27194941683E+02  0.00000000000E+00 0.  1.
</event>
<event>
 7    1  0.4119305E-015  0.9000780E+02  0.7816164E-02  0.1186339E+00
        -11   -1    0    0    0    0  0.00000000000E+00  0.00000000000E+00  0.45593999997E+02  0.45594000000E+02  0.51100000000E-03 0.  1.
         11   -1    0    0    0    0 -0.00000000000E+00 -0.00000000000E+00 -0.45593999997E+02  0.45594000000E+02  0.51100000000E-03 0. -1.
    9900012    2    1    2    0    0  0.73377409920E+00 -0.91991868846E+00  0.90581754539E-01  0.90007796680E+02  0.90000058796E+02 0.  0.
         12    1    1    2    0    0 -0.73377409920E+00  0.91991868846E+00 -0.90581754539E-01  0.11802033199E+01  0.00000000000E+00 0. -1.
         11    1    3    3    0    0  0.96663247820E+01 -0.20973505555E+02 -0.21042593807E+02  0.31242863576E+02  0.51100000000E-03 0. -1.
        -11    1    3    3    0    0  0.52546076793E+01  0.16447550535E+02 -0.13007917887E+02  0.21618019069E+02  0.51100000000E-03 0.  1.
        -12    1    3    3    0    0 -0.14187158362E+02  0.36060363315E+01  0.34141093449E+02  0.37146914035E+02  0.00000000000E+00 0.  1.
</event>
<event>
 7    1  0.4119305E-015  0.9000773E+02  0.7816164E-02  0.1186339E+00
        -11   -1    0    0    0    0  0.00000000000E+00  0.00000000000E+00  0.45593999997E+02  0.45594000000E+02  0.51100000000E-03 0. -1.
         11   -1    0    0    0    0 -0.00000000000E+00 -0.00000000000E+00 -0.45593999997E+02  0.45594000000E+02  0.51100000000E-03 0.  1.
    9900012    2    1    2    0    0  0.29793630334E+00 -0.10806603645E+01 -0.36938558086E+00  0.90007729450E+02  0.89999990679E+02 0.  0.
         12    1    1    2    0    0 -0.29793630334E+00  0.10806603645E+01  0.36938558086E+00  0.11802705501E+01  0.00000000000E+00 0. -1.
         11    1    3    3    0    0  0.28445206234E+02  0.22296964490E+02 -0.14792315025E+02  0.39052489898E+02  0.51100000000E-03 0. -1.
        -11    1    3    3    0    0  0.63555411257E+01  0.11841477275E+01  0.27354273984E+01  0.70198057063E+01  0.51100000000E-03 0.  1.
        -12    1    3    3    0    0 -0.34502811056E+02 -0.24561772582E+02  0.11687502046E+02  0.43935433846E+02  0.00000000000E+00 0.  1.
</event>
<event>
 7    1  0.4119305E-015  0.9000773E+02  0.7816164E-02  0.1186339E+00
        -11   -1    0    0    0    0  0.00000000000E+00  0.00000000000E+00  0.45593999997E+02  0.45594000000E+02  0.51100000000E-03 0.  1.
         11   -1    0    0    0    0 -0.00000000000E+00 -0.00000000000E+00 -0.45593999997E+02  0.45594000000E+02  0.51100000000E-03 0. -1.
    9900012    2    1    2    0    0 -0.14473581033E+00  0.18406161548E+00  0.11568123901E+01  0.90007727981E+02  0.89999989190E+02 0.  0.
         12    1    1    2    0    0  0.14473581033E+00 -0.18406161548E+00 -0.11568123901E+01  0.11802720191E+01  0.00000000000E+00 0. -1.
         11    1    3    3    0    0  0.34927424839E+02  0.87186496678E+01 -0.11602270243E+02  0.37822645769E+02  0.51100000000E-03 0. -1.
        -11    1    3    3    0    0 -0.33584839629E+01  0.42209247484E+01 -0.98300811454E+01  0.11212765754E+02  0.51100000000E-03 0.  1.
        -12    1    3    3    0    0 -0.31713676686E+02 -0.12755512801E+02  0.22589163778E+02  0.40972316459E+02  0.00000000000E+00 0.  1.
</event>
<event>
 7    1  0.4119305E-015  0.9000773E+02  0.7816164E-02  0.1186339E+00
        -11   -1    0    0    0    0  0.00000000000E+00  0.00000000000E+00  0.45593999997E+02  0.45594000000E+02  0.51100000000E-03 0.  1.
         11   -1    0    0    0    0 -0.00000000000E+00 -0.00000000000E+00 -0.45593999997E+02  0.45594000000E+02  0.51100000000E-03 0. -1.
    9900012    2    1    2    0    0  0.62453704702E+00  0.71770970176E+00 -0.69849176373E+00  0.90007726946E+02  0.89999988141E+02 0.  0.
         12    1    1    2    0    0 -0.62453704702E+00 -0.71770970176E+00  0.69849176373E+00  0.11802730545E+01  0.00000000000E+00 0. -1.
         11    1    3    3    0    0 -0.30424180842E+02  0.52552632973E+01 -0.18835047140E+02  0.36166387340E+02  0.51100000000E-03 0. -1.
        -11    1    3    3    0    0 -0.89303032808E+01  0.36125456394E+01  0.13735616163E+01  0.97307489156E+01  0.51100000000E-03 0.  1.
        -12    1    3    3    0    0  0.39979021169E+02 -0.81500992349E+01  0.16762993760E+02  0.44110590690E+02  0.00000000000E+00 0.  1.
</event>
<event>
 7    1  0.4119305E-015  0.9000775E+02  0.7816164E-02  0.1186339E+00
        -11   -1    0    0    0    0  0.00000000000E+00  0.00000000000E+00  0.45593999997E+02  0.45594000000E+02  0.51100000000E-03 0.  1.
         11   -1    0    0    0    0 -0.00000000000E+00 -0.00000000000E+00 -0.45593999997E+02  0.45594000000E+02  0.51100000000E-03 0. -1.
    9900012    2    1    2    0    0 -0.79366454929E+00 -0.87021873209E+00  0.76248301256E-01  0.90007746696E+02  0.90000008152E+02 0.  0.
         12    1    1    2    0    0  0.79366454929E+00  0.87021873209E+00 -0.76248301256E-01  0.11802533041E+01  0.00000000000E+00 0. -1.
         11    1    3    3    0    0 -0.93852849895E+01 -0.18799682225E+01 -0.53754858402E+01  0.10977873343E+02  0.51100000000E-03 0. -1.
        -11    1    3    3    0    0 -0.12724837709E+02 -0.46760734123E+01 -0.32453832412E+02  0.35171556629E+02  0.51100000000E-03 0.  1.
         12    1    3    3    0    0  0.21316458149E+02  0.56858229027E+01  0.37905566553E+02  0.43858316724E+02  0.00000000000E+00 0. -1.
</event>
<event>
 7    1  0.4119305E-015  0.9000777E+02  0.7816164E-02  0.1186339E+00
        -11   -1    0    0    0    0  0.00000000000E+00  0.00000000000E+00  0.45593999997E+02  0.45594000000E+02  0.51100000000E-03 0. -1.
         11   -1    0    0    0    0 -0.00000000000E+00 -0.00000000000E+00 -0.45593999997E+02  0.45594000000E+02  0.51100000000E-03 0.  1.
    9900012    2    1    2    0    0  0.33179018664E+00  0.10129146803E+01 -0.50682296301E+00  0.90007766806E+02  0.90000028527E+02 0.  0.
         12    1    1    2    0    0 -0.33179018664E+00 -0.10129146803E+01  0.50682296301E+00  0.11802331945E+01  0.00000000000E+00 0. -1.
         11    1    3    3    0    0 -0.20002045894E+00 -0.69147523591E+00 -0.42084918162E+01  0.42696076885E+01  0.51100000000E-03 0. -1.
        -11    1    3    3    0    0  0.29322798544E+02 -0.68700419496E+01 -0.28665811022E+02  0.41578272122E+02  0.51100000000E-03 0.  1.
         12    1    3    3    0    0 -0.28790987898E+02  0.85744318658E+01  0.32367479875E+02  0.44159886995E+02  0.00000000000E+00 0. -1.
</event>
<event>
 7    1  0.4119305E-015  0.9000768E+02  0.7816164E-02  0.1186339E+00
        -11   -1    0    0    0    0  0.00000000000E+00  0.00000000000E+00  0.45593999997E+02  0.45594000000E+02  0.51100000000E-03 0.  1.
         11   -1    0    0    0    0 -0.00000000000E+00 -0.00000000000E+00 -0.45593999997E+02  0.45594000000E+02  0.51100000000E-03 0. -1.
    9900012    2    1    2    0    0  0.22051532809E+00 -0.11413615937E+01  0.20448810953E+00  0.90007682803E+02  0.89999943416E+02 0.  0.
         12    1    1    2    0    0 -0.22051532809E+00  0.11413615937E+01 -0.20448810953E+00  0.11803171965E+01  0.00000000000E+00 0. -1.
         11    1    3    3    0    0  0.20040834580E+02  0.27445476150E+02 -0.11441766097E+02  0.35858098437E+02  0.51100000000E-03 0. -1.
        -11    1    3    3    0    0  0.92171230084E+01  0.31117834752E+01  0.50559065755E+00  0.97413641305E+01  0.51100000000E-03 0.  1.
        -12    1    3    3    0    0 -0.29037442261E+02 -0.31698621219E+02  0.11140663549E+02  0.44408220236E+02  0.00000000000E+00 0.  1.
</event>
<event>
 7    1  0.4119305E-015  0.9000784E+02  0.7816164E-02  0.1186339E+00
        -11   -1    0    0    0    0  0.00000000000E+00  0.00000000000E+00  0.45593999997E+02  0.45594000000E+02  0.51100000000E-03 0.  1.
         11   -1    0    0    0    0 -0.00000000000E+00 -0.00000000000E+00 -0.45593999997E+02  0.45594000000E+02  0.51100000000E-03 0. -1.
    9900012    2    1    2    0    0  0.11081829494E+01 -0.37271322052E+00 -0.16057694563E+00  0.90007843422E+02  0.90000106155E+02 0.  0.
         12    1    1    2    0    0 -0.11081829494E+01  0.37271322052E+00  0.16057694563E+00  0.11801565784E+01  0.00000000000E+00 0. -1.
         11    1    3    3    0    0 -0.11761513859E+01 -0.43707225777E+01  0.78929947879E+01  0.90986765475E+01  0.51100000000E-03 0. -1.
        -11    1    3    3    0    0  0.46674826849E+01  0.10063124186E+02  0.35334309443E+02  0.37034649817E+02  0.51100000000E-03 0.  1.
         12    1    3    3    0    0 -0.23831483496E+01 -0.60651148286E+01 -0.43387881177E+02  0.43874517057E+02  0.00000000000E+00 0. -1.
</event>
<event>
 7    1  0.4119305E-015  0.9000784E+02  0.7816164E-02  0.1186339E+00
        -11   -1    0    0    0    0  0.00000000000E+00  0.00000000000E+00  0.45593999997E+02  0.45594000000E+02  0.51100000000E-03 0. -1.
         11   -1    0    0    0    0 -0.00000000000E+00 -0.00000000000E+00 -0.45593999997E+02  0.45594000000E+02  0.51100000000E-03 0.  1.
    9900012    2    1    2    0    0 -0.34591711654E+00  0.11205761284E+01 -0.13205504105E+00  0.90007835586E+02  0.90000098215E+02 0.  0.
         12    1    1    2    0    0  0.34591711654E+00 -0.11205761284E+01  0.13205504105E+00  0.11801644143E+01  0.00000000000E+00 0. -1.
         11    1    3    3    0    0 -0.29850869760E+02 -0.11517377072E+02  0.16335748101E+02  0.35924658194E+02  0.51100000000E-03 0. -1.
        -11    1    3    3    0    0 -0.55267795065E+01  0.12466844415E+02  0.30598551569E+01  0.13976058644E+02  0.51100000000E-03 0.  1.
        -12    1    3    3    0    0  0.35031732150E+02  0.17110878574E+00 -0.19527658299E+02  0.40107118748E+02  0.00000000000E+00 0.  1.
</event>
<event>
 7    1  0.4119305E-015  0.9000767E+02  0.7816164E-02  0.1186339E+00
        -11   -1    0    0    0    0  0.00000000000E+00  0.00000000000E+00  0.45593999997E+02  0.45594000000E+02  0.51100000000E-03 0. -1.
         11   -1    0    0    0    0 -0.00000000000E+00 -0.00000000000E+00 -0.45593999997E+02  0.45594000000E+02  0.51100000000E-03 0.  1.
    9900012    2    1    2    0    0  0.11772089790E+01  0.84485123857E-01  0.15143963659E-01  0.90007666125E+02  0.89999926518E+02 0.  0.
         12    1    1    2    0    0 -0.11772089790E+01 -0.84485123857E-01 -0.15143963659E-01  0.11803338748E+01  0.00000000000E+00 0. -1.
         11    1    3    3    0    0 -0.26665319315E+01  0.34454697285E+01 -0.82378722386E+01  0.93190232038E+01  0.51100000000E-03 0. -1.
        -11    1    3    3    0    0 -0.35683652753E+02 -0.20340676975E+01 -0.10023117481E+02  0.37120390481E+02  0.51100000000E-03 0.  1.
         12    1    3    3    0    0  0.39527393663E+02 -0.13269169072E+01  0.18276133683E+02  0.43568252440E+02  0.00000000000E+00 0. -1.
</event>
<event>
 7    1  0.4119305E-015  0.9000856E+02  0.7816164E-02  0.1186337E+00
        -11   -1    0    0    0    0  0.00000000000E+00  0.00000000000E+00  0.45593999997E+02  0.45594000000E+02  0.51100000000E-03 0.  1.
         11   -1    0    0    0    0 -0.00000000000E+00 -0.00000000000E+00 -0.45593999997E+02  0.45594000000E+02  0.51100000000E-03 0. -1.
    9900012    2    1    2    0    0  0.10046913651E+01  0.54582458431E+00  0.28937883628E+00  0.90008563979E+02  0.90000836220E+02 0.  0.
         12    1    1    2    0    0 -0.10046913651E+01 -0.54582458431E+00 -0.28937883628E+00  0.11794360207E+01  0.00000000000E+00 0. -1.
         11    1    3    3    0    0 -0.21249496116E+01 -0.34835108673E+02 -0.36368279883E+01  0.35088840465E+02  0.51100000000E-03 0. -1.
        -11    1    3    3    0    0  0.53936348041E+01 -0.78524485805E+01 -0.49361743312E+01  0.10729308570E+02  0.51100000000E-03 0.  1.
        -12    1    3    3    0    0 -0.22639938274E+01  0.43233381838E+02  0.88623811558E+01  0.44190414944E+02  0.00000000000E+00 0.  1.
</event>
<event>
 7    1  0.4119305E-015  0.9000776E+02  0.7816164E-02  0.1186339E+00
        -11   -1    0    0    0    0  0.00000000000E+00  0.00000000000E+00  0.45593999997E+02  0.45594000000E+02  0.51100000000E-03 0.  1.
         11   -1    0    0    0    0 -0.00000000000E+00 -0.00000000000E+00 -0.45593999997E+02  0.45594000000E+02  0.51100000000E-03 0. -1.
    9900012    2    1    2    0    0 -0.94534093783E+00 -0.46932345804E-01  0.70504921022E+00  0.90007759972E+02  0.90000021604E+02 0.  0.
         12    1    1    2    0    0  0.94534093783E+00  0.46932345804E-01 -0.70504921022E+00  0.11802400276E+01  0.00000000000E+00 0. -1.
         11    1    3    3    0    0 -0.98183348264E+01 -0.27986188441E+02 -0.28715400948E+02  0.41281965725E+02  0.51100000000E-03 0. -1.
        -11    1    3    3    0    0 -0.69830961492E+01  0.59921707170E+01  0.65924994433E+00  0.92252020293E+01  0.51100000000E-03 0.  1.
        -12    1    3    3    0    0  0.15856090038E+02  0.21947085378E+02  0.28761200214E+02  0.39500592219E+02  0.00000000000E+00 0.  1.
</event>
<event>
 7    1  0.4119305E-015  0.9000746E+02  0.7816164E-02  0.1186340E+00
        -11   -1    0    0    0    0  0.00000000000E+00  0.00000000000E+00  0.45593999997E+02  0.45594000000E+02  0.51100000000E-03 0.  1.
         11   -1    0    0    0    0 -0.00000000000E+00 -0.00000000000E+00 -0.45593999997E+02  0.45594000000E+02  0.51100000000E-03 0. -1.
    9900012    2    1    2    0    0 -0.49308502783E+00 -0.54005130535E+00  0.92675537053E+00  0.90007464624E+02  0.89999722357E+02 0.  0.
         12    1    1    2    0    0  0.49308502783E+00  0.54005130535E+00 -0.92675537053E+00  0.11805353760E+01  0.00000000000E+00 0. -1.
         11    1    3    3    0    0  0.53649230120E+01 -0.17605816799E+02 -0.38796128475E+02  0.42940502664E+02  0.51100000000E-03 0. -1.
        -11    1    3    3    0    0 -0.64817663852E+01 -0.20361979925E+00  0.46877139028E+01  0.80018384382E+01  0.51100000000E-03 0.  1.
        -12    1    3    3    0    0  0.62375834540E+00  0.17269385293E+02  0.35035169943E+02  0.39065123522E+02  0.00000000000E+00 0.  1.
</event>
<event>
 7    1  0.4119305E-015  0.9000778E+02  0.7816164E-02  0.1186339E+00
        -11   -1    0    0    0    0  0.00000000000E+00  0.00000000000E+00  0.45593999997E+02  0.45594000000E+02  0.51100000000E-03 0. -1.
         11   -1    0    0    0    0 -0.00000000000E+00 -0.00000000000E+00 -0.45593999997E+02  0.45594000000E+02  0.51100000000E-03 0.  1.
    9900012    2    1    2    0    0 -0.62707967439E-02  0.10176881870E+01  0.59765058792E+00  0.90007781887E+02  0.90000043808E+02 0.  0.
         12    1    1    2    0    0  0.62707967439E-02 -0.10176881870E+01 -0.59765058792E+00  0.11802181130E+01  0.00000000000E+00 0. -1.
         11    1    3    3    0    0  0.18237767983E+02  0.42455538944E+01  0.14645035431E+01  0.18782589804E+02  0.51100000000E-03 0. -1.
        -11    1    3    3    0    0 -0.20563627885E+02 -0.33358205789E+02 -0.84079214702E+01  0.40078994860E+02  0.51100000000E-03 0.  1.
         12    1    3    3    0    0  0.23195891057E+01  0.30130340082E+02  0.75410685151E+01  0.31146197223E+02  0.00000000000E+00 0. -1.
</event>
<event>
 7    1  0.4119305E-015  0.9000772E+02  0.7816164E-02  0.1186339E+00
        -11   -1    0    0    0    0  0.00000000000E+00  0.00000000000E+00  0.45593999997E+02  0.45594000000E+02  0.51100000000E-03 0.  1.
         11   -1    0    0    0    0 -0.00000000000E+00 -0.00000000000E+00 -0.45593999997E+02  0.45594000000E+02  0.51100000000E-03 0. -1.
    9900012    2    1    2    0    0 -0.55874925175E+00 -0.88933689389E+00  0.53846599073E+00  0.90007717635E+02  0.89999978708E+02 0.  0.
         12    1    1    2    0    0  0.55874925175E+00  0.88933689389E+00 -0.53846599073E+00  0.11802823647E+01  0.00000000000E+00 0. -1.
         11    1    3    3    0    0  0.18948067320E+02  0.21732038462E+02  0.30420661789E+02  0.41913332185E+02  0.51100000000E-03 0. -1.
        -11    1    3    3    0    0 -0.69882007728E+01 -0.44037649621E+01  0.27278428890E+01  0.86988058359E+01  0.51100000000E-03 0.  1.
        -12    1    3    3    0    0 -0.12518615799E+02 -0.18217610394E+02 -0.32610038687E+02  0.39395579615E+02  0.00000000000E+00 0.  1.
</event>
<event>
 7    1  0.4119305E-015  0.9000774E+02  0.7816164E-02  0.1186339E+00
        -11   -1    0    0    0    0  0.00000000000E+00  0.00000000000E+00  0.45593999997E+02  0.45594000000E+02  0.51100000000E-03 0.  1.
         11   -1    0    0    0    0 -0.00000000000E+00 -0.00000000000E+00 -0.45593999997E+02  0.45594000000E+02  0.51100000000E-03 0. -1.
    9900012    2    1    2    0    0 -0.99990085189E+00 -0.16037335857E+00 -0.60620597939E+00  0.90007742817E+02  0.90000004223E+02 0.  0.
         12    1    1    2    0    0  0.99990085189E+00  0.16037335857E+00  0.60620597939E+00  0.11802571826E+01  0.00000000000E+00 0. -1.
         11    1    3    3    0    0 -0.34837145268E+02  0.74137612741E+01 -0.17822559675E+02  0.39827555540E+02  0.51100000000E-03 0. -1.
        -11    1    3    3    0    0 -0.14301668535E+01  0.82542127619E+01  0.18341717191E+01  0.85756394341E+01  0.51100000000E-03 0.  1.
        -12    1    3    3    0    0  0.35267411270E+02 -0.15828347395E+02  0.15382181976E+02  0.41604547843E+02  0.00000000000E+00 0.  1.
</event>
<event>
 7    1  0.4119305E-015  0.9000795E+02  0.7816164E-02  0.1186339E+00
        -11   -1    0    0    0    0  0.00000000000E+00  0.00000000000E+00  0.45593999997E+02  0.45594000000E+02  0.51100000000E-03 0. -1.
         11   -1    0    0    0    0 -0.00000000000E+00 -0.00000000000E+00 -0.45593999997E+02  0.45594000000E+02  0.51100000000E-03 0.  1.
    9900012    2    1    2    0    0  0.23132618005E+00 -0.97996152487E+00 -0.61537547716E+00  0.90007947726E+02  0.90000211836E+02 0.  0.
         12    1    1    2    0    0 -0.23132618005E+00  0.97996152487E+00  0.61537547716E+00  0.11800522741E+01  0.00000000000E+00 0. -1.
         11    1    3    3    0    0 -0.35736858335E+01  0.79978816906E+01 -0.53065050658E+01  0.10241891341E+02  0.51100000000E-03 0. -1.
        -11    1    3    3    0    0  0.15630860758E+02  0.24012040365E+02 -0.21661345976E+02  0.35918182029E+02  0.51100000000E-03 0.  1.
         12    1    3    3    0    0 -0.11825848744E+02 -0.32989883580E+02  0.26352475564E+02  0.43847874356E+02  0.00000000000E+00 0. -1.
</event>
<event>
 7    1  0.4119305E-015  0.9000733E+02  0.7816164E-02  0.1186340E+00
        -11   -1    0    0    0    0  0.00000000000E+00  0.00000000000E+00  0.45593999997E+02  0.45594000000E+02  0.51100000000E-03 0. -1.
         11   -1    0    0    0    0 -0.00000000000E+00 -0.00000000000E+00 -0.45593999997E+02  0.45594000000E+02  0.51100000000E-03 0.  1.
    9900012    2    1    2    0    0 -0.23035495362E+00 -0.50432934865E+00 -0.10423817524E+01  0.90007334419E+02  0.89999590432E+02 0.  0.
         12    1    1    2    0    0  0.23035495362E+00  0.50432934865E+00  0.10423817524E+01  0.11806655810E+01  0.00000000000E+00 0. -1.
         11    1    3    3    0    0 -0.68068608727E+00 -0.31126265940E+01  0.22368096537E+02  0.22593882376E+02  0.51100000000E-03 0. -1.
        -11    1    3    3    0    0  0.22094348842E+02 -0.18490362647E+02  0.59140788940E+00  0.28816723012E+02  0.51100000000E-03 0.  1.
        -12    1    3    3    0    0 -0.21644017708E+02  0.21098659893E+02 -0.24001886178E+02  0.38596729032E+02  0.00000000000E+00 0.  1.
</event>
<event>
 7    1  0.4119305E-015  0.9000779E+02  0.7816164E-02  0.1186339E+00
        -11   -1    0    0    0    0  0.00000000000E+00  0.00000000000E+00  0.45593999997E+02  0.45594000000E+02  0.51100000000E-03 0. -1.
         11   -1    0    0    0    0 -0.00000000000E+00 -0.00000000000E+00 -0.45593999997E+02  0.45594000000E+02  0.51100000000E-03 0.  1.
    9900012    2    1    2    0    0 -0.56268509311E+00  0.87456197731E+00  0.55805628280E+00  0.90007788163E+02  0.90000050166E+02 0.  0.
         12    1    1    2    0    0  0.56268509311E+00 -0.87456197731E+00 -0.55805628280E+00  0.11802118373E+01  0.00000000000E+00 0. -1.
         11    1    3    3    0    0  0.37638246629E+01 -0.31794984511E+02  0.18668109962E+02  0.37061917732E+02  0.51100000000E-03 0. -1.
        -11    1    3    3    0    0 -0.13295221661E+01 -0.17363050523E+01  0.88604443448E+01  0.91263277759E+01  0.51100000000E-03 0.  1.
        -12    1    3    3    0    0 -0.29969875899E+01  0.34405851541E+02 -0.26970498024E+02  0.43819542655E+02  0.00000000000E+00 0.  1.
</event>
<event>
 7    1  0.4119305E-015  0.9000776E+02  0.7816164E-02  0.1186339E+00
        -11   -1    0    0    0    0  0.00000000000E+00  0.00000000000E+00  0.45593999997E+02  0.45594000000E+02  0.51100000000E-03 0. -1.
         11   -1    0    0    0    0 -0.00000000000E+00 -0.00000000000E+00 -0.45593999997E+02  0.45594000000E+02  0.51100000000E-03 0.  1.
    9900012    2    1    2    0    0  0.23735318725E+00 -0.18377143218E+00 -0.11414304656E+01  0.90007757659E+02  0.90000019260E+02 0.  0.
         12    1    1    2    0    0 -0.23735318725E+00  0.18377143218E+00  0.11414304656E+01  0.11802423406E+01  0.00000000000E+00 0. -1.
         11    1    3    3    0    0  0.12233439164E+02  0.33046342784E+01 -0.22482734572E+02  0.25807963802E+02  0.51100000000E-03 0. -1.
        -11    1    3    3    0    0 -0.26171757499E+02 -0.22906094011E+02  0.50173353228E+01  0.35140058159E+02  0.51100000000E-03 0.  1.
         12    1    3    3    0    0  0.14175671522E+02  0.19417688300E+02  0.16323968784E+02  0.29059735699E+02  0.00000000000E+00 0. -1.
</event>
<event>
 7    1  0.4119305E-015  0.9000772E+02  0.7816164E-02  0.1186339E+00
        -11   -1    0    0    0    0  0.00000000000E+00  0.00000000000E+00  0.45593999997E+02  0.45594000000E+02  0.51100000000E-03 0.  1.
         11   -1    0    0    0    0 -0.00000000000E+00 -0.00000000000E+00 -0.45593999997E+02  0.45594000000E+02  0.51100000000E-03 0. -1.
    9900012    2    1    2    0    0  0.99776956058E-01  0.11285477146E+01  0.33087827350E+00  0.90007722144E+02  0.89999983276E+02 0.  0.
         12    1    1    2    0    0 -0.99776956058E-01 -0.11285477146E+01 -0.33087827350E+00  0.11802778559E+01  0.00000000000E+00 0. -1.
         11    1    3    3    0    0 -0.11391059874E+02 -0.27785079026E+02 -0.25622143362E+02  0.39474815924E+02  0.51100000000E-03 0. -1.
        -11    1    3    3    0    0 -0.64378674255E+01  0.62686500204E+01 -0.31581031445E+01  0.95244803427E+01  0.51100000000E-03 0.  1.
        -12    1    3    3    0    0  0.17928704256E+02  0.22644976720E+02  0.29111124780E+02  0.41008425877E+02  0.00000000000E+00 0.  1.
</event>
<event>
 7    1  0.4119305E-015  0.9000794E+02  0.7816164E-02  0.1186339E+00
        -11   -1    0    0    0    0  0.00000000000E+00  0.00000000000E+00  0.45593999997E+02  0.45594000000E+02  0.51100000000E-03 0.  1.
         11   -1    0    0    0    0 -0.00000000000E+00 -0.00000000000E+00 -0.45593999997E+02  0.45594000000E+02  0.51100000000E-03 0. -1.
    9900012    2    1    2    0    0  0.91071071682E+00  0.66282022234E+00 -0.35186821414E+00  0.90007942418E+02  0.90000206458E+02 0.  0.
         12    1    1    2    0    0 -0.91071071682E+00 -0.66282022234E+00  0.35186821414E+00  0.11800575821E+01  0.00000000000E+00 0. -1.
         11    1    3    3    0    0  0.49224885426E+01  0.37893424648E+01 -0.59548912160E+01  0.86052739307E+01  0.51100000000E-03 0. -1.
        -11    1    3    3    0    0  0.34644226161E+02 -0.35682368593E+01  0.19986691316E+02  0.40154981641E+02  0.51100000000E-03 0.  1.
         12    1    3    3    0    0 -0.38656003986E+02  0.44171461680E+00 -0.14383668314E+02  0.41247686846E+02  0.00000000000E+00 0. -1.
</event>
<event>
 7    1  0.4119305E-015  0.9000764E+02  0.7816164E-02  0.1186339E+00
        -11   -1    0    0    0    0  0.00000000000E+00  0.00000000000E+00  0.45593999997E+02  0.45594000000E+02  0.51100000000E-03 0. -1.
         11   -1    0    0    0    0 -0.00000000000E+00 -0.00000000000E+00 -0.45593999997E+02  0.45594000000E+02  0.51100000000E-03 0.  1.
    9900012    2    1    2    0    0 -0.85091051456E+00 -0.35197837251E+00 -0.73844657891E+00  0.90007643771E+02  0.89999903868E+02 0.  0.
         12    1    1    2    0    0  0.85091051456E+00  0.35197837251E+00  0.73844657891E+00  0.11803562295E+01  0.00000000000E+00 0. -1.
         11    1    3    3    0    0  0.41895356260E+01  0.96269368346E+01 -0.32869159806E+01  0.11001542551E+02  0.51100000000E-03 0. -1.
        -11    1    3    3    0    0 -0.11519900254E+02  0.28118841613E+02 -0.17917747818E+02  0.35276380804E+02  0.51100000000E-03 0.  1.
         12    1    3    3    0    0  0.64794541131E+01 -0.38097756820E+02  0.20466217219E+02  0.43729720415E+02  0.00000000000E+00 0. -1.
</event>
<event>
 7    1  0.4119305E-015  0.9000681E+02  0.7816164E-02  0.1186341E+00
        -11   -1    0    0    0    0  0.00000000000E+00  0.00000000000E+00  0.45593999997E+02  0.45594000000E+02  0.51100000000E-03 0. -1.
         11   -1    0    0    0    0 -0.00000000000E+00 -0.00000000000E+00 -0.45593999997E+02  0.45594000000E+02  0.51100000000E-03 0.  1.
    9900012    2    1    2    0    0 -0.54507396295E+00 -0.96398477171E+00 -0.41091021979E+00  0.90006805912E+02  0.89999054945E+02 0.  0.
         12    1    1    2    0    0  0.54507396295E+00  0.96398477171E+00  0.41091021979E+00  0.11811940882E+01  0.00000000000E+00 0. -1.
         11    1    3    3    0    0  0.54427267164E+01  0.71327960188E+01 -0.35235300766E+01  0.96392591841E+01  0.51100000000E-03 0. -1.
        -11    1    3    3    0    0 -0.22698376966E+01  0.35383814809E+02  0.83173032864E+01  0.36419006684E+02  0.51100000000E-03 0.  1.
         12    1    3    3    0    0 -0.37179629827E+01 -0.43480595599E+02 -0.52046834295E+01  0.43948540044E+02  0.00000000000E+00 0. -1.
</event>
<event>
 7    1  0.4119305E-015  0.9000845E+02  0.7816164E-02  0.1186338E+00
        -11   -1    0    0    0    0  0.00000000000E+00  0.00000000000E+00  0.45593999997E+02  0.45594000000E+02  0.51100000000E-03 0.  1.
         11   -1    0    0    0    0 -0.00000000000E+00 -0.00000000000E+00 -0.45593999997E+02  0.45594000000E+02  0.51100000000E-03 0. -1.
    9900012    2    1    2    0    0  0.54554791898E+00  0.98227832145E+00  0.35896609406E+00  0.90008445046E+02  0.90000715718E+02 0.  0.
         12    1    1    2    0    0 -0.54554791898E+00 -0.98227832145E+00 -0.35896609406E+00  0.11795549539E+01  0.00000000000E+00 0. -1.
         11    1    3    3    0    0 -0.85417673378E+01  0.11670121188E+01 -0.35228221463E+01  0.93131081103E+01  0.51100000000E-03 0. -1.
        -11    1    3    3    0    0 -0.17189092190E+02  0.19798184782E+02  0.29088204700E+02  0.39160651985E+02  0.51100000000E-03 0.  1.
         12    1    3    3    0    0  0.26276407447E+02 -0.19982918579E+02 -0.25206416460E+02  0.41534684951E+02  0.00000000000E+00 0. -1.
</event>
<event>
 7    1  0.4119305E-015  0.9000770E+02  0.7816164E-02  0.1186339E+00
        -11   -1    0    0    0    0  0.00000000000E+00  0.00000000000E+00  0.45593999997E+02  0.45594000000E+02  0.51100000000E-03 0.  1.
         11   -1    0    0    0    0 -0.00000000000E+00 -0.00000000000E+00 -0.45593999997E+02  0.45594000000E+02  0.51100000000E-03 0. -1.
    9900012    2    1    2    0    0 -0.49950713525E+00  0.96414842235E+00 -0.46263061590E+00  0.90007696376E+02  0.89999957168E+02 0.  0.
         12    1    1    2    0    0  0.49950713525E+00 -0.96414842235E+00  0.46263061590E+00  0.11803036242E+01  0.00000000000E+00 0. -1.
         11    1    3    3    0    0 -0.84709964272E-01 -0.41253993442E+01  0.83831848189E+01  0.93436547184E+01  0.51100000000E-03 0. -1.
        -11    1    3    3    0    0 -0.21482658115E+02  0.21949987476E+02  0.23404106600E+02  0.38614229967E+02  0.51100000000E-03 0.  1.
         12    1    3    3    0    0  0.21067860944E+02 -0.16860439710E+02 -0.32249922035E+02  0.42049811691E+02  0.00000000000E+00 0. -1.
</event>
<event>
 7    1  0.4119305E-015  0.9000776E+02  0.7816164E-02  0.1186339E+00
        -11   -1    0    0    0    0  0.00000000000E+00  0.00000000000E+00  0.45593999997E+02  0.45594000000E+02  0.51100000000E-03 0. -1.
         11   -1    0    0    0    0 -0.00000000000E+00 -0.00000000000E+00 -0.45593999997E+02  0.45594000000E+02  0.51100000000E-03 0.  1.
    9900012    2    1    2    0    0 -0.34343119288E+00  0.10430238143E+01 -0.43257708630E+00  0.90007759941E+02  0.90000021572E+02 0.  0.
         12    1    1    2    0    0  0.34343119288E+00 -0.10430238143E+01  0.43257708630E+00  0.11802400591E+01  0.00000000000E+00 0. -1.
         11    1    3    3    0    0  0.10937370943E+02 -0.45628292777E+01 -0.41389398311E+01  0.12552940585E+02  0.51100000000E-03 0. -1.
        -11    1    3    3    0    0  0.25722449975E+02  0.23545027752E+02  0.89441754391E+01  0.36000153321E+02  0.51100000000E-03 0.  1.
         12    1    3    3    0    0 -0.37003252111E+02 -0.17939174660E+02 -0.52378126943E+01  0.41454666035E+02  0.00000000000E+00 0. -1.
</event>
<event>
 7    1  0.4119305E-015  0.9000776E+02  0.7816164E-02  0.1186339E+00
        -11   -1    0    0    0    0  0.00000000000E+00  0.00000000000E+00  0.45593999997E+02  0.45594000000E+02  0.51100000000E-03 0. -1.
         11   -1    0    0    0    0 -0.00000000000E+00 -0.00000000000E+00 -0.45593999997E+02  0.45594000000E+02  0.51100000000E-03 0.  1.
    9900012    2    1    2    0    0 -0.49500587040E+00  0.84811322264E+00 -0.65471438635E+00  0.90007755204E+02  0.90000016773E+02 0.  0.
         12    1    1    2    0    0  0.49500587040E+00 -0.84811322264E+00  0.65471438635E+00  0.11802447957E+01  0.00000000000E+00 0. -1.
         11    1    3    3    0    0 -0.17657670010E+00 -0.37410011639E+01  0.10231010819E+02  0.10894946153E+02  0.51100000000E-03 0. -1.
        -11    1    3    3    0    0 -0.21018741090E+02 -0.30136550213E+02 -0.12052378832E+02  0.38668578608E+02  0.51100000000E-03 0.  1.
         12    1    3    3    0    0  0.20700311920E+02  0.34725664600E+02  0.11666536275E+01  0.40444230444E+02  0.00000000000E+00 0. -1.
</event>
<event>
 7    1  0.4119305E-015  0.9000776E+02  0.7816164E-02  0.1186339E+00
        -11   -1    0    0    0    0  0.00000000000E+00  0.00000000000E+00  0.45593999997E+02  0.45594000000E+02  0.51100000000E-03 0.  1.
         11   -1    0    0    0    0 -0.00000000000E+00 -0.00000000000E+00 -0.45593999997E+02  0.45594000000E+02  0.51100000000E-03 0. -1.
    9900012    2    1    2    0    0  0.40248606276E+00  0.50764350484E+00  0.98654710830E+00  0.90007757586E+02  0.90000019186E+02 0.  0.
         12    1    1    2    0    0 -0.40248606276E+00 -0.50764350484E+00 -0.98654710830E+00  0.11802424139E+01  0.00000000000E+00 0. -1.
         11    1    3    3    0    0 -0.14862161491E+02 -0.67689966274E+01  0.48197909842E+00  0.16338159738E+02  0.51100000000E-03 0. -1.
        -11    1    3    3    0    0  0.20966699335E+02  0.43458889093E+01  0.33663608227E+02  0.39896462883E+02  0.51100000000E-03 0.  1.
         12    1    3    3    0    0 -0.57020517820E+01  0.29307512229E+01 -0.33159040217E+02  0.33773134965E+02  0.00000000000E+00 0. -1.
</event>
<event>
 7    1  0.4119305E-015  0.9000776E+02  0.7816164E-02  0.1186339E+00
        -11   -1    0    0    0    0  0.00000000000E+00  0.00000000000E+00  0.45593999997E+02  0.45594000000E+02  0.51100000000E-03 0.  1.
         11   -1    0    0    0    0 -0.00000000000E+00 -0.00000000000E+00 -0.45593999997E+02  0.45594000000E+02  0.51100000000E-03 0. -1.
    9900012    2    1    2    0    0  0.71046242186E+00  0.93414730239E+00 -0.12477397719E+00  0.90007764184E+02  0.90000025871E+02 0.  0.
         12    1    1    2    0    0 -0.71046242186E+00 -0.93414730239E+00  0.12477397719E+00  0.11802358158E+01  0.00000000000E+00 0. -1.
         11    1    3    3    0    0  0.17094582726E+01  0.83869592384E+00  0.12002482880E+02  0.12152582194E+02  0.51100000000E-03 0. -1.
        -11    1    3    3    0    0  0.34889190244E+02 -0.14239065556E+02 -0.10746878167E+02  0.39185481678E+02  0.51100000000E-03 0.  1.
         12    1    3    3    0    0 -0.35888186094E+02  0.14334516935E+02 -0.13803786903E+01  0.38669700312E+02  0.00000000000E+00 0. -1.
</event>
<event>
 7    1  0.4119305E-015  0.9000771E+02  0.7816164E-02  0.1186339E+00
        -11   -1    0    0    0    0  0.00000000000E+00  0.00000000000E+00  0.45593999997E+02  0.45594000000E+02  0.51100000000E-03 0.  1.
         11   -1    0    0    0    0 -0.00000000000E+00 -0.00000000000E+00 -0.45593999997E+02  0.45594000000E+02  0.51100000000E-03 0. -1.
    9900012    2    1    2    0    0 -0.10955587258E+01 -0.27211998482E+00  0.34464104979E+00  0.90007713738E+02  0.89999974759E+02 0.  0.
         12    1    1    2    0    0  0.10955587258E+01  0.27211998482E+00 -0.34464104979E+00  0.11802862624E+01  0.00000000000E+00 0. -1.
         11    1    3    3    0    0  0.18989593227E+02 -0.39256455182E+01 -0.38000922088E+02  0.42662459182E+02  0.51100000000E-03 0. -1.
        -11    1    3    3    0    0 -0.10165038491E+02  0.15042402840E+01  0.31987333307E+01  0.10762092805E+02  0.51100000000E-03 0.  1.
        -12    1    3    3    0    0 -0.99201134612E+01  0.21492852494E+01  0.35146829807E+02  0.36583161751E+02  0.00000000000E+00 0.  1.
</event>
<event>
 7    1  0.4119305E-015  0.9000775E+02  0.7816164E-02  0.1186339E+00
        -11   -1    0    0    0    0  0.00000000000E+00  0.00000000000E+00  0.45593999997E+02  0.45594000000E+02  0.51100000000E-03 0.  1.
         11   -1    0    0    0    0 -0.00000000000E+00 -0.00000000000E+00 -0.45593999997E+02  0.45594000000E+02  0.51100000000E-03 0. -1.
    9900012    2    1    2    0    0  0.11456998688E+01  0.14759573438E+00  0.24203313176E+00  0.90007748871E+02  0.90000010356E+02 0.  0.
         12    1    1    2    0    0 -0.11456998688E+01 -0.14759573438E+00 -0.24203313176E+00  0.11802511288E+01  0.00000000000E+00 0. -1.
         11    1    3    3    0    0 -0.13058670727E+02 -0.43909105634E+01 -0.81777954746E+01  0.16021401805E+02  0.51100000000E-03 0. -1.
        -11    1    3    3    0    0 -0.12771576599E+02 -0.20370451187E+02  0.24117068561E+02  0.34054389535E+02  0.51100000000E-03 0.  1.
         12    1    3    3    0    0  0.26975947194E+02  0.24908957485E+02 -0.15697239955E+02  0.39931957530E+02  0.00000000000E+00 0. -1.
</event>
<event>
 7    1  0.4119305E-015  0.9000772E+02  0.7816164E-02  0.1186339E+00
        -11   -1    0    0    0    0  0.00000000000E+00  0.00000000000E+00  0.45593999997E+02  0.45594000000E+02  0.51100000000E-03 0.  1.
         11   -1    0    0    0    0 -0.00000000000E+00 -0.00000000000E+00 -0.45593999997E+02  0.45594000000E+02  0.51100000000E-03 0. -1.
    9900012    2    1    2    0    0  0.90467750009E+00 -0.73092032850E+00  0.20090874808E+00  0.90007724511E+02  0.89999985674E+02 0.  0.
         12    1    1    2    0    0 -0.90467750009E+00  0.73092032850E+00 -0.20090874808E+00  0.11802754894E+01  0.00000000000E+00 0. -1.
         11    1    3    3    0    0  0.20871863762E+02  0.10066320161E+01 -0.30796881007E+02  0.37216876346E+02  0.51100000000E-03 0. -1.
        -11    1    3    3    0    0  0.99687485537E+01 -0.17609351640E+01  0.62092062417E+00  0.10142109399E+02  0.51100000000E-03 0.  1.
        -12    1    3    3    0    0 -0.29935934816E+02  0.23382819362E-01  0.30376869131E+02  0.42648738765E+02  0.00000000000E+00 0.  1.
</event>
<event>
 7    1  0.4119305E-015  0.9000772E+02  0.7816164E-02  0.1186339E+00
        -11   -1    0    0    0    0  0.00000000000E+00  0.00000000000E+00  0.45593999997E+02  0.45594000000E+02  0.51100000000E-03 0.  1.
         11   -1    0    0    0    0 -0.00000000000E+00 -0.00000000000E+00 -0.45593999997E+02  0.45594000000E+02  0.51100000000E-03 0. -1.
    9900012    2    1    2    0    0 -0.98188487445E+00  0.37846828299E+00  0.53452743914E+00  0.90007722181E+02  0.89999983313E+02 0.  0.
         12    1    1    2    0    0  0.98188487445E+00 -0.37846828299E+00 -0.53452743914E+00  0.11802778195E+01  0.00000000000E+00 0. -1.
         11    1    3    3    0    0 -0.73785050155E+01 -0.46823853268E+01  0.58064707389E+01  0.10492005114E+02  0.51100000000E-03 0. -1.
        -11    1    3    3    0    0 -0.29437884665E+02  0.53346491261E+01  0.19714807942E+02  0.35829055071E+02  0.51100000000E-03 0.  1.
         12    1    3    3    0    0  0.35834504806E+02 -0.27379551629E+00 -0.24986751241E+02  0.43686661995E+02  0.00000000000E+00 0. -1.
</event>
<event>
 7    1  0.4119305E-015  0.9000786E+02  0.7816164E-02  0.1186339E+00
        -11   -1    0    0    0    0  0.00000000000E+00  0.00000000000E+00  0.45593999997E+02  0.45594000000E+02  0.51100000000E-03 0. -1.
         11   -1    0    0    0    0 -0.00000000000E+00 -0.00000000000E+00 -0.45593999997E+02  0.45594000000E+02  0.51100000000E-03 0.  1.
    9900012    2    1    2    0    0 -0.89453311943E+00 -0.72791716592E+00 -0.25035449199E+00  0.90007860062E+02  0.90000123014E+02 0.  0.
         12    1    1    2    0    0  0.89453311943E+00  0.72791716592E+00  0.25035449199E+00  0.11801399383E+01  0.00000000000E+00 0. -1.
         11    1    3    3    0    0  0.62386185966E+01 -0.29553339187E+02  0.31142483473E+02  0.43384035039E+02  0.51100000000E-03 0. -1.
        -11    1    3    3    0    0  0.53092291559E+01  0.40475208127E+01 -0.72954593268E+01  0.98890882294E+01  0.51100000000E-03 0.  1.
        -12    1    3    3    0    0 -0.12442380872E+02  0.24777901209E+02 -0.24097378638E+02  0.36734736794E+02  0.00000000000E+00 0.  1.
</event>
<event>
 7    1  0.4119305E-015  0.9000773E+02  0.7816164E-02  0.1186339E+00
        -11   -1    0    0    0    0  0.00000000000E+00  0.00000000000E+00  0.45593999997E+02  0.45594000000E+02  0.51100000000E-03 0. -1.
         11   -1    0    0    0    0 -0.00000000000E+00 -0.00000000000E+00 -0.45593999997E+02  0.45594000000E+02  0.51100000000E-03 0.  1.
    9900012    2    1    2    0    0 -0.10663329549E+01  0.49795907883E+00  0.89468682573E-01  0.90007731446E+02  0.89999992701E+02 0.  0.
         12    1    1    2    0    0  0.10663329549E+01 -0.49795907883E+00 -0.89468682573E-01  0.11802685542E+01  0.00000000000E+00 0. -1.
         11    1    3    3    0    0  0.27734529326E+02 -0.18492840573E+02 -0.14299667711E+02  0.36272162415E+02  0.51100000000E-03 0. -1.
        -11    1    3    3    0    0  0.36796905158E+01 -0.66233115102E+01  0.93958287392E+01  0.12070210255E+02  0.51100000000E-03 0.  1.
        -12    1    3    3    0    0 -0.32480552796E+02  0.25614111162E+02  0.49933076541E+01  0.41665358775E+02  0.00000000000E+00 0.  1.
</event>
<event>
 7    1  0.4119305E-015  0.9000774E+02  0.7816164E-02  0.1186339E+00
        -11   -1    0    0    0    0  0.00000000000E+00  0.00000000000E+00  0.45593999997E+02  0.45594000000E+02  0.51100000000E-03 0.  1.
         11   -1    0    0    0    0 -0.00000000000E+00 -0.00000000000E+00 -0.45593999997E+02  0.45594000000E+02  0.51100000000E-03 0. -1.
    9900012    2    1    2    0    0 -0.33144825079E+00 -0.11008711918E+01 -0.26690091879E+00  0.90007740950E+02  0.90000002331E+02 0.  0.
         12    1    1    2    0    0  0.33144825079E+00  0.11008711918E+01  0.26690091879E+00  0.11802590497E+01  0.00000000000E+00 0. -1.
         11    1    3    3    0    0 -0.22861359336E+02 -0.14067702134E+02 -0.32721933633E+02  0.42323361574E+02  0.51100000000E-03 0. -1.
        -11    1    3    3    0    0 -0.43118591466E+01 -0.30434495616E+00  0.77120793483E+01  0.88408666593E+01  0.51100000000E-03 0.  1.
        -12    1    3    3    0    0  0.26841770232E+02  0.13271175898E+02  0.24742953366E+02  0.38843512717E+02  0.00000000000E+00 0.  1.
</event>
<event>
 7    1  0.4119305E-015  0.9000783E+02  0.7816164E-02  0.1186339E+00
        -11   -1    0    0    0    0  0.00000000000E+00  0.00000000000E+00  0.45593999997E+02  0.45594000000E+02  0.51100000000E-03 0. -1.
         11   -1    0    0    0    0 -0.00000000000E+00 -0.00000000000E+00 -0.45593999997E+02  0.45594000000E+02  0.51100000000E-03 0.  1.
    9900012    2    1    2    0    0 -0.88759317879E+00  0.58729948014E+00 -0.50995360307E+00  0.90007832636E+02  0.90000095226E+02 0.  0.
         12    1    1    2    0    0  0.88759317879E+00 -0.58729948014E+00  0.50995360307E+00  0.11801673643E+01  0.00000000000E+00 0. -1.
         11    1    3    3    0    0 -0.23115677152E+02 -0.22632866147E+02  0.20921784018E+02  0.38526642820E+02  0.51100000000E-03 0. -1.
        -11    1    3    3    0    0  0.12679502803E+02 -0.73435177634E+01 -0.85652065910E+01  0.16972324787E+02  0.51100000000E-03 0.  1.
        -12    1    3    3    0    0  0.95485811704E+01  0.30563683390E+02 -0.12866531030E+02  0.34508865028E+02  0.00000000000E+00 0.  1.
</event>
<event>
 7    1  0.4119305E-015  0.9000771E+02  0.7816164E-02  0.1186339E+00
        -11   -1    0    0    0    0  0.00000000000E+00  0.00000000000E+00  0.45593999997E+02  0.45594000000E+02  0.51100000000E-03 0.  1.
         11   -1    0    0    0    0 -0.00000000000E+00 -0.00000000000E+00 -0.45593999997E+02  0.45594000000E+02  0.51100000000E-03 0. -1.
    9900012    2    1    2    0    0  0.36114561578E+00 -0.19399675203E+00  0.11068117191E+01  0.90007706360E+02  0.89999967284E+02 0.  0.
         12    1    1    2    0    0 -0.36114561578E+00  0.19399675203E+00 -0.11068117191E+01  0.11802936402E+01  0.00000000000E+00 0. -1.
         11    1    3    3    0    0  0.37581551422E+01  0.10809012196E+01  0.90868723656E+01  0.98925895078E+01  0.51100000000E-03 0. -1.
        -11    1    3    3    0    0 -0.98007844430E+01  0.24585791109E+02  0.25888769546E+02  0.37023572072E+02  0.51100000000E-03 0.  1.
         12    1    3    3    0    0  0.64037749166E+01 -0.25860689081E+02 -0.33868830192E+02  0.43091544780E+02  0.00000000000E+00 0. -1.
</event>
<event>
 7    1  0.4119305E-015  0.9000769E+02  0.7816164E-02  0.1186339E+00
        -11   -1    0    0    0    0  0.00000000000E+00  0.00000000000E+00  0.45593999997E+02  0.45594000000E+02  0.51100000000E-03 0.  1.
         11   -1    0    0    0    0 -0.00000000000E+00 -0.00000000000E+00 -0.45593999997E+02  0.45594000000E+02  0.51100000000E-03 0. -1.
    9900012    2    1    2    0    0 -0.10415218881E+01 -0.44055041537E+00 -0.33806924048E+00  0.90007685075E+02  0.89999945718E+02 0.  0.
         12    1    1    2    0    0  0.10415218881E+01  0.44055041537E+00  0.33806924048E+00  0.11803149254E+01  0.00000000000E+00 0. -1.
         11    1    3    3    0    0 -0.62152785225E+01 -0.52539346700E+01  0.50492911440E+01  0.95775183605E+01  0.51100000000E-03 0. -1.
        -11    1    3    3    0    0 -0.78129874294E+01  0.15585552281E+02  0.33652319409E+02  0.37900274594E+02  0.51100000000E-03 0.  1.
         12    1    3    3    0    0  0.12986744064E+02 -0.10772168026E+02 -0.39039679793E+02  0.42529892120E+02  0.00000000000E+00 0. -1.
</event>
<event>
 7    1  0.4119305E-015  0.9000776E+02  0.7816164E-02  0.1186339E+00
        -11   -1    0    0    0    0  0.00000000000E+00  0.00000000000E+00  0.45593999997E+02  0.45594000000E+02  0.51100000000E-03 0. -1.
         11   -1    0    0    0    0 -0.00000000000E+00 -0.00000000000E+00 -0.45593999997E+02  0.45594000000E+02  0.51100000000E-03 0.  1.
    9900012    2    1    2    0    0 -0.38191704469E+00 -0.10899605926E+01  0.24306957451E+00  0.90007763778E+02  0.90000025459E+02 0.  0.
         12    1    1    2    0    0  0.38191704469E+00  0.10899605926E+01 -0.24306957451E+00  0.11802362224E+01  0.00000000000E+00 0. -1.
         11    1    3    3    0    0  0.35531612180E+02 -0.21026824814E+01 -0.70981273237E+01  0.36294629761E+02  0.51100000000E-03 0. -1.
        -11    1    3    3    0    0  0.84396808088E+01  0.31770289794E+00  0.36517006210E+01  0.92013077860E+01  0.51100000000E-03 0.  1.
        -12    1    3    3    0    0 -0.44353210033E+02  0.69501899084E+00  0.36894962772E+01  0.44511826231E+02  0.00000000000E+00 0.  1.
</event>
<event>
 7    1  0.4119305E-015  0.9000774E+02  0.7816164E-02  0.1186339E+00
        -11   -1    0    0    0    0  0.00000000000E+00  0.00000000000E+00  0.45593999997E+02  0.45594000000E+02  0.51100000000E-03 0. -1.
         11   -1    0    0    0    0 -0.00000000000E+00 -0.00000000000E+00 -0.45593999997E+02  0.45594000000E+02  0.51100000000E-03 0.  1.
    9900012    2    1    2    0    0 -0.92520130199E-01  0.74190592275E+00 -0.91325734049E+00  0.90007735901E+02  0.89999997215E+02 0.  0.
         12    1    1    2    0    0  0.92520130199E-01 -0.74190592275E+00  0.91325734049E+00  0.11802640987E+01  0.00000000000E+00 0. -1.
         11    1    3    3    0    0  0.40504302839E+02  0.10183340968E+02  0.47104833707E+01  0.42029604276E+02  0.51100000000E-03 0. -1.
        -11    1    3    3    0    0 -0.62998962163E+01  0.71520544036E+01 -0.16269818884E+01  0.96689009125E+01  0.51100000000E-03 0.  1.
        -12    1    3    3    0    0 -0.34296926753E+02 -0.16593489449E+02 -0.39967588228E+01  0.38309230713E+02  0.00000000000E+00 0.  1.
</event>
<event>
 7    1  0.4119305E-015  0.9000781E+02  0.7816164E-02  0.1186339E+00
        -11   -1    0    0    0    0  0.00000000000E+00  0.00000000000E+00  0.45593999997E+02  0.45594000000E+02  0.51100000000E-03 0.  1.
         11   -1    0    0    0    0 -0.00000000000E+00 -0.00000000000E+00 -0.45593999997E+02  0.45594000000E+02  0.51100000000E-03 0. -1.
    9900012    2    1    2    0    0  0.82348744053E+00 -0.10382299637E+00  0.83901094584E+00  0.90007809275E+02  0.90000071558E+02 0.  0.
         12    1    1    2    0    0 -0.82348744053E+00  0.10382299637E+00 -0.83901094584E+00  0.11801907246E+01  0.00000000000E+00 0. -1.
         11    1    3    3    0    0 -0.31184346686E+01 -0.40730304976E+01  0.53688304126E+01  0.74255338176E+01  0.51100000000E-03 0. -1.
        -11    1    3    3    0    0  0.93664897663E+01  0.19049917231E+02  0.34433746096E+02  0.40451370156E+02  0.51100000000E-03 0.  1.
         12    1    3    3    0    0 -0.54245676572E+01 -0.15080709729E+02 -0.38963565563E+02  0.42130905302E+02  0.00000000000E+00 0. -1.
</event>
<event>
 7    1  0.4119305E-015  0.9000776E+02  0.7816164E-02  0.1186339E+00
        -11   -1    0    0    0    0  0.00000000000E+00  0.00000000000E+00  0.45593999997E+02  0.45594000000E+02  0.51100000000E-03 0. -1.
         11   -1    0    0    0    0 -0.00000000000E+00 -0.00000000000E+00 -0.45593999997E+02  0.45594000000E+02  0.51100000000E-03 0.  1.
    9900012    2    1    2    0    0  0.90154057402E+00 -0.61796643695E+00 -0.44531128651E+00  0.90007762708E+02  0.90000024376E+02 0.  0.
         12    1    1    2    0    0 -0.90154057402E+00  0.61796643695E+00  0.44531128651E+00  0.11802372921E+01  0.00000000000E+00 0. -1.
         11    1    3    3    0    0  0.18749235458E+02  0.11772225639E+02  0.32861657945E+02  0.39623322550E+02  0.51100000000E-03 0. -1.
        -11    1    3    3    0    0 -0.15949621673E+02  0.49173722822E+01 -0.54946220434E+01  0.17571620681E+02  0.51100000000E-03 0.  1.
        -12    1    3    3    0    0 -0.18980732106E+01 -0.17307564359E+02 -0.27812347188E+02  0.32812819477E+02  0.00000000000E+00 0.  1.
</event>
<event>
 7    1  0.4119305E-015  0.9000772E+02  0.7816164E-02  0.1186339E+00
        -11   -1    0    0    0    0  0.00000000000E+00  0.00000000000E+00  0.45593999997E+02  0.45594000000E+02  0.51100000000E-03 0. -1.
         11   -1    0    0    0    0 -0.00000000000E+00 -0.00000000000E+00 -0.45593999997E+02  0.45594000000E+02  0.51100000000E-03 0.  1.
    9900012    2    1    2    0    0 -0.38959168942E+00 -0.29463209463E+00 -0.10744641839E+01  0.90007719085E+02  0.89999980177E+02 0.  0.
         12    1    1    2    0    0  0.38959168942E+00  0.29463209463E+00  0.10744641839E+01  0.11802809149E+01  0.00000000000E+00 0. -1.
         11    1    3    3    0    0  0.69434785522E+01  0.31169412731E+02  0.75790659561E+01  0.32820518361E+02  0.51100000000E-03 0. -1.
        -11    1    3    3    0    0  0.13011467314E+01 -0.23852315313E+01 -0.23331367603E+02  0.23489040567E+02  0.51100000000E-03 0.  1.
         12    1    3    3    0    0 -0.86342169730E+01 -0.29078813295E+02  0.14677837463E+02  0.33698160157E+02  0.00000000000E+00 0. -1.
</event>
<event>
 7    1  0.4119305E-015  0.9000776E+02  0.7816164E-02  0.1186339E+00
        -11   -1    0    0    0    0  0.00000000000E+00  0.00000000000E+00  0.45593999997E+02  0.45594000000E+02  0.51100000000E-03 0.  1.
         11   -1    0    0    0    0 -0.00000000000E+00 -0.00000000000E+00 -0.45593999997E+02  0.45594000000E+02  0.51100000000E-03 0. -1.
    9900012    2    1    2    0    0  0.29898507658E+00  0.28817513770E+00  0.11047712761E+01  0.90007764194E+02  0.90000025881E+02 0.  0.
         12    1    1    2    0    0 -0.29898507658E+00 -0.28817513770E+00 -0.11047712761E+01  0.11802358063E+01  0.00000000000E+00 0. -1.
         11    1    3    3    0    0 -0.14881266827E+02 -0.94226409326E+01 -0.30948734176E+02  0.35609863969E+02  0.51100000000E-03 0. -1.
        -11    1    3    3    0    0 -0.77119694777E+01  0.47991854328E+01 -0.51488839527E+01  0.10441152248E+02  0.51100000000E-03 0.  1.
        -12    1    3    3    0    0  0.22892221381E+02  0.49116306375E+01  0.37202389405E+02  0.43956747977E+02  0.00000000000E+00 0.  1.
</event>
<event>
 7    1  0.4119305E-015  0.9000793E+02  0.7816164E-02  0.1186339E+00
        -11   -1    0    0    0    0  0.00000000000E+00  0.00000000000E+00  0.45593999997E+02  0.45594000000E+02  0.51100000000E-03 0. -1.
         11   -1    0    0    0    0 -0.00000000000E+00 -0.00000000000E+00 -0.45593999997E+02  0.45594000000E+02  0.51100000000E-03 0.  1.
    9900012    2    1    2    0    0 -0.33786977769E+00  0.10786606436E+01 -0.33898514351E+00  0.90007925554E+02  0.90000189371E+02 0.  0.
         12    1    1    2    0    0  0.33786977769E+00 -0.10786606436E+01  0.33898514351E+00  0.11800744460E+01  0.00000000000E+00 0. -1.
         11    1    3    3    0    0 -0.14876119625E+02  0.18126519219E+02  0.25548124391E+02  0.34678181818E+02  0.51100000000E-03 0. -1.
        -11    1    3    3    0    0 -0.12110743853E+02  0.19455433149E+01  0.18834664757E+01  0.12409782499E+02  0.51100000000E-03 0.  1.
         12    1    3    3    0    0  0.26648993700E+02 -0.18993401890E+02 -0.27770576010E+02  0.42919961236E+02  0.00000000000E+00 0. -1.
</event>
<event>
 7    1  0.4119305E-015  0.9000772E+02  0.7816164E-02  0.1186339E+00
        -11   -1    0    0    0    0  0.00000000000E+00  0.00000000000E+00  0.45593999997E+02  0.45594000000E+02  0.51100000000E-03 0.  1.
         11   -1    0    0    0    0 -0.00000000000E+00 -0.00000000000E+00 -0.45593999997E+02  0.45594000000E+02  0.51100000000E-03 0. -1.
    9900012    2    1    2    0    0 -0.29061539848E-01 -0.25591382854E+00  0.11518335051E+01  0.90007721692E+02  0.89999982818E+02 0.  0.
         12    1    1    2    0    0  0.29061539848E-01  0.25591382854E+00 -0.11518335051E+01  0.11802783080E+01  0.00000000000E+00 0. -1.
         11    1    3    3    0    0 -0.17034680760E+02  0.28247423283E+01 -0.32464966611E+02  0.36771368959E+02  0.51100000000E-03 0. -1.
        -11    1    3    3    0    0  0.66028752789E+01  0.84613206448E+01 -0.48291909621E+01  0.11769154371E+02  0.51100000000E-03 0.  1.
        -12    1    3    3    0    0  0.10402743941E+02 -0.11541976802E+02  0.38445991078E+02  0.41467198362E+02  0.00000000000E+00 0.  1.
</event>
<event>
 7    1  0.4119305E-015  0.9000773E+02  0.7816164E-02  0.1186339E+00
        -11   -1    0    0    0    0  0.00000000000E+00  0.00000000000E+00  0.45593999997E+02  0.45594000000E+02  0.51100000000E-03 0. -1.
         11   -1    0    0    0    0 -0.00000000000E+00 -0.00000000000E+00 -0.45593999997E+02  0.45594000000E+02  0.51100000000E-03 0.  1.
    9900012    2    1    2    0    0 -0.11681868152E+01  0.14316199797E+00 -0.88837073897E-01  0.90007725533E+02  0.89999986710E+02 0.  0.
         12    1    1    2    0    0  0.11681868152E+01 -0.14316199797E+00  0.88837073897E-01  0.11802744675E+01  0.00000000000E+00 0. -1.
         11    1    3    3    0    0  0.31542597971E+02 -0.17323944567E+02 -0.64171804846E+01  0.36554544830E+02  0.51100000000E-03 0. -1.
        -11    1    3    3    0    0  0.55752456391E+01 -0.17786717046E+01 -0.64774283498E+01  0.87294968502E+01  0.51100000000E-03 0.  1.
        -12    1    3    3    0    0 -0.38286030425E+02  0.19245778270E+02  0.12805771761E+02  0.44723683852E+02  0.00000000000E+00 0.  1.
</event>
<event>
 7    1  0.4119305E-015  0.9000775E+02  0.7816164E-02  0.1186339E+00
        -11   -1    0    0    0    0  0.00000000000E+00  0.00000000000E+00  0.45593999997E+02  0.45594000000E+02  0.51100000000E-03 0.  1.
         11   -1    0    0    0    0 -0.00000000000E+00 -0.00000000000E+00 -0.45593999997E+02  0.45594000000E+02  0.51100000000E-03 0. -1.
    9900012    2    1    2    0    0  0.29387155741E+00 -0.29926694621E-01  0.11426897267E+01  0.90007747522E+02  0.90000008990E+02 0.  0.
         12    1    1    2    0    0 -0.29387155741E+00  0.29926694621E-01 -0.11426897267E+01  0.11802524776E+01  0.00000000000E+00 0. -1.
         11    1    3    3    0    0  0.98536621841E+01  0.29421139278E+02 -0.90529895290E+01  0.32321118708E+02  0.51100000000E-03 0. -1.
        -11    1    3    3    0    0 -0.12256516681E+02  0.92931078945E+01 -0.47104993190E+01  0.16086418482E+02  0.51100000000E-03 0.  1.
        -12    1    3    3    0    0  0.26967260538E+01 -0.38744173867E+02  0.14906178575E+02  0.41600210333E+02  0.00000000000E+00 0.  1.
</event>
<event>
 7    1  0.4119305E-015  0.9000779E+02  0.7816164E-02  0.1186339E+00
        -11   -1    0    0    0    0  0.00000000000E+00  0.00000000000E+00  0.45593999997E+02  0.45594000000E+02  0.51100000000E-03 0. -1.
         11   -1    0    0    0    0 -0.00000000000E+00 -0.00000000000E+00 -0.45593999997E+02  0.45594000000E+02  0.51100000000E-03 0.  1.
    9900012    2    1    2    0    0  0.56101093919E-03  0.76789815876E+00 -0.89623053857E+00  0.90007789394E+02  0.90000051414E+02 0.  0.
         12    1    1    2    0    0 -0.56101093919E-03 -0.76789815876E+00  0.89623053857E+00  0.11802106063E+01  0.00000000000E+00 0. -1.
         11    1    3    3    0    0  0.44944213912E+01  0.28621139332E+01 -0.75713632274E+01  0.92583508894E+01  0.51100000000E-03 0. -1.
        -11    1    3    3    0    0  0.14507225405E+02  0.24961960701E+02 -0.22540878752E+02  0.36628544690E+02  0.51100000000E-03 0.  1.
         12    1    3    3    0    0 -0.19001085785E+02 -0.27056176475E+02  0.29216011440E+02  0.44120893814E+02  0.00000000000E+00 0. -1.
</event>
<event>
 7    1  0.4119305E-015  0.9000773E+02  0.7816164E-02  0.1186339E+00
        -11   -1    0    0    0    0  0.00000000000E+00  0.00000000000E+00  0.45593999997E+02  0.45594000000E+02  0.51100000000E-03 0.  1.
         11   -1    0    0    0    0 -0.00000000000E+00 -0.00000000000E+00 -0.45593999997E+02  0.45594000000E+02  0.51100000000E-03 0. -1.
    9900012    2    1    2    0    0 -0.33121393647E+00  0.38480816631E+00  0.10654845347E+01  0.90007729993E+02  0.89999991229E+02 0.  0.
         12    1    1    2    0    0  0.33121393647E+00 -0.38480816631E+00 -0.10654845347E+01  0.11802700074E+01  0.00000000000E+00 0. -1.
         11    1    3    3    0    0 -0.11413433710E+02  0.36458970171E+02  0.38098669526E+00  0.38205603334E+02  0.51100000000E-03 0. -1.
        -11    1    3    3    0    0 -0.60510871686E+01  0.16583541723E+01  0.75288540298E+01  0.98004815058E+01  0.51100000000E-03 0.  1.
        -12    1    3    3    0    0  0.17133306942E+02 -0.37732516177E+02 -0.68443561904E+01  0.42001645153E+02  0.00000000000E+00 0.  1.
</event>
<event>
 7    1  0.4119305E-015  0.9000779E+02  0.7816164E-02  0.1186339E+00
        -11   -1    0    0    0    0  0.00000000000E+00  0.00000000000E+00  0.45593999997E+02  0.45594000000E+02  0.51100000000E-03 0.  1.
         11   -1    0    0    0    0 -0.00000000000E+00 -0.00000000000E+00 -0.45593999997E+02  0.45594000000E+02  0.51100000000E-03 0. -1.
    9900012    2    1    2    0    0 -0.37961639490E+00 -0.75749109796E+00  0.82158070340E+00  0.90007789755E+02  0.90000051780E+02 0.  0.
         12    1    1    2    0    0  0.37961639490E+00  0.75749109796E+00 -0.82158070340E+00  0.11802102452E+01  0.00000000000E+00 0. -1.
         11    1    3    3    0    0  0.53832494874E+01  0.45507479706E+01  0.69706495278E+01  0.99135582530E+01  0.51100000000E-03 0. -1.
        -11    1    3    3    0    0 -0.57769496794E+01  0.33895219866E+02  0.12623364220E+02  0.36627972942E+02  0.51100000000E-03 0.  1.
         12    1    3    3    0    0  0.14083797116E-01 -0.39203458934E+02 -0.18772433045E+02  0.43466258560E+02  0.00000000000E+00 0. -1.
</event>
<event>
 7    1  0.4119305E-015  0.9000782E+02  0.7816164E-02  0.1186339E+00
        -11   -1    0    0    0    0  0.00000000000E+00  0.00000000000E+00  0.45593999997E+02  0.45594000000E+02  0.51100000000E-03 0.  1.
         11   -1    0    0    0    0 -0.00000000000E+00 -0.00000000000E+00 -0.45593999997E+02  0.45594000000E+02  0.51100000000E-03 0. -1.
    9900012    2    1    2    0    0 -0.24823609973E-01  0.10792136847E+01  0.47698560678E+00  0.90007816261E+02  0.90000078636E+02 0.  0.
         12    1    1    2    0    0  0.24823609973E-01 -0.10792136847E+01 -0.47698560678E+00  0.11801837391E+01  0.00000000000E+00 0. -1.
         11    1    3    3    0    0  0.71527580184E+01  0.85535675352E+01  0.33087256531E+00  0.11155041092E+02  0.51100000000E-03 0. -1.
        -11    1    3    3    0    0  0.25932127961E+02  0.10041986447E+02  0.22024404462E+02  0.35473809276E+02  0.51100000000E-03 0.  1.
         12    1    3    3    0    0 -0.33109709589E+02 -0.17516340297E+02 -0.21878291420E+02  0.43378965893E+02  0.00000000000E+00 0. -1.
</event>
<event>
 7    1  0.4119305E-015  0.9000736E+02  0.7816164E-02  0.1186340E+00
        -11   -1    0    0    0    0  0.00000000000E+00  0.00000000000E+00  0.45593999997E+02  0.45594000000E+02  0.51100000000E-03 0. -1.
         11   -1    0    0    0    0 -0.00000000000E+00 -0.00000000000E+00 -0.45593999997E+02  0.45594000000E+02  0.51100000000E-03 0.  1.
    9900012    2    1    2    0    0 -0.63090921124E+00  0.49898191385E+00 -0.86422885918E+00  0.90007355725E+02  0.89999612020E+02 0.  0.
         12    1    1    2    0    0  0.63090921124E+00 -0.49898191385E+00  0.86422885918E+00  0.11806442751E+01  0.00000000000E+00 0. -1.
         11    1    3    3    0    0 -0.13591762057E+01  0.50161217557E+01 -0.10889668057E+01  0.53098668901E+01  0.51100000000E-03 0. -1.
        -11    1    3    3    0    0  0.26609781915E+02 -0.32608035068E+02 -0.13360437550E+02  0.44157284069E+02  0.51100000000E-03 0.  1.
         12    1    3    3    0    0 -0.25881514921E+02  0.28090895226E+02  0.13585175497E+02  0.40540204766E+02  0.00000000000E+00 0. -1.
</event>
<event>
 7    1  0.4119305E-015  0.9000768E+02  0.7816164E-02  0.1186339E+00
        -11   -1    0    0    0    0  0.00000000000E+00  0.00000000000E+00  0.45593999997E+02  0.45594000000E+02  0.51100000000E-03 0.  1.
         11   -1    0    0    0    0 -0.00000000000E+00 -0.00000000000E+00 -0.45593999997E+02  0.45594000000E+02  0.51100000000E-03 0. -1.
    9900012    2    1    2    0    0 -0.12342331594E+00 -0.49623856138E+00  0.10638046841E+01  0.90007675286E+02  0.89999935800E+02 0.  0.
         12    1    1    2    0    0  0.12342331594E+00  0.49623856138E+00 -0.10638046841E+01  0.11803247140E+01  0.00000000000E+00 0. -1.
         11    1    3    3    0    0 -0.29909431919E+02 -0.29649300463E+02 -0.13303687565E+02  0.44166086976E+02  0.51100000000E-03 0. -1.
        -11    1    3    3    0    0  0.82937833418E+01  0.73682875520E+01 -0.17872891564E+01  0.11237121800E+02  0.51100000000E-03 0.  1.
        -12    1    3    3    0    0  0.21492225261E+02  0.21784774350E+02  0.16154781405E+02  0.34604466510E+02  0.00000000000E+00 0.  1.
</event>
<event>
 7    1  0.4119305E-015  0.9000774E+02  0.7816164E-02  0.1186339E+00
        -11   -1    0    0    0    0  0.00000000000E+00  0.00000000000E+00  0.45593999997E+02  0.45594000000E+02  0.51100000000E-03 0.  1.
         11   -1    0    0    0    0 -0.00000000000E+00 -0.00000000000E+00 -0.45593999997E+02  0.45594000000E+02  0.51100000000E-03 0. -1.
    9900012    2    1    2    0    0 -0.71298012111E+00 -0.78710284942E+00  0.51492783554E+00  0.90007736375E+02  0.89999997695E+02 0.  0.
         12    1    1    2    0    0  0.71298012111E+00  0.78710284942E+00 -0.51492783554E+00  0.11802636250E+01  0.00000000000E+00 0. -1.
         11    1    3    3    0    0  0.15613560805E+01  0.91854037713E+01 -0.25608181570E+01  0.96626738093E+01  0.51100000000E-03 0. -1.
        -11    1    3    3    0    0  0.32807917295E+02 -0.64184856687E+01  0.22298204542E+02  0.40184155106E+02  0.51100000000E-03 0.  1.
         12    1    3    3    0    0 -0.35082253496E+02 -0.35540209519E+01 -0.19222458550E+02  0.40160907460E+02  0.00000000000E+00 0. -1.
</event>
<event>
 7    1  0.4119305E-015  0.9000778E+02  0.7816164E-02  0.1186339E+00
        -11   -1    0    0    0    0  0.00000000000E+00  0.00000000000E+00  0.45593999997E+02  0.45594000000E+02  0.51100000000E-03 0.  1.
         11   -1    0    0    0    0 -0.00000000000E+00 -0.00000000000E+00 -0.45593999997E+02  0.45594000000E+02  0.51100000000E-03 0. -1.
    9900012    2    1    2    0    0 -0.98119593435E+00 -0.26248644725E+00 -0.60105464167E+00  0.90007783376E+02  0.90000045317E+02 0.  0.
         12    1    1    2    0    0  0.98119593435E+00  0.26248644725E+00  0.60105464167E+00  0.11802166237E+01  0.00000000000E+00 0. -1.
         11    1    3    3    0    0 -0.31641556864E+02 -0.30522828276E+02 -0.23396856353E+01  0.44026188751E+02  0.51100000000E-03 0. -1.
        -11    1    3    3    0    0  0.65814168615E+01  0.48620977520E+01  0.67745243751E+01  0.10623051502E+02  0.51100000000E-03 0.  1.
        -12    1    3    3    0    0  0.24078944069E+02  0.25398244077E+02 -0.50358933815E+01  0.35358543123E+02  0.00000000000E+00 0.  1.
</event>
<event>
 7    1  0.4119305E-015  0.9000780E+02  0.7816164E-02  0.1186339E+00
        -11   -1    0    0    0    0  0.00000000000E+00  0.00000000000E+00  0.45593999997E+02  0.45594000000E+02  0.51100000000E-03 0. -1.
         11   -1    0    0    0    0 -0.00000000000E+00 -0.00000000000E+00 -0.45593999997E+02  0.45594000000E+02  0.51100000000E-03 0.  1.
    9900012    2    1    2    0    0 -0.34743281265E+00  0.99109795442E+00 -0.53841110041E+00  0.90007800344E+02  0.90000062509E+02 0.  0.
         12    1    1    2    0    0  0.34743281265E+00 -0.99109795442E+00  0.53841110041E+00  0.11801996558E+01  0.00000000000E+00 0. -1.
         11    1    3    3    0    0  0.75305620489E+01 -0.37779202953E+01  0.11858698281E+01  0.85081334051E+01  0.51100000000E-03 0. -1.
        -11    1    3    3    0    0 -0.13307376319E+02 -0.14119293155E+02 -0.36624510416E+02  0.41446296182E+02  0.51100000000E-03 0.  1.
         12    1    3    3    0    0  0.54293814573E+01  0.18888311405E+02  0.34900229488E+02  0.40053370757E+02  0.00000000000E+00 0. -1.
</event>
<event>
 7    1  0.4119305E-015  0.9000775E+02  0.7816164E-02  0.1186339E+00
        -11   -1    0    0    0    0  0.00000000000E+00  0.00000000000E+00  0.45593999997E+02  0.45594000000E+02  0.51100000000E-03 0.  1.
         11   -1    0    0    0    0 -0.00000000000E+00 -0.00000000000E+00 -0.45593999997E+02  0.45594000000E+02  0.51100000000E-03 0. -1.
    9900012    2    1    2    0    0  0.14349837093E+00 -0.55687939689E+00  0.10306730351E+01  0.90007748607E+02  0.90000010089E+02 0.  0.
         12    1    1    2    0    0 -0.14349837093E+00  0.55687939689E+00 -0.10306730351E+01  0.11802513929E+01  0.00000000000E+00 0. -1.
         11    1    3    3    0    0 -0.12640867772E+02 -0.31403306001E+01  0.92030673672E+01  0.15948343598E+02  0.51100000000E-03 0. -1.
        -11    1    3    3    0    0 -0.20900077494E+02  0.24777809211E+02  0.19364454058E+01  0.32473110255E+02  0.51100000000E-03 0.  1.
         12    1    3    3    0    0  0.33684443637E+02 -0.22194358008E+02 -0.10108839738E+02  0.41586294754E+02  0.00000000000E+00 0. -1.
</event>
<event>
 7    1  0.4119305E-015  0.9000773E+02  0.7816164E-02  0.1186339E+00
        -11   -1    0    0    0    0  0.00000000000E+00  0.00000000000E+00  0.45593999997E+02  0.45594000000E+02  0.51100000000E-03 0. -1.
         11   -1    0    0    0    0 -0.00000000000E+00 -0.00000000000E+00 -0.45593999997E+02  0.45594000000E+02  0.51100000000E-03 0.  1.
    9900012    2    1    2    0    0  0.33802446469E+00  0.11307897441E+01  0.97943484016E-02  0.90007728034E+02  0.89999989244E+02 0.  0.
         12    1    1    2    0    0 -0.33802446469E+00 -0.11307897441E+01 -0.97943484016E-02  0.11802719659E+01  0.00000000000E+00 0. -1.
         11    1    3    3    0    0 -0.11991824195E+01  0.36538166190E+02 -0.16921167498E+01  0.36596979197E+02  0.51100000000E-03 0. -1.
        -11    1    3    3    0    0 -0.42817107155E+01  0.75495291386E+01 -0.42342206277E+01  0.96569695791E+01  0.51100000000E-03 0.  1.
        -12    1    3    3    0    0  0.58189175997E+01 -0.42956905585E+02  0.59361317259E+01  0.43753779258E+02  0.00000000000E+00 0.  1.
</event>
<event>
 7    1  0.4119305E-015  0.9000778E+02  0.7816164E-02  0.1186339E+00
        -11   -1    0    0    0    0  0.00000000000E+00  0.00000000000E+00  0.45593999997E+02  0.45594000000E+02  0.51100000000E-03 0.  1.
         11   -1    0    0    0    0 -0.00000000000E+00 -0.00000000000E+00 -0.45593999997E+02  0.45594000000E+02  0.51100000000E-03 0. -1.
    9900012    2    1    2    0    0  0.30654639014E+00  0.78514331975E+00  0.82613585165E+00  0.90007779187E+02  0.90000041072E+02 0.  0.
         12    1    1    2    0    0 -0.30654639014E+00 -0.78514331975E+00 -0.82613585165E+00  0.11802208129E+01  0.00000000000E+00 0. -1.
         11    1    3    3    0    0  0.11227228910E+01  0.25861651294E+00  0.96417812406E+01  0.97103725440E+01  0.51100000000E-03 0. -1.
        -11    1    3    3    0    0  0.27793927485E+02 -0.23295112149E+02 -0.20012987353E+02  0.41420819863E+02  0.51100000000E-03 0.  1.
         12    1    3    3    0    0 -0.28610103985E+02  0.23821638956E+02  0.11197341964E+02  0.38876586780E+02  0.00000000000E+00 0. -1.
</event>
<event>
 7    1  0.4119305E-015  0.9000776E+02  0.7816164E-02  0.1186339E+00
        -11   -1    0    0    0    0  0.00000000000E+00  0.00000000000E+00  0.45593999997E+02  0.45594000000E+02  0.51100000000E-03 0.  1.
         11   -1    0    0    0    0 -0.00000000000E+00 -0.00000000000E+00 -0.45593999997E+02  0.45594000000E+02  0.51100000000E-03 0. -1.
    9900012    2    1    2    0    0  0.77508121080E-01  0.11740956798E+01  0.91985149038E-01  0.90007758736E+02  0.90000020351E+02 0.  0.
         12    1    1    2    0    0 -0.77508121080E-01 -0.11740956798E+01 -0.91985149038E-01  0.11802412642E+01  0.00000000000E+00 0. -1.
         11    1    3    3    0    0 -0.14836159427E+02  0.21891337371E+02 -0.12874990737E+02  0.29412712646E+02  0.51100000000E-03 0. -1.
        -11    1    3    3    0    0  0.12941474709E+02  0.25054965478E+01  0.29304535927E+02  0.32132773095E+02  0.51100000000E-03 0.  1.
         12    1    3    3    0    0  0.19721928397E+01 -0.23222738239E+02 -0.16337560042E+02  0.28462272995E+02  0.00000000000E+00 0. -1.
</event>
<event>
 7    1  0.4119305E-015  0.9000774E+02  0.7816164E-02  0.1186339E+00
        -11   -1    0    0    0    0  0.00000000000E+00  0.00000000000E+00  0.45593999997E+02  0.45594000000E+02  0.51100000000E-03 0. -1.
         11   -1    0    0    0    0 -0.00000000000E+00 -0.00000000000E+00 -0.45593999997E+02  0.45594000000E+02  0.51100000000E-03 0.  1.
    9900012    2    1    2    0    0 -0.57683760108E+00  0.10295013186E+01 -0.19725154459E-01  0.90007744238E+02  0.90000005661E+02 0.  0.
         12    1    1    2    0    0  0.57683760108E+00 -0.10295013186E+01  0.19725154459E-01  0.11802557625E+01  0.00000000000E+00 0. -1.
         11    1    3    3    0    0  0.45451915035E+01  0.43921110690E+01  0.67956883728E+01  0.92806673342E+01  0.51100000000E-03 0. -1.
        -11    1    3    3    0    0  0.24957731664E+01 -0.41426252710E+02 -0.57152140674E+01  0.41893042016E+02  0.51100000000E-03 0.  1.
         12    1    3    3    0    0 -0.76178022709E+01  0.38063642959E+02 -0.11001994599E+01  0.38834034887E+02  0.00000000000E+00 0. -1.
</event>
<event>
 7    1  0.4119305E-015  0.9000740E+02  0.7816164E-02  0.1186340E+00
        -11   -1    0    0    0    0  0.00000000000E+00  0.00000000000E+00  0.45593999997E+02  0.45594000000E+02  0.51100000000E-03 0.  1.
         11   -1    0    0    0    0 -0.00000000000E+00 -0.00000000000E+00 -0.45593999997E+02  0.45594000000E+02  0.51100000000E-03 0. -1.
    9900012    2    1    2    0    0  0.18421453365E+00 -0.11304269442E+01  0.28636626920E+00  0.90007404510E+02  0.89999661449E+02 0.  0.
         12    1    1    2    0    0 -0.18421453365E+00  0.11304269442E+01 -0.28636626920E+00  0.11805954899E+01  0.00000000000E+00 0. -1.
         11    1    3    3    0    0  0.25145029008E+02  0.11283813862E+02 -0.27143512074E+02  0.38682905617E+02  0.51100000000E-03 0. -1.
        -11    1    3    3    0    0 -0.11985193232E+02 -0.17968214046E+01 -0.62990427405E+01  0.13658380712E+02  0.51100000000E-03 0.  1.
        -12    1    3    3    0    0 -0.12975621242E+02 -0.10617419401E+02  0.33728921083E+02  0.37666118181E+02  0.00000000000E+00 0.  1.
</event>
<event>
 7    1  0.4119305E-015  0.9000774E+02  0.7816164E-02  0.1186339E+00
        -11   -1    0    0    0    0  0.00000000000E+00  0.00000000000E+00  0.45593999997E+02  0.45594000000E+02  0.51100000000E-03 0. -1.
         11   -1    0    0    0    0 -0.00000000000E+00 -0.00000000000E+00 -0.45593999997E+02  0.45594000000E+02  0.51100000000E-03 0.  1.
    9900012    2    1    2    0    0  0.11849865382E+00 -0.31399731462E+00 -0.11315349570E+01  0.90007742569E+02  0.90000003971E+02 0.  0.
         12    1    1    2    0    0 -0.11849865382E+00  0.31399731462E+00  0.11315349570E+01  0.11802574311E+01  0.00000000000E+00 0. -1.
         11    1    3    3    0    0  0.39296833499E+01  0.22428113908E+01 -0.77434284196E+01  0.89684613014E+01  0.51100000000E-03 0. -1.
        -11    1    3    3    0    0  0.39374540385E+01  0.36884824171E+02 -0.85711466087E+01  0.38071752690E+02  0.51100000000E-03 0.  1.
         12    1    3    3    0    0 -0.77486387345E+01 -0.39441632877E+02  0.15183040071E+02  0.42967528577E+02  0.00000000000E+00 0. -1.
</event>
<event>
 7    1  0.4119305E-015  0.9000769E+02  0.7816164E-02  0.1186339E+00
        -11   -1    0    0    0    0  0.00000000000E+00  0.00000000000E+00  0.45593999997E+02  0.45594000000E+02  0.51100000000E-03 0.  1.
         11   -1    0    0    0    0 -0.00000000000E+00 -0.00000000000E+00 -0.45593999997E+02  0.45594000000E+02  0.51100000000E-03 0. -1.
    9900012    2    1    2    0    0  0.10991250416E+00  0.59000161902E+00  0.10163379283E+01  0.90007692644E+02  0.89999953387E+02 0.  0.
         12    1    1    2    0    0 -0.10991250416E+00 -0.59000161902E+00 -0.10163379283E+01  0.11803073555E+01  0.00000000000E+00 0. -1.
         11    1    3    3    0    0 -0.12918970754E+02 -0.12374981557E+01  0.20387961271E+01  0.13137271290E+02  0.51100000000E-03 0. -1.
        -11    1    3    3    0    0 -0.71076556573E+01 -0.28109074724E+02 -0.20840751977E+02  0.35706803189E+02  0.51100000000E-03 0.  1.
         12    1    3    3    0    0  0.20136538916E+02  0.29936574499E+02  0.19818293778E+02  0.41163618166E+02  0.00000000000E+00 0. -1.
</event>
<event>
 7    1  0.4119305E-015  0.9000803E+02  0.7816164E-02  0.1186338E+00
        -11   -1    0    0    0    0  0.00000000000E+00  0.00000000000E+00  0.45593999997E+02  0.45594000000E+02  0.51100000000E-03 0. -1.
         11   -1    0    0    0    0 -0.00000000000E+00 -0.00000000000E+00 -0.45593999997E+02  0.45594000000E+02  0.51100000000E-03 0.  1.
    9900012    2    1    2    0    0  0.54775754603E+00 -0.10417492139E+01  0.83995305440E-01  0.90008027557E+02  0.90000292721E+02 0.  0.
         12    1    1    2    0    0 -0.54775754603E+00  0.10417492139E+01 -0.83995305440E-01  0.11799724426E+01  0.00000000000E+00 0. -1.
         11    1    3    3    0    0  0.22365010330E+01  0.68292701919E+01  0.60011194044E+01  0.93623876544E+01  0.51100000000E-03 0. -1.
        -11    1    3    3    0    0 -0.31249325260E+01  0.95590362395E+00 -0.42682910809E+02  0.42807824407E+02  0.51100000000E-03 0.  1.
         12    1    3    3    0    0  0.14361890391E+01 -0.88269230298E+01  0.36765786710E+02  0.37837815496E+02  0.00000000000E+00 0. -1.
</event>
<event>
 7    1  0.4119305E-015  0.9000828E+02  0.7816164E-02  0.1186338E+00
        -11   -1    0    0    0    0  0.00000000000E+00  0.00000000000E+00  0.45593999997E+02  0.45594000000E+02  0.51100000000E-03 0. -1.
         11   -1    0    0    0    0 -0.00000000000E+00 -0.00000000000E+00 -0.45593999997E+02  0.45594000000E+02  0.51100000000E-03 0.  1.
    9900012    2    1    2    0    0 -0.87202460570E+00 -0.89931970599E-02 -0.79450157929E+00  0.90008279461E+02  0.90000547948E+02 0.  0.
         12    1    1    2    0    0  0.87202460570E+00  0.89931970599E-02  0.79450157929E+00  0.11797205390E+01  0.00000000000E+00 0. -1.
         11    1    3    3    0    0 -0.78981311835E+01  0.12305453494E+02  0.78556547981E+01  0.16598673876E+02  0.51100000000E-03 0. -1.
        -11    1    3    3    0    0  0.34157959929E+02 -0.95794911393E+01  0.13822497991E+02  0.38073538422E+02  0.51100000000E-03 0.  1.
         12    1    3    3    0    0 -0.27131853351E+02 -0.27349555520E+01 -0.22472654369E+02  0.35336067162E+02  0.00000000000E+00 0. -1.
</event>
<event>
 7    1  0.4119305E-015  0.9000775E+02  0.7816164E-02  0.1186339E+00
        -11   -1    0    0    0    0  0.00000000000E+00  0.00000000000E+00  0.45593999997E+02  0.45594000000E+02  0.51100000000E-03 0. -1.
         11   -1    0    0    0    0 -0.00000000000E+00 -0.00000000000E+00 -0.45593999997E+02  0.45594000000E+02  0.51100000000E-03 0.  1.
    9900012    2    1    2    0    0 -0.16987474151E-01 -0.11329657272E+00 -0.11746732582E+01  0.90007753436E+02  0.90000014982E+02 0.  0.
         12    1    1    2    0    0  0.16987474151E-01  0.11329657272E+00  0.11746732582E+01  0.11802465637E+01  0.00000000000E+00 0. -1.
         11    1    3    3    0    0 -0.52117864574E+00 -0.11883115114E+02  0.36418829799E+01  0.12439588574E+02  0.51100000000E-03 0. -1.
        -11    1    3    3    0    0  0.19898551484E+02  0.49631781111E+01 -0.35286770304E+02  0.40813498341E+02  0.51100000000E-03 0.  1.
         12    1    3    3    0    0 -0.19394360312E+02  0.68066404303E+01  0.30470214066E+02  0.36754666521E+02  0.00000000000E+00 0. -1.
</event>
<event>
 7    1  0.4119305E-015  0.9000766E+02  0.7816164E-02  0.1186339E+00
        -11   -1    0    0    0    0  0.00000000000E+00  0.00000000000E+00  0.45593999997E+02  0.45594000000E+02  0.51100000000E-03 0.  1.
         11   -1    0    0    0    0 -0.00000000000E+00 -0.00000000000E+00 -0.45593999997E+02  0.45594000000E+02  0.51100000000E-03 0. -1.
    9900012    2    1    2    0    0 -0.28024623411E+00 -0.86071492011E+00  0.75751086927E+00  0.90007664945E+02  0.89999925322E+02 0.  0.
         12    1    1    2    0    0  0.28024623411E+00  0.86071492011E+00 -0.75751086927E+00  0.11803350552E+01  0.00000000000E+00 0. -1.
         11    1    3    3    0    0 -0.14027411225E+01  0.92251795114E+01  0.34546667470E+01  0.99501930770E+01  0.51100000000E-03 0. -1.
        -11    1    3    3    0    0 -0.34983584293E+02  0.93003037601E+01  0.92656714263E+01  0.37365752866E+02  0.51100000000E-03 0.  1.
         12    1    3    3    0    0  0.36106079182E+02 -0.19386198192E+02 -0.11962827304E+02  0.42691719001E+02  0.00000000000E+00 0. -1.
</event>
<event>
 7    1  0.4119305E-015  0.9000774E+02  0.7816164E-02  0.1186339E+00
        -11   -1    0    0    0    0  0.00000000000E+00  0.00000000000E+00  0.45593999997E+02  0.45594000000E+02  0.51100000000E-03 0.  1.
         11   -1    0    0    0    0 -0.00000000000E+00 -0.00000000000E+00 -0.45593999997E+02  0.45594000000E+02  0.51100000000E-03 0. -1.
    9900012    2    1    2    0    0  0.84205688449E-01 -0.44914333308E+00  0.10882057423E+01  0.90007740677E+02  0.90000002054E+02 0.  0.
         12    1    1    2    0    0 -0.84205688449E-01  0.44914333308E+00 -0.10882057423E+01  0.11802593228E+01  0.00000000000E+00 0. -1.
         11    1    3    3    0    0  0.18740053031E+02  0.32207108380E+02  0.12698566476E+02  0.39366750038E+02  0.51100000000E-03 0. -1.
        -11    1    3    3    0    0 -0.39672950877E+01  0.13725557894E+00  0.85588471396E+01  0.94346242123E+01  0.51100000000E-03 0.  1.
        -12    1    3    3    0    0 -0.14688552254E+02 -0.32793507292E+02 -0.20169207874E+02  0.41206366426E+02  0.00000000000E+00 0.  1.
</event>
<event>
 7    1  0.4119305E-015  0.9000775E+02  0.7816164E-02  0.1186339E+00
        -11   -1    0    0    0    0  0.00000000000E+00  0.00000000000E+00  0.45593999997E+02  0.45594000000E+02  0.51100000000E-03 0.  1.
         11   -1    0    0    0    0 -0.00000000000E+00 -0.00000000000E+00 -0.45593999997E+02  0.45594000000E+02  0.51100000000E-03 0. -1.
    9900012    2    1    2    0    0  0.68263440241E+00  0.72033804283E+00  0.63884472433E+00  0.90007746127E+02  0.90000007576E+02 0.  0.
         12    1    1    2    0    0 -0.68263440241E+00 -0.72033804283E+00 -0.63884472433E+00  0.11802538732E+01  0.00000000000E+00 0. -1.
         11    1    3    3    0    0  0.65364406239E+01  0.33629821813E+02 -0.12489332801E+02  0.36464687100E+02  0.51100000000E-03 0. -1.
        -11    1    3    3    0    0 -0.94046023328E+01  0.45362259353E+01 -0.52416781173E+01  0.11683282095E+02  0.51100000000E-03 0.  1.
        -12    1    3    3    0    0  0.35507961113E+01 -0.37445709706E+02  0.18369855643E+02  0.41859776931E+02  0.00000000000E+00 0.  1.
</event>
<event>
 7    1  0.4119305E-015  0.9000765E+02  0.7816164E-02  0.1186339E+00
        -11   -1    0    0    0    0  0.00000000000E+00  0.00000000000E+00  0.45593999997E+02  0.45594000000E+02  0.51100000000E-03 0. -1.
         11   -1    0    0    0    0 -0.00000000000E+00 -0.00000000000E+00 -0.45593999997E+02  0.45594000000E+02  0.51100000000E-03 0.  1.
    9900012    2    1    2    0    0  0.29564765492E+00 -0.21656935132E+00 -0.11220176220E+01  0.90007646932E+02  0.89999907072E+02 0.  0.
         12    1    1    2    0    0 -0.29564765492E+00  0.21656935132E+00  0.11220176220E+01  0.11803530675E+01  0.00000000000E+00 0. -1.
         11    1    3    3    0    0 -0.25767607958E+02  0.24471128759E+02  0.67091507228E+01  0.36163772843E+02  0.51100000000E-03 0. -1.
        -11    1    3    3    0    0 -0.15060423907E+01  0.15868552557E+01 -0.14942041908E+02  0.15101353910E+02  0.51100000000E-03 0.  1.
        -12    1    3    3    0    0  0.27569298003E+02 -0.26274553366E+02  0.71108735631E+01  0.38742520179E+02  0.00000000000E+00 0.  1.
</event>
<event>
 7    1  0.4119305E-015  0.9000788E+02  0.7816164E-02  0.1186339E+00
        -11   -1    0    0    0    0  0.00000000000E+00  0.00000000000E+00  0.45593999997E+02  0.45594000000E+02  0.51100000000E-03 0.  1.
         11   -1    0    0    0    0 -0.00000000000E+00 -0.00000000000E+00 -0.45593999997E+02  0.45594000000E+02  0.51100000000E-03 0. -1.
    9900012    2    1    2    0    0 -0.42875163854E+00  0.91917777169E+00 -0.60330229696E+00  0.90007877377E+02  0.90000140558E+02 0.  0.
         12    1    1    2    0    0  0.42875163854E+00 -0.91917777169E+00  0.60330229696E+00  0.11801226229E+01  0.00000000000E+00 0. -1.
         11    1    3    3    0    0  0.78071686303E+01 -0.53694350097E+01  0.35763341914E+01  0.10127827055E+02  0.51100000000E-03 0. -1.
        -11    1    3    3    0    0  0.93530791021E+01 -0.33338323599E+02  0.64967945922E+01  0.35229706915E+02  0.51100000000E-03 0.  1.
         12    1    3    3    0    0 -0.17588999371E+02  0.39626936380E+02 -0.10676431081E+02  0.44650343407E+02  0.00000000000E+00 0. -1.
</event>
<event>
 7    1  0.4119305E-015  0.9000772E+02  0.7816164E-02  0.1186339E+00
        -11   -1    0    0    0    0  0.00000000000E+00  0.00000000000E+00  0.45593999997E+02  0.45594000000E+02  0.51100000000E-03 0.  1.
         11   -1    0    0    0    0 -0.00000000000E+00 -0.00000000000E+00 -0.45593999997E+02  0.45594000000E+02  0.51100000000E-03 0. -1.
    9900012    2    1    2    0    0 -0.16658954689E+00 -0.98680414787E+00  0.62572947608E+00  0.90007715339E+02  0.89999976382E+02 0.  0.
         12    1    1    2    0    0  0.16658954689E+00  0.98680414787E+00 -0.62572947608E+00  0.11802846608E+01  0.00000000000E+00 0. -1.
         11    1    3    3    0    0 -0.11699226785E+01 -0.32874532979E+01 -0.83128647645E+01  0.90155304399E+01  0.51100000000E-03 0. -1.
        -11    1    3    3    0    0  0.22994727169E+02 -0.27133575270E+02 -0.13382654526E+02  0.38001102970E+02  0.51100000000E-03 0.  1.
         12    1    3    3    0    0 -0.21991394038E+02  0.29434224420E+02  0.22321248767E+02  0.42991081929E+02  0.00000000000E+00 0. -1.
</event>
<event>
 7    1  0.4119305E-015  0.9000776E+02  0.7816164E-02  0.1186339E+00
        -11   -1    0    0    0    0  0.00000000000E+00  0.00000000000E+00  0.45593999997E+02  0.45594000000E+02  0.51100000000E-03 0.  1.
         11   -1    0    0    0    0 -0.00000000000E+00 -0.00000000000E+00 -0.45593999997E+02  0.45594000000E+02  0.51100000000E-03 0. -1.
    9900012    2    1    2    0    0  0.62425520614E+00  0.22426523723E+00  0.97620092726E+00  0.90007763706E+02  0.90000025387E+02 0.  0.
         12    1    1    2    0    0 -0.62425520614E+00 -0.22426523723E+00 -0.97620092726E+00  0.11802362939E+01  0.00000000000E+00 0. -1.
         11    1    3    3    0    0 -0.35705170891E+02  0.79525827343E+01  0.11571809279E+02  0.38366776914E+02  0.51100000000E-03 0. -1.
        -11    1    3    3    0    0  0.23641796639E+01  0.11275495650E+02 -0.38053340126E+01  0.12132877434E+02  0.51100000000E-03 0.  1.
        -12    1    3    3    0    0  0.33965246434E+02 -0.19003813147E+02 -0.67902743387E+01  0.39508109358E+02  0.00000000000E+00 0.  1.
</event>
<event>
 7    1  0.4119305E-015  0.9000828E+02  0.7816164E-02  0.1186338E+00
        -11   -1    0    0    0    0  0.00000000000E+00  0.00000000000E+00  0.45593999997E+02  0.45594000000E+02  0.51100000000E-03 0.  1.
         11   -1    0    0    0    0 -0.00000000000E+00 -0.00000000000E+00 -0.45593999997E+02  0.45594000000E+02  0.51100000000E-03 0. -1.
    9900012    2    1    2    0    0 -0.78291154700E+00 -0.38140255739E+00  0.79582007920E+00  0.90008276304E+02  0.90000544749E+02 0.  0.
         12    1    1    2    0    0  0.78291154700E+00  0.38140255739E+00 -0.79582007920E+00  0.11797236963E+01  0.00000000000E+00 0. -1.
         11    1    3    3    0    0 -0.16131425847E+02  0.15320200202E+02  0.67907126981E+01  0.23260378615E+02  0.51100000000E-03 0. -1.
        -11    1    3    3    0    0 -0.36322914598E+01  0.19552631227E+02  0.11589317750E+02  0.23017628360E+02  0.51100000000E-03 0.  1.
         12    1    3    3    0    0  0.18980805760E+02 -0.35254233987E+02 -0.17584210369E+02  0.43730269329E+02  0.00000000000E+00 0. -1.
</event>
<event>
 7    1  0.4119305E-015  0.9000775E+02  0.7816164E-02  0.1186339E+00
        -11   -1    0    0    0    0  0.00000000000E+00  0.00000000000E+00  0.45593999997E+02  0.45594000000E+02  0.51100000000E-03 0.  1.
         11   -1    0    0    0    0 -0.00000000000E+00 -0.00000000000E+00 -0.45593999997E+02  0.45594000000E+02  0.51100000000E-03 0. -1.
    9900012    2    1    2    0    0  0.41425651714E+00 -0.38468434345E-03  0.11051604551E+01  0.90007750771E+02  0.90000012282E+02 0.  0.
         12    1    1    2    0    0 -0.41425651714E+00  0.38468434345E-03 -0.11051604551E+01  0.11802492286E+01  0.00000000000E+00 0. -1.
         11    1    3    3    0    0  0.73275830143E+01  0.34619172224E+01 -0.57645334985E+01  0.99452596951E+01  0.51100000000E-03 0. -1.
        -11    1    3    3    0    0  0.21502334498E+02 -0.21109066917E+02  0.27473513901E+02  0.40776673005E+02  0.51100000000E-03 0.  1.
         12    1    3    3    0    0 -0.28415660995E+02  0.17646765010E+02 -0.20603819948E+02  0.39285818072E+02  0.00000000000E+00 0. -1.
</event>
<event>
 7    1  0.4119305E-015  0.9000808E+02  0.7816164E-02  0.1186338E+00
        -11   -1    0    0    0    0  0.00000000000E+00  0.00000000000E+00  0.45593999997E+02  0.45594000000E+02  0.51100000000E-03 0.  1.
         11   -1    0    0    0    0 -0.00000000000E+00 -0.00000000000E+00 -0.45593999997E+02  0.45594000000E+02  0.51100000000E-03 0. -1.
    9900012    2    1    2    0    0 -0.88831269356E+00 -0.63448492435E+00 -0.44781702580E+00  0.90008080236E+02  0.90000346094E+02 0.  0.
         12    1    1    2    0    0  0.88831269356E+00  0.63448492435E+00  0.44781702580E+00  0.11799197640E+01  0.00000000000E+00 0. -1.
         11    1    3    3    0    0  0.19993799886E+01 -0.96459055124E+01 -0.22302082846E+01  0.10100239737E+02  0.51100000000E-03 0. -1.
        -11    1    3    3    0    0 -0.18083353642E+02 -0.29706443338E+02 -0.10863575598E+02  0.36434842250E+02  0.51100000000E-03 0.  1.
         12    1    3    3    0    0  0.15195660960E+02  0.38717863926E+02  0.12645966857E+02  0.43472998249E+02  0.00000000000E+00 0. -1.
</event>
<event>
 7    1  0.4119305E-015  0.9000776E+02  0.7816164E-02  0.1186339E+00
        -11   -1    0    0    0    0  0.00000000000E+00  0.00000000000E+00  0.45593999997E+02  0.45594000000E+02  0.51100000000E-03 0.  1.
         11   -1    0    0    0    0 -0.00000000000E+00 -0.00000000000E+00 -0.45593999997E+02  0.45594000000E+02  0.51100000000E-03 0. -1.
    9900012    2    1    2    0    0 -0.17255250117E+00  0.68465440491E+00 -0.94574463910E+00  0.90007763184E+02  0.90000024858E+02 0.  0.
         12    1    1    2    0    0  0.17255250117E+00 -0.68465440491E+00  0.94574463910E+00  0.11802368162E+01  0.00000000000E+00 0. -1.
         11    1    3    3    0    0 -0.25579990638E+02  0.13254507210E+02  0.50716797681E+01  0.29253030926E+02  0.51100000000E-03 0. -1.
        -11    1    3    3    0    0  0.84260177369E+01  0.69854867409E+01  0.20780493911E+02  0.23486671270E+02  0.51100000000E-03 0.  1.
        -12    1    3    3    0    0  0.16981420400E+02 -0.19555339546E+02 -0.26797918318E+02  0.37268060988E+02  0.00000000000E+00 0.  1.
</event>
<event>
 7    1  0.4119305E-015  0.9000770E+02  0.7816164E-02  0.1186339E+00
        -11   -1    0    0    0    0  0.00000000000E+00  0.00000000000E+00  0.45593999997E+02  0.45594000000E+02  0.51100000000E-03 0.  1.
         11   -1    0    0    0    0 -0.00000000000E+00 -0.00000000000E+00 -0.45593999997E+02  0.45594000000E+02  0.51100000000E-03 0. -1.
    9900012    2    1    2    0    0 -0.85824065991E+00 -0.19518747698E+00 -0.78641238755E+00  0.90007695114E+02  0.89999955889E+02 0.  0.
         12    1    1    2    0    0  0.85824065991E+00  0.19518747698E+00  0.78641238755E+00  0.11803048864E+01  0.00000000000E+00 0. -1.
         11    1    3    3    0    0 -0.81000966872E+01  0.24445083533E+01 -0.27402514549E+02  0.28678999133E+02  0.51100000000E-03 0. -1.
        -11    1    3    3    0    0  0.67516939691E+01 -0.43013091541E+01 -0.16414836177E+02  0.18262898972E+02  0.51100000000E-03 0.  1.
        -12    1    3    3    0    0  0.49016205825E+00  0.16616133238E+01  0.43030938338E+02  0.43065797008E+02  0.00000000000E+00 0.  1.
</event>
<event>
 7    1  0.4119305E-015  0.9000782E+02  0.7816164E-02  0.1186339E+00
        -11   -1    0    0    0    0  0.00000000000E+00  0.00000000000E+00  0.45593999997E+02  0.45594000000E+02  0.51100000000E-03 0.  1.
         11   -1    0    0    0    0 -0.00000000000E+00 -0.00000000000E+00 -0.45593999997E+02  0.45594000000E+02  0.51100000000E-03 0. -1.
    9900012    2    1    2    0    0 -0.11017676169E+01 -0.79818370982E-01 -0.41540065495E+00  0.90007821811E+02  0.90000084259E+02 0.  0.
         12    1    1    2    0    0  0.11017676169E+01  0.79818370982E-01  0.41540065495E+00  0.11801781891E+01  0.00000000000E+00 0. -1.
         11    1    3    3    0    0  0.49161521485E+01  0.62592310319E+01 -0.34115695510E+01  0.86594071460E+01  0.51100000000E-03 0. -1.
        -11    1    3    3    0    0 -0.40328590008E+02 -0.67001357850E+01 -0.13797039103E+02  0.43146787596E+02  0.51100000000E-03 0.  1.
         12    1    3    3    0    0  0.34310670242E+02  0.36108638209E+00  0.16793207999E+02  0.38201627069E+02  0.00000000000E+00 0. -1.
</event>
<event>
 7    1  0.4119305E-015  0.9000776E+02  0.7816164E-02  0.1186339E+00
        -11   -1    0    0    0    0  0.00000000000E+00  0.00000000000E+00  0.45593999997E+02  0.45594000000E+02  0.51100000000E-03 0. -1.
         11   -1    0    0    0    0 -0.00000000000E+00 -0.00000000000E+00 -0.45593999997E+02  0.45594000000E+02  0.51100000000E-03 0.  1.
    9900012    2    1    2    0    0 -0.27796668229E+00 -0.90804008142E+00 -0.70082777321E+00  0.90007761959E+02  0.90000023617E+02 0.  0.
         12    1    1    2    0    0  0.27796668229E+00  0.90804008142E+00  0.70082777321E+00  0.11802380411E+01  0.00000000000E+00 0. -1.
         11    1    3    3    0    0 -0.40428182039E+01  0.79304019376E+01 -0.10729782876E+01  0.89658762309E+01  0.51100000000E-03 0. -1.
        -11    1    3    3    0    0 -0.36542526842E+01  0.21557823968E+02  0.30551925494E+02  0.37570114301E+02  0.51100000000E-03 0.  1.
         12    1    3    3    0    0  0.74191042058E+01 -0.30396265987E+02 -0.30179774980E+02  0.43471771427E+02  0.00000000000E+00 0. -1.
</event>
<event>
 7    1  0.4119305E-015  0.9000779E+02  0.7816164E-02  0.1186339E+00
        -11   -1    0    0    0    0  0.00000000000E+00  0.00000000000E+00  0.45593999997E+02  0.45594000000E+02  0.51100000000E-03 0.  1.
         11   -1    0    0    0    0 -0.00000000000E+00 -0.00000000000E+00 -0.45593999997E+02  0.45594000000E+02  0.51100000000E-03 0. -1.
    9900012    2    1    2    0    0 -0.60771310269E+00 -0.69173064546E+00  0.73830167301E+00  0.90007789908E+02  0.90000051935E+02 0.  0.
         12    1    1    2    0    0  0.60771310269E+00  0.69173064546E+00 -0.73830167301E+00  0.11802100921E+01  0.00000000000E+00 0. -1.
         11    1    3    3    0    0  0.29553399263E+02 -0.17876674694E+02 -0.11876498948E+02  0.36524377252E+02  0.51100000000E-03 0. -1.
        -11    1    3    3    0    0  0.48715758136E+01 -0.76150606106E+01  0.26337793218E+01  0.94158479591E+01  0.51100000000E-03 0.  1.
        -12    1    3    3    0    0 -0.35032688179E+02  0.24800004659E+02  0.99810212989E+01  0.44067564697E+02  0.00000000000E+00 0.  1.
</event>
<event>
 7    1  0.4119305E-015  0.9000769E+02  0.7816164E-02  0.1186339E+00
        -11   -1    0    0    0    0  0.00000000000E+00  0.00000000000E+00  0.45593999997E+02  0.45594000000E+02  0.51100000000E-03 0.  1.
         11   -1    0    0    0    0 -0.00000000000E+00 -0.00000000000E+00 -0.45593999997E+02  0.45594000000E+02  0.51100000000E-03 0. -1.
    9900012    2    1    2    0    0 -0.75985347116E+00 -0.90306299303E+00  0.15194215043E-01  0.90007690324E+02  0.89999951036E+02 0.  0.
         12    1    1    2    0    0  0.75985347116E+00  0.90306299303E+00 -0.15194215043E-01  0.11803096760E+01  0.00000000000E+00 0. -1.
         11    1    3    3    0    0 -0.80358346009E+00  0.31536133112E+00  0.91426777478E+01  0.91833412116E+01  0.51100000000E-03 0. -1.
        -11    1    3    3    0    0  0.24828582684E+02 -0.32051590127E+02 -0.74995215703E+01  0.41231126249E+02  0.51100000000E-03 0.  1.
         12    1    3    3    0    0 -0.24784852695E+02  0.30833165803E+02 -0.16279619625E+01  0.39593222863E+02  0.00000000000E+00 0. -1.
</event>
<event>
 7    1  0.4119305E-015  0.9000781E+02  0.7816164E-02  0.1186339E+00
        -11   -1    0    0    0    0  0.00000000000E+00  0.00000000000E+00  0.45593999997E+02  0.45594000000E+02  0.51100000000E-03 0.  1.
         11   -1    0    0    0    0 -0.00000000000E+00 -0.00000000000E+00 -0.45593999997E+02  0.45594000000E+02  0.51100000000E-03 0. -1.
    9900012    2    1    2    0    0  0.32182761663E+00 -0.72353887950E+00  0.87507969245E+00  0.90007811035E+02  0.90000073341E+02 0.  0.
         12    1    1    2    0    0 -0.32182761663E+00  0.72353887950E+00 -0.87507969245E+00  0.11801889650E+01  0.00000000000E+00 0. -1.
         11    1    3    3    0    0 -0.83576047185E+01 -0.40229487647E+01 -0.11127370904E+01  0.93419407774E+01  0.51100000000E-03 0. -1.
        -11    1    3    3    0    0  0.37880617678E+02 -0.19153075400E+02 -0.62933291000E+01  0.42911391079E+02  0.51100000000E-03 0.  1.
         12    1    3    3    0    0 -0.29201185343E+02  0.22452485285E+02  0.82811458828E+01  0.37754479178E+02  0.00000000000E+00 0. -1.
</event>
<event>
 7    1  0.4119305E-015  0.9000776E+02  0.7816164E-02  0.1186339E+00
        -11   -1    0    0    0    0  0.00000000000E+00  0.00000000000E+00  0.45593999997E+02  0.45594000000E+02  0.51100000000E-03 0.  1.
         11   -1    0    0    0    0 -0.00000000000E+00 -0.00000000000E+00 -0.45593999997E+02  0.45594000000E+02  0.51100000000E-03 0. -1.
    9900012    2    1    2    0    0 -0.10711343152E+01  0.19730147271E+00  0.45464346998E+00  0.90007763889E+02  0.90000025573E+02 0.  0.
         12    1    1    2    0    0  0.10711343152E+01 -0.19730147271E+00 -0.45464346998E+00  0.11802361108E+01  0.00000000000E+00 0. -1.
         11    1    3    3    0    0  0.17639836031E+02 -0.16064141978E+02 -0.20924519715E+02  0.31734145621E+02  0.51100000000E-03 0. -1.
        -11    1    3    3    0    0  0.11369963923E+02  0.19784193805E+02  0.15044297966E+02  0.27331690502E+02  0.51100000000E-03 0.  1.
        -12    1    3    3    0    0 -0.30080934269E+02 -0.35227503538E+01  0.63348652188E+01  0.30941927767E+02  0.00000000000E+00 0.  1.
</event>
<event>
 7    1  0.4119305E-015  0.9000771E+02  0.7816164E-02  0.1186339E+00
        -11   -1    0    0    0    0  0.00000000000E+00  0.00000000000E+00  0.45593999997E+02  0.45594000000E+02  0.51100000000E-03 0. -1.
         11   -1    0    0    0    0 -0.00000000000E+00 -0.00000000000E+00 -0.45593999997E+02  0.45594000000E+02  0.51100000000E-03 0.  1.
    9900012    2    1    2    0    0 -0.10361825011E+01  0.97906776731E-01 -0.55661162826E+00  0.90007713417E+02  0.89999974434E+02 0.  0.
         12    1    1    2    0    0  0.10361825011E+01 -0.97906776731E-01  0.55661162826E+00  0.11802865827E+01  0.00000000000E+00 0. -1.
         11    1    3    3    0    0 -0.27289983336E+02  0.19311831378E+01  0.33985778909E+02  0.43629185497E+02  0.51100000000E-03 0. -1.
        -11    1    3    3    0    0  0.81530296443E+01  0.38395361466E+01 -0.28656590447E+01  0.94565285503E+01  0.51100000000E-03 0.  1.
        -12    1    3    3    0    0  0.18100771190E+02 -0.56728125077E+01 -0.31676731493E+02  0.36921999370E+02  0.00000000000E+00 0.  1.
</event>
<event>
 7    1  0.4119305E-015  0.9000779E+02  0.7816164E-02  0.1186339E+00
        -11   -1    0    0    0    0  0.00000000000E+00  0.00000000000E+00  0.45593999997E+02  0.45594000000E+02  0.51100000000E-03 0. -1.
         11   -1    0    0    0    0 -0.00000000000E+00 -0.00000000000E+00 -0.45593999997E+02  0.45594000000E+02  0.51100000000E-03 0.  1.
    9900012    2    1    2    0    0 -0.11381085198E+01  0.30040446241E+00  0.85820155616E-01  0.90007788602E+02  0.90000050612E+02 0.  0.
         12    1    1    2    0    0  0.11381085198E+01 -0.30040446241E+00 -0.85820155616E-01  0.11802113976E+01  0.00000000000E+00 0. -1.
         11    1    3    3    0    0 -0.59985719879E+01  0.36890814398E+01  0.32412736943E+01  0.77522927697E+01  0.51100000000E-03 0. -1.
        -11    1    3    3    0    0  0.29446758289E+02  0.16484671251E+02  0.23319423587E+02  0.41020135016E+02  0.51100000000E-03 0.  1.
         12    1    3    3    0    0 -0.24586294821E+02 -0.19873348228E+02 -0.26474877126E+02  0.41235360817E+02  0.00000000000E+00 0. -1.
</event>
<event>
 7    1  0.4119305E-015  0.9000771E+02  0.7816164E-02  0.1186339E+00
        -11   -1    0    0    0    0  0.00000000000E+00  0.00000000000E+00  0.45593999997E+02  0.45594000000E+02  0.51100000000E-03 0. -1.
         11   -1    0    0    0    0 -0.00000000000E+00 -0.00000000000E+00 -0.45593999997E+02  0.45594000000E+02  0.51100000000E-03 0.  1.
    9900012    2    1    2    0    0  0.77807977622E+00 -0.67120485428E+00  0.58064734533E+00  0.90007713834E+02  0.89999974856E+02 0.  0.
         12    1    1    2    0    0 -0.77807977622E+00  0.67120485428E+00 -0.58064734533E+00  0.11802861662E+01  0.00000000000E+00 0. -1.
         11    1    3    3    0    0 -0.16960992244E+01 -0.46810420679E+01 -0.80265272619E+01  0.94453188176E+01  0.51100000000E-03 0. -1.
        -11    1    3    3    0    0 -0.12104483092E+02  0.22095334717E+02 -0.27710331541E+02  0.37451098803E+02  0.51100000000E-03 0.  1.
         12    1    3    3    0    0  0.14578662092E+02 -0.18085497503E+02  0.36317506149E+02  0.43111296213E+02  0.00000000000E+00 0. -1.
</event>
<event>
 7    1  0.4119305E-015  0.9000761E+02  0.7816164E-02  0.1186339E+00
        -11   -1    0    0    0    0  0.00000000000E+00  0.00000000000E+00  0.45593999997E+02  0.45594000000E+02  0.51100000000E-03 0.  1.
         11   -1    0    0    0    0 -0.00000000000E+00 -0.00000000000E+00 -0.45593999997E+02  0.45594000000E+02  0.51100000000E-03 0. -1.
    9900012    2    1    2    0    0 -0.76524674029E+00 -0.30888416590E+00 -0.84397906723E+00  0.90007613340E+02  0.89999873036E+02 0.  0.
         12    1    1    2    0    0  0.76524674029E+00  0.30888416590E+00  0.84397906723E+00  0.11803866601E+01  0.00000000000E+00 0. -1.
         11    1    3    3    0    0  0.29926440164E+01 -0.12638482558E+01 -0.85977458625E+01  0.91909991187E+01  0.51100000000E-03 0. -1.
        -11    1    3    3    0    0  0.19945022564E+02 -0.33279676404E+02  0.42200896351E+01  0.39027553644E+02  0.51100000000E-03 0.  1.
         12    1    3    3    0    0 -0.23702913320E+02  0.34234640494E+02  0.35336771602E+01  0.41789060577E+02  0.00000000000E+00 0. -1.
</event>
<event>
 7    1  0.4119305E-015  0.9000786E+02  0.7816164E-02  0.1186339E+00
        -11   -1    0    0    0    0  0.00000000000E+00  0.00000000000E+00  0.45593999997E+02  0.45594000000E+02  0.51100000000E-03 0.  1.
         11   -1    0    0    0    0 -0.00000000000E+00 -0.00000000000E+00 -0.45593999997E+02  0.45594000000E+02  0.51100000000E-03 0. -1.
    9900012    2    1    2    0    0  0.10355079498E+01  0.27530116790E+00  0.49463882194E+00  0.90007858055E+02  0.90000120981E+02 0.  0.
         12    1    1    2    0    0 -0.10355079498E+01 -0.27530116790E+00 -0.49463882194E+00  0.11801419454E+01  0.00000000000E+00 0. -1.
         11    1    3    3    0    0 -0.14659687252E+01  0.37665087552E+02 -0.14681683699E+01  0.37722187148E+02  0.51100000000E-03 0. -1.
        -11    1    3    3    0    0  0.91015983432E+01  0.37695178408E+01 -0.30199219250E+01  0.10303799583E+02  0.51100000000E-03 0.  1.
        -12    1    3    3    0    0 -0.66001216682E+01 -0.41159304225E+02  0.49827291168E+01  0.41981871323E+02  0.00000000000E+00 0.  1.
</event>
<event>
 7    1  0.4119305E-015  0.9000771E+02  0.7816164E-02  0.1186339E+00
        -11   -1    0    0    0    0  0.00000000000E+00  0.00000000000E+00  0.45593999997E+02  0.45594000000E+02  0.51100000000E-03 0. -1.
         11   -1    0    0    0    0 -0.00000000000E+00 -0.00000000000E+00 -0.45593999997E+02  0.45594000000E+02  0.51100000000E-03 0.  1.
    9900012    2    1    2    0    0 -0.84149811121E+00 -0.81834620119E+00 -0.12358122309E+00  0.90007711097E+02  0.89999972083E+02 0.  0.
         12    1    1    2    0    0  0.84149811121E+00  0.81834620119E+00  0.12358122309E+00  0.11802889031E+01  0.00000000000E+00 0. -1.
         11    1    3    3    0    0 -0.30087657817E+02 -0.83480070786E+01 -0.18209004817E+02  0.36145874340E+02  0.51100000000E-03 0. -1.
        -11    1    3    3    0    0 -0.10179986898E+02 -0.47689978393E+00  0.13157448619E+01  0.10275736054E+02  0.51100000000E-03 0.  1.
        -12    1    3    3    0    0  0.39426146604E+02  0.80065606614E+01  0.16769678732E+02  0.43586100703E+02  0.00000000000E+00 0.  1.
</event>
<event>
 7    1  0.4119305E-015  0.9000772E+02  0.7816164E-02  0.1186339E+00
        -11   -1    0    0    0    0  0.00000000000E+00  0.00000000000E+00  0.45593999997E+02  0.45594000000E+02  0.51100000000E-03 0.  1.
         11   -1    0    0    0    0 -0.00000000000E+00 -0.00000000000E+00 -0.45593999997E+02  0.45594000000E+02  0.51100000000E-03 0. -1.
    9900012    2    1    2    0    0  0.36170407410E+00 -0.90338691428E+00  0.66791855201E+00  0.90007723360E+02  0.89999984509E+02 0.  0.
         12    1    1    2    0    0 -0.36170407410E+00  0.90338691428E+00 -0.66791855201E+00  0.11802766397E+01  0.00000000000E+00 0. -1.
         11    1    3    3    0    0 -0.40645486252E+01  0.31813822260E+01 -0.36050576594E+02  0.36418207279E+02  0.51100000000E-03 0. -1.
        -11    1    3    3    0    0  0.88269924080E+00 -0.58059480662E+01 -0.73146945789E+01  0.93804556361E+01  0.51100000000E-03 0.  1.
        -12    1    3    3    0    0  0.35435534585E+01  0.17211789259E+01  0.44033189725E+02  0.44209060445E+02  0.00000000000E+00 0.  1.
</event>
<event>
 7    1  0.4119305E-015  0.9000774E+02  0.7816164E-02  0.1186339E+00
        -11   -1    0    0    0    0  0.00000000000E+00  0.00000000000E+00  0.45593999997E+02  0.45594000000E+02  0.51100000000E-03 0.  1.
         11   -1    0    0    0    0 -0.00000000000E+00 -0.00000000000E+00 -0.45593999997E+02  0.45594000000E+02  0.51100000000E-03 0. -1.
    9900012    2    1    2    0    0  0.33147692425E+00  0.44027822983E+00  0.10436889310E+01  0.90007742208E+02  0.90000003605E+02 0.  0.
         12    1    1    2    0    0 -0.33147692425E+00 -0.44027822983E+00 -0.10436889310E+01  0.11802577920E+01  0.00000000000E+00 0. -1.
         11    1    3    3    0    0 -0.54561915927E+01 -0.39038254770E+01 -0.14149091046E+02  0.15659075890E+02  0.51100000000E-03 0. -1.
        -11    1    3    3    0    0 -0.16347149338E+02  0.31306513797E+02 -0.21661507436E+01  0.35383884847E+02  0.51100000000E-03 0.  1.
         12    1    3    3    0    0  0.22134817855E+02 -0.26962410090E+02  0.17358930720E+02  0.38964781471E+02  0.00000000000E+00 0. -1.
</event>
<event>
 7    1  0.4119305E-015  0.9000778E+02  0.7816164E-02  0.1186339E+00
        -11   -1    0    0    0    0  0.00000000000E+00  0.00000000000E+00  0.45593999997E+02  0.45594000000E+02  0.51100000000E-03 0.  1.
         11   -1    0    0    0    0 -0.00000000000E+00 -0.00000000000E+00 -0.45593999997E+02  0.45594000000E+02  0.51100000000E-03 0. -1.
    9900012    2    1    2    0    0  0.46770018825E+00  0.10308070207E+01 -0.33409930868E+00  0.90007775899E+02  0.90000037741E+02 0.  0.
         12    1    1    2    0    0 -0.46770018825E+00 -0.10308070207E+01  0.33409930868E+00  0.11802241008E+01  0.00000000000E+00 0. -1.
         11    1    3    3    0    0 -0.10995832969E+02  0.23128987507E+02 -0.26689498062E+02  0.36989021518E+02  0.51100000000E-03 0. -1.
        -11    1    3    3    0    0 -0.59170223475E+01  0.39995145201E+00 -0.70111339241E+01  0.91829795702E+01  0.51100000000E-03 0.  1.
        -12    1    3    3    0    0  0.17380555505E+02 -0.22498131939E+02  0.33366532677E+02  0.43835774811E+02  0.00000000000E+00 0.  1.
</event>
<event>
 7    1  0.4119305E-015  0.9000777E+02  0.7816164E-02  0.1186339E+00
        -11   -1    0    0    0    0  0.00000000000E+00  0.00000000000E+00  0.45593999997E+02  0.45594000000E+02  0.51100000000E-03 0. -1.
         11   -1    0    0    0    0 -0.00000000000E+00 -0.00000000000E+00 -0.45593999997E+02  0.45594000000E+02  0.51100000000E-03 0.  1.
    9900012    2    1    2    0    0 -0.73617332650E+00 -0.30189405717E+00 -0.87169584593E+00  0.90007769160E+02  0.90000030913E+02 0.  0.
         12    1    1    2    0    0  0.73617332650E+00  0.30189405717E+00  0.87169584593E+00  0.11802308402E+01  0.00000000000E+00 0. -1.
         11    1    3    3    0    0  0.69190327904E+01 -0.14574583081E+01 -0.57194150119E+01  0.90944437880E+01  0.51100000000E-03 0. -1.
        -11    1    3    3    0    0 -0.24030429850E+02  0.21647032163E+02 -0.25218930939E+02  0.41012803345E+02  0.51100000000E-03 0.  1.
         12    1    3    3    0    0  0.16375223733E+02 -0.20491467912E+02  0.30066650105E+02  0.39900522027E+02  0.00000000000E+00 0. -1.
</event>
<event>
 7    1  0.4119305E-015  0.9000773E+02  0.7816164E-02  0.1186339E+00
        -11   -1    0    0    0    0  0.00000000000E+00  0.00000000000E+00  0.45593999997E+02  0.45594000000E+02  0.51100000000E-03 0.  1.
         11   -1    0    0    0    0 -0.00000000000E+00 -0.00000000000E+00 -0.45593999997E+02  0.45594000000E+02  0.51100000000E-03 0. -1.
    9900012    2    1    2    0    0 -0.29643116214E+00  0.11278460613E+01  0.18202870950E+00  0.90007727734E+02  0.89999988940E+02 0.  0.
         12    1    1    2    0    0  0.29643116214E+00 -0.11278460613E+01 -0.18202870950E+00  0.11802722664E+01  0.00000000000E+00 0. -1.
         11    1    3    3    0    0 -0.13069436400E+02 -0.71185602428E+00  0.33366623224E+01  0.13507413614E+02  0.51100000000E-03 0. -1.
        -11    1    3    3    0    0 -0.18844438780E+02 -0.12120494678E+01  0.26836666899E+02  0.32814457596E+02  0.51100000000E-03 0.  1.
         12    1    3    3    0    0  0.31617444018E+02  0.30517515534E+01 -0.29991300512E+02  0.43685856523E+02  0.00000000000E+00 0. -1.
</event>
<event>
 7    1  0.4119305E-015  0.9000771E+02  0.7816164E-02  0.1186339E+00
        -11   -1    0    0    0    0  0.00000000000E+00  0.00000000000E+00  0.45593999997E+02  0.45594000000E+02  0.51100000000E-03 0.  1.
         11   -1    0    0    0    0 -0.00000000000E+00 -0.00000000000E+00 -0.45593999997E+02  0.45594000000E+02  0.51100000000E-03 0. -1.
    9900012    2    1    2    0    0  0.10011204879E+01 -0.20730980761E+00  0.58980688634E+00  0.90007706922E+02  0.89999967853E+02 0.  0.
         12    1    1    2    0    0 -0.10011204879E+01  0.20730980761E+00 -0.58980688634E+00  0.11802930784E+01  0.00000000000E+00 0. -1.
         11    1    3    3    0    0  0.29861129156E+02 -0.65279357432E+01 -0.18865257354E+02  0.35919339009E+02  0.51100000000E-03 0. -1.
        -11    1    3    3    0    0  0.54697047851E+01 -0.10415139225E+02  0.79604168399E+01  0.14204261052E+02  0.51100000000E-03 0.  1.
        -12    1    3    3    0    0 -0.34329713453E+02  0.16735765160E+02  0.11494647400E+02  0.39884106861E+02  0.00000000000E+00 0.  1.
</event>
<event>
 7    1  0.4119305E-015  0.9000777E+02  0.7816164E-02  0.1186339E+00
        -11   -1    0    0    0    0  0.00000000000E+00  0.00000000000E+00  0.45593999997E+02  0.45594000000E+02  0.51100000000E-03 0. -1.
         11   -1    0    0    0    0 -0.00000000000E+00 -0.00000000000E+00 -0.45593999997E+02  0.45594000000E+02  0.51100000000E-03 0.  1.
    9900012    2    1    2    0    0  0.85097607165E+00  0.73402953815E+00 -0.36054633299E+00  0.90007765576E+02  0.90000027282E+02 0.  0.
         12    1    1    2    0    0 -0.85097607165E+00 -0.73402953815E+00  0.36054633299E+00  0.11802344240E+01  0.00000000000E+00 0. -1.
         11    1    3    3    0    0  0.99964913406E+01 -0.66150667493E+01  0.34247240065E+02  0.36284464989E+02  0.51100000000E-03 0. -1.
        -11    1    3    3    0    0  0.13585922744E+02 -0.30699794070E+01 -0.46129008949E+01  0.14672454644E+02  0.51100000000E-03 0.  1.
        -12    1    3    3    0    0 -0.22731438013E+02  0.10419075694E+02 -0.29994885503E+02  0.39050845942E+02  0.00000000000E+00 0.  1.
</event>
<event>
 7    1  0.4119305E-015  0.9000781E+02  0.7816164E-02  0.1186339E+00
        -11   -1    0    0    0    0  0.00000000000E+00  0.00000000000E+00  0.45593999997E+02  0.45594000000E+02  0.51100000000E-03 0. -1.
         11   -1    0    0    0    0 -0.00000000000E+00 -0.00000000000E+00 -0.45593999997E+02  0.45594000000E+02  0.51100000000E-03 0.  1.
    9900012    2    1    2    0    0  0.94142712564E+00 -0.62713418178E+00  0.33656616294E+00  0.90007805483E+02  0.90000067716E+02 0.  0.
         12    1    1    2    0    0 -0.94142712564E+00  0.62713418178E+00 -0.33656616294E+00  0.11801945165E+01  0.00000000000E+00 0. -1.
         11    1    3    3    0    0 -0.98136401055E-01  0.26087604239E+01  0.94080854125E+01  0.97635717384E+01  0.51100000000E-03 0. -1.
        -11    1    3    3    0    0  0.20642848630E+02 -0.31571935141E+02  0.12326492670E+02  0.39684464340E+02  0.51100000000E-03 0.  1.
         12    1    3    3    0    0 -0.19603285104E+02  0.28336040535E+02 -0.21398011920E+02  0.40559769405E+02  0.00000000000E+00 0. -1.
</event>
<event>
 7    1  0.4119305E-015  0.9000730E+02  0.7816164E-02  0.1186340E+00
        -11   -1    0    0    0    0  0.00000000000E+00  0.00000000000E+00  0.45593999997E+02  0.45594000000E+02  0.51100000000E-03 0.  1.
         11   -1    0    0    0    0 -0.00000000000E+00 -0.00000000000E+00 -0.45593999997E+02  0.45594000000E+02  0.51100000000E-03 0. -1.
    9900012    2    1    2    0    0  0.99081808870E+00 -0.16659834451E+00  0.62013972851E+00  0.90007301573E+02  0.89999557152E+02 0.  0.
         12    1    1    2    0    0 -0.99081808870E+00  0.16659834451E+00 -0.62013972851E+00  0.11806984273E+01  0.00000000000E+00 0. -1.
         11    1    3    3    0    0 -0.50705646489E+01  0.11659843432E+01 -0.78821421294E+01  0.94444857010E+01  0.51100000000E-03 0. -1.
        -11    1    3    3    0    0  0.21164745212E+02 -0.35272873787E+02 -0.40883850075E+01  0.41338081200E+02  0.51100000000E-03 0.  1.
         12    1    3    3    0    0 -0.15103362475E+02  0.33940291099E+02  0.12590666865E+02  0.39224734671E+02  0.00000000000E+00 0. -1.
</event>
<event>
 7    1  0.4119305E-015  0.9000772E+02  0.7816164E-02  0.1186339E+00
        -11   -1    0    0    0    0  0.00000000000E+00  0.00000000000E+00  0.45593999997E+02  0.45594000000E+02  0.51100000000E-03 0.  1.
         11   -1    0    0    0    0 -0.00000000000E+00 -0.00000000000E+00 -0.45593999997E+02  0.45594000000E+02  0.51100000000E-03 0. -1.
    9900012    2    1    2    0    0  0.11684859303E+01  0.86890601622E-01 -0.14196365685E+00  0.90007719090E+02  0.89999980182E+02 0.  0.
         12    1    1    2    0    0 -0.11684859303E+01 -0.86890601622E-01  0.14196365685E+00  0.11802809097E+01  0.00000000000E+00 0. -1.
         11    1    3    3    0    0  0.58559530129E+01  0.12786406467E+02  0.10134942696E+02  0.17334977350E+02  0.51100000000E-03 0. -1.
        -11    1    3    3    0    0  0.16755343607E+02 -0.10131551779E+01  0.24791168926E+02  0.29939440205E+02  0.51100000000E-03 0.  1.
         12    1    3    3    0    0 -0.21442810689E+02 -0.11686360687E+02 -0.35068075278E+02  0.42733301535E+02  0.00000000000E+00 0. -1.
</event>
<event>
 7    1  0.4119305E-015  0.9000768E+02  0.7816164E-02  0.1186339E+00
        -11   -1    0    0    0    0  0.00000000000E+00  0.00000000000E+00  0.45593999997E+02  0.45594000000E+02  0.51100000000E-03 0. -1.
         11   -1    0    0    0    0 -0.00000000000E+00 -0.00000000000E+00 -0.45593999997E+02  0.45594000000E+02  0.51100000000E-03 0.  1.
    9900012    2    1    2    0    0 -0.43810256873E+00  0.32685130276E+00  0.10461318973E+01  0.90007679035E+02  0.89999939598E+02 0.  0.
         12    1    1    2    0    0  0.43810256873E+00 -0.32685130276E+00 -0.10461318973E+01  0.11803209654E+01  0.00000000000E+00 0. -1.
         11    1    3    3    0    0  0.26953637537E+01  0.12845601380E+02 -0.13893905285E+01  0.13198669133E+02  0.51100000000E-03 0. -1.
        -11    1    3    3    0    0  0.78665451364E+01  0.65896958744E+01 -0.33285431803E+02  0.34831402421E+02  0.51100000000E-03 0.  1.
         12    1    3    3    0    0 -0.11000011459E+02 -0.19108445952E+02  0.35720954228E+02  0.41977607480E+02  0.00000000000E+00 0. -1.
</event>
<event>
 7    1  0.4119305E-015  0.9000766E+02  0.7816164E-02  0.1186339E+00
        -11   -1    0    0    0    0  0.00000000000E+00  0.00000000000E+00  0.45593999997E+02  0.45594000000E+02  0.51100000000E-03 0.  1.
         11   -1    0    0    0    0 -0.00000000000E+00 -0.00000000000E+00 -0.45593999997E+02  0.45594000000E+02  0.51100000000E-03 0. -1.
    9900012    2    1    2    0    0  0.11593854630E+01 -0.19370227566E+00 -0.10726701102E+00  0.90007660458E+02  0.89999920776E+02 0.  0.
         12    1    1    2    0    0 -0.11593854630E+01  0.19370227566E+00  0.10726701102E+00  0.11803395423E+01  0.00000000000E+00 0. -1.
         11    1    3    3    0    0  0.31407935499E+02  0.25924263882E+02 -0.85052462496E+01  0.41603666715E+02  0.51100000000E-03 0. -1.
        -11    1    3    3    0    0 -0.20646191578E+01 -0.64155733382E+00  0.10144193351E+02  0.10372025216E+02  0.51100000000E-03 0.  1.
        -12    1    3    3    0    0 -0.28183930878E+02 -0.25476408824E+02 -0.17462141124E+01  0.38031968527E+02  0.00000000000E+00 0.  1.
</event>
<event>
 7    1  0.4119305E-015  0.9000780E+02  0.7816164E-02  0.1186339E+00
        -11   -1    0    0    0    0  0.00000000000E+00  0.00000000000E+00  0.45593999997E+02  0.45594000000E+02  0.51100000000E-03 0.  1.
         11   -1    0    0    0    0 -0.00000000000E+00 -0.00000000000E+00 -0.45593999997E+02  0.45594000000E+02  0.51100000000E-03 0. -1.
    9900012    2    1    2    0    0 -0.39153804932E+00  0.57903784177E+00  0.95094025393E+00  0.90007799071E+02  0.90000061219E+02 0.  0.
         12    1    1    2    0    0  0.39153804932E+00 -0.57903784177E+00 -0.95094025393E+00  0.11802009290E+01  0.00000000000E+00 0. -1.
         11    1    3    3    0    0  0.41900039437E+01  0.39262004610E+01  0.64753992516E+01  0.86545929330E+01  0.51100000000E-03 0. -1.
        -11    1    3    3    0    0 -0.14397823364E+02  0.33480638212E+02 -0.18781351058E+02  0.40999873177E+02  0.51100000000E-03 0.  1.
         12    1    3    3    0    0  0.98162813708E+01 -0.36827800831E+02  0.13256892060E+02  0.40353332961E+02  0.00000000000E+00 0. -1.
</event>
<event>
 7    1  0.4119305E-015  0.9000774E+02  0.7816164E-02  0.1186339E+00
        -11   -1    0    0    0    0  0.00000000000E+00  0.00000000000E+00  0.45593999997E+02  0.45594000000E+02  0.51100000000E-03 0.  1.
         11   -1    0    0    0    0 -0.00000000000E+00 -0.00000000000E+00 -0.45593999997E+02  0.45594000000E+02  0.51100000000E-03 0. -1.
    9900012    2    1    2    0    0  0.68109987715E+00  0.89558470638E+00  0.35642753270E+00  0.90007741725E+02  0.90000003116E+02 0.  0.
         12    1    1    2    0    0 -0.68109987715E+00 -0.89558470638E+00 -0.35642753270E+00  0.11802582747E+01  0.00000000000E+00 0. -1.
         11    1    3    3    0    0  0.14586264569E+01 -0.20781106617E+01 -0.10446724031E+02  0.10750822215E+02  0.51100000000E-03 0. -1.
        -11    1    3    3    0    0  0.16600985692E+02 -0.18394326119E+02  0.34804697312E+02  0.42723657551E+02  0.51100000000E-03 0.  1.
         12    1    3    3    0    0 -0.17378512271E+02  0.21368021487E+02 -0.24001545749E+02  0.36533261959E+02  0.00000000000E+00 0. -1.
</event>
<event>
 7    1  0.4119305E-015  0.9000779E+02  0.7816164E-02  0.1186339E+00
        -11   -1    0    0    0    0  0.00000000000E+00  0.00000000000E+00  0.45593999997E+02  0.45594000000E+02  0.51100000000E-03 0.  1.
         11   -1    0    0    0    0 -0.00000000000E+00 -0.00000000000E+00 -0.45593999997E+02  0.45594000000E+02  0.51100000000E-03 0. -1.
    9900012    2    1    2    0    0 -0.21087413045E+00 -0.60099040276E+00  0.99359593883E+00  0.90007792284E+02  0.90000054342E+02 0.  0.
         12    1    1    2    0    0  0.21087413045E+00  0.60099040276E+00 -0.99359593883E+00  0.11802077159E+01  0.00000000000E+00 0. -1.
         11    1    3    3    0    0 -0.27977021025E+00 -0.38861594765E+01 -0.24510663278E+01  0.46030678087E+01  0.51100000000E-03 0. -1.
        -11    1    3    3    0    0 -0.21472292757E+02 -0.32995616938E+02  0.14220182228E+02  0.41856704077E+02  0.51100000000E-03 0.  1.
         12    1    3    3    0    0  0.21541188837E+02  0.36280786012E+02 -0.10775519961E+02  0.43548020398E+02  0.00000000000E+00 0. -1.
</event>
<event>
 7    1  0.4119305E-015  0.9000757E+02  0.7816164E-02  0.1186339E+00
        -11   -1    0    0    0    0  0.00000000000E+00  0.00000000000E+00  0.45593999997E+02  0.45594000000E+02  0.51100000000E-03 0. -1.
         11   -1    0    0    0    0 -0.00000000000E+00 -0.00000000000E+00 -0.45593999997E+02  0.45594000000E+02  0.51100000000E-03 0.  1.
    9900012    2    1    2    0    0 -0.92946761188E+00 -0.31122869942E+00 -0.65775132434E+00  0.90007572048E+02  0.89999831199E+02 0.  0.
         12    1    1    2    0    0  0.92946761188E+00  0.31122869942E+00  0.65775132434E+00  0.11804279519E+01  0.00000000000E+00 0. -1.
         11    1    3    3    0    0  0.13259975685E+02 -0.15115022689E+01 -0.77878150014E+00  0.13368548730E+02  0.51100000000E-03 0. -1.
        -11    1    3    3    0    0 -0.51335545063E+01  0.30182001856E+01 -0.37464685782E+02  0.37935018060E+02  0.51100000000E-03 0.  1.
         12    1    3    3    0    0 -0.90558887903E+01 -0.18179266160E+01  0.37585715957E+02  0.38704005258E+02  0.00000000000E+00 0. -1.
</event>
<event>
 7    1  0.4119305E-015  0.9000775E+02  0.7816164E-02  0.1186339E+00
        -11   -1    0    0    0    0  0.00000000000E+00  0.00000000000E+00  0.45593999997E+02  0.45594000000E+02  0.51100000000E-03 0.  1.
         11   -1    0    0    0    0 -0.00000000000E+00 -0.00000000000E+00 -0.45593999997E+02  0.45594000000E+02  0.51100000000E-03 0. -1.
    9900012    2    1    2    0    0 -0.59959825521E+00  0.10076345645E+01  0.13471869103E+00  0.90007748074E+02  0.90000009549E+02 0.  0.
         12    1    1    2    0    0  0.59959825521E+00 -0.10076345645E+01 -0.13471869103E+00  0.11802519260E+01  0.00000000000E+00 0. -1.
         11    1    3    3    0    0  0.15242963195E+01  0.11792812031E+01 -0.91802002969E+01  0.93803124243E+01  0.51100000000E-03 0. -1.
        -11    1    3    3    0    0 -0.34496385113E+02  0.92102898378E+01 -0.15347355137E+02  0.38863496172E+02  0.51100000000E-03 0.  1.
         12    1    3    3    0    0  0.32372490538E+02 -0.93819364764E+01  0.24662274125E+02  0.41763939478E+02  0.00000000000E+00 0. -1.
</event>
<event>
 7    1  0.4119305E-015  0.9000799E+02  0.7816164E-02  0.1186339E+00
        -11   -1    0    0    0    0  0.00000000000E+00  0.00000000000E+00  0.45593999997E+02  0.45594000000E+02  0.51100000000E-03 0.  1.
         11   -1    0    0    0    0 -0.00000000000E+00 -0.00000000000E+00 -0.45593999997E+02  0.45594000000E+02  0.51100000000E-03 0. -1.
    9900012    2    1    2    0    0 -0.15939305944E+00  0.69884201288E-01  0.11671057379E+01  0.90007989088E+02  0.90000253744E+02 0.  0.
         12    1    1    2    0    0  0.15939305944E+00 -0.69884201288E-01 -0.11671057379E+01  0.11800109120E+01  0.00000000000E+00 0. -1.
         11    1    3    3    0    0 -0.19699853914E+02 -0.31726835410E+02 -0.20941198288E+02  0.42816003029E+02  0.51100000000E-03 0. -1.
        -11    1    3    3    0    0 -0.23706403847E+01  0.50338030828E+01  0.82055860514E+01  0.99141692550E+01  0.51100000000E-03 0.  1.
        -12    1    3    3    0    0  0.21911101240E+02  0.26762916528E+02  0.13902717974E+02  0.37277816804E+02  0.00000000000E+00 0.  1.
</event>
<event>
 7    1  0.4119305E-015  0.9000768E+02  0.7816164E-02  0.1186339E+00
        -11   -1    0    0    0    0  0.00000000000E+00  0.00000000000E+00  0.45593999997E+02  0.45594000000E+02  0.51100000000E-03 0.  1.
         11   -1    0    0    0    0 -0.00000000000E+00 -0.00000000000E+00 -0.45593999997E+02  0.45594000000E+02  0.51100000000E-03 0. -1.
    9900012    2    1    2    0    0 -0.20204783117E+00  0.84178856776E+00  0.80232263273E+00  0.90007681007E+02  0.89999941596E+02 0.  0.
         12    1    1    2    0    0  0.20204783117E+00 -0.84178856776E+00 -0.80232263273E+00  0.11803189933E+01  0.00000000000E+00 0. -1.
         11    1    3    3    0    0 -0.46839312490E+01 -0.16420224716E+01 -0.72724102571E+01  0.88047374152E+01  0.51100000000E-03 0. -1.
        -11    1    3    3    0    0 -0.13413113264E+01  0.32670215947E+02 -0.21023183030E+02  0.38873080030E+02  0.51100000000E-03 0.  1.
         12    1    3    3    0    0  0.58231947442E+01 -0.30186404907E+02  0.29097915920E+02  0.42329863561E+02  0.00000000000E+00 0. -1.
</event>
<event>
 7    1  0.4319806E-015  0.9000790E+02  0.7816164E-02  0.1186339E+00
        -11   -1    0    0    0    0  0.00000000000E+00  0.00000000000E+00  0.45593999997E+02  0.45594000000E+02  0.51100000000E-03 0. -1.
         11   -1    0    0    0    0 -0.00000000000E+00 -0.00000000000E+00 -0.45593999997E+02  0.45594000000E+02  0.51100000000E-03 0.  1.
    9900012    2    1    2    0    0 -0.15940352633E-01 -0.11789752446E+01 -0.49065283386E-01  0.90007896562E+02  0.90000159996E+02 0.  0.
         12    1    1    2    0    0  0.15940352633E-01  0.11789752446E+01  0.49065283386E-01  0.11801034380E+01  0.00000000000E+00 0. -1.
         11    1    3    3    0    0  0.25013736672E+02 -0.30777087702E+02 -0.53501211893E+00  0.39663615417E+02  0.51100000000E-03 0. -1.
        -11    1    3    3    0    0  0.72525030768E+01  0.48732925504E+01  0.38383334399E+01  0.95436148821E+01  0.51100000000E-03 0.  1.
        -12    1    3    3    0    0 -0.32282180101E+02  0.24724819907E+02 -0.33523866044E+01  0.40800666263E+02  0.00000000000E+00 0.  1.
</event>
<event>
 7    1  0.4119305E-015  0.9000788E+02  0.7816164E-02  0.1186339E+00
        -11   -1    0    0    0    0  0.00000000000E+00  0.00000000000E+00  0.45593999997E+02  0.45594000000E+02  0.51100000000E-03 0. -1.
         11   -1    0    0    0    0 -0.00000000000E+00 -0.00000000000E+00 -0.45593999997E+02  0.45594000000E+02  0.51100000000E-03 0.  1.
    9900012    2    1    2    0    0  0.11376670587E+01 -0.81934799137E-01 -0.30280509507E+00  0.90007876882E+02  0.90000140057E+02 0.  0.
         12    1    1    2    0    0 -0.11376670587E+01  0.81934799137E-01  0.30280509507E+00  0.11801231179E+01  0.00000000000E+00 0. -1.
         11    1    3    3    0    0  0.74697824291E+01 -0.38662361103E+01  0.12564683767E+02  0.15120076376E+02  0.51100000000E-03 0. -1.
        -11    1    3    3    0    0  0.26266696978E+02 -0.83701003028E+01  0.14010284860E+02  0.30923874779E+02  0.51100000000E-03 0.  1.
         12    1    3    3    0    0 -0.32598812349E+02  0.12154401614E+02 -0.26877773721E+02  0.43963925727E+02  0.00000000000E+00 0. -1.
</event>
<event>
 7    1  0.4119305E-015  0.9000786E+02  0.7816164E-02  0.1186339E+00
        -11   -1    0    0    0    0  0.00000000000E+00  0.00000000000E+00  0.45593999997E+02  0.45594000000E+02  0.51100000000E-03 0.  1.
         11   -1    0    0    0    0 -0.00000000000E+00 -0.00000000000E+00 -0.45593999997E+02  0.45594000000E+02  0.51100000000E-03 0. -1.
    9900012    2    1    2    0    0  0.20897576865E+00  0.10985637740E+01  0.37711885417E+00  0.90007859386E+02  0.90000122330E+02 0.  0.
         12    1    1    2    0    0 -0.20897576865E+00 -0.10985637740E+01 -0.37711885417E+00  0.11801406135E+01  0.00000000000E+00 0. -1.
         11    1    3    3    0    0  0.18240491551E+02 -0.17643782799E+02  0.28168541961E+01  0.25533375634E+02  0.51100000000E-03 0. -1.
        -11    1    3    3    0    0 -0.87105242063E+01 -0.10495125966E+02 -0.23558997212E+02  0.27222183066E+02  0.51100000000E-03 0.  1.
        -12    1    3    3    0    0 -0.93209915755E+01  0.29237472539E+02  0.21119261870E+02  0.37252300686E+02  0.00000000000E+00 0.  1.
</event>
<event>
 7    1  0.4119305E-015  0.9000770E+02  0.7816164E-02  0.1186339E+00
        -11   -1    0    0    0    0  0.00000000000E+00  0.00000000000E+00  0.45593999997E+02  0.45594000000E+02  0.51100000000E-03 0. -1.
         11   -1    0    0    0    0 -0.00000000000E+00 -0.00000000000E+00 -0.45593999997E+02  0.45594000000E+02  0.51100000000E-03 0.  1.
    9900012    2    1    2    0    0 -0.34899974638E+00 -0.74208394941E+00 -0.84889550191E+00  0.90007697927E+02  0.89999958739E+02 0.  0.
         12    1    1    2    0    0  0.34899974638E+00  0.74208394941E+00  0.84889550191E+00  0.11803020732E+01  0.00000000000E+00 0. -1.
         11    1    3    3    0    0 -0.32910902651E+02  0.16939623639E+02  0.94286403966E+01  0.38196565583E+02  0.51100000000E-03 0. -1.
        -11    1    3    3    0    0 -0.55390576116E+01  0.23808231013E+01 -0.60542995308E+01  0.85442390495E+01  0.51100000000E-03 0.  1.
        -12    1    3    3    0    0  0.38100960516E+02 -0.20062530689E+02 -0.42232363676E+01  0.43266893294E+02  0.00000000000E+00 0.  1.
</event>
<event>
 7    1  0.4119305E-015  0.9000770E+02  0.7816164E-02  0.1186339E+00
        -11   -1    0    0    0    0  0.00000000000E+00  0.00000000000E+00  0.45593999997E+02  0.45594000000E+02  0.51100000000E-03 0.  1.
         11   -1    0    0    0    0 -0.00000000000E+00 -0.00000000000E+00 -0.45593999997E+02  0.45594000000E+02  0.51100000000E-03 0. -1.
    9900012    2    1    2    0    0 -0.65211982378E-01  0.95484964128E+00 -0.69074117521E+00  0.90007697576E+02  0.89999958384E+02 0.  0.
         12    1    1    2    0    0  0.65211982378E-01 -0.95484964128E+00  0.69074117521E+00  0.11803024236E+01  0.00000000000E+00 0. -1.
         11    1    3    3    0    0  0.10007498311E+02 -0.29642700331E+02 -0.21089632997E+02  0.37730787502E+02  0.51100000000E-03 0. -1.
        -11    1    3    3    0    0 -0.36970811387E+01 -0.61995064125E+01 -0.34147200176E+01  0.79851488255E+01  0.51100000000E-03 0.  1.
        -12    1    3    3    0    0 -0.63756291548E+01  0.36797056385E+02  0.23813611839E+02  0.44291761249E+02  0.00000000000E+00 0.  1.
</event>
<event>
 7    1  0.4119305E-015  0.9000769E+02  0.7816164E-02  0.1186339E+00
        -11   -1    0    0    0    0  0.00000000000E+00  0.00000000000E+00  0.45593999997E+02  0.45594000000E+02  0.51100000000E-03 0.  1.
         11   -1    0    0    0    0 -0.00000000000E+00 -0.00000000000E+00 -0.45593999997E+02  0.45594000000E+02  0.51100000000E-03 0. -1.
    9900012    2    1    2    0    0  0.99274566719E+00 -0.63383964135E+00  0.76363836265E-01  0.90007691529E+02  0.89999952257E+02 0.  0.
         12    1    1    2    0    0 -0.99274566719E+00  0.63383964135E+00 -0.76363836265E-01  0.11803084708E+01  0.00000000000E+00 0. -1.
         11    1    3    3    0    0  0.63928668747E+01 -0.24472001262E+02 -0.26333212547E+02  0.36512815229E+02  0.51100000000E-03 0. -1.
        -11    1    3    3    0    0 -0.75687861785E+01 -0.85551417067E+00 -0.80260105485E+01  0.11065047415E+02  0.51100000000E-03 0.  1.
        -12    1    3    3    0    0  0.21686649710E+01  0.24693675791E+02  0.34435586932E+02  0.42429828885E+02  0.00000000000E+00 0.  1.
</event>
<event>
 7    1  0.4119305E-015  0.9000774E+02  0.7816164E-02  0.1186339E+00
        -11   -1    0    0    0    0  0.00000000000E+00  0.00000000000E+00  0.45593999997E+02  0.45594000000E+02  0.51100000000E-03 0.  1.
         11   -1    0    0    0    0 -0.00000000000E+00 -0.00000000000E+00 -0.45593999997E+02  0.45594000000E+02  0.51100000000E-03 0. -1.
    9900012    2    1    2    0    0  0.79019785254E+00  0.50199753789E+00  0.71875206698E+00  0.90007737865E+02  0.89999999205E+02 0.  0.
         12    1    1    2    0    0 -0.79019785254E+00 -0.50199753789E+00 -0.71875206698E+00  0.11802621353E+01  0.00000000000E+00 0. -1.
         11    1    3    3    0    0  0.45478003242E+01  0.25178571584E+01  0.89119607282E+01  0.10317225244E+02  0.51100000000E-03 0. -1.
        -11    1    3    3    0    0 -0.18287189249E+02 -0.21825240508E+02  0.25343192481E+02  0.38118759414E+02  0.51100000000E-03 0.  1.
         12    1    3    3    0    0  0.14529586777E+02  0.19809380888E+02 -0.33536401143E+02  0.41571753206E+02  0.00000000000E+00 0. -1.
</event>
<event>
 7    1  0.4119305E-015  0.9000790E+02  0.7816164E-02  0.1186339E+00
        -11   -1    0    0    0    0  0.00000000000E+00  0.00000000000E+00  0.45593999997E+02  0.45594000000E+02  0.51100000000E-03 0. -1.
         11   -1    0    0    0    0 -0.00000000000E+00 -0.00000000000E+00 -0.45593999997E+02  0.45594000000E+02  0.51100000000E-03 0.  1.
    9900012    2    1    2    0    0 -0.10518326840E+01  0.42294454058E+00 -0.32772311025E+00  0.90007899785E+02  0.90000163262E+02 0.  0.
         12    1    1    2    0    0  0.10518326840E+01 -0.42294454058E+00  0.32772311025E+00  0.11801002146E+01  0.00000000000E+00 0. -1.
         11    1    3    3    0    0  0.24906573736E+02 -0.17989730686E+02  0.25883016796E+02  0.40173354156E+02  0.51100000000E-03 0. -1.
        -11    1    3    3    0    0 -0.10217185539E+01  0.90760892836E+01  0.36413878383E+01  0.98325485576E+01  0.51100000000E-03 0.  1.
        -12    1    3    3    0    0 -0.24936687866E+02  0.93365859427E+01 -0.29852127745E+02  0.40001997072E+02  0.00000000000E+00 0.  1.
</event>
<event>
 7    1  0.4119305E-015  0.9000776E+02  0.7816164E-02  0.1186339E+00
        -11   -1    0    0    0    0  0.00000000000E+00  0.00000000000E+00  0.45593999997E+02  0.45594000000E+02  0.51100000000E-03 0.  1.
         11   -1    0    0    0    0 -0.00000000000E+00 -0.00000000000E+00 -0.45593999997E+02  0.45594000000E+02  0.51100000000E-03 0. -1.
    9900012    2    1    2    0    0  0.80417679088E+00  0.80891614563E+00 -0.30317479905E+00  0.90007762481E+02  0.90000024146E+02 0.  0.
         12    1    1    2    0    0 -0.80417679088E+00 -0.80891614563E+00  0.30317479905E+00  0.11802375186E+01  0.00000000000E+00 0. -1.
         11    1    3    3    0    0  0.13491732530E+00  0.93778376578E+01 -0.11800195305E+01  0.94527502968E+01  0.51100000000E-03 0. -1.
        -11    1    3    3    0    0  0.23100412160E+02 -0.37115506417E+02 -0.41057982910E+01  0.43909536987E+02  0.51100000000E-03 0.  1.
         12    1    3    3    0    0 -0.22431152694E+02  0.28546584905E+02  0.49826430224E+01  0.36645475197E+02  0.00000000000E+00 0. -1.
</event>
<event>
 7    1  0.4119305E-015  0.9000769E+02  0.7816164E-02  0.1186339E+00
        -11   -1    0    0    0    0  0.00000000000E+00  0.00000000000E+00  0.45593999997E+02  0.45594000000E+02  0.51100000000E-03 0. -1.
         11   -1    0    0    0    0 -0.00000000000E+00 -0.00000000000E+00 -0.45593999997E+02  0.45594000000E+02  0.51100000000E-03 0.  1.
    9900012    2    1    2    0    0  0.21467526143E+00  0.97548916566E+00 -0.62886154451E+00  0.90007690116E+02  0.89999950825E+02 0.  0.
         12    1    1    2    0    0 -0.21467526143E+00 -0.97548916566E+00  0.62886154451E+00  0.11803098840E+01  0.00000000000E+00 0. -1.
         11    1    3    3    0    0 -0.33090757846E+02 -0.26464726940E+02  0.11233766567E+01  0.42386814013E+02  0.51100000000E-03 0. -1.
        -11    1    3    3    0    0  0.20564113664E+01  0.67069289263E+01 -0.68134183570E+01  0.97792838848E+01  0.51100000000E-03 0.  1.
        -12    1    3    3    0    0  0.31249021741E+02  0.20733287180E+02  0.50611801559E+01  0.37841592218E+02  0.00000000000E+00 0.  1.
</event>
<event>
 7    1  0.4119305E-015  0.9000769E+02  0.7816164E-02  0.1186339E+00
        -11   -1    0    0    0    0  0.00000000000E+00  0.00000000000E+00  0.45593999997E+02  0.45594000000E+02  0.51100000000E-03 0.  1.
         11   -1    0    0    0    0 -0.00000000000E+00 -0.00000000000E+00 -0.45593999997E+02  0.45594000000E+02  0.51100000000E-03 0. -1.
    9900012    2    1    2    0    0  0.41740721609E+00  0.89045130383E+00 -0.65268435307E+00  0.90007691069E+02  0.89999951791E+02 0.  0.
         12    1    1    2    0    0 -0.41740721609E+00 -0.89045130383E+00  0.65268435307E+00  0.11803089313E+01  0.00000000000E+00 0. -1.
         11    1    3    3    0    0  0.42986745152E+01  0.67232999758E+01 -0.57677613285E+01  0.98462396963E+01  0.51100000000E-03 0. -1.
        -11    1    3    3    0    0  0.29092297782E+02  0.97161872757E+01  0.24147268759E+02  0.39036606848E+02  0.51100000000E-03 0.  1.
         12    1    3    3    0    0 -0.32973565081E+02 -0.15549035948E+02 -0.19032191784E+02  0.41124844524E+02  0.00000000000E+00 0. -1.
</event>
<event>
 7    1  0.4119305E-015  0.9000826E+02  0.7816164E-02  0.1186338E+00
        -11   -1    0    0    0    0  0.00000000000E+00  0.00000000000E+00  0.45593999997E+02  0.45594000000E+02  0.51100000000E-03 0.  1.
         11   -1    0    0    0    0 -0.00000000000E+00 -0.00000000000E+00 -0.45593999997E+02  0.45594000000E+02  0.51100000000E-03 0. -1.
    9900012    2    1    2    0    0  0.53065352498E+00 -0.94241261927E+00  0.47123330842E+00  0.90008256155E+02  0.90000524335E+02 0.  0.
         12    1    1    2    0    0 -0.53065352498E+00  0.94241261927E+00 -0.47123330842E+00  0.11797438449E+01  0.00000000000E+00 0. -1.
         11    1    3    3    0    0  0.39290100630E+01  0.78705220077E+01 -0.10011014700E+01  0.88534988091E+01  0.51100000000E-03 0. -1.
        -11    1    3    3    0    0  0.25346515080E+02 -0.33080854544E+02  0.93708956614E+01  0.42715365500E+02  0.51100000000E-03 0.  1.
         12    1    3    3    0    0 -0.28744871618E+02  0.24267919917E+02 -0.78985608829E+01  0.38439391846E+02  0.00000000000E+00 0. -1.
</event>
<event>
 7    1  0.4119305E-015  0.9000772E+02  0.7816164E-02  0.1186339E+00
        -11   -1    0    0    0    0  0.00000000000E+00  0.00000000000E+00  0.45593999997E+02  0.45594000000E+02  0.51100000000E-03 0. -1.
         11   -1    0    0    0    0 -0.00000000000E+00 -0.00000000000E+00 -0.45593999997E+02  0.45594000000E+02  0.51100000000E-03 0.  1.
    9900012    2    1    2    0    0 -0.77386576519E+00  0.34187333790E+00 -0.82299241563E+00  0.90007719475E+02  0.89999980572E+02 0.  0.
         12    1    1    2    0    0  0.77386576519E+00 -0.34187333790E+00  0.82299241563E+00  0.11802805251E+01  0.00000000000E+00 0. -1.
         11    1    3    3    0    0  0.31560505249E+02  0.20416036736E+02  0.36246068671E+01  0.37762651162E+02  0.51100000000E-03 0. -1.
        -11    1    3    3    0    0  0.31527942121E+01  0.48070588571E+01 -0.67217576526E+01  0.88447697766E+01  0.51100000000E-03 0.  1.
        -12    1    3    3    0    0 -0.35487165227E+02 -0.24881222255E+02  0.22741583699E+01  0.43400298536E+02  0.00000000000E+00 0.  1.
</event>
<event>
 7    1  0.4119305E-015  0.9000746E+02  0.7816164E-02  0.1186340E+00
        -11   -1    0    0    0    0  0.00000000000E+00  0.00000000000E+00  0.45593999997E+02  0.45594000000E+02  0.51100000000E-03 0.  1.
         11   -1    0    0    0    0 -0.00000000000E+00 -0.00000000000E+00 -0.45593999997E+02  0.45594000000E+02  0.51100000000E-03 0. -1.
    9900012    2    1    2    0    0 -0.73559883828E+00  0.73633280344E+00 -0.55711324642E+00  0.90007463335E+02  0.89999721050E+02 0.  0.
         12    1    1    2    0    0  0.73559883828E+00 -0.73633280344E+00  0.55711324642E+00  0.11805366651E+01  0.00000000000E+00 0. -1.
         11    1    3    3    0    0 -0.28344390128E+01 -0.11811956200E+02  0.62524331014E+01  0.13661964490E+02  0.51100000000E-03 0. -1.
        -11    1    3    3    0    0 -0.28268331836E+02  0.22512106978E+02  0.13389016726E+02  0.38537764784E+02  0.51100000000E-03 0.  1.
         12    1    3    3    0    0  0.30367172010E+02 -0.99638179751E+01 -0.20198563074E+02  0.37807734061E+02  0.00000000000E+00 0. -1.
</event>
<event>
 7    1  0.4119305E-015  0.9000777E+02  0.7816164E-02  0.1186339E+00
        -11   -1    0    0    0    0  0.00000000000E+00  0.00000000000E+00  0.45593999997E+02  0.45594000000E+02  0.51100000000E-03 0. -1.
         11   -1    0    0    0    0 -0.00000000000E+00 -0.00000000000E+00 -0.45593999997E+02  0.45594000000E+02  0.51100000000E-03 0.  1.
    9900012    2    1    2    0    0  0.16931430254E+00  0.45611424975E+00 -0.10752822465E+01  0.90007771441E+02  0.90000033224E+02 0.  0.
         12    1    1    2    0    0 -0.16931430254E+00 -0.45611424975E+00  0.10752822465E+01  0.11802285590E+01  0.00000000000E+00 0. -1.
         11    1    3    3    0    0 -0.55643541317E+01 -0.30226561938E+02 -0.19827460508E+02  0.36575063554E+02  0.51100000000E-03 0. -1.
        -11    1    3    3    0    0 -0.99288910412E+01 -0.34547943124E+01 -0.17263683565E+01  0.10653582919E+02  0.51100000000E-03 0.  1.
        -12    1    3    3    0    0  0.15662559475E+02  0.34137470500E+02  0.20478546618E+02  0.42779124968E+02  0.00000000000E+00 0.  1.
</event>
<event>
 7    1  0.4119305E-015  0.9000776E+02  0.7816164E-02  0.1186339E+00
        -11   -1    0    0    0    0  0.00000000000E+00  0.00000000000E+00  0.45593999997E+02  0.45594000000E+02  0.51100000000E-03 0.  1.
         11   -1    0    0    0    0 -0.00000000000E+00 -0.00000000000E+00 -0.45593999997E+02  0.45594000000E+02  0.51100000000E-03 0. -1.
    9900012    2    1    2    0    0  0.83496060464E+00 -0.33627294441E+00  0.76336556923E+00  0.90007760322E+02  0.90000021959E+02 0.  0.
         12    1    1    2    0    0 -0.83496060464E+00  0.33627294441E+00 -0.76336556923E+00  0.11802396777E+01  0.00000000000E+00 0. -1.
         11    1    3    3    0    0  0.93773023812E+01  0.44056433811E+01 -0.39109201390E+02  0.40458288733E+02  0.51100000000E-03 0. -1.
        -11    1    3    3    0    0  0.14774007273E+01  0.86501903403E+01  0.33750724571E+01  0.94021072204E+01  0.51100000000E-03 0.  1.
        -12    1    3    3    0    0 -0.10019742504E+02 -0.13392106666E+02  0.36497494503E+02  0.40147364369E+02  0.00000000000E+00 0.  1.
</event>
<event>
 7    1  0.4119305E-015  0.9000756E+02  0.7816164E-02  0.1186339E+00
        -11   -1    0    0    0    0  0.00000000000E+00  0.00000000000E+00  0.45593999997E+02  0.45594000000E+02  0.51100000000E-03 0.  1.
         11   -1    0    0    0    0 -0.00000000000E+00 -0.00000000000E+00 -0.45593999997E+02  0.45594000000E+02  0.51100000000E-03 0. -1.
    9900012    2    1    2    0    0 -0.49954185435E+00 -0.10656565085E+01 -0.90960289242E-01  0.90007559560E+02  0.89999818546E+02 0.  0.
         12    1    1    2    0    0  0.49954185435E+00  0.10656565085E+01  0.90960289242E-01  0.11804404401E+01  0.00000000000E+00 0. -1.
         11    1    3    3    0    0 -0.11462529281E+02  0.49002260552E+01 -0.27184958252E+02  0.29906918069E+02  0.51100000000E-03 0. -1.
        -11    1    3    3    0    0  0.98017573186E+01  0.15038385482E+02 -0.76272695519E+01  0.19503915646E+02  0.51100000000E-03 0.  1.
        -12    1    3    3    0    0  0.11612301084E+01 -0.21004268046E+02  0.34721267515E+02  0.40596725845E+02  0.00000000000E+00 0.  1.
</event>
<event>
 7    1  0.4119305E-015  0.9000777E+02  0.7816164E-02  0.1186339E+00
        -11   -1    0    0    0    0  0.00000000000E+00  0.00000000000E+00  0.45593999997E+02  0.45594000000E+02  0.51100000000E-03 0.  1.
         11   -1    0    0    0    0 -0.00000000000E+00 -0.00000000000E+00 -0.45593999997E+02  0.45594000000E+02  0.51100000000E-03 0. -1.
    9900012    2    1    2    0    0  0.82617669344E-01  0.11025520114E+01  0.41292408255E+00  0.90007765737E+02  0.90000027445E+02 0.  0.
         12    1    1    2    0    0 -0.82617669344E-01 -0.11025520114E+01 -0.41292408255E+00  0.11802342628E+01  0.00000000000E+00 0. -1.
         11    1    3    3    0    0 -0.70246320073E+01  0.29987379590E+02 -0.32667529029E+02  0.44897169650E+02  0.51100000000E-03 0. -1.
        -11    1    3    3    0    0 -0.68011751741E+00 -0.54256739570E+01  0.94298023084E+01  0.10900535288E+02  0.51100000000E-03 0.  1.
        -12    1    3    3    0    0  0.77873671940E+01 -0.23459153622E+02  0.23650650803E+02  0.34210060799E+02  0.00000000000E+00 0.  1.
</event>
<event>
 7    1  0.4119305E-015  0.9000809E+02  0.7816164E-02  0.1186338E+00
        -11   -1    0    0    0    0  0.00000000000E+00  0.00000000000E+00  0.45593999997E+02  0.45594000000E+02  0.51100000000E-03 0.  1.
         11   -1    0    0    0    0 -0.00000000000E+00 -0.00000000000E+00 -0.45593999997E+02  0.45594000000E+02  0.51100000000E-03 0. -1.
    9900012    2    1    2    0    0 -0.52561853309E+00  0.89506035637E+00 -0.56104620572E+00  0.90008092915E+02  0.90000358941E+02 0.  0.
         12    1    1    2    0    0  0.52561853309E+00 -0.89506035637E+00  0.56104620572E+00  0.11799070848E+01  0.00000000000E+00 0. -1.
         11    1    3    3    0    0 -0.11584496714E+02  0.70716676316E+01 -0.28342525622E+01  0.13865137397E+02  0.51100000000E-03 0. -1.
        -11    1    3    3    0    0 -0.13534836503E+02  0.29205244049E+02 -0.45743992814E+01  0.32512508488E+02  0.51100000000E-03 0.  1.
         12    1    3    3    0    0  0.24593714683E+02 -0.35381851324E+02  0.68476056378E+01  0.43630447030E+02  0.00000000000E+00 0. -1.
</event>
<event>
 7    1  0.4119305E-015  0.9000771E+02  0.7816164E-02  0.1186339E+00
        -11   -1    0    0    0    0  0.00000000000E+00  0.00000000000E+00  0.45593999997E+02  0.45594000000E+02  0.51100000000E-03 0. -1.
         11   -1    0    0    0    0 -0.00000000000E+00 -0.00000000000E+00 -0.45593999997E+02  0.45594000000E+02  0.51100000000E-03 0.  1.
    9900012    2    1    2    0    0 -0.65072678143E+00  0.98254233086E+00  0.65104995367E-01  0.90007714680E+02  0.89999975714E+02 0.  0.
         12    1    1    2    0    0  0.65072678143E+00 -0.98254233086E+00 -0.65104995367E-01  0.11802853199E+01  0.00000000000E+00 0. -1.
         11    1    3    3    0    0 -0.12072242051E+02  0.11742705828E+02  0.21695874441E+01  0.16980496996E+02  0.51100000000E-03 0. -1.
        -11    1    3    3    0    0  0.38391873557E+02  0.75973765497E+01  0.55179836236E+01  0.39523464286E+02  0.51100000000E-03 0.  1.
         12    1    3    3    0    0 -0.26970358287E+02 -0.18357540047E+02 -0.76224660724E+01  0.33503753397E+02  0.00000000000E+00 0. -1.
</event>
<event>
 7    1  0.4119305E-015  0.9000784E+02  0.7816164E-02  0.1186339E+00
        -11   -1    0    0    0    0  0.00000000000E+00  0.00000000000E+00  0.45593999997E+02  0.45594000000E+02  0.51100000000E-03 0.  1.
         11   -1    0    0    0    0 -0.00000000000E+00 -0.00000000000E+00 -0.45593999997E+02  0.45594000000E+02  0.51100000000E-03 0. -1.
    9900012    2    1    2    0    0  0.58844226687E+00 -0.82700495389E+00  0.60213597434E+00  0.90007843558E+02  0.90000106293E+02 0.  0.
         12    1    1    2    0    0 -0.58844226687E+00  0.82700495389E+00 -0.60213597434E+00  0.11801564417E+01  0.00000000000E+00 0. -1.
         11    1    3    3    0    0 -0.80737899410E+01 -0.15249114742E+02 -0.34630729689E+02  0.38691200854E+02  0.51100000000E-03 0. -1.
        -11    1    3    3    0    0  0.61354514745E+01  0.43455560012E+01 -0.54771891175E+01  0.93020010023E+01  0.51100000000E-03 0.  1.
        -12    1    3    3    0    0  0.25267807333E+01  0.10076553787E+02  0.40710054781E+02  0.42014641702E+02  0.00000000000E+00 0.  1.
</event>
<event>
 7    1  0.4119305E-015  0.9000796E+02  0.7816164E-02  0.1186339E+00
        -11   -1    0    0    0    0  0.00000000000E+00  0.00000000000E+00  0.45593999997E+02  0.45594000000E+02  0.51100000000E-03 0.  1.
         11   -1    0    0    0    0 -0.00000000000E+00 -0.00000000000E+00 -0.45593999997E+02  0.45594000000E+02  0.51100000000E-03 0. -1.
    9900012    2    1    2    0    0  0.31683781780E+00  0.11350127880E+01  0.62091216391E-01  0.90007959513E+02  0.90000223778E+02 0.  0.
         12    1    1    2    0    0 -0.31683781780E+00 -0.11350127880E+01 -0.62091216391E-01  0.11800404869E+01  0.00000000000E+00 0. -1.
         11    1    3    3    0    0 -0.21203815145E+02  0.34304873392E+02 -0.28507602040E+01  0.40429604860E+02  0.51100000000E-03 0. -1.
        -11    1    3    3    0    0 -0.55157223837E+01 -0.55680604826E+01 -0.60671214473E+01  0.99114304653E+01  0.51100000000E-03 0.  1.
        -12    1    3    3    0    0  0.27036375347E+02 -0.27601800121E+02  0.89799728677E+01  0.39666924188E+02  0.00000000000E+00 0.  1.
</event>
<event>
 7    1  0.4119305E-015  0.9000773E+02  0.7816164E-02  0.1186339E+00
        -11   -1    0    0    0    0  0.00000000000E+00  0.00000000000E+00  0.45593999997E+02  0.45594000000E+02  0.51100000000E-03 0.  1.
         11   -1    0    0    0    0 -0.00000000000E+00 -0.00000000000E+00 -0.45593999997E+02  0.45594000000E+02  0.51100000000E-03 0. -1.
    9900012    2    1    2    0    0  0.76030673208E+00  0.57590933789E+00 -0.69519325481E+00  0.90007732423E+02  0.89999993691E+02 0.  0.
         12    1    1    2    0    0 -0.76030673208E+00 -0.57590933789E+00  0.69519325481E+00  0.11802675772E+01  0.00000000000E+00 0. -1.
         11    1    3    3    0    0 -0.14726392062E+02 -0.27077692472E+02 -0.26778420690E+02  0.40830771089E+02  0.51100000000E-03 0. -1.
        -11    1    3    3    0    0 -0.76051210065E+01  0.51427120654E+01  0.35845081940E+01  0.98556609197E+01  0.51100000000E-03 0.  1.
        -12    1    3    3    0    0  0.23091819800E+02  0.22510889744E+02  0.22498719242E+02  0.39321300414E+02  0.00000000000E+00 0.  1.
</event>
<event>
 7    1  0.4119305E-015  0.9000772E+02  0.7816164E-02  0.1186339E+00
        -11   -1    0    0    0    0  0.00000000000E+00  0.00000000000E+00  0.45593999997E+02  0.45594000000E+02  0.51100000000E-03 0.  1.
         11   -1    0    0    0    0 -0.00000000000E+00 -0.00000000000E+00 -0.45593999997E+02  0.45594000000E+02  0.51100000000E-03 0. -1.
    9900012    2    1    2    0    0  0.26567687396E+00 -0.58394372806E+00  0.99069410444E+00  0.90007724910E+02  0.89999986079E+02 0.  0.
         12    1    1    2    0    0 -0.26567687396E+00  0.58394372806E+00 -0.99069410444E+00  0.11802750897E+01  0.00000000000E+00 0. -1.
         11    1    3    3    0    0  0.45727215719E+01 -0.36685765338E+02 -0.99966835624E+01  0.38297373846E+02  0.51100000000E-03 0. -1.
        -11    1    3    3    0    0 -0.82198636488E+01 -0.11805961489E+01  0.11542175154E+02  0.14219063725E+02  0.51100000000E-03 0.  1.
        -12    1    3    3    0    0  0.39128189509E+01  0.37282417759E+02 -0.55479748695E+00  0.37491287339E+02  0.00000000000E+00 0.  1.
</event>
<event>
 7    1  0.4119305E-015  0.9000776E+02  0.7816164E-02  0.1186339E+00
        -11   -1    0    0    0    0  0.00000000000E+00  0.00000000000E+00  0.45593999997E+02  0.45594000000E+02  0.51100000000E-03 0.  1.
         11   -1    0    0    0    0 -0.00000000000E+00 -0.00000000000E+00 -0.45593999997E+02  0.45594000000E+02  0.51100000000E-03 0. -1.
    9900012    2    1    2    0    0 -0.11505119081E+01  0.13824527090E+00 -0.22401579800E+00  0.90007757447E+02  0.90000019045E+02 0.  0.
         12    1    1    2    0    0  0.11505119081E+01 -0.13824527090E+00  0.22401579800E+00  0.11802425528E+01  0.00000000000E+00 0. -1.
         11    1    3    3    0    0  0.85767429221E+01  0.37555602412E+01  0.13810149621E+01  0.94642461117E+01  0.51100000000E-03 0. -1.
        -11    1    3    3    0    0  0.23958839442E+02 -0.23185841885E+02 -0.18444262630E+02  0.38102494348E+02  0.51100000000E-03 0.  1.
         12    1    3    3    0    0 -0.33686094272E+02  0.19568526915E+02  0.16839231870E+02  0.42441016987E+02  0.00000000000E+00 0. -1.
</event>
<event>
 7    1  0.4119305E-015  0.9000763E+02  0.7816164E-02  0.1186339E+00
        -11   -1    0    0    0    0  0.00000000000E+00  0.00000000000E+00  0.45593999997E+02  0.45594000000E+02  0.51100000000E-03 0.  1.
         11   -1    0    0    0    0 -0.00000000000E+00 -0.00000000000E+00 -0.45593999997E+02  0.45594000000E+02  0.51100000000E-03 0. -1.
    9900012    2    1    2    0    0 -0.31948378085E+00 -0.36006104324E+00  0.10777534374E+01  0.90007632975E+02  0.89999892931E+02 0.  0.
         12    1    1    2    0    0  0.31948378085E+00  0.36006104324E+00 -0.10777534374E+01  0.11803670247E+01  0.00000000000E+00 0. -1.
         11    1    3    3    0    0 -0.59146186648E+00 -0.29769552147E+02  0.32640081475E+02  0.44180889320E+02  0.51100000000E-03 0. -1.
        -11    1    3    3    0    0  0.35526216319E+01  0.67046994383E+00 -0.70037030563E+01  0.78817832479E+01  0.51100000000E-03 0.  1.
        -12    1    3    3    0    0 -0.32806435463E+01  0.28739021160E+02 -0.24558624982E+02  0.37944960407E+02  0.00000000000E+00 0.  1.
</event>
<event>
 7    1  0.4119305E-015  0.9000774E+02  0.7816164E-02  0.1186339E+00
        -11   -1    0    0    0    0  0.00000000000E+00  0.00000000000E+00  0.45593999997E+02  0.45594000000E+02  0.51100000000E-03 0.  1.
         11   -1    0    0    0    0 -0.00000000000E+00 -0.00000000000E+00 -0.45593999997E+02  0.45594000000E+02  0.51100000000E-03 0. -1.
    9900012    2    1    2    0    0 -0.81637619352E+00 -0.72890028763E-01  0.84924769784E+00  0.90007743800E+02  0.90000005218E+02 0.  0.
         12    1    1    2    0    0  0.81637619352E+00  0.72890028763E-01 -0.84924769784E+00  0.11802562001E+01  0.00000000000E+00 0. -1.
         11    1    3    3    0    0 -0.91534554101E+01  0.24925234239E+01  0.26350187757E+01  0.98458998153E+01  0.51100000000E-03 0. -1.
        -11    1    3    3    0    0 -0.23521196962E+02  0.33527982073E+01  0.27600421298E+02  0.36418006788E+02  0.51100000000E-03 0.  1.
         12    1    3    3    0    0  0.31858276179E+02 -0.59182116600E+01 -0.29386192376E+02  0.43743837196E+02  0.00000000000E+00 0. -1.
</event>
<event>
 7    1  0.4119305E-015  0.9000767E+02  0.7816164E-02  0.1186339E+00
        -11   -1    0    0    0    0  0.00000000000E+00  0.00000000000E+00  0.45593999997E+02  0.45594000000E+02  0.51100000000E-03 0.  1.
         11   -1    0    0    0    0 -0.00000000000E+00 -0.00000000000E+00 -0.45593999997E+02  0.45594000000E+02  0.51100000000E-03 0. -1.
    9900012    2    1    2    0    0 -0.99071801331E+00  0.19612267956E-01  0.64129996174E+00  0.90007672730E+02  0.89999933210E+02 0.  0.
         12    1    1    2    0    0  0.99071801331E+00 -0.19612267956E-01 -0.64129996174E+00  0.11803272698E+01  0.00000000000E+00 0. -1.
         11    1    3    3    0    0  0.99427133145E+01 -0.73272267510E+01  0.81347561335E+01  0.14789187183E+02  0.51100000000E-03 0. -1.
        -11    1    3    3    0    0 -0.73774719465E+01 -0.10875634749E+02  0.30346106298E+02  0.33069513018E+02  0.51100000000E-03 0.  1.
         12    1    3    3    0    0 -0.35559593812E+01  0.18222473768E+02 -0.37839562470E+02  0.42148972529E+02  0.00000000000E+00 0. -1.
</event>
<event>
 7    1  0.4119305E-015  0.9000772E+02  0.7816164E-02  0.1186339E+00
        -11   -1    0    0    0    0  0.00000000000E+00  0.00000000000E+00  0.45593999997E+02  0.45594000000E+02  0.51100000000E-03 0.  1.
         11   -1    0    0    0    0 -0.00000000000E+00 -0.00000000000E+00 -0.45593999997E+02  0.45594000000E+02  0.51100000000E-03 0. -1.
    9900012    2    1    2    0    0 -0.62333657513E+00 -0.53145137338E+00  0.84974881042E+00  0.90007719487E+02  0.89999980584E+02 0.  0.
         12    1    1    2    0    0  0.62333657513E+00  0.53145137338E+00 -0.84974881042E+00  0.11802805128E+01  0.00000000000E+00 0. -1.
         11    1    3    3    0    0 -0.30022468015E+01 -0.11448358687E+02  0.32023519059E+01  0.12261054623E+02  0.51100000000E-03 0. -1.
        -11    1    3    3    0    0 -0.33989570902E+02  0.17231223565E+02  0.89456495808E+01  0.39143717789E+02  0.51100000000E-03 0.  1.
         12    1    3    3    0    0  0.36368481128E+02 -0.63143162512E+01 -0.11298252676E+02  0.38602947075E+02  0.00000000000E+00 0. -1.
</event>
<event>
 7    1  0.4119305E-015  0.9000771E+02  0.7816164E-02  0.1186339E+00
        -11   -1    0    0    0    0  0.00000000000E+00  0.00000000000E+00  0.45593999997E+02  0.45594000000E+02  0.51100000000E-03 0.  1.
         11   -1    0    0    0    0 -0.00000000000E+00 -0.00000000000E+00 -0.45593999997E+02  0.45594000000E+02  0.51100000000E-03 0. -1.
    9900012    2    1    2    0    0  0.79854141365E+00  0.73159792367E+00  0.46924421646E+00  0.90007705949E+02  0.89999966868E+02 0.  0.
         12    1    1    2    0    0 -0.79854141365E+00 -0.73159792367E+00 -0.46924421646E+00  0.11802940506E+01  0.00000000000E+00 0. -1.
         11    1    3    3    0    0  0.28165825496E+01 -0.32858581987E+01  0.10832825696E+02  0.11665338151E+02  0.51100000000E-03 0. -1.
        -11    1    3    3    0    0 -0.61617124392E+01  0.87987448721E+01  0.32904858811E+02  0.34613788367E+02  0.51100000000E-03 0.  1.
         12    1    3    3    0    0  0.41436713033E+01 -0.47812887497E+01 -0.43268440290E+02  0.43728579431E+02  0.00000000000E+00 0. -1.
</event>
<event>
 7    1  0.4119305E-015  0.9000777E+02  0.7816164E-02  0.1186339E+00
        -11   -1    0    0    0    0  0.00000000000E+00  0.00000000000E+00  0.45593999997E+02  0.45594000000E+02  0.51100000000E-03 0. -1.
         11   -1    0    0    0    0 -0.00000000000E+00 -0.00000000000E+00 -0.45593999997E+02  0.45594000000E+02  0.51100000000E-03 0.  1.
    9900012    2    1    2    0    0  0.88815961463E+00  0.33822145674E+00 -0.69980901510E+00  0.90007765315E+02  0.90000027017E+02 0.  0.
         12    1    1    2    0    0 -0.88815961463E+00 -0.33822145674E+00  0.69980901510E+00  0.11802346853E+01  0.00000000000E+00 0. -1.
         11    1    3    3    0    0  0.36593731195E+02  0.11870140012E+02  0.62340912396E+01  0.38972622192E+02  0.51100000000E-03 0. -1.
        -11    1    3    3    0    0 -0.14397628613E+01  0.70914360491E+01  0.65599560575E+01  0.97670059933E+01  0.51100000000E-03 0.  1.
        -12    1    3    3    0    0 -0.34265808719E+02 -0.18623354605E+02 -0.13493856312E+02  0.41268137129E+02  0.00000000000E+00 0.  1.
</event>
<event>
 7    1  0.4119305E-015  0.9000773E+02  0.7816164E-02  0.1186339E+00
        -11   -1    0    0    0    0  0.00000000000E+00  0.00000000000E+00  0.45593999997E+02  0.45594000000E+02  0.51100000000E-03 0.  1.
         11   -1    0    0    0    0 -0.00000000000E+00 -0.00000000000E+00 -0.45593999997E+02  0.45594000000E+02  0.51100000000E-03 0. -1.
    9900012    2    1    2    0    0 -0.37282517627E+00 -0.10164380435E+01 -0.47000096469E+00  0.90007726381E+02  0.89999987569E+02 0.  0.
         12    1    1    2    0    0  0.37282517627E+00  0.10164380435E+01  0.47000096469E+00  0.11802736188E+01  0.00000000000E+00 0. -1.
         11    1    3    3    0    0 -0.56584240301E+01  0.25161637197E+01 -0.10871079554E+02  0.12511163547E+02  0.51100000000E-03 0. -1.
        -11    1    3    3    0    0 -0.12218290967E+02 -0.94209348335E+01  0.39851981955E+02  0.42734308387E+02  0.51100000000E-03 0.  1.
         12    1    3    3    0    0  0.17503889821E+02  0.58883330703E+01 -0.29450903366E+02  0.34762254448E+02  0.00000000000E+00 0. -1.
</event>
<event>
 7    1  0.4119305E-015  0.9000773E+02  0.7816164E-02  0.1186339E+00
        -11   -1    0    0    0    0  0.00000000000E+00  0.00000000000E+00  0.45593999997E+02  0.45594000000E+02  0.51100000000E-03 0. -1.
         11   -1    0    0    0    0 -0.00000000000E+00 -0.00000000000E+00 -0.45593999997E+02  0.45594000000E+02  0.51100000000E-03 0.  1.
    9900012    2    1    2    0    0 -0.51876893947E+00  0.10244882178E+01  0.27264846489E+00  0.90007731172E+02  0.89999992423E+02 0.  0.
         12    1    1    2    0    0  0.51876893947E+00 -0.10244882178E+01 -0.27264846489E+00  0.11802688280E+01  0.00000000000E+00 0. -1.
         11    1    3    3    0    0  0.25390864477E+02  0.72788890284E+01  0.25616065502E+02  0.36794850678E+02  0.51100000000E-03 0. -1.
        -11    1    3    3    0    0 -0.20306707760E+02 -0.35417166747E+01  0.58317221720E+01  0.21422304284E+02  0.51100000000E-03 0.  1.
        -12    1    3    3    0    0 -0.56029256558E+01 -0.27126841359E+01 -0.31175139209E+02  0.31790576211E+02  0.00000000000E+00 0.  1.
</event>
<event>
 7    1  0.4119305E-015  0.9000773E+02  0.7816164E-02  0.1186339E+00
        -11   -1    0    0    0    0  0.00000000000E+00  0.00000000000E+00  0.45593999997E+02  0.45594000000E+02  0.51100000000E-03 0.  1.
         11   -1    0    0    0    0 -0.00000000000E+00 -0.00000000000E+00 -0.45593999997E+02  0.45594000000E+02  0.51100000000E-03 0. -1.
    9900012    2    1    2    0    0 -0.87402837797E+00  0.62532756710E+00  0.48793713836E+00  0.90007727649E+02  0.89999988854E+02 0.  0.
         12    1    1    2    0    0  0.87402837797E+00 -0.62532756710E+00 -0.48793713836E+00  0.11802723510E+01  0.00000000000E+00 0. -1.
         11    1    3    3    0    0  0.30263845058E+02 -0.56026179752E+01  0.22873644625E+02  0.38347011155E+02  0.51100000000E-03 0. -1.
        -11    1    3    3    0    0  0.27928093298E+01 -0.89039152363E+01 -0.56916473781E+01  0.10930431859E+02  0.51100000000E-03 0.  1.
        -12    1    3    3    0    0 -0.33930682765E+02  0.15131860779E+02 -0.16694060108E+02  0.40730284635E+02  0.00000000000E+00 0.  1.
</event>
<event>
 7    1  0.4119305E-015  0.9000776E+02  0.7816164E-02  0.1186339E+00
        -11   -1    0    0    0    0  0.00000000000E+00  0.00000000000E+00  0.45593999997E+02  0.45594000000E+02  0.51100000000E-03 0. -1.
         11   -1    0    0    0    0 -0.00000000000E+00 -0.00000000000E+00 -0.45593999997E+02  0.45594000000E+02  0.51100000000E-03 0.  1.
    9900012    2    1    2    0    0 -0.46739177562E+00 -0.10783955553E+01 -0.10763249243E+00  0.90007755619E+02  0.90000017193E+02 0.  0.
         12    1    1    2    0    0  0.46739177562E+00  0.10783955553E+01  0.10763249243E+00  0.11802443810E+01  0.00000000000E+00 0. -1.
         11    1    3    3    0    0  0.23552578796E+01 -0.79447515023E+01  0.33390244521E+01  0.89339465336E+01  0.51100000000E-03 0. -1.
        -11    1    3    3    0    0  0.35524654990E+02  0.15972076575E+02 -0.11972546054E+02  0.40748622082E+02  0.51100000000E-03 0.  1.
         12    1    3    3    0    0 -0.38347304646E+02 -0.91057206285E+01  0.85258891092E+01  0.40325187003E+02  0.00000000000E+00 0. -1.
</event>
<event>
 7    1  0.4119305E-015  0.9000773E+02  0.7816164E-02  0.1186339E+00
        -11   -1    0    0    0    0  0.00000000000E+00  0.00000000000E+00  0.45593999997E+02  0.45594000000E+02  0.51100000000E-03 0.  1.
         11   -1    0    0    0    0 -0.00000000000E+00 -0.00000000000E+00 -0.45593999997E+02  0.45594000000E+02  0.51100000000E-03 0. -1.
    9900012    2    1    2    0    0  0.27547240325E+00 -0.11319849297E+01  0.18909726381E+00  0.90007731937E+02  0.89999993198E+02 0.  0.
         12    1    1    2    0    0 -0.27547240325E+00  0.11319849297E+01 -0.18909726381E+00  0.11802680633E+01  0.00000000000E+00 0. -1.
         11    1    3    3    0    0 -0.72464518074E+01 -0.33505893106E+01 -0.24743317117E+01  0.83582193203E+01  0.51100000000E-03 0. -1.
        -11    1    3    3    0    0 -0.22074125638E+02  0.69330825496E+01  0.32147680407E+02  0.39608181126E+02  0.51100000000E-03 0.  1.
         12    1    3    3    0    0  0.29596049849E+02 -0.47144781687E+01 -0.29484251431E+02  0.42041331490E+02  0.00000000000E+00 0. -1.
</event>
<event>
 7    1  0.4119305E-015  0.9000772E+02  0.7816164E-02  0.1186339E+00
        -11   -1    0    0    0    0  0.00000000000E+00  0.00000000000E+00  0.45593999997E+02  0.45594000000E+02  0.51100000000E-03 0. -1.
         11   -1    0    0    0    0 -0.00000000000E+00 -0.00000000000E+00 -0.45593999997E+02  0.45594000000E+02  0.51100000000E-03 0.  1.
    9900012    2    1    2    0    0  0.57214497635E+00  0.76020100984E+00  0.69843381893E+00  0.90007718149E+02  0.89999979228E+02 0.  0.
         12    1    1    2    0    0 -0.57214497635E+00 -0.76020100984E+00 -0.69843381893E+00  0.11802818514E+01  0.00000000000E+00 0. -1.
         11    1    3    3    0    0  0.37448058177E+01  0.11202587027E+01  0.10374132120E+02  0.11086079906E+02  0.51100000000E-03 0. -1.
        -11    1    3    3    0    0  0.32796211121E+02 -0.15347886906E+02  0.63968048090E+01  0.36770480122E+02  0.51100000000E-03 0.  1.
         12    1    3    3    0    0 -0.35968871962E+02  0.14987829213E+02 -0.16072503110E+02  0.42151158121E+02  0.00000000000E+00 0. -1.
</event>
<event>
 7    1  0.4119305E-015  0.9000765E+02  0.7816164E-02  0.1186339E+00
        -11   -1    0    0    0    0  0.00000000000E+00  0.00000000000E+00  0.45593999997E+02  0.45594000000E+02  0.51100000000E-03 0.  1.
         11   -1    0    0    0    0 -0.00000000000E+00 -0.00000000000E+00 -0.45593999997E+02  0.45594000000E+02  0.51100000000E-03 0. -1.
    9900012    2    1    2    0    0 -0.23255028730E-01 -0.10977444013E+01  0.43317624468E+00  0.90007650380E+02  0.89999910565E+02 0.  0.
         12    1    1    2    0    0  0.23255028730E-01  0.10977444013E+01 -0.43317624468E+00  0.11803496202E+01  0.00000000000E+00 0. -1.
         11    1    3    3    0    0  0.22802396250E+02 -0.60628630094E+01 -0.15377046933E+02  0.28163116931E+02  0.51100000000E-03 0. -1.
        -11    1    3    3    0    0  0.84522900645E+01  0.17265315381E+02  0.20275377805E+02  0.27939636145E+02  0.51100000000E-03 0.  1.
         12    1    3    3    0    0 -0.31277941344E+02 -0.12300196773E+02 -0.44651546275E+01  0.33904897304E+02  0.00000000000E+00 0. -1.
</event>
<event>
 7    1  0.4119305E-015  0.9000776E+02  0.7816164E-02  0.1186339E+00
        -11   -1    0    0    0    0  0.00000000000E+00  0.00000000000E+00  0.45593999997E+02  0.45594000000E+02  0.51100000000E-03 0.  1.
         11   -1    0    0    0    0 -0.00000000000E+00 -0.00000000000E+00 -0.45593999997E+02  0.45594000000E+02  0.51100000000E-03 0. -1.
    9900012    2    1    2    0    0 -0.38104361352E+00  0.16668156912E+00  0.11045311857E+01  0.90007760143E+02  0.90000021776E+02 0.  0.
         12    1    1    2    0    0  0.38104361352E+00 -0.16668156912E+00 -0.11045311857E+01  0.11802398574E+01  0.00000000000E+00 0. -1.
         11    1    3    3    0    0 -0.24336182219E+02 -0.12442723324E+02  0.28755630484E+02  0.39673132136E+02  0.51100000000E-03 0. -1.
        -11    1    3    3    0    0 -0.84138017703E+00  0.92075833045E+01  0.39228864932E+01  0.10043731857E+02  0.51100000000E-03 0.  1.
        -12    1    3    3    0    0  0.24796518782E+02  0.34018215888E+01 -0.31573985791E+02  0.40290896150E+02  0.00000000000E+00 0.  1.
</event>
<event>
 7    1  0.4119305E-015  0.9000886E+02  0.7816164E-02  0.1186337E+00
        -11   -1    0    0    0    0  0.00000000000E+00  0.00000000000E+00  0.45593999997E+02  0.45594000000E+02  0.51100000000E-03 0. -1.
         11   -1    0    0    0    0 -0.00000000000E+00 -0.00000000000E+00 -0.45593999997E+02  0.45594000000E+02  0.51100000000E-03 0.  1.
    9900012    2    1    2    0    0 -0.63838007705E+00  0.54148812147E+00 -0.83044818867E+00  0.90008855097E+02  0.90001131177E+02 0.  0.
         12    1    1    2    0    0  0.63838007705E+00 -0.54148812147E+00  0.83044818867E+00  0.11791449031E+01  0.00000000000E+00 0. -1.
         11    1    3    3    0    0  0.62580984378E+01  0.69064869757E+00  0.27203096718E+01  0.68586351887E+01  0.51100000000E-03 0. -1.
        -11    1    3    3    0    0  0.34742609235E+02  0.96615837617E+01 -0.14699825147E+02  0.38942007612E+02  0.51100000000E-03 0.  1.
         12    1    3    3    0    0 -0.41639087750E+02 -0.98107443378E+01  0.11149067286E+02  0.44208212296E+02  0.00000000000E+00 0. -1.
</event>
<event>
 7    1  0.4119305E-015  0.9000768E+02  0.7816164E-02  0.1186339E+00
        -11   -1    0    0    0    0  0.00000000000E+00  0.00000000000E+00  0.45593999997E+02  0.45594000000E+02  0.51100000000E-03 0.  1.
         11   -1    0    0    0    0 -0.00000000000E+00 -0.00000000000E+00 -0.45593999997E+02  0.45594000000E+02  0.51100000000E-03 0. -1.
    9900012    2    1    2    0    0 -0.15540977614E+00  0.82309630587E+00  0.83157916737E+00  0.90007676469E+02  0.89999936998E+02 0.  0.
         12    1    1    2    0    0  0.15540977614E+00 -0.82309630587E+00 -0.83157916737E+00  0.11803235314E+01  0.00000000000E+00 0. -1.
         11    1    3    3    0    0  0.39375331669E+01  0.75613086210E+01 -0.15521786510E+01  0.86652648158E+01  0.51100000000E-03 0. -1.
        -11    1    3    3    0    0 -0.12902909405E+02  0.35517168676E+02  0.49024654919E+01  0.38104967000E+02  0.51100000000E-03 0.  1.
         12    1    3    3    0    0  0.88099664618E+01 -0.42255380991E+02 -0.25187076735E+01  0.43237444653E+02  0.00000000000E+00 0. -1.
</event>
<event>
 7    1  0.4119305E-015  0.9000762E+02  0.7816164E-02  0.1186339E+00
        -11   -1    0    0    0    0  0.00000000000E+00  0.00000000000E+00  0.45593999997E+02  0.45594000000E+02  0.51100000000E-03 0.  1.
         11   -1    0    0    0    0 -0.00000000000E+00 -0.00000000000E+00 -0.45593999997E+02  0.45594000000E+02  0.51100000000E-03 0. -1.
    9900012    2    1    2    0    0 -0.86508868175E+00  0.79753859247E+00 -0.94060386356E-01  0.90007621421E+02  0.89999881224E+02 0.  0.
         12    1    1    2    0    0  0.86508868175E+00 -0.79753859247E+00  0.94060386356E-01  0.11803785791E+01  0.00000000000E+00 0. -1.
         11    1    3    3    0    0  0.33368477722E+01  0.37107324424E+01 -0.29482081542E+02  0.29901458503E+02  0.51100000000E-03 0. -1.
        -11    1    3    3    0    0  0.37542111121E+01 -0.91123590965E+01 -0.13124894345E+02  0.16413166703E+02  0.51100000000E-03 0.  1.
        -12    1    3    3    0    0 -0.79561475661E+01  0.61991652465E+01  0.42512915501E+02  0.43692996215E+02  0.00000000000E+00 0.  1.
</event>
<event>
 7    1  0.4119305E-015  0.9000780E+02  0.7816164E-02  0.1186339E+00
        -11   -1    0    0    0    0  0.00000000000E+00  0.00000000000E+00  0.45593999997E+02  0.45594000000E+02  0.51100000000E-03 0.  1.
         11   -1    0    0    0    0 -0.00000000000E+00 -0.00000000000E+00 -0.45593999997E+02  0.45594000000E+02  0.51100000000E-03 0. -1.
    9900012    2    1    2    0    0  0.36927987426E+00 -0.55115505702E+00  0.97607760274E+00  0.90007802131E+02  0.90000064320E+02 0.  0.
         12    1    1    2    0    0 -0.36927987426E+00  0.55115505702E+00 -0.97607760274E+00  0.11801978686E+01  0.00000000000E+00 0. -1.
         11    1    3    3    0    0  0.82800322097E+01 -0.88034528269E+01 -0.71895433790E+01  0.14062334420E+02  0.51100000000E-03 0. -1.
        -11    1    3    3    0    0  0.16360589899E+02 -0.26152263736E+02  0.13175708576E+02  0.33544136554E+02  0.51100000000E-03 0.  1.
         12    1    3    3    0    0 -0.24271342234E+02  0.34404561506E+02 -0.50100875946E+01  0.42401331158E+02  0.00000000000E+00 0. -1.
</event>
<event>
 7    1  0.4119305E-015  0.9000834E+02  0.7816164E-02  0.1186338E+00
        -11   -1    0    0    0    0  0.00000000000E+00  0.00000000000E+00  0.45593999997E+02  0.45594000000E+02  0.51100000000E-03 0. -1.
         11   -1    0    0    0    0 -0.00000000000E+00 -0.00000000000E+00 -0.45593999997E+02  0.45594000000E+02  0.51100000000E-03 0.  1.
    9900012    2    1    2    0    0 -0.95001715055E+00  0.61149802210E+00 -0.33930109798E+00  0.90008344265E+02  0.90000613607E+02 0.  0.
         12    1    1    2    0    0  0.95001715055E+00 -0.61149802210E+00  0.33930109798E+00  0.11796557347E+01  0.00000000000E+00 0. -1.
         11    1    3    3    0    0 -0.15123183233E+02 -0.16062134576E+02  0.34792778522E+02  0.41197576091E+02  0.51100000000E-03 0. -1.
        -11    1    3    3    0    0 -0.29389392735E+01  0.60522281538E+01  0.16033717937E+01  0.69164753342E+01  0.51100000000E-03 0.  1.
        -12    1    3    3    0    0  0.17112105356E+02  0.10621404444E+02 -0.36735451413E+02  0.41894292841E+02  0.00000000000E+00 0.  1.
</event>
<event>
 7    1  0.4119305E-015  0.9000788E+02  0.7816164E-02  0.1186339E+00
        -11   -1    0    0    0    0  0.00000000000E+00  0.00000000000E+00  0.45593999997E+02  0.45594000000E+02  0.51100000000E-03 0.  1.
         11   -1    0    0    0    0 -0.00000000000E+00 -0.00000000000E+00 -0.45593999997E+02  0.45594000000E+02  0.51100000000E-03 0. -1.
    9900012    2    1    2    0    0  0.61233176656E+00  0.58053553259E-01  0.10071515581E+01  0.90007883621E+02  0.90000146885E+02 0.  0.
         12    1    1    2    0    0 -0.61233176656E+00 -0.58053553259E-01 -0.10071515581E+01  0.11801163791E+01  0.00000000000E+00 0. -1.
         11    1    3    3    0    0  0.41803493011E+01 -0.69675523162E+01  0.38929552354E+01  0.90098394150E+01  0.51100000000E-03 0. -1.
        -11    1    3    3    0    0  0.29142490372E+01 -0.21332328448E+02 -0.32823780644E+02  0.39255084518E+02  0.51100000000E-03 0.  1.
         12    1    3    3    0    0 -0.64822665717E+01  0.28357934317E+02  0.29937976967E+02  0.41742959688E+02  0.00000000000E+00 0. -1.
</event>
<event>
 7    1  0.4119305E-015  0.9000776E+02  0.7816164E-02  0.1186339E+00
        -11   -1    0    0    0    0  0.00000000000E+00  0.00000000000E+00  0.45593999997E+02  0.45594000000E+02  0.51100000000E-03 0. -1.
         11   -1    0    0    0    0 -0.00000000000E+00 -0.00000000000E+00 -0.45593999997E+02  0.45594000000E+02  0.51100000000E-03 0.  1.
    9900012    2    1    2    0    0 -0.31981450234E+00 -0.93582067373E+00  0.64414615731E+00  0.90007760227E+02  0.90000021862E+02 0.  0.
         12    1    1    2    0    0  0.31981450234E+00  0.93582067373E+00 -0.64414615731E+00  0.11802397728E+01  0.00000000000E+00 0. -1.
         11    1    3    3    0    0  0.36277670593E+02  0.15100295984E+02  0.19045570595E+02  0.43667173964E+02  0.51100000000E-03 0. -1.
        -11    1    3    3    0    0 -0.39522103838E+01 -0.50917008415E+01 -0.82001463586E+01  0.10430138299E+02  0.51100000000E-03 0.  1.
        -12    1    3    3    0    0 -0.32645274711E+02 -0.10944415816E+02 -0.10201278079E+02  0.35910447964E+02  0.00000000000E+00 0.  1.
</event>
<event>
 7    1  0.4119305E-015  0.9000772E+02  0.7816164E-02  0.1186339E+00
        -11   -1    0    0    0    0  0.00000000000E+00  0.00000000000E+00  0.45593999997E+02  0.45594000000E+02  0.51100000000E-03 0. -1.
         11   -1    0    0    0    0 -0.00000000000E+00 -0.00000000000E+00 -0.45593999997E+02  0.45594000000E+02  0.51100000000E-03 0.  1.
    9900012    2    1    2    0    0 -0.44577478921E+00  0.22388691799E+00 -0.10696819550E+01  0.90007720372E+02  0.89999981481E+02 0.  0.
         12    1    1    2    0    0  0.44577478921E+00 -0.22388691799E+00  0.10696819550E+01  0.11802796277E+01  0.00000000000E+00 0. -1.
         11    1    3    3    0    0 -0.49211053965E+01  0.10354887370E+02 -0.33610054723E+01  0.11947272861E+02  0.51100000000E-03 0. -1.
        -11    1    3    3    0    0 -0.93002455059E+01  0.30558401593E+02  0.11818552673E+02  0.34058606283E+02  0.51100000000E-03 0.  1.
         12    1    3    3    0    0  0.13775576113E+02 -0.40689402046E+02 -0.95272291555E+01  0.44001841228E+02  0.00000000000E+00 0. -1.
</event>
<event>
 7    1  0.4119305E-015  0.9000772E+02  0.7816164E-02  0.1186339E+00
        -11   -1    0    0    0    0  0.00000000000E+00  0.00000000000E+00  0.45593999997E+02  0.45594000000E+02  0.51100000000E-03 0. -1.
         11   -1    0    0    0    0 -0.00000000000E+00 -0.00000000000E+00 -0.45593999997E+02  0.45594000000E+02  0.51100000000E-03 0.  1.
    9900012    2    1    2    0    0 -0.36499887491E+00  0.11189305879E+01 -0.88537010224E-01  0.90007716711E+02  0.89999977772E+02 0.  0.
         12    1    1    2    0    0  0.36499887491E+00 -0.11189305879E+01  0.88537010224E-01  0.11802832886E+01  0.00000000000E+00 0. -1.
         11    1    3    3    0    0  0.30457336262E+01  0.19637074931E+01 -0.93079861940E+01  0.99885558360E+01  0.51100000000E-03 0. -1.
        -11    1    3    3    0    0  0.21883292790E+02  0.24170750319E+02 -0.16090663529E+02  0.36359498448E+02  0.51100000000E-03 0.  1.
         12    1    3    3    0    0 -0.25294025291E+02 -0.25015527225E+02  0.25310112713E+02  0.43659662427E+02  0.00000000000E+00 0. -1.
</event>
<event>
 7    1  0.4119305E-015  0.9000784E+02  0.7816164E-02  0.1186339E+00
        -11   -1    0    0    0    0  0.00000000000E+00  0.00000000000E+00  0.45593999997E+02  0.45594000000E+02  0.51100000000E-03 0. -1.
         11   -1    0    0    0    0 -0.00000000000E+00 -0.00000000000E+00 -0.45593999997E+02  0.45594000000E+02  0.51100000000E-03 0.  1.
    9900012    2    1    2    0    0 -0.11112466003E+01  0.31544235004E+00 -0.24167158061E+00  0.90007839826E+02  0.90000102512E+02 0.  0.
         12    1    1    2    0    0  0.11112466003E+01 -0.31544235004E+00  0.24167158061E+00  0.11801601737E+01  0.00000000000E+00 0. -1.
         11    1    3    3    0    0  0.67030495490E+01  0.57714063182E+01 -0.24026999351E+01  0.91658590097E+01  0.51100000000E-03 0. -1.
        -11    1    3    3    0    0  0.64736212965E+01 -0.33605775205E+02 -0.22350001032E+02  0.40875156834E+02  0.51100000000E-03 0.  1.
         12    1    3    3    0    0 -0.14287917446E+02  0.28149811237E+02  0.24511029387E+02  0.39966823982E+02  0.00000000000E+00 0. -1.
</event>
<event>
 7    1  0.4119305E-015  0.9000776E+02  0.7816164E-02  0.1186339E+00
        -11   -1    0    0    0    0  0.00000000000E+00  0.00000000000E+00  0.45593999997E+02  0.45594000000E+02  0.51100000000E-03 0.  1.
         11   -1    0    0    0    0 -0.00000000000E+00 -0.00000000000E+00 -0.45593999997E+02  0.45594000000E+02  0.51100000000E-03 0. -1.
    9900012    2    1    2    0    0  0.41190610304E+00 -0.10600077790E+01 -0.31571842415E+00  0.90007762205E+02  0.90000023866E+02 0.  0.
         12    1    1    2    0    0 -0.41190610304E+00  0.10600077790E+01  0.31571842415E+00  0.11802377950E+01  0.00000000000E+00 0. -1.
         11    1    3    3    0    0 -0.26564934347E+02 -0.15286628374E+02 -0.24244051023E+02  0.39078776263E+02  0.51100000000E-03 0. -1.
        -11    1    3    3    0    0 -0.59686226274E+01 -0.36620210196E+01  0.66243521758E+01  0.96393410577E+01  0.51100000000E-03 0.  1.
        -12    1    3    3    0    0  0.32945463077E+02  0.17888641615E+02  0.17303980423E+02  0.41289644885E+02  0.00000000000E+00 0.  1.
</event>
<event>
 7    1  0.4119305E-015  0.9000781E+02  0.7816164E-02  0.1186339E+00
        -11   -1    0    0    0    0  0.00000000000E+00  0.00000000000E+00  0.45593999997E+02  0.45594000000E+02  0.51100000000E-03 0.  1.
         11   -1    0    0    0    0 -0.00000000000E+00 -0.00000000000E+00 -0.45593999997E+02  0.45594000000E+02  0.51100000000E-03 0. -1.
    9900012    2    1    2    0    0 -0.80835356586E+00  0.62452203716E+00  0.59108474002E+00  0.90007811696E+02  0.90000074011E+02 0.  0.
         12    1    1    2    0    0  0.80835356586E+00 -0.62452203716E+00 -0.59108474002E+00  0.11801883037E+01  0.00000000000E+00 0. -1.
         11    1    3    3    0    0 -0.73614166897E+01  0.11892421679E+01 -0.63730527429E-01  0.74571317847E+01  0.51100000000E-03 0. -1.
        -11    1    3    3    0    0 -0.18945709260E+02  0.34099799861E+02 -0.42457303624E+01  0.39239807295E+02  0.51100000000E-03 0.  1.
         12    1    3    3    0    0  0.25498772384E+02 -0.34664519992E+02  0.49005456299E+01  0.43310872617E+02  0.00000000000E+00 0. -1.
</event>
<event>
 7    1  0.4119305E-015  0.9000775E+02  0.7816164E-02  0.1186339E+00
        -11   -1    0    0    0    0  0.00000000000E+00  0.00000000000E+00  0.45593999997E+02  0.45594000000E+02  0.51100000000E-03 0. -1.
         11   -1    0    0    0    0 -0.00000000000E+00 -0.00000000000E+00 -0.45593999997E+02  0.45594000000E+02  0.51100000000E-03 0.  1.
    9900012    2    1    2    0    0 -0.47308184142E+00 -0.19527799869E+00 -0.10635055387E+01  0.90007752587E+02  0.90000014121E+02 0.  0.
         12    1    1    2    0    0  0.47308184142E+00  0.19527799869E+00  0.10635055387E+01  0.11802474132E+01  0.00000000000E+00 0. -1.
         11    1    3    3    0    0  0.62550043555E+01  0.55298313963E+01 -0.58824283014E+01  0.10213083655E+02  0.51100000000E-03 0. -1.
        -11    1    3    3    0    0  0.35666664417E+02 -0.54250156429E+01  0.90312063106E+01  0.37190112033E+02  0.51100000000E-03 0.  1.
         12    1    3    3    0    0 -0.42394750614E+02 -0.30009375209E+00 -0.42122835480E+01  0.42604556899E+02  0.00000000000E+00 0. -1.
</event>
<event>
 7    1  0.4119305E-015  0.9000780E+02  0.7816164E-02  0.1186339E+00
        -11   -1    0    0    0    0  0.00000000000E+00  0.00000000000E+00  0.45593999997E+02  0.45594000000E+02  0.51100000000E-03 0.  1.
         11   -1    0    0    0    0 -0.00000000000E+00 -0.00000000000E+00 -0.45593999997E+02  0.45594000000E+02  0.51100000000E-03 0. -1.
    9900012    2    1    2    0    0  0.59589985059E+00  0.86323332778E+00  0.54092200421E+00  0.90007802972E+02  0.90000065171E+02 0.  0.
         12    1    1    2    0    0 -0.59589985059E+00 -0.86323332778E+00 -0.54092200421E+00  0.11801970279E+01  0.00000000000E+00 0. -1.
         11    1    3    3    0    0  0.28170426436E+02 -0.23609106043E+02 -0.82220179239E+01  0.37663834015E+02  0.51100000000E-03 0. -1.
        -11    1    3    3    0    0  0.17959120151E+01  0.30983963882E+01 -0.10594607515E+02  0.11183517730E+02  0.51100000000E-03 0.  1.
        -12    1    3    3    0    0 -0.29370438600E+02  0.21373942982E+02  0.19357547443E+02  0.41160451227E+02  0.00000000000E+00 0.  1.
</event>
<event>
 7    1  0.4119305E-015  0.9000765E+02  0.7816164E-02  0.1186339E+00
        -11   -1    0    0    0    0  0.00000000000E+00  0.00000000000E+00  0.45593999997E+02  0.45594000000E+02  0.51100000000E-03 0.  1.
         11   -1    0    0    0    0 -0.00000000000E+00 -0.00000000000E+00 -0.45593999997E+02  0.45594000000E+02  0.51100000000E-03 0. -1.
    9900012    2    1    2    0    0 -0.97997605266E-01 -0.72942646718E+00  0.92279525016E+00  0.90007653621E+02  0.89999913848E+02 0.  0.
         12    1    1    2    0    0  0.97997605266E-01  0.72942646718E+00 -0.92279525016E+00  0.11803463794E+01  0.00000000000E+00 0. -1.
         11    1    3    3    0    0 -0.80365220522E+01  0.31636348126E+01 -0.49512502634E+01  0.99553579220E+01  0.51100000000E-03 0. -1.
        -11    1    3    3    0    0 -0.35631327203E+02 -0.25094799001E+01  0.72100967568E+01  0.36440011843E+02  0.51100000000E-03 0.  1.
         12    1    3    3    0    0  0.43569851650E+02 -0.13835813797E+01 -0.13360512432E+01  0.43612283856E+02  0.00000000000E+00 0. -1.
</event>
<event>
 7    1  0.4119305E-015  0.9000771E+02  0.7816164E-02  0.1186339E+00
        -11   -1    0    0    0    0  0.00000000000E+00  0.00000000000E+00  0.45593999997E+02  0.45594000000E+02  0.51100000000E-03 0. -1.
         11   -1    0    0    0    0 -0.00000000000E+00 -0.00000000000E+00 -0.45593999997E+02  0.45594000000E+02  0.51100000000E-03 0.  1.
    9900012    2    1    2    0    0  0.94048919539E+00  0.18786351211E+00 -0.68795384390E+00  0.90007706343E+02  0.89999967267E+02 0.  0.
         12    1    1    2    0    0 -0.94048919539E+00 -0.18786351211E+00  0.68795384390E+00  0.11802936572E+01  0.00000000000E+00 0. -1.
         11    1    3    3    0    0 -0.13425613433E+02 -0.24100647443E+02  0.17979779434E+02  0.32929633645E+02  0.51100000000E-03 0. -1.
        -11    1    3    3    0    0 -0.19251264352E+01 -0.41403082504E+01  0.11603301791E+02  0.12469357518E+02  0.51100000000E-03 0.  1.
        -12    1    3    3    0    0  0.16291229064E+02  0.28428819205E+02 -0.30271035069E+02  0.44608715180E+02  0.00000000000E+00 0.  1.
</event>
<event>
 7    1  0.4119305E-015  0.9000771E+02  0.7816164E-02  0.1186339E+00
        -11   -1    0    0    0    0  0.00000000000E+00  0.00000000000E+00  0.45593999997E+02  0.45594000000E+02  0.51100000000E-03 0.  1.
         11   -1    0    0    0    0 -0.00000000000E+00 -0.00000000000E+00 -0.45593999997E+02  0.45594000000E+02  0.51100000000E-03 0. -1.
    9900012    2    1    2    0    0 -0.91691165175E+00 -0.33485116438E+00  0.66349393073E+00  0.90007713393E+02  0.89999974409E+02 0.  0.
         12    1    1    2    0    0  0.91691165175E+00  0.33485116438E+00 -0.66349393073E+00  0.11802866074E+01  0.00000000000E+00 0. -1.
         11    1    3    3    0    0 -0.25659319799E+00 -0.91181682351E+01 -0.17867884922E+01  0.92951301986E+01  0.51100000000E-03 0. -1.
        -11    1    3    3    0    0  0.16029425161E+02 -0.24224745871E+02  0.24196958062E+02  0.37805734528E+02  0.51100000000E-03 0.  1.
         12    1    3    3    0    0 -0.16689743615E+02  0.33008062941E+02 -0.21746675639E+02  0.42906848666E+02  0.00000000000E+00 0. -1.
</event>
<event>
 7    1  0.4119305E-015  0.9000784E+02  0.7816164E-02  0.1186339E+00
        -11   -1    0    0    0    0  0.00000000000E+00  0.00000000000E+00  0.45593999997E+02  0.45594000000E+02  0.51100000000E-03 0.  1.
         11   -1    0    0    0    0 -0.00000000000E+00 -0.00000000000E+00 -0.45593999997E+02  0.45594000000E+02  0.51100000000E-03 0. -1.
    9900012    2    1    2    0    0  0.67598290508E+00  0.44559131124E+00  0.85864894820E+00  0.90007837926E+02  0.90000100587E+02 0.  0.
         12    1    1    2    0    0 -0.67598290508E+00 -0.44559131124E+00 -0.85864894820E+00  0.11801620740E+01  0.00000000000E+00 0. -1.
         11    1    3    3    0    0  0.12401847426E+01 -0.59386915536E+01  0.82060614419E+01  0.10205173208E+02  0.51100000000E-03 0. -1.
        -11    1    3    3    0    0 -0.45740309397E+01 -0.26126406595E+01  0.35474002305E+02  0.35862968227E+02  0.51100000000E-03 0.  1.
         12    1    3    3    0    0  0.40098291021E+01  0.89969235243E+01 -0.42821414799E+02  0.43939696491E+02  0.00000000000E+00 0. -1.
</event>
<event>
 7    1  0.4119305E-015  0.9000743E+02  0.7816164E-02  0.1186340E+00
        -11   -1    0    0    0    0  0.00000000000E+00  0.00000000000E+00  0.45593999997E+02  0.45594000000E+02  0.51100000000E-03 0. -1.
         11   -1    0    0    0    0 -0.00000000000E+00 -0.00000000000E+00 -0.45593999997E+02  0.45594000000E+02  0.51100000000E-03 0.  1.
    9900012    2    1    2    0    0 -0.31653477178E+00 -0.60188136860E+00 -0.96503043201E+00  0.90007432688E+02  0.89999689999E+02 0.  0.
         12    1    1    2    0    0  0.31653477178E+00  0.60188136860E+00  0.96503043201E+00  0.11805673121E+01  0.00000000000E+00 0. -1.
         11    1    3    3    0    0 -0.11344536152E+01 -0.20238521719E+02  0.32078295302E+02  0.37946037686E+02  0.51100000000E-03 0. -1.
        -11    1    3    3    0    0 -0.71967642225E+01  0.56493176297E+00  0.49832425973E+01  0.87718453142E+01  0.51100000000E-03 0.  1.
        -12    1    3    3    0    0  0.80146830659E+01  0.19071708588E+02 -0.38026568331E+02  0.43289549687E+02  0.00000000000E+00 0.  1.
</event>
<event>
 7    1  0.4119305E-015  0.9000744E+02  0.7816164E-02  0.1186340E+00
        -11   -1    0    0    0    0  0.00000000000E+00  0.00000000000E+00  0.45593999997E+02  0.45594000000E+02  0.51100000000E-03 0.  1.
         11   -1    0    0    0    0 -0.00000000000E+00 -0.00000000000E+00 -0.45593999997E+02  0.45594000000E+02  0.51100000000E-03 0. -1.
    9900012    2    1    2    0    0  0.31848946732E+00 -0.38329742480E+00  0.10702187709E+01  0.90007440525E+02  0.89999697939E+02 0.  0.
         12    1    1    2    0    0 -0.31848946732E+00  0.38329742480E+00 -0.10702187709E+01  0.11805594751E+01  0.00000000000E+00 0. -1.
         11    1    3    3    0    0 -0.24479171537E+01  0.13475216737E+02  0.46405787932E+01  0.14460592529E+02  0.51100000000E-03 0. -1.
        -11    1    3    3    0    0 -0.28575101633E+02 -0.13277187835E+02  0.19113801067E+02  0.36853189029E+02  0.51100000000E-03 0.  1.
         12    1    3    3    0    0  0.31341508254E+02 -0.58132632690E+00 -0.22684161089E+02  0.38693658967E+02  0.00000000000E+00 0. -1.
</event>
<event>
 7    1  0.4119305E-015  0.9000773E+02  0.7816164E-02  0.1186339E+00
        -11   -1    0    0    0    0  0.00000000000E+00  0.00000000000E+00  0.45593999997E+02  0.45594000000E+02  0.51100000000E-03 0.  1.
         11   -1    0    0    0    0 -0.00000000000E+00 -0.00000000000E+00 -0.45593999997E+02  0.45594000000E+02  0.51100000000E-03 0. -1.
    9900012    2    1    2    0    0 -0.63112897918E+00 -0.82874688818E+00  0.55487247676E+00  0.90007733649E+02  0.89999994934E+02 0.  0.
         12    1    1    2    0    0  0.63112897918E+00  0.82874688818E+00 -0.55487247676E+00  0.11802663507E+01  0.00000000000E+00 0. -1.
         11    1    3    3    0    0  0.24084968763E+01  0.14972977029E+00  0.11854026613E+02  0.12097157659E+02  0.51100000000E-03 0. -1.
        -11    1    3    3    0    0  0.25571874150E+02  0.18763055555E+02  0.14248860785E+02  0.34770720948E+02  0.51100000000E-03 0.  1.
         12    1    3    3    0    0 -0.28611500005E+02 -0.19741532214E+02 -0.25548014921E+02  0.43139855043E+02  0.00000000000E+00 0. -1.
</event>
<event>
 7    1  0.4119305E-015  0.9000772E+02  0.7816164E-02  0.1186339E+00
        -11   -1    0    0    0    0  0.00000000000E+00  0.00000000000E+00  0.45593999997E+02  0.45594000000E+02  0.51100000000E-03 0. -1.
         11   -1    0    0    0    0 -0.00000000000E+00 -0.00000000000E+00 -0.45593999997E+02  0.45594000000E+02  0.51100000000E-03 0.  1.
    9900012    2    1    2    0    0  0.83235621126E+00  0.33069479946E+00 -0.76869007199E+00  0.90007720228E+02  0.89999981335E+02 0.  0.
         12    1    1    2    0    0 -0.83235621126E+00 -0.33069479946E+00  0.76869007199E+00  0.11802797717E+01  0.00000000000E+00 0. -1.
         11    1    3    3    0    0  0.15243681937E+02 -0.25635069100E+02  0.19500830597E+02  0.35634379481E+02  0.51100000000E-03 0. -1.
        -11    1    3    3    0    0  0.93226047386E+01 -0.32173376280E+01  0.27934847462E+01  0.10250159892E+02  0.51100000000E-03 0.  1.
        -12    1    3    3    0    0 -0.23733930464E+02  0.29183101528E+02 -0.23063005415E+02  0.44123180855E+02  0.00000000000E+00 0.  1.
</event>
<event>
 7    1  0.4119305E-015  0.9000777E+02  0.7816164E-02  0.1186339E+00
        -11   -1    0    0    0    0  0.00000000000E+00  0.00000000000E+00  0.45593999997E+02  0.45594000000E+02  0.51100000000E-03 0.  1.
         11   -1    0    0    0    0 -0.00000000000E+00 -0.00000000000E+00 -0.45593999997E+02  0.45594000000E+02  0.51100000000E-03 0. -1.
    9900012    2    1    2    0    0  0.32619033711E+00 -0.74983847017E+00  0.85104915778E+00  0.90007770134E+02  0.90000031900E+02 0.  0.
         12    1    1    2    0    0 -0.32619033711E+00  0.74983847017E+00 -0.85104915778E+00  0.11802298659E+01  0.00000000000E+00 0. -1.
         11    1    3    3    0    0  0.29272835292E+01 -0.86922082900E+01 -0.19579278267E+01  0.93785369570E+01  0.51100000000E-03 0. -1.
        -11    1    3    3    0    0 -0.38302406386E+02 -0.24947497560E+01  0.15403736659E+02  0.41359076569E+02  0.51100000000E-03 0.  1.
         12    1    3    3    0    0  0.35701313194E+02  0.10437119576E+02 -0.12594759675E+02  0.39270156609E+02  0.00000000000E+00 0. -1.
</event>
<event>
 7    1  0.4119305E-015  0.9000782E+02  0.7816164E-02  0.1186339E+00
        -11   -1    0    0    0    0  0.00000000000E+00  0.00000000000E+00  0.45593999997E+02  0.45594000000E+02  0.51100000000E-03 0.  1.
         11   -1    0    0    0    0 -0.00000000000E+00 -0.00000000000E+00 -0.45593999997E+02  0.45594000000E+02  0.51100000000E-03 0. -1.
    9900012    2    1    2    0    0 -0.14125544105E+00 -0.48538221607E+00  0.10664340781E+01  0.90007817540E+02  0.90000079932E+02 0.  0.
         12    1    1    2    0    0  0.14125544105E+00  0.48538221607E+00 -0.10664340781E+01  0.11801824597E+01  0.00000000000E+00 0. -1.
         11    1    3    3    0    0  0.71501735606E+01  0.69189016132E+01  0.27669881449E+01  0.10327265133E+02  0.51100000000E-03 0. -1.
        -11    1    3    3    0    0  0.34700811265E+02 -0.36419108829E+01  0.92981122452E+01  0.36109066852E+02  0.51100000000E-03 0.  1.
         12    1    3    3    0    0 -0.41992240267E+02 -0.37623729464E+01 -0.10998666312E+02  0.43571485555E+02  0.00000000000E+00 0. -1.
</event>
<event>
 7    1  0.4119305E-015  0.9000764E+02  0.7816164E-02  0.1186339E+00
        -11   -1    0    0    0    0  0.00000000000E+00  0.00000000000E+00  0.45593999997E+02  0.45594000000E+02  0.51100000000E-03 0.  1.
         11   -1    0    0    0    0 -0.00000000000E+00 -0.00000000000E+00 -0.45593999997E+02  0.45594000000E+02  0.51100000000E-03 0. -1.
    9900012    2    1    2    0    0  0.10729035627E+01  0.43828990937E+00 -0.22365654833E+00  0.90007643126E+02  0.89999903215E+02 0.  0.
         12    1    1    2    0    0 -0.10729035627E+01 -0.43828990937E+00  0.22365654833E+00  0.11803568744E+01  0.00000000000E+00 0. -1.
         11    1    3    3    0    0 -0.14384168669E+02  0.12533553061E+02  0.46698255360E+01  0.19641831163E+02  0.51100000000E-03 0. -1.
        -11    1    3    3    0    0  0.10948515806E+02  0.21140149037E+02  0.17924213702E+02  0.29800223770E+02  0.51100000000E-03 0.  1.
         12    1    3    3    0    0  0.45085564261E+01 -0.33235412189E+02 -0.22817695786E+02  0.40565588193E+02  0.00000000000E+00 0. -1.
</event>
<event>
 7    1  0.4119305E-015  0.9000770E+02  0.7816164E-02  0.1186339E+00
        -11   -1    0    0    0    0  0.00000000000E+00  0.00000000000E+00  0.45593999997E+02  0.45594000000E+02  0.51100000000E-03 0.  1.
         11   -1    0    0    0    0 -0.00000000000E+00 -0.00000000000E+00 -0.45593999997E+02  0.45594000000E+02  0.51100000000E-03 0. -1.
    9900012    2    1    2    0    0  0.20420964844E-01  0.54042325640E-01  0.11788873925E+01  0.90007697889E+02  0.89999958701E+02 0.  0.
         12    1    1    2    0    0 -0.20420964844E-01 -0.54042325640E-01 -0.11788873925E+01  0.11803021109E+01  0.00000000000E+00 0. -1.
         11    1    3    3    0    0  0.10456061189E+02  0.18132506295E+01 -0.50454418832E+01  0.11750471373E+02  0.51100000000E-03 0. -1.
        -11    1    3    3    0    0  0.16534758135E+02  0.29902267767E+02  0.12108992658E+02  0.36251504075E+02  0.51100000000E-03 0.  1.
         12    1    3    3    0    0 -0.26970398360E+02 -0.31661476071E+02 -0.58846633823E+01  0.42005722441E+02  0.00000000000E+00 0. -1.
</event>
<event>
 7    1  0.4119305E-015  0.9000776E+02  0.7816164E-02  0.1186339E+00
        -11   -1    0    0    0    0  0.00000000000E+00  0.00000000000E+00  0.45593999997E+02  0.45594000000E+02  0.51100000000E-03 0. -1.
         11   -1    0    0    0    0 -0.00000000000E+00 -0.00000000000E+00 -0.45593999997E+02  0.45594000000E+02  0.51100000000E-03 0.  1.
    9900012    2    1    2    0    0  0.76897517113E+00 -0.89435479174E+00  0.41994865792E-01  0.90007764059E+02  0.90000025745E+02 0.  0.
         12    1    1    2    0    0 -0.76897517113E+00  0.89435479174E+00 -0.41994865792E-01  0.11802359409E+01  0.00000000000E+00 0. -1.
         11    1    3    3    0    0 -0.13271557536E+00 -0.33437477589E+02  0.19071670707E+02  0.38494300159E+02  0.51100000000E-03 0. -1.
        -11    1    3    3    0    0  0.67292174704E+01 -0.58648642376E+01 -0.48509281174E+01  0.10159257067E+02  0.51100000000E-03 0.  1.
        -12    1    3    3    0    0 -0.58275267240E+01  0.38407987035E+02 -0.14178747724E+02  0.41354206833E+02  0.00000000000E+00 0.  1.
</event>
<event>
 7    1  0.4119305E-015  0.9000777E+02  0.7816164E-02  0.1186339E+00
        -11   -1    0    0    0    0  0.00000000000E+00  0.00000000000E+00  0.45593999997E+02  0.45594000000E+02  0.51100000000E-03 0.  1.
         11   -1    0    0    0    0 -0.00000000000E+00 -0.00000000000E+00 -0.45593999997E+02  0.45594000000E+02  0.51100000000E-03 0. -1.
    9900012    2    1    2    0    0  0.42483674664E+00  0.70914396383E+00 -0.84235518095E+00  0.90007773889E+02  0.90000035704E+02 0.  0.
         12    1    1    2    0    0 -0.42483674664E+00 -0.70914396383E+00  0.84235518095E+00  0.11802261112E+01  0.00000000000E+00 0. -1.
         11    1    3    3    0    0 -0.17824261320E+02 -0.33378252366E+02 -0.13973234406E+02  0.40336872743E+02  0.51100000000E-03 0. -1.
        -11    1    3    3    0    0  0.17846493258E+01  0.33261355815E+01 -0.80244701280E+01  0.88679350595E+01  0.51100000000E-03 0.  1.
        -12    1    3    3    0    0  0.16464448741E+02  0.30761260749E+02  0.21155349353E+02  0.40802966086E+02  0.00000000000E+00 0.  1.
</event>
<event>
 7    1  0.4119305E-015  0.9000888E+02  0.7816164E-02  0.1186337E+00
        -11   -1    0    0    0    0  0.00000000000E+00  0.00000000000E+00  0.45593999997E+02  0.45594000000E+02  0.51100000000E-03 0. -1.
         11   -1    0    0    0    0 -0.00000000000E+00 -0.00000000000E+00 -0.45593999997E+02  0.45594000000E+02  0.51100000000E-03 0.  1.
    9900012    2    1    2    0    0 -0.72947620226E+00 -0.92638152422E+00 -0.12926048309E-02  0.90008881715E+02  0.90001158147E+02 0.  0.
         12    1    1    2    0    0  0.72947620226E+00  0.92638152422E+00  0.12926048309E-02  0.11791182845E+01  0.00000000000E+00 0. -1.
         11    1    3    3    0    0  0.96451597744E+01 -0.24997307008E+01  0.20462797420E+01  0.10171775739E+02  0.51100000000E-03 0. -1.
        -11    1    3    3    0    0 -0.18219345788E+01  0.39665500051E+02 -0.75255062657E+01  0.40414163170E+02  0.51100000000E-03 0.  1.
         12    1    3    3    0    0 -0.85527013978E+01 -0.38092150875E+02  0.54779339188E+01  0.39422942806E+02  0.00000000000E+00 0. -1.
</event>
<event>
 7    1  0.4119305E-015  0.9000763E+02  0.7816164E-02  0.1186339E+00
        -11   -1    0    0    0    0  0.00000000000E+00  0.00000000000E+00  0.45593999997E+02  0.45594000000E+02  0.51100000000E-03 0.  1.
         11   -1    0    0    0    0 -0.00000000000E+00 -0.00000000000E+00 -0.45593999997E+02  0.45594000000E+02  0.51100000000E-03 0. -1.
    9900012    2    1    2    0    0  0.48978595255E+00 -0.14930397412E+00  0.10635312006E+01  0.90007626936E+02  0.89999886811E+02 0.  0.
         12    1    1    2    0    0 -0.48978595255E+00  0.14930397412E+00 -0.10635312006E+01  0.11803730641E+01  0.00000000000E+00 0. -1.
         11    1    3    3    0    0  0.18010029634E+02  0.23902279688E+02 -0.26867054316E+02  0.40218388202E+02  0.51100000000E-03 0. -1.
        -11    1    3    3    0    0  0.33175848751E+01 -0.82976959291E+01 -0.28856742737E+01  0.93906998360E+01  0.51100000000E-03 0.  1.
        -12    1    3    3    0    0 -0.20837828556E+02 -0.15753887733E+02  0.30816259790E+02  0.40398538898E+02  0.00000000000E+00 0.  1.
</event>
<event>
 7    1  0.4119305E-015  0.9000796E+02  0.7816164E-02  0.1186339E+00
        -11   -1    0    0    0    0  0.00000000000E+00  0.00000000000E+00  0.45593999997E+02  0.45594000000E+02  0.51100000000E-03 0.  1.
         11   -1    0    0    0    0 -0.00000000000E+00 -0.00000000000E+00 -0.45593999997E+02  0.45594000000E+02  0.51100000000E-03 0. -1.
    9900012    2    1    2    0    0  0.42685221115E+00 -0.94357970173E+00 -0.56563157690E+00  0.90007964177E+02  0.90000228503E+02 0.  0.
         12    1    1    2    0    0 -0.42685221115E+00  0.94357970173E+00  0.56563157690E+00  0.11800358234E+01  0.00000000000E+00 0. -1.
         11    1    3    3    0    0 -0.62668175400E+01  0.41683715288E+02 -0.67655827838E+00  0.42157595444E+02  0.51100000000E-03 0. -1.
        -11    1    3    3    0    0 -0.13354545640E+00 -0.54678262922E+01  0.75704996772E+01  0.93395623224E+01  0.51100000000E-03 0.  1.
        -12    1    3    3    0    0  0.68272152076E+01 -0.37159468697E+02 -0.74595729757E+01  0.38510806410E+02  0.00000000000E+00 0.  1.
</event>
<event>
 7    1  0.4119305E-015  0.9000785E+02  0.7816164E-02  0.1186339E+00
        -11   -1    0    0    0    0  0.00000000000E+00  0.00000000000E+00  0.45593999997E+02  0.45594000000E+02  0.51100000000E-03 0.  1.
         11   -1    0    0    0    0 -0.00000000000E+00 -0.00000000000E+00 -0.45593999997E+02  0.45594000000E+02  0.51100000000E-03 0. -1.
    9900012    2    1    2    0    0 -0.53487132623E-01 -0.11705762051E+01 -0.14018605561E+00  0.90007846766E+02  0.90000109543E+02 0.  0.
         12    1    1    2    0    0  0.53487132623E-01  0.11705762051E+01  0.14018605561E+00  0.11801532339E+01  0.00000000000E+00 0. -1.
         11    1    3    3    0    0  0.22841929762E+01 -0.45383842882E+01 -0.60309207954E+01  0.78858401836E+01  0.51100000000E-03 0. -1.
        -11    1    3    3    0    0 -0.70435845034E+01 -0.35981005862E+02  0.17780095829E+02  0.40747719856E+02  0.51100000000E-03 0.  1.
         12    1    3    3    0    0  0.47059043945E+01  0.39348813945E+02 -0.11889361089E+02  0.41374286727E+02  0.00000000000E+00 0. -1.
</event>
<event>
 7    1  0.4119305E-015  0.9000880E+02  0.7816164E-02  0.1186337E+00
        -11   -1    0    0    0    0  0.00000000000E+00  0.00000000000E+00  0.45593999997E+02  0.45594000000E+02  0.51100000000E-03 0. -1.
         11   -1    0    0    0    0 -0.00000000000E+00 -0.00000000000E+00 -0.45593999997E+02  0.45594000000E+02  0.51100000000E-03 0.  1.
    9900012    2    1    2    0    0 -0.10120246424E+01  0.27916905981E+00 -0.53702058147E+00  0.90008796733E+02  0.90001072043E+02 0.  0.
         12    1    1    2    0    0  0.10120246424E+01 -0.27916905981E+00  0.53702058147E+00  0.11792032674E+01  0.00000000000E+00 0. -1.
         11    1    3    3    0    0 -0.25119861327E+02 -0.65304188382E+01  0.30262264274E+02  0.39868012773E+02  0.51100000000E-03 0. -1.
        -11    1    3    3    0    0 -0.71495515871E+01  0.26491060591E+01 -0.33262448042E+01  0.83185188326E+01  0.51100000000E-03 0.  1.
        -12    1    3    3    0    0  0.31257388271E+02  0.41604818388E+01 -0.27473040051E+02  0.41822265127E+02  0.00000000000E+00 0.  1.
</event>
<event>
 7    1  0.4119305E-015  0.9000770E+02  0.7816164E-02  0.1186339E+00
        -11   -1    0    0    0    0  0.00000000000E+00  0.00000000000E+00  0.45593999997E+02  0.45594000000E+02  0.51100000000E-03 0.  1.
         11   -1    0    0    0    0 -0.00000000000E+00 -0.00000000000E+00 -0.45593999997E+02  0.45594000000E+02  0.51100000000E-03 0. -1.
    9900012    2    1    2    0    0  0.10629710368E+01 -0.39057398354E+00 -0.33262892272E+00  0.90007704502E+02  0.89999965402E+02 0.  0.
         12    1    1    2    0    0 -0.10629710368E+01  0.39057398354E+00  0.33262892272E+00  0.11802954977E+01  0.00000000000E+00 0. -1.
         11    1    3    3    0    0  0.23407565004E+02  0.12888569647E+02 -0.98588265646E+01  0.28482025708E+02  0.51100000000E-03 0. -1.
        -11    1    3    3    0    0  0.17998139825E+02 -0.74816387552E+01  0.69276512541E+01  0.20685751323E+02  0.51100000000E-03 0.  1.
         12    1    3    3    0    0 -0.40342733792E+02 -0.57975048750E+01  0.25985463877E+01  0.40839927472E+02  0.00000000000E+00 0. -1.
</event>
<event>
 7    1  0.4119305E-015  0.9000771E+02  0.7816164E-02  0.1186339E+00
        -11   -1    0    0    0    0  0.00000000000E+00  0.00000000000E+00  0.45593999997E+02  0.45594000000E+02  0.51100000000E-03 0. -1.
         11   -1    0    0    0    0 -0.00000000000E+00 -0.00000000000E+00 -0.45593999997E+02  0.45594000000E+02  0.51100000000E-03 0.  1.
    9900012    2    1    2    0    0 -0.10823232207E+01 -0.16434444005E+00 -0.44120359533E+00  0.90007706282E+02  0.89999967205E+02 0.  0.
         12    1    1    2    0    0  0.10823232207E+01  0.16434444005E+00  0.44120359533E+00  0.11802937184E+01  0.00000000000E+00 0. -1.
         11    1    3    3    0    0 -0.45001930269E+01  0.86396193713E+00  0.97226717998E+01  0.10748419172E+02  0.51100000000E-03 0. -1.
        -11    1    3    3    0    0  0.16674345862E+02  0.35292435452E+02 -0.11109546617E+02  0.40583393603E+02  0.51100000000E-03 0.  1.
         12    1    3    3    0    0 -0.13256476056E+02 -0.36320741829E+02  0.94567122187E+00  0.38675893506E+02  0.00000000000E+00 0. -1.
</event>
<event>
 7    1  0.4119305E-015  0.9000782E+02  0.7816164E-02  0.1186339E+00
        -11   -1    0    0    0    0  0.00000000000E+00  0.00000000000E+00  0.45593999997E+02  0.45594000000E+02  0.51100000000E-03 0. -1.
         11   -1    0    0    0    0 -0.00000000000E+00 -0.00000000000E+00 -0.45593999997E+02  0.45594000000E+02  0.51100000000E-03 0.  1.
    9900012    2    1    2    0    0 -0.52906407512E+00 -0.94132867807E+00  0.47626440833E+00  0.90007815158E+02  0.90000077518E+02 0.  0.
         12    1    1    2    0    0  0.52906407512E+00  0.94132867807E+00 -0.47626440833E+00  0.11801848425E+01  0.00000000000E+00 0. -1.
         11    1    3    3    0    0 -0.34384049080E+02  0.28382761750E+01  0.22332410151E+02  0.41098116578E+02  0.51100000000E-03 0. -1.
        -11    1    3    3    0    0  0.24370583084E+01  0.66188065292E+01  0.28535456566E+01  0.76085856862E+01  0.51100000000E-03 0.  1.
        -12    1    3    3    0    0  0.31417926697E+02 -0.10398411382E+02 -0.24709691400E+02  0.41301112894E+02  0.00000000000E+00 0.  1.
</event>
<event>
 7    1  0.4119305E-015  0.9000767E+02  0.7816164E-02  0.1186339E+00
        -11   -1    0    0    0    0  0.00000000000E+00  0.00000000000E+00  0.45593999997E+02  0.45594000000E+02  0.51100000000E-03 0. -1.
         11   -1    0    0    0    0 -0.00000000000E+00 -0.00000000000E+00 -0.45593999997E+02  0.45594000000E+02  0.51100000000E-03 0.  1.
    9900012    2    1    2    0    0 -0.24566279566E+00  0.91532679333E+00  0.70355829563E+00  0.90007674781E+02  0.89999935288E+02 0.  0.
         12    1    1    2    0    0  0.24566279566E+00 -0.91532679333E+00 -0.70355829563E+00  0.11803252192E+01  0.00000000000E+00 0. -1.
         11    1    3    3    0    0  0.13197912589E+02  0.50791936005E+00 -0.28743154908E+01  0.13516825389E+02  0.51100000000E-03 0. -1.
        -11    1    3    3    0    0  0.18608751184E+02  0.96771944166E+01  0.28112976684E+02  0.35075250116E+02  0.51100000000E-03 0.  1.
        -12    1    3    3    0    0 -0.32052326569E+02 -0.92697869833E+01 -0.24535102898E+02  0.41415599276E+02  0.00000000000E+00 0.  1.
</event>
<event>
 7    1  0.4119305E-015  0.9000712E+02  0.7816164E-02  0.1186340E+00
        -11   -1    0    0    0    0  0.00000000000E+00  0.00000000000E+00  0.45593999997E+02  0.45594000000E+02  0.51100000000E-03 0. -1.
         11   -1    0    0    0    0 -0.00000000000E+00 -0.00000000000E+00 -0.45593999997E+02  0.45594000000E+02  0.51100000000E-03 0.  1.
    9900012    2    1    2    0    0  0.11766836431E+01 -0.98187546895E-01 -0.16039372497E-01  0.90007117935E+02  0.89999371089E+02 0.  0.
         12    1    1    2    0    0 -0.11766836431E+01  0.98187546895E-01  0.16039372497E-01  0.11808820651E+01  0.00000000000E+00 0. -1.
         11    1    3    3    0    0 -0.30096331072E+01 -0.10696024044E+01 -0.85215583268E+01  0.91004888507E+01  0.51100000000E-03 0. -1.
        -11    1    3    3    0    0 -0.18399634728E+02 -0.28103199684E+02 -0.15459398043E+02  0.36977417145E+02  0.51100000000E-03 0.  1.
         12    1    3    3    0    0  0.22585951479E+02  0.29074614541E+02  0.23964916997E+02  0.43929211939E+02  0.00000000000E+00 0. -1.
</event>
<event>
 7    1  0.4119305E-015  0.9000783E+02  0.7816164E-02  0.1186339E+00
        -11   -1    0    0    0    0  0.00000000000E+00  0.00000000000E+00  0.45593999997E+02  0.45594000000E+02  0.51100000000E-03 0. -1.
         11   -1    0    0    0    0 -0.00000000000E+00 -0.00000000000E+00 -0.45593999997E+02  0.45594000000E+02  0.51100000000E-03 0.  1.
    9900012    2    1    2    0    0  0.55455354952E+00  0.72481967671E+00 -0.74826308808E+00  0.90007834396E+02  0.90000097010E+02 0.  0.
         12    1    1    2    0    0 -0.55455354952E+00 -0.72481967671E+00  0.74826308808E+00  0.11801656036E+01  0.00000000000E+00 0. -1.
         11    1    3    3    0    0  0.75457208508E+01  0.40800449641E+00 -0.94789720358E+01  0.12122511371E+02  0.51100000000E-03 0. -1.
        -11    1    3    3    0    0  0.16332345842E+02 -0.28989117010E+02 -0.11638996084E+02  0.35250257528E+02  0.51100000000E-03 0.  1.
         12    1    3    3    0    0 -0.23323513143E+02  0.29305932190E+02  0.20369705032E+02  0.42635065497E+02  0.00000000000E+00 0. -1.
</event>
<event>
 7    1  0.4119305E-015  0.9000788E+02  0.7816164E-02  0.1186339E+00
        -11   -1    0    0    0    0  0.00000000000E+00  0.00000000000E+00  0.45593999997E+02  0.45594000000E+02  0.51100000000E-03 0.  1.
         11   -1    0    0    0    0 -0.00000000000E+00 -0.00000000000E+00 -0.45593999997E+02  0.45594000000E+02  0.51100000000E-03 0. -1.
    9900012    2    1    2    0    0 -0.10368597475E+01  0.55705258007E+00  0.85367143516E-01  0.90007884217E+02  0.90000147488E+02 0.  0.
         12    1    1    2    0    0  0.10368597475E+01 -0.55705258007E+00 -0.85367143516E-01  0.11801157833E+01  0.00000000000E+00 0. -1.
         11    1    3    3    0    0 -0.10244753010E+02  0.25135159471E+01 -0.41537835691E+02  0.42856324164E+02  0.51100000000E-03 0. -1.
        -11    1    3    3    0    0  0.35808400605E+01  0.68855275612E+01  0.54313476377E+01  0.94727209797E+01  0.51100000000E-03 0.  1.
        -12    1    3    3    0    0  0.56270532018E+01 -0.88419909283E+01  0.36191855197E+02  0.37678839073E+02  0.00000000000E+00 0.  1.
</event>
<event>
 7    1  0.4119305E-015  0.9000771E+02  0.7816164E-02  0.1186339E+00
        -11   -1    0    0    0    0  0.00000000000E+00  0.00000000000E+00  0.45593999997E+02  0.45594000000E+02  0.51100000000E-03 0. -1.
         11   -1    0    0    0    0 -0.00000000000E+00 -0.00000000000E+00 -0.45593999997E+02  0.45594000000E+02  0.51100000000E-03 0.  1.
    9900012    2    1    2    0    0 -0.10343641539E+01  0.51091813478E+00  0.24929766197E+00  0.90007705178E+02  0.89999966086E+02 0.  0.
         12    1    1    2    0    0  0.10343641539E+01 -0.51091813478E+00 -0.24929766197E+00  0.11802948223E+01  0.00000000000E+00 0. -1.
         11    1    3    3    0    0 -0.12054794779E+01  0.18002695486E+01 -0.26947370997E+01  0.34577101552E+01  0.51100000000E-03 0. -1.
        -11    1    3    3    0    0 -0.12808059764E+02 -0.19684234811E+02 -0.35166239269E+02  0.42286875974E+02  0.51100000000E-03 0.  1.
         12    1    3    3    0    0  0.12979175088E+02  0.18394883397E+02  0.38110274031E+02  0.44263119048E+02  0.00000000000E+00 0. -1.
</event>
<event>
 7    1  0.4119305E-015  0.9000777E+02  0.7816164E-02  0.1186339E+00
        -11   -1    0    0    0    0  0.00000000000E+00  0.00000000000E+00  0.45593999997E+02  0.45594000000E+02  0.51100000000E-03 0. -1.
         11   -1    0    0    0    0 -0.00000000000E+00 -0.00000000000E+00 -0.45593999997E+02  0.45594000000E+02  0.51100000000E-03 0.  1.
    9900012    2    1    2    0    0  0.10077859784E+01  0.21969587791E+00  0.57361783414E+00  0.90007772786E+02  0.90000034587E+02 0.  0.
         12    1    1    2    0    0 -0.10077859784E+01 -0.21969587791E+00 -0.57361783414E+00  0.11802272140E+01  0.00000000000E+00 0. -1.
         11    1    3    3    0    0  0.41861106820E+01 -0.20311569913E+01  0.10890261956E+01  0.47786085507E+01  0.51100000000E-03 0. -1.
        -11    1    3    3    0    0  0.30619177044E+02 -0.73988339112E+01 -0.26785166939E+02  0.41348783710E+02  0.51100000000E-03 0.  1.
         12    1    3    3    0    0 -0.33797501747E+02  0.96496867804E+01  0.26269758578E+02  0.43880380525E+02  0.00000000000E+00 0. -1.
</event>
<event>
 7    1  0.4119305E-015  0.9000796E+02  0.7816164E-02  0.1186339E+00
        -11   -1    0    0    0    0  0.00000000000E+00  0.00000000000E+00  0.45593999997E+02  0.45594000000E+02  0.51100000000E-03 0. -1.
         11   -1    0    0    0    0 -0.00000000000E+00 -0.00000000000E+00 -0.45593999997E+02  0.45594000000E+02  0.51100000000E-03 0.  1.
    9900012    2    1    2    0    0  0.83397328950E+00 -0.47568432918E+00 -0.68608290746E+00  0.90007958990E+02  0.90000223249E+02 0.  0.
         12    1    1    2    0    0 -0.83397328950E+00  0.47568432918E+00  0.68608290746E+00  0.11800410097E+01  0.00000000000E+00 0. -1.
         11    1    3    3    0    0 -0.84755295996E+01  0.25748773955E+01 -0.99882560845E+01  0.13350275483E+02  0.51100000000E-03 0. -1.
        -11    1    3    3    0    0 -0.10592414948E+01 -0.17757021244E+02 -0.29180938388E+02  0.34175443837E+02  0.51100000000E-03 0.  1.
         12    1    3    3    0    0  0.10368744384E+02  0.14706459520E+02  0.38483111565E+02  0.42482239670E+02  0.00000000000E+00 0. -1.
</event>
<event>
 7    1  0.4119305E-015  0.9000774E+02  0.7816164E-02  0.1186339E+00
        -11   -1    0    0    0    0  0.00000000000E+00  0.00000000000E+00  0.45593999997E+02  0.45594000000E+02  0.51100000000E-03 0.  1.
         11   -1    0    0    0    0 -0.00000000000E+00 -0.00000000000E+00 -0.45593999997E+02  0.45594000000E+02  0.51100000000E-03 0. -1.
    9900012    2    1    2    0    0 -0.74280610614E+00 -0.53937690378E-01  0.91561096627E+00  0.90007740017E+02  0.90000001385E+02 0.  0.
         12    1    1    2    0    0  0.74280610614E+00  0.53937690378E-01 -0.91561096627E+00  0.11802599829E+01  0.00000000000E+00 0. -1.
         11    1    3    3    0    0  0.14389210223E+02 -0.33876152006E+02  0.74490541068E+01  0.37551717043E+02  0.51100000000E-03 0. -1.
        -11    1    3    3    0    0  0.81249446418E+01 -0.28355640948E+01 -0.43085961584E+00  0.86163095022E+01  0.51100000000E-03 0.  1.
        -12    1    3    3    0    0 -0.23256960971E+02  0.36657778410E+02 -0.61025835247E+01  0.43839713471E+02  0.00000000000E+00 0.  1.
</event>
<event>
 7    1  0.4119305E-015  0.9000775E+02  0.7816164E-02  0.1186339E+00
        -11   -1    0    0    0    0  0.00000000000E+00  0.00000000000E+00  0.45593999997E+02  0.45594000000E+02  0.51100000000E-03 0.  1.
         11   -1    0    0    0    0 -0.00000000000E+00 -0.00000000000E+00 -0.45593999997E+02  0.45594000000E+02  0.51100000000E-03 0. -1.
    9900012    2    1    2    0    0  0.11010197078E+01 -0.23229299000E+00 -0.35608476559E+00  0.90007745455E+02  0.90000006895E+02 0.  0.
         12    1    1    2    0    0 -0.11010197078E+01  0.23229299000E+00  0.35608476559E+00  0.11802545447E+01  0.00000000000E+00 0. -1.
         11    1    3    3    0    0 -0.98251746458E+01  0.18230599109E+02 -0.28937393192E+02  0.35584568646E+02  0.51100000000E-03 0. -1.
        -11    1    3    3    0    0  0.91004457619E+01  0.67959318546E+00 -0.86153326533E+01  0.12550056452E+02  0.51100000000E-03 0.  1.
        -12    1    3    3    0    0  0.18257485917E+01 -0.19142485284E+02  0.37196641080E+02  0.41873120357E+02  0.00000000000E+00 0.  1.
</event>
<event>
 7    1  0.4119305E-015  0.9000772E+02  0.7816164E-02  0.1186339E+00
        -11   -1    0    0    0    0  0.00000000000E+00  0.00000000000E+00  0.45593999997E+02  0.45594000000E+02  0.51100000000E-03 0.  1.
         11   -1    0    0    0    0 -0.00000000000E+00 -0.00000000000E+00 -0.45593999997E+02  0.45594000000E+02  0.51100000000E-03 0. -1.
    9900012    2    1    2    0    0 -0.49229168298E+00  0.87091232931E+00 -0.62628063601E+00  0.90007717482E+02  0.89999978553E+02 0.  0.
         12    1    1    2    0    0  0.49229168298E+00 -0.87091232931E+00  0.62628063601E+00  0.11802825177E+01  0.00000000000E+00 0. -1.
         11    1    3    3    0    0 -0.57261030745E+01 -0.72778324320E+01  0.38545182985E+00  0.92684235284E+01  0.51100000000E-03 0. -1.
        -11    1    3    3    0    0 -0.36342903364E+02 -0.52500764867E+01  0.31725491485E+01  0.36856953162E+02  0.51100000000E-03 0.  1.
         12    1    3    3    0    0  0.41576714756E+02  0.13398821248E+02 -0.41842816143E+01  0.43882340792E+02  0.00000000000E+00 0. -1.
</event>
<event>
 7    1  0.4119305E-015  0.9000758E+02  0.7816164E-02  0.1186339E+00
        -11   -1    0    0    0    0  0.00000000000E+00  0.00000000000E+00  0.45593999997E+02  0.45594000000E+02  0.51100000000E-03 0. -1.
         11   -1    0    0    0    0 -0.00000000000E+00 -0.00000000000E+00 -0.45593999997E+02  0.45594000000E+02  0.51100000000E-03 0.  1.
    9900012    2    1    2    0    0  0.11288561485E+01  0.20841644681E-01 -0.34443386043E+00  0.90007582590E+02  0.89999841880E+02 0.  0.
         12    1    1    2    0    0 -0.11288561485E+01 -0.20841644681E-01  0.34443386043E+00  0.11804174102E+01  0.00000000000E+00 0. -1.
         11    1    3    3    0    0  0.60857616699E+01  0.47892215990E+01  0.82239878001E+01  0.11296331892E+02  0.51100000000E-03 0. -1.
        -11    1    3    3    0    0 -0.30417976805E+02 -0.15272188111E+00 -0.31750162328E+02  0.43969869741E+02  0.51100000000E-03 0.  1.
         12    1    3    3    0    0  0.25461071284E+02 -0.46156580732E+01  0.23181740668E+02  0.34741380956E+02  0.00000000000E+00 0. -1.
</event>
<event>
 7    1  0.4119305E-015  0.9000778E+02  0.7816164E-02  0.1186339E+00
        -11   -1    0    0    0    0  0.00000000000E+00  0.00000000000E+00  0.45593999997E+02  0.45594000000E+02  0.51100000000E-03 0. -1.
         11   -1    0    0    0    0 -0.00000000000E+00 -0.00000000000E+00 -0.45593999997E+02  0.45594000000E+02  0.51100000000E-03 0.  1.
    9900012    2    1    2    0    0  0.27185185158E+00 -0.87503795222E+00 -0.74385872215E+00  0.90007779408E+02  0.90000041296E+02 0.  0.
         12    1    1    2    0    0 -0.27185185158E+00  0.87503795222E+00  0.74385872215E+00  0.11802205919E+01  0.00000000000E+00 0. -1.
         11    1    3    3    0    0 -0.44203158727E+01  0.31985992019E+01 -0.83254549415E+01  0.99540659790E+01  0.51100000000E-03 0. -1.
        -11    1    3    3    0    0  0.26160190739E+02 -0.18512620298E+02 -0.23406247375E+02  0.39685326082E+02  0.51100000000E-03 0.  1.
         12    1    3    3    0    0 -0.21468023015E+02  0.14438983144E+02  0.30987843594E+02  0.40368387347E+02  0.00000000000E+00 0. -1.
</event>
<event>
 7    1  0.4119305E-015  0.9000772E+02  0.7816164E-02  0.1186339E+00
        -11   -1    0    0    0    0  0.00000000000E+00  0.00000000000E+00  0.45593999997E+02  0.45594000000E+02  0.51100000000E-03 0. -1.
         11   -1    0    0    0    0 -0.00000000000E+00 -0.00000000000E+00 -0.45593999997E+02  0.45594000000E+02  0.51100000000E-03 0.  1.
    9900012    2    1    2    0    0 -0.42510630501E+00 -0.33369892086E+00 -0.10492787930E+01  0.90007721929E+02  0.89999983058E+02 0.  0.
         12    1    1    2    0    0  0.42510630501E+00  0.33369892086E+00  0.10492787930E+01  0.11802780714E+01  0.00000000000E+00 0. -1.
         11    1    3    3    0    0  0.11552436192E+02 -0.30317305228E+01  0.41636516635E+02  0.43315697959E+02  0.51100000000E-03 0. -1.
        -11    1    3    3    0    0 -0.66492953868E+01 -0.36311707815E+01 -0.79392069008E+01  0.10974039223E+02  0.51100000000E-03 0.  1.
        -12    1    3    3    0    0 -0.53282471102E+01  0.63292023834E+01 -0.34746588527E+02  0.35717984747E+02  0.00000000000E+00 0.  1.
</event>
<event>
 7    1  0.4352210E-015  0.9000779E+02  0.7816164E-02  0.1186339E+00
        -11   -1    0    0    0    0  0.00000000000E+00  0.00000000000E+00  0.45593999997E+02  0.45594000000E+02  0.51100000000E-03 0. -1.
         11   -1    0    0    0    0 -0.00000000000E+00 -0.00000000000E+00 -0.45593999997E+02  0.45594000000E+02  0.51100000000E-03 0.  1.
    9900012    2    1    2    0    0  0.49260801412E+00 -0.99303214560E+00 -0.40510691636E+00  0.90007793615E+02  0.90000055691E+02 0.  0.
         12    1    1    2    0    0 -0.49260801412E+00  0.99303214560E+00  0.40510691636E+00  0.11802063851E+01  0.00000000000E+00 0. -1.
         11    1    3    3    0    0  0.12662149583E+01 -0.36402074451E+02  0.13326166721E+02  0.38785319960E+02  0.51100000000E-03 0. -1.
        -11    1    3    3    0    0  0.63854908124E+01  0.61528966047E-01  0.71194426106E+01  0.95637200961E+01  0.51100000000E-03 0.  1.
        -12    1    3    3    0    0 -0.71590977566E+01  0.35347513340E+02 -0.20850716248E+02  0.41658753558E+02  0.00000000000E+00 0.  1.
</event>
<event>
 7    1  0.4119305E-015  0.9000755E+02  0.7816164E-02  0.1186339E+00
        -11   -1    0    0    0    0  0.00000000000E+00  0.00000000000E+00  0.45593999997E+02  0.45594000000E+02  0.51100000000E-03 0.  1.
         11   -1    0    0    0    0 -0.00000000000E+00 -0.00000000000E+00 -0.45593999997E+02  0.45594000000E+02  0.51100000000E-03 0. -1.
    9900012    2    1    2    0    0 -0.31802774166E+00  0.10872180228E+01 -0.33206633591E+00  0.90007554014E+02  0.89999812927E+02 0.  0.
         12    1    1    2    0    0  0.31802774166E+00 -0.10872180228E+01  0.33206633591E+00  0.11804459857E+01  0.00000000000E+00 0. -1.
         11    1    3    3    0    0 -0.16971601725E+02  0.18649742034E+02 -0.23142975150E+02  0.34226385175E+02  0.51100000000E-03 0. -1.
        -11    1    3    3    0    0  0.65002609738E+01 -0.13321807370E+01 -0.13325842644E+02  0.14886442849E+02  0.51100000000E-03 0.  1.
        -12    1    3    3    0    0  0.10153313010E+02 -0.16230343274E+02  0.36136751459E+02  0.40894725991E+02  0.00000000000E+00 0.  1.
</event>
<event>
 7    1  0.4119305E-015  0.9000656E+02  0.7816164E-02  0.1186341E+00
        -11   -1    0    0    0    0  0.00000000000E+00  0.00000000000E+00  0.45593999997E+02  0.45594000000E+02  0.51100000000E-03 0. -1.
         11   -1    0    0    0    0 -0.00000000000E+00 -0.00000000000E+00 -0.45593999997E+02  0.45594000000E+02  0.51100000000E-03 0.  1.
    9900012    2    1    2    0    0  0.59136237523E-02 -0.83935973390E+00 -0.83141588162E+00  0.90006555079E+02  0.89998800798E+02 0.  0.
         12    1    1    2    0    0 -0.59136237523E-02  0.83935973390E+00  0.83141588162E+00  0.11814449213E+01  0.00000000000E+00 0. -1.
         11    1    3    3    0    0 -0.25780585466E+02  0.15156506553E+02  0.23058863881E+02  0.37763335149E+02  0.51100000000E-03 0. -1.
        -11    1    3    3    0    0  0.20459625419E+01 -0.12508174992E+01  0.88662912135E+01  0.91848585880E+01  0.51100000000E-03 0.  1.
        -12    1    3    3    0    0  0.23740536548E+02 -0.14745048788E+02 -0.32756570976E+02  0.43058361342E+02  0.00000000000E+00 0.  1.
</event>
<event>
 7    1  0.4119305E-015  0.9000769E+02  0.7816164E-02  0.1186339E+00
        -11   -1    0    0    0    0  0.00000000000E+00  0.00000000000E+00  0.45593999997E+02  0.45594000000E+02  0.51100000000E-03 0.  1.
         11   -1    0    0    0    0 -0.00000000000E+00 -0.00000000000E+00 -0.45593999997E+02  0.45594000000E+02  0.51100000000E-03 0. -1.
    9900012    2    1    2    0    0  0.10022589206E+01  0.34265197980E+00 -0.52076568074E+00  0.90007690626E+02  0.89999951343E+02 0.  0.
         12    1    1    2    0    0 -0.10022589206E+01 -0.34265197980E+00  0.52076568074E+00  0.11803093736E+01  0.00000000000E+00 0. -1.
         11    1    3    3    0    0  0.31970472730E+02  0.89412123960E+01 -0.16570524345E+01  0.33238565383E+02  0.51100000000E-03 0. -1.
        -11    1    3    3    0    0 -0.38786943045E+01  0.14714475225E+02 -0.11271259992E+02  0.18936772500E+02  0.51100000000E-03 0.  1.
        -12    1    3    3    0    0 -0.27089519505E+02 -0.23313035642E+02  0.12407546746E+02  0.37832352743E+02  0.00000000000E+00 0.  1.
</event>
<event>
 7    1  0.4119305E-015  0.9000762E+02  0.7816164E-02  0.1186339E+00
        -11   -1    0    0    0    0  0.00000000000E+00  0.00000000000E+00  0.45593999997E+02  0.45594000000E+02  0.51100000000E-03 0.  1.
         11   -1    0    0    0    0 -0.00000000000E+00 -0.00000000000E+00 -0.45593999997E+02  0.45594000000E+02  0.51100000000E-03 0. -1.
    9900012    2    1    2    0    0 -0.61520655219E+00  0.10048901009E+01  0.70800576170E-01  0.90007620426E+02  0.89999880216E+02 0.  0.
         12    1    1    2    0    0  0.61520655219E+00 -0.10048901009E+01 -0.70800576170E-01  0.11803795738E+01  0.00000000000E+00 0. -1.
         11    1    3    3    0    0 -0.73858074953E+01  0.66934485122E+01  0.96336179556E+01  0.13862142710E+02  0.51100000000E-03 0. -1.
        -11    1    3    3    0    0 -0.81623338895E+01  0.94769910800E+01  0.29287955964E+02  0.31846843160E+02  0.51100000000E-03 0.  1.
         12    1    3    3    0    0  0.14932934833E+02 -0.15165549491E+02 -0.38850773344E+02  0.44298634556E+02  0.00000000000E+00 0. -1.
</event>
<event>
 7    1  0.4119305E-015  0.9000780E+02  0.7816164E-02  0.1186339E+00
        -11   -1    0    0    0    0  0.00000000000E+00  0.00000000000E+00  0.45593999997E+02  0.45594000000E+02  0.51100000000E-03 0. -1.
         11   -1    0    0    0    0 -0.00000000000E+00 -0.00000000000E+00 -0.45593999997E+02  0.45594000000E+02  0.51100000000E-03 0.  1.
    9900012    2    1    2    0    0  0.12468139280E+00  0.23874438830E+00 -0.11490587114E+01  0.90007796520E+02  0.90000058634E+02 0.  0.
         12    1    1    2    0    0 -0.12468139280E+00 -0.23874438830E+00  0.11490587114E+01  0.11802034803E+01  0.00000000000E+00 0. -1.
         11    1    3    3    0    0  0.45262520041E+01 -0.57285099107E+01 -0.51411728736E+01  0.89294144141E+01  0.51100000000E-03 0. -1.
        -11    1    3    3    0    0  0.29591159519E+02  0.10469229586E+02 -0.21761724905E+02  0.38194425783E+02  0.51100000000E-03 0.  1.
         12    1    3    3    0    0 -0.33992730131E+02 -0.45019752866E+01  0.25753839067E+02  0.42883956323E+02  0.00000000000E+00 0. -1.
</event>
<event>
 7    1  0.4119305E-015  0.9000775E+02  0.7816164E-02  0.1186339E+00
        -11   -1    0    0    0    0  0.00000000000E+00  0.00000000000E+00  0.45593999997E+02  0.45594000000E+02  0.51100000000E-03 0.  1.
         11   -1    0    0    0    0 -0.00000000000E+00 -0.00000000000E+00 -0.45593999997E+02  0.45594000000E+02  0.51100000000E-03 0. -1.
    9900012    2    1    2    0    0 -0.28285321711E+00 -0.19496091466E+00  0.11291513247E+01  0.90007746462E+02  0.90000007915E+02 0.  0.
         12    1    1    2    0    0  0.28285321711E+00  0.19496091466E+00 -0.11291513247E+01  0.11802535384E+01  0.00000000000E+00 0. -1.
         11    1    3    3    0    0  0.10529318790E+02  0.40794857587E+01  0.33887443784E+00  0.11297061317E+02  0.51100000000E-03 0. -1.
        -11    1    3    3    0    0  0.49038278196E+01 -0.63250478137E+01  0.37700957930E+02  0.38541094773E+02  0.51100000000E-03 0.  1.
         12    1    3    3    0    0 -0.15715999827E+02  0.20506011404E+01 -0.36910681044E+02  0.40169590373E+02  0.00000000000E+00 0. -1.
</event>
<event>
 7    1  0.5000774E-015  0.9000808E+02  0.7816164E-02  0.1186338E+00
        -11   -1    0    0    0    0  0.00000000000E+00  0.00000000000E+00  0.45593999997E+02  0.45594000000E+02  0.51100000000E-03 0.  1.
         11   -1    0    0    0    0 -0.00000000000E+00 -0.00000000000E+00 -0.45593999997E+02  0.45594000000E+02  0.51100000000E-03 0. -1.
    9900012    2    1    2    0    0  0.89553550886E+00 -0.40792291952E+00  0.65101388152E+00  0.90008083041E+02  0.90000348937E+02 0.  0.
         12    1    1    2    0    0 -0.89553550886E+00  0.40792291952E+00 -0.65101388152E+00  0.11799169589E+01  0.00000000000E+00 0. -1.
         11    1    3    3    0    0  0.40834901487E+01  0.90684421919E+01 -0.35228523192E+02  0.36605469293E+02  0.51100000000E-03 0. -1.
        -11    1    3    3    0    0  0.21126457501E+01 -0.49355021850E+01 -0.76340521340E+01  0.93328026942E+01  0.51100000000E-03 0.  1.
        -12    1    3    3    0    0 -0.53006003900E+01 -0.45408629265E+01  0.43513589208E+02  0.44069811054E+02  0.00000000000E+00 0.  1.
</event>
<event>
 7    1  0.4119305E-015  0.9000776E+02  0.7816164E-02  0.1186339E+00
        -11   -1    0    0    0    0  0.00000000000E+00  0.00000000000E+00  0.45593999997E+02  0.45594000000E+02  0.51100000000E-03 0.  1.
         11   -1    0    0    0    0 -0.00000000000E+00 -0.00000000000E+00 -0.45593999997E+02  0.45594000000E+02  0.51100000000E-03 0. -1.
    9900012    2    1    2    0    0 -0.67546128953E+00 -0.63479255296E+00  0.73058249558E+00  0.90007762599E+02  0.90000024266E+02 0.  0.
         12    1    1    2    0    0  0.67546128953E+00  0.63479255296E+00 -0.73058249558E+00  0.11802374006E+01  0.00000000000E+00 0. -1.
         11    1    3    3    0    0  0.21350042051E+02  0.11863739346E+02 -0.23542916191E+02  0.33924055033E+02  0.51100000000E-03 0. -1.
        -11    1    3    3    0    0  0.83228588601E+00  0.13464025592E+02 -0.56041586610E+00  0.13501361085E+02  0.51100000000E-03 0.  1.
        -12    1    3    3    0    0 -0.22857789227E+02 -0.25962557491E+02  0.24833914553E+02  0.42582346481E+02  0.00000000000E+00 0.  1.
</event>
<event>
 7    1  0.4119305E-015  0.9000776E+02  0.7816164E-02  0.1186339E+00
        -11   -1    0    0    0    0  0.00000000000E+00  0.00000000000E+00  0.45593999997E+02  0.45594000000E+02  0.51100000000E-03 0. -1.
         11   -1    0    0    0    0 -0.00000000000E+00 -0.00000000000E+00 -0.45593999997E+02  0.45594000000E+02  0.51100000000E-03 0.  1.
    9900012    2    1    2    0    0 -0.52738976685E-01 -0.14972562945E-01 -0.11789618515E+01  0.90007764166E+02  0.90000025853E+02 0.  0.
         12    1    1    2    0    0  0.52738976685E-01  0.14972562945E-01  0.11789618515E+01  0.11802358343E+01  0.00000000000E+00 0. -1.
         11    1    3    3    0    0 -0.40195154987E+02 -0.21594779961E+01  0.10948364811E+02  0.41715471014E+02  0.51100000000E-03 0. -1.
        -11    1    3    3    0    0  0.27242825782E+01  0.74224716520E+01 -0.61871884357E+01  0.10039726191E+02  0.51100000000E-03 0.  1.
        -12    1    3    3    0    0  0.37418133432E+02 -0.52779662188E+01 -0.59401382268E+01  0.38252566961E+02  0.00000000000E+00 0.  1.
</event>
<event>
 7    1  0.4119305E-015  0.9000766E+02  0.7816164E-02  0.1186339E+00
        -11   -1    0    0    0    0  0.00000000000E+00  0.00000000000E+00  0.45593999997E+02  0.45594000000E+02  0.51100000000E-03 0. -1.
         11   -1    0    0    0    0 -0.00000000000E+00 -0.00000000000E+00 -0.45593999997E+02  0.45594000000E+02  0.51100000000E-03 0.  1.
    9900012    2    1    2    0    0  0.50819645996E+00 -0.68485547477E+00  0.81604018482E+00  0.90007655878E+02  0.89999916135E+02 0.  0.
         12    1    1    2    0    0 -0.50819645996E+00  0.68485547477E+00 -0.81604018482E+00  0.11803441221E+01  0.00000000000E+00 0. -1.
         11    1    3    3    0    0 -0.38288623901E+02  0.74856295389E+01  0.91983075501E+01  0.40083191389E+02  0.51100000000E-03 0. -1.
        -11    1    3    3    0    0  0.28694974528E+01  0.37178634333E+01 -0.11030569609E+02  0.11988744317E+02  0.51100000000E-03 0.  1.
        -12    1    3    3    0    0  0.35927322909E+02 -0.11888348447E+02  0.26483022440E+01  0.37935720172E+02  0.00000000000E+00 0.  1.
</event>
<event>
 7    1  0.4119305E-015  0.9000773E+02  0.7816164E-02  0.1186339E+00
        -11   -1    0    0    0    0  0.00000000000E+00  0.00000000000E+00  0.45593999997E+02  0.45594000000E+02  0.51100000000E-03 0.  1.
         11   -1    0    0    0    0 -0.00000000000E+00 -0.00000000000E+00 -0.45593999997E+02  0.45594000000E+02  0.51100000000E-03 0. -1.
    9900012    2    1    2    0    0  0.34876858541E+00  0.52843327743E+00  0.99606970086E+00  0.90007730495E+02  0.89999991738E+02 0.  0.
         12    1    1    2    0    0 -0.34876858541E+00 -0.52843327743E+00 -0.99606970086E+00  0.11802695047E+01  0.00000000000E+00 0. -1.
         11    1    3    3    0    0  0.12550603814E+02  0.14872837156E+02 -0.36919472712E+02  0.41734475039E+02  0.51100000000E-03 0. -1.
        -11    1    3    3    0    0 -0.30764307542E+01  0.61495758143E+01  0.52739503713E+01  0.86658099253E+01  0.51100000000E-03 0.  1.
        -12    1    3    3    0    0 -0.91254044743E+01 -0.20493979692E+02  0.32641592042E+02  0.39607445531E+02  0.00000000000E+00 0.  1.
</event>
<event>
 7    1  0.4119305E-015  0.9000776E+02  0.7816164E-02  0.1186339E+00
        -11   -1    0    0    0    0  0.00000000000E+00  0.00000000000E+00  0.45593999997E+02  0.45594000000E+02  0.51100000000E-03 0. -1.
         11   -1    0    0    0    0 -0.00000000000E+00 -0.00000000000E+00 -0.45593999997E+02  0.45594000000E+02  0.51100000000E-03 0.  1.
    9900012    2    1    2    0    0 -0.85839170867E+00  0.80149325774E+00  0.11723412435E+00  0.90007757818E+02  0.90000019421E+02 0.  0.
         12    1    1    2    0    0  0.85839170867E+00 -0.80149325774E+00 -0.11723412435E+00  0.11802421818E+01  0.00000000000E+00 0. -1.
         11    1    3    3    0    0  0.22441606622E+00  0.87817975494E+01  0.39990262569E+02  0.40943759370E+02  0.51100000000E-03 0. -1.
        -11    1    3    3    0    0  0.77566556273E+01 -0.24365538988E+01 -0.29714718183E+00  0.81357727434E+01  0.51100000000E-03 0.  1.
        -12    1    3    3    0    0 -0.88394634022E+01 -0.55437503929E+01 -0.39575881262E+02  0.40928225705E+02  0.00000000000E+00 0.  1.
</event>
<event>
 7    1  0.4119305E-015  0.9000784E+02  0.7816164E-02  0.1186339E+00
        -11   -1    0    0    0    0  0.00000000000E+00  0.00000000000E+00  0.45593999997E+02  0.45594000000E+02  0.51100000000E-03 0. -1.
         11   -1    0    0    0    0 -0.00000000000E+00 -0.00000000000E+00 -0.45593999997E+02  0.45594000000E+02  0.51100000000E-03 0.  1.
    9900012    2    1    2    0    0 -0.48022983529E+00  0.10244789980E+01 -0.33554794288E+00  0.90007843089E+02  0.90000105818E+02 0.  0.
         12    1    1    2    0    0  0.48022983529E+00 -0.10244789980E+01  0.33554794288E+00  0.11801569107E+01  0.00000000000E+00 0. -1.
         11    1    3    3    0    0  0.39079471958E+02  0.10975004889E+02 -0.13512589875E+02  0.42781373824E+02  0.51100000000E-03 0. -1.
        -11    1    3    3    0    0 -0.64459578817E+01 -0.98709980080E+01  0.59975421527E+00  0.11804519476E+02  0.51100000000E-03 0.  1.
        -12    1    3    3    0    0 -0.33113743912E+02 -0.79527882915E-01  0.12577287717E+02  0.35421949789E+02  0.00000000000E+00 0.  1.
</event>
<event>
 7    1  0.4119305E-015  0.9000787E+02  0.7816164E-02  0.1186339E+00
        -11   -1    0    0    0    0  0.00000000000E+00  0.00000000000E+00  0.45593999997E+02  0.45594000000E+02  0.51100000000E-03 0.  1.
         11   -1    0    0    0    0 -0.00000000000E+00 -0.00000000000E+00 -0.45593999997E+02  0.45594000000E+02  0.51100000000E-03 0. -1.
    9900012    2    1    2    0    0 -0.10387785049E+01 -0.44836684175E+00  0.33559549326E+00  0.90007865286E+02  0.90000128308E+02 0.  0.
         12    1    1    2    0    0  0.10387785049E+01  0.44836684175E+00 -0.33559549326E+00  0.11801347135E+01  0.00000000000E+00 0. -1.
         11    1    3    3    0    0  0.56015439265E+01  0.23370985478E+01 -0.69426346495E+01  0.92216864033E+01  0.51100000000E-03 0. -1.
        -11    1    3    3    0    0  0.21390932165E+02 -0.31050679983E+02  0.14370615900E+02  0.40351348279E+02  0.51100000000E-03 0.  1.
         12    1    3    3    0    0 -0.28031254596E+02  0.28265214594E+02 -0.70923857571E+01  0.40434830604E+02  0.00000000000E+00 0. -1.
</event>
<event>
 7    1  0.4119305E-015  0.9000776E+02  0.7816164E-02  0.1186339E+00
        -11   -1    0    0    0    0  0.00000000000E+00  0.00000000000E+00  0.45593999997E+02  0.45594000000E+02  0.51100000000E-03 0.  1.
         11   -1    0    0    0    0 -0.00000000000E+00 -0.00000000000E+00 -0.45593999997E+02  0.45594000000E+02  0.51100000000E-03 0. -1.
    9900012    2    1    2    0    0 -0.10469997400E+01  0.51227302921E+00  0.18532102847E+00  0.90007755959E+02  0.90000017538E+02 0.  0.
         12    1    1    2    0    0  0.10469997400E+01 -0.51227302921E+00 -0.18532102847E+00  0.11802440407E+01  0.00000000000E+00 0. -1.
         11    1    3    3    0    0  0.87320583187E+01 -0.55862794672E+01 -0.50030064157E-01  0.10366188501E+02  0.51100000000E-03 0. -1.
        -11    1    3    3    0    0  0.24014811715E+02  0.28832347220E+02  0.75108697064E+01  0.38267853244E+02  0.51100000000E-03 0.  1.
         12    1    3    3    0    0 -0.33793869774E+02 -0.22733794723E+02 -0.72755186138E+01  0.41373714214E+02  0.00000000000E+00 0. -1.
</event>
<event>
 7    1  0.4119305E-015  0.9000769E+02  0.7816164E-02  0.1186339E+00
        -11   -1    0    0    0    0  0.00000000000E+00  0.00000000000E+00  0.45593999997E+02  0.45594000000E+02  0.51100000000E-03 0. -1.
         11   -1    0    0    0    0 -0.00000000000E+00 -0.00000000000E+00 -0.45593999997E+02  0.45594000000E+02  0.51100000000E-03 0.  1.
    9900012    2    1    2    0    0  0.74069649075E+00  0.84611242610E+00 -0.35860195104E+00  0.90007689495E+02  0.89999950196E+02 0.  0.
         12    1    1    2    0    0 -0.74069649075E+00 -0.84611242610E+00  0.35860195104E+00  0.11803105050E+01  0.00000000000E+00 0. -1.
         11    1    3    3    0    0 -0.13767268589E+00  0.48577433146E+00  0.94018249145E+01  0.94153726668E+01  0.51100000000E-03 0. -1.
        -11    1    3    3    0    0 -0.10248512299E+02 -0.25310713110E+02 -0.33976132577E+02  0.43589468770E+02  0.51100000000E-03 0.  1.
         12    1    3    3    0    0  0.11126881476E+02  0.25671051204E+02  0.24215705712E+02  0.37002848058E+02  0.00000000000E+00 0. -1.
</event>
<event>
 7    1  0.4119305E-015  0.9000777E+02  0.7816164E-02  0.1186339E+00
        -11   -1    0    0    0    0  0.00000000000E+00  0.00000000000E+00  0.45593999997E+02  0.45594000000E+02  0.51100000000E-03 0. -1.
         11   -1    0    0    0    0 -0.00000000000E+00 -0.00000000000E+00 -0.45593999997E+02  0.45594000000E+02  0.51100000000E-03 0.  1.
    9900012    2    1    2    0    0 -0.47412778238E-01  0.77243043293E+00 -0.89109028942E+00  0.90007771781E+02  0.90000033568E+02 0.  0.
         12    1    1    2    0    0  0.47412778238E-01 -0.77243043293E+00  0.89109028942E+00  0.11802282191E+01  0.00000000000E+00 0. -1.
         11    1    3    3    0    0 -0.17118556790E+01  0.79232033502E+01  0.39703314432E+01  0.90261361182E+01  0.51100000000E-03 0. -1.
        -11    1    3    3    0    0 -0.19788642704E+02  0.21770884311E+02 -0.25968517487E+02  0.39241886862E+02  0.51100000000E-03 0.  1.
         12    1    3    3    0    0  0.21453085605E+02 -0.28921657228E+02  0.21107095754E+02  0.41739748801E+02  0.00000000000E+00 0. -1.
</event>
<event>
 7    1  0.4119305E-015  0.9000771E+02  0.7816164E-02  0.1186339E+00
        -11   -1    0    0    0    0  0.00000000000E+00  0.00000000000E+00  0.45593999997E+02  0.45594000000E+02  0.51100000000E-03 0.  1.
         11   -1    0    0    0    0 -0.00000000000E+00 -0.00000000000E+00 -0.45593999997E+02  0.45594000000E+02  0.51100000000E-03 0. -1.
    9900012    2    1    2    0    0  0.10628439918E+01  0.25546028247E+00  0.44518335790E+00  0.90007709557E+02  0.89999970524E+02 0.  0.
         12    1    1    2    0    0 -0.10628439918E+01 -0.25546028247E+00 -0.44518335790E+00  0.11802904426E+01  0.00000000000E+00 0. -1.
         11    1    3    3    0    0 -0.20133301956E+02  0.47626731916E+00 -0.27130793719E+02  0.33788409940E+02  0.51100000000E-03 0. -1.
        -11    1    3    3    0    0 -0.25564313499E+00  0.51852806031E+01 -0.10766309771E+02  0.11952653040E+02  0.51100000000E-03 0.  1.
        -12    1    3    3    0    0  0.21451789083E+02 -0.54060876398E+01  0.38342286848E+02  0.44266646577E+02  0.00000000000E+00 0.  1.
</event>
<event>
 7    1  0.4119305E-015  0.9000807E+02  0.7816164E-02  0.1186338E+00
        -11   -1    0    0    0    0  0.00000000000E+00  0.00000000000E+00  0.45593999997E+02  0.45594000000E+02  0.51100000000E-03 0.  1.
         11   -1    0    0    0    0 -0.00000000000E+00 -0.00000000000E+00 -0.45593999997E+02  0.45594000000E+02  0.51100000000E-03 0. -1.
    9900012    2    1    2    0    0  0.51010205494E+00  0.43843741702E+00  0.96943139014E+00  0.90008072589E+02  0.90000338347E+02 0.  0.
         12    1    1    2    0    0 -0.51010205494E+00 -0.43843741702E+00 -0.96943139014E+00  0.11799274110E+01  0.00000000000E+00 0. -1.
         11    1    3    3    0    0 -0.24664848882E+02 -0.31786394204E+01 -0.24686111414E+02  0.35040870651E+02  0.51100000000E-03 0. -1.
        -11    1    3    3    0    0  0.16214708472E+01 -0.41742141701E+01 -0.10329923999E+02  0.11258799303E+02  0.51100000000E-03 0.  1.
        -12    1    3    3    0    0  0.23553480090E+02  0.77912910076E+01  0.35985466803E+02  0.43708402636E+02  0.00000000000E+00 0.  1.
</event>
<event>
 7    1  0.4119305E-015  0.9000779E+02  0.7816164E-02  0.1186339E+00
        -11   -1    0    0    0    0  0.00000000000E+00  0.00000000000E+00  0.45593999997E+02  0.45594000000E+02  0.51100000000E-03 0. -1.
         11   -1    0    0    0    0 -0.00000000000E+00 -0.00000000000E+00 -0.45593999997E+02  0.45594000000E+02  0.51100000000E-03 0.  1.
    9900012    2    1    2    0    0 -0.95685943190E+00  0.42475060014E+00 -0.54488656603E+00  0.90007790521E+02  0.90000052556E+02 0.  0.
         12    1    1    2    0    0  0.95685943190E+00 -0.42475060014E+00  0.54488656603E+00  0.11802094791E+01  0.00000000000E+00 0. -1.
         11    1    3    3    0    0  0.25964492591E+01  0.60372964694E+01  0.79905897175E+01  0.10346014774E+02  0.51100000000E-03 0. -1.
        -11    1    3    3    0    0  0.28740523691E+02 -0.10633835016E+02  0.19734763939E+02  0.36449376636E+02  0.51100000000E-03 0.  1.
         12    1    3    3    0    0 -0.32293832382E+02  0.50212891463E+01 -0.28270240223E+02  0.43212399110E+02  0.00000000000E+00 0. -1.
</event>
<event>
 7    1  0.4119305E-015  0.9000774E+02  0.7816164E-02  0.1186339E+00
        -11   -1    0    0    0    0  0.00000000000E+00  0.00000000000E+00  0.45593999997E+02  0.45594000000E+02  0.51100000000E-03 0.  1.
         11   -1    0    0    0    0 -0.00000000000E+00 -0.00000000000E+00 -0.45593999997E+02  0.45594000000E+02  0.51100000000E-03 0. -1.
    9900012    2    1    2    0    0  0.27579896995E+00  0.88928971398E+00 -0.72534356528E+00  0.90007735388E+02  0.89999996695E+02 0.  0.
         12    1    1    2    0    0 -0.27579896995E+00 -0.88928971398E+00  0.72534356528E+00  0.11802646122E+01  0.00000000000E+00 0. -1.
         11    1    3    3    0    0  0.34027344820E+02 -0.17791190870E+01 -0.12990861040E+02  0.36466257431E+02  0.51100000000E-03 0. -1.
        -11    1    3    3    0    0  0.70364854926E+01  0.17874662458E+01  0.10423181942E+02  0.12702357487E+02  0.51100000000E-03 0.  1.
        -12    1    3    3    0    0 -0.40788031342E+02  0.88094255519E+00  0.18423355325E+01  0.40839120470E+02  0.00000000000E+00 0.  1.
</event>
<event>
 7    1  0.4119305E-015  0.9000777E+02  0.7816164E-02  0.1186339E+00
        -11   -1    0    0    0    0  0.00000000000E+00  0.00000000000E+00  0.45593999997E+02  0.45594000000E+02  0.51100000000E-03 0.  1.
         11   -1    0    0    0    0 -0.00000000000E+00 -0.00000000000E+00 -0.45593999997E+02  0.45594000000E+02  0.51100000000E-03 0. -1.
    9900012    2    1    2    0    0 -0.44411016594E+00  0.43068170192E+00  0.10051014458E+01  0.90007767191E+02  0.90000028918E+02 0.  0.
         12    1    1    2    0    0  0.44411016594E+00 -0.43068170192E+00 -0.10051014458E+01  0.11802328093E+01  0.00000000000E+00 0. -1.
         11    1    3    3    0    0  0.31707382739E+02  0.50361053530E+01 -0.12323443254E+02  0.34388773330E+02  0.51100000000E-03 0. -1.
        -11    1    3    3    0    0  0.65806776178E+01  0.38420948035E+00 -0.85965427103E+01  0.10832981199E+02  0.51100000000E-03 0.  1.
        -12    1    3    3    0    0 -0.38732170522E+02 -0.49896331315E+01  0.21925087410E+02  0.44786012661E+02  0.00000000000E+00 0.  1.
</event>
<event>
 7    1  0.4119305E-015  0.9000905E+02  0.7816164E-02  0.1186336E+00
        -11   -1    0    0    0    0  0.00000000000E+00  0.00000000000E+00  0.45593999997E+02  0.45594000000E+02  0.51100000000E-03 0.  1.
         11   -1    0    0    0    0 -0.00000000000E+00 -0.00000000000E+00 -0.45593999997E+02  0.45594000000E+02  0.51100000000E-03 0. -1.
    9900012    2    1    2    0    0 -0.21009441744E-01  0.66193221185E+00  0.97536458595E+00  0.90009046343E+02  0.90001324945E+02 0.  0.
         12    1    1    2    0    0  0.21009441744E-01 -0.66193221185E+00 -0.97536458595E+00  0.11789536570E+01  0.00000000000E+00 0. -1.
         11    1    3    3    0    0  0.27823861852E+02 -0.23885402362E+02  0.85787406651E+00  0.36679908431E+02  0.51100000000E-03 0. -1.
        -11    1    3    3    0    0  0.41642945757E+01 -0.48209347970E+01  0.68675419535E+01  0.93672778529E+01  0.51100000000E-03 0.  1.
        -12    1    3    3    0    0 -0.32009165869E+02  0.29368269371E+02 -0.67500514341E+01  0.43961860059E+02  0.00000000000E+00 0.  1.
</event>
<event>
 7    1  0.4119305E-015  0.9000771E+02  0.7816164E-02  0.1186339E+00
        -11   -1    0    0    0    0  0.00000000000E+00  0.00000000000E+00  0.45593999997E+02  0.45594000000E+02  0.51100000000E-03 0.  1.
         11   -1    0    0    0    0 -0.00000000000E+00 -0.00000000000E+00 -0.45593999997E+02  0.45594000000E+02  0.51100000000E-03 0. -1.
    9900012    2    1    2    0    0  0.67153768255E+00  0.94550986636E+00 -0.21939874472E+00  0.90007708690E+02  0.89999969645E+02 0.  0.
         12    1    1    2    0    0 -0.67153768255E+00 -0.94550986636E+00  0.21939874472E+00  0.11802913097E+01  0.00000000000E+00 0. -1.
         11    1    3    3    0    0 -0.50402532099E+01 -0.36092574792E+02 -0.29961013107E+00  0.36444037565E+02  0.51100000000E-03 0. -1.
        -11    1    3    3    0    0 -0.41846632549E+01 -0.63039980436E+01 -0.46086135154E+01  0.88595212447E+01  0.51100000000E-03 0.  1.
        -12    1    3    3    0    0  0.98964541473E+01  0.43342082702E+02  0.46888249017E+01  0.44704149881E+02  0.00000000000E+00 0.  1.
</event>
<event>
 7    1  0.4119305E-015  0.9000811E+02  0.7816164E-02  0.1186338E+00
        -11   -1    0    0    0    0  0.00000000000E+00  0.00000000000E+00  0.45593999997E+02  0.45594000000E+02  0.51100000000E-03 0. -1.
         11   -1    0    0    0    0 -0.00000000000E+00 -0.00000000000E+00 -0.45593999997E+02  0.45594000000E+02  0.51100000000E-03 0.  1.
    9900012    2    1    2    0    0  0.11707254230E+01 -0.23235537334E-01  0.14494151693E+00  0.90008107653E+02  0.90000373874E+02 0.  0.
         12    1    1    2    0    0 -0.11707254230E+01  0.23235537334E-01 -0.14494151693E+00  0.11798923466E+01  0.00000000000E+00 0. -1.
         11    1    3    3    0    0 -0.34409088368E+01  0.75244156469E+01  0.29463573929E+01  0.87828074440E+01  0.51100000000E-03 0. -1.
        -11    1    3    3    0    0  0.35184845375E+01  0.34129703487E+02 -0.15490545558E+02  0.37645363532E+02  0.51100000000E-03 0.  1.
         12    1    3    3    0    0  0.10931497223E+01 -0.41677354671E+02  0.12689129682E+02  0.43579936677E+02  0.00000000000E+00 0. -1.
</event>
<event>
 7    1  0.4119305E-015  0.9000778E+02  0.7816164E-02  0.1186339E+00
        -11   -1    0    0    0    0  0.00000000000E+00  0.00000000000E+00  0.45593999997E+02  0.45594000000E+02  0.51100000000E-03 0. -1.
         11   -1    0    0    0    0 -0.00000000000E+00 -0.00000000000E+00 -0.45593999997E+02  0.45594000000E+02  0.51100000000E-03 0.  1.
    9900012    2    1    2    0    0  0.71254712594E+00 -0.25391807271E+00 -0.90593619153E+00  0.90007780454E+02  0.90000042356E+02 0.  0.
         12    1    1    2    0    0 -0.71254712594E+00  0.25391807271E+00  0.90593619153E+00  0.11802195463E+01  0.00000000000E+00 0. -1.
         11    1    3    3    0    0 -0.58358109665E+01  0.75229880672E+01 -0.15506967286E+01  0.96465900556E+01  0.51100000000E-03 0. -1.
        -11    1    3    3    0    0 -0.33289143507E+02 -0.86509443390E+01 -0.15038514710E+02  0.37538817753E+02  0.51100000000E-03 0.  1.
         12    1    3    3    0    0  0.39837501599E+02  0.87403819912E+00  0.15683275247E+02  0.42822372645E+02  0.00000000000E+00 0. -1.
</event>
<event>
 7    1  0.4119305E-015  0.9000768E+02  0.7816164E-02  0.1186339E+00
        -11   -1    0    0    0    0  0.00000000000E+00  0.00000000000E+00  0.45593999997E+02  0.45594000000E+02  0.51100000000E-03 0.  1.
         11   -1    0    0    0    0 -0.00000000000E+00 -0.00000000000E+00 -0.45593999997E+02  0.45594000000E+02  0.51100000000E-03 0. -1.
    9900012    2    1    2    0    0  0.34944980577E+00  0.93559196461E+00  0.62904671321E+00  0.90007683408E+02  0.89999944029E+02 0.  0.
         12    1    1    2    0    0 -0.34944980577E+00 -0.93559196461E+00 -0.62904671321E+00  0.11803165924E+01  0.00000000000E+00 0. -1.
         11    1    3    3    0    0 -0.26698012811E+02  0.23356268073E+02 -0.16223211183E+02  0.39006303691E+02  0.51100000000E-03 0. -1.
        -11    1    3    3    0    0 -0.55140739633E+01  0.24579921844E+01  0.62165519290E+01  0.86655787688E+01  0.51100000000E-03 0.  1.
        -12    1    3    3    0    0  0.32561536580E+02 -0.24878668292E+02  0.10635705967E+02  0.42335800947E+02  0.00000000000E+00 0.  1.
</event>
<event>
 7    1  0.4119305E-015  0.9000778E+02  0.7816164E-02  0.1186339E+00
        -11   -1    0    0    0    0  0.00000000000E+00  0.00000000000E+00  0.45593999997E+02  0.45594000000E+02  0.51100000000E-03 0.  1.
         11   -1    0    0    0    0 -0.00000000000E+00 -0.00000000000E+00 -0.45593999997E+02  0.45594000000E+02  0.51100000000E-03 0. -1.
    9900012    2    1    2    0    0  0.10448674438E+01  0.54284725688E+00  0.80500964832E-01  0.90007783272E+02  0.90000045211E+02 0.  0.
         12    1    1    2    0    0 -0.10448674438E+01 -0.54284725688E+00 -0.80500964832E-01  0.11802167279E+01  0.00000000000E+00 0. -1.
         11    1    3    3    0    0  0.12557362136E+02 -0.20559660919E+02 -0.27232018679E+02  0.36358903209E+02  0.51100000000E-03 0. -1.
        -11    1    3    3    0    0  0.72046413673E+01 -0.79787890038E+01  0.23690999641E+01  0.11008204490E+02  0.51100000000E-03 0.  1.
        -12    1    3    3    0    0 -0.18717136060E+02  0.29081297180E+02  0.24943419680E+02  0.42640675573E+02  0.00000000000E+00 0.  1.
</event>
<event>
 7    1  0.4119305E-015  0.9000791E+02  0.7816164E-02  0.1186339E+00
        -11   -1    0    0    0    0  0.00000000000E+00  0.00000000000E+00  0.45593999997E+02  0.45594000000E+02  0.51100000000E-03 0. -1.
         11   -1    0    0    0    0 -0.00000000000E+00 -0.00000000000E+00 -0.45593999997E+02  0.45594000000E+02  0.51100000000E-03 0.  1.
    9900012    2    1    2    0    0  0.11244544746E+01 -0.26141411449E+00 -0.24467490418E+00  0.90007914828E+02  0.90000178503E+02 0.  0.
         12    1    1    2    0    0 -0.11244544746E+01  0.26141411449E+00  0.24467490418E+00  0.11800851721E+01  0.00000000000E+00 0. -1.
         11    1    3    3    0    0 -0.68880551597E+01 -0.11214342757E+02  0.78433210853E+01  0.15320720390E+02  0.51100000000E-03 0. -1.
        -11    1    3    3    0    0 -0.28120951912E+02  0.21112194241E+02 -0.11502871021E+02  0.36997685389E+02  0.51100000000E-03 0.  1.
         12    1    3    3    0    0  0.36133461547E+02 -0.10159265599E+02  0.34148750318E+01  0.37689509049E+02  0.00000000000E+00 0. -1.
</event>
<event>
 7    1  0.4119305E-015  0.9000777E+02  0.7816164E-02  0.1186339E+00
        -11   -1    0    0    0    0  0.00000000000E+00  0.00000000000E+00  0.45593999997E+02  0.45594000000E+02  0.51100000000E-03 0.  1.
         11   -1    0    0    0    0 -0.00000000000E+00 -0.00000000000E+00 -0.45593999997E+02  0.45594000000E+02  0.51100000000E-03 0. -1.
    9900012    2    1    2    0    0  0.10236454595E+01 -0.33074706734E+00 -0.48549120717E+00  0.90007768937E+02  0.90000030687E+02 0.  0.
         12    1    1    2    0    0 -0.10236454595E+01  0.33074706734E+00  0.48549120717E+00  0.11802310628E+01  0.00000000000E+00 0. -1.
         11    1    3    3    0    0 -0.63650802653E+01  0.51821964365E+01 -0.31613158735E+01  0.87956423872E+01  0.51100000000E-03 0. -1.
        -11    1    3    3    0    0 -0.89439384692E+00  0.37408107365E+02  0.24742026780E-01  0.37418806093E+02  0.51100000000E-03 0.  1.
         12    1    3    3    0    0  0.82831195717E+01 -0.42921050869E+02  0.26510826396E+01  0.43793320457E+02  0.00000000000E+00 0. -1.
</event>
<event>
 7    1  0.8432633E-015  0.9000784E+02  0.7816164E-02  0.1186339E+00
        -11   -1    0    0    0    0  0.00000000000E+00  0.00000000000E+00  0.45593999997E+02  0.45594000000E+02  0.51100000000E-03 0. -1.
         11   -1    0    0    0    0 -0.00000000000E+00 -0.00000000000E+00 -0.45593999997E+02  0.45594000000E+02  0.51100000000E-03 0.  1.
    9900012    2    1    2    0    0 -0.43378448261E+00  0.42182604134E+00 -0.10132537533E+01  0.90007835031E+02  0.90000097653E+02 0.  0.
         12    1    1    2    0    0  0.43378448261E+00 -0.42182604134E+00  0.10132537533E+01  0.11801649694E+01  0.00000000000E+00 0. -1.
         11    1    3    3    0    0 -0.92089308469E+01 -0.67712026789E+01  0.34146738793E+02  0.36009073350E+02  0.51100000000E-03 0. -1.
        -11    1    3    3    0    0 -0.63295425566E+01  0.17959577873E+01  0.65664711416E+01  0.92955428493E+01  0.51100000000E-03 0.  1.
        -12    1    3    3    0    0  0.15104688921E+02  0.53970709329E+01 -0.41726463687E+02  0.44703218832E+02  0.00000000000E+00 0.  1.
</event>
<event>
 7    1  0.4119305E-015  0.9000774E+02  0.7816164E-02  0.1186339E+00
        -11   -1    0    0    0    0  0.00000000000E+00  0.00000000000E+00  0.45593999997E+02  0.45594000000E+02  0.51100000000E-03 0.  1.
         11   -1    0    0    0    0 -0.00000000000E+00 -0.00000000000E+00 -0.45593999997E+02  0.45594000000E+02  0.51100000000E-03 0. -1.
    9900012    2    1    2    0    0  0.29617150125E+00 -0.11385952748E+01  0.94305573703E-01  0.90007741427E+02  0.90000002814E+02 0.  0.
         12    1    1    2    0    0 -0.29617150125E+00  0.11385952748E+01 -0.94305573703E-01  0.11802585730E+01  0.00000000000E+00 0. -1.
         11    1    3    3    0    0  0.34829446293E+02 -0.92677455624E+01 -0.23402714110E+02  0.42972880575E+02  0.51100000000E-03 0. -1.
        -11    1    3    3    0    0 -0.67739872853E+00  0.51444209901E+01  0.83370513327E+01  0.98198962085E+01  0.51100000000E-03 0.  1.
        -12    1    3    3    0    0 -0.33855876064E+02  0.29847292975E+01  0.15159968351E+02  0.37214964644E+02  0.00000000000E+00 0.  1.
</event>
<event>
 7    1  0.4119305E-015  0.9000779E+02  0.7816164E-02  0.1186339E+00
        -11   -1    0    0    0    0  0.00000000000E+00  0.00000000000E+00  0.45593999997E+02  0.45594000000E+02  0.51100000000E-03 0. -1.
         11   -1    0    0    0    0 -0.00000000000E+00 -0.00000000000E+00 -0.45593999997E+02  0.45594000000E+02  0.51100000000E-03 0.  1.
    9900012    2    1    2    0    0  0.20329915094E+00 -0.63995942976E+00 -0.97057108764E+00  0.90007793725E+02  0.90000055802E+02 0.  0.
         12    1    1    2    0    0 -0.20329915094E+00  0.63995942976E+00  0.97057108764E+00  0.11802062755E+01  0.00000000000E+00 0. -1.
         11    1    3    3    0    0 -0.74485899259E+01 -0.18260591387E+01  0.20173996050E+00  0.76718109423E+01  0.51100000000E-03 0. -1.
        -11    1    3    3    0    0 -0.66443964118E+01  0.33833333501E+02 -0.22149108093E+02  0.40980793660E+02  0.51100000000E-03 0.  1.
         12    1    3    3    0    0  0.14296285489E+02 -0.32647233792E+02  0.20976797045E+02  0.41355189122E+02  0.00000000000E+00 0. -1.
</event>
<event>
 7    1  0.4119305E-015  0.9000748E+02  0.7816164E-02  0.1186340E+00
        -11   -1    0    0    0    0  0.00000000000E+00  0.00000000000E+00  0.45593999997E+02  0.45594000000E+02  0.51100000000E-03 0.  1.
         11   -1    0    0    0    0 -0.00000000000E+00 -0.00000000000E+00 -0.45593999997E+02  0.45594000000E+02  0.51100000000E-03 0. -1.
    9900012    2    1    2    0    0  0.16792458131E+00  0.10647614734E+01 -0.48135704731E+00  0.90007483051E+02  0.89999741027E+02 0.  0.
         12    1    1    2    0    0 -0.16792458131E+00 -0.10647614734E+01  0.48135704731E+00  0.11805169491E+01  0.00000000000E+00 0. -1.
         11    1    3    3    0    0  0.54458900696E+01 -0.58644421438E+01  0.41979720883E+01  0.90372767040E+01  0.51100000000E-03 0. -1.
        -11    1    3    3    0    0  0.37068637929E+02  0.92484540786E+01 -0.51982449978E+01  0.38556965286E+02  0.51100000000E-03 0.  1.
         12    1    3    3    0    0 -0.42346603417E+02 -0.23192504614E+01  0.51891586220E+00  0.42413241061E+02  0.00000000000E+00 0. -1.
</event>
<event>
 7    1  0.6873859E-015  0.9000734E+02  0.7816164E-02  0.1186340E+00
        -11   -1    0    0    0    0  0.00000000000E+00  0.00000000000E+00  0.45593999997E+02  0.45594000000E+02  0.51100000000E-03 0. -1.
         11   -1    0    0    0    0 -0.00000000000E+00 -0.00000000000E+00 -0.45593999997E+02  0.45594000000E+02  0.51100000000E-03 0.  1.
    9900012    2    1    2    0    0 -0.46690128393E+00 -0.25176295051E+00 -0.10547866536E+01  0.90007340745E+02  0.89999596842E+02 0.  0.
         12    1    1    2    0    0  0.46690128393E+00  0.25176295051E+00  0.10547866536E+01  0.11806592552E+01  0.00000000000E+00 0. -1.
         11    1    3    3    0    0  0.16900973763E+02  0.29541835464E+01  0.31151657632E+02  0.35563968958E+02  0.51100000000E-03 0. -1.
        -11    1    3    3    0    0  0.23613900285E+01  0.65566633295E+00  0.86060242716E+01  0.89481682613E+01  0.51100000000E-03 0.  1.
        -12    1    3    3    0    0 -0.19729265075E+02 -0.38616128299E+01 -0.40812468557E+02  0.45495203525E+02  0.00000000000E+00 0.  1.
</event>
<event>
 7    1  0.4119305E-015  0.9000754E+02  0.7816164E-02  0.1186339E+00
        -11   -1    0    0    0    0  0.00000000000E+00  0.00000000000E+00  0.45593999997E+02  0.45594000000E+02  0.51100000000E-03 0.  1.
         11   -1    0    0    0    0 -0.00000000000E+00 -0.00000000000E+00 -0.45593999997E+02  0.45594000000E+02  0.51100000000E-03 0. -1.
    9900012    2    1    2    0    0 -0.73804834883E+00 -0.13777642230E+00  0.91092397957E+00  0.90007542375E+02  0.89999801134E+02 0.  0.
         12    1    1    2    0    0  0.73804834883E+00  0.13777642230E+00 -0.91092397957E+00  0.11804576250E+01  0.00000000000E+00 0. -1.
         11    1    3    3    0    0  0.10129373584E+02  0.74070527660E+01 -0.32335086871E+01  0.12958557735E+02  0.51100000000E-03 0. -1.
        -11    1    3    3    0    0 -0.22203508368E+02 -0.36363284691E+02  0.13508418669E+02  0.44696326835E+02  0.51100000000E-03 0.  1.
         12    1    3    3    0    0  0.11336086435E+02  0.28818455502E+02 -0.93639860022E+01  0.32352657805E+02  0.00000000000E+00 0. -1.
</event>
<event>
 7    1  0.4119305E-015  0.9000770E+02  0.7816164E-02  0.1186339E+00
        -11   -1    0    0    0    0  0.00000000000E+00  0.00000000000E+00  0.45593999997E+02  0.45594000000E+02  0.51100000000E-03 0.  1.
         11   -1    0    0    0    0 -0.00000000000E+00 -0.00000000000E+00 -0.45593999997E+02  0.45594000000E+02  0.51100000000E-03 0. -1.
    9900012    2    1    2    0    0 -0.62809635176E+00 -0.67776021226E+00  0.73432707552E+00  0.90007703348E+02  0.89999964232E+02 0.  0.
         12    1    1    2    0    0  0.62809635176E+00  0.67776021226E+00 -0.73432707552E+00  0.11802966518E+01  0.00000000000E+00 0. -1.
         11    1    3    3    0    0  0.55400028235E+01 -0.66094071519E+01  0.20258254042E+01  0.88588861045E+01  0.51100000000E-03 0. -1.
        -11    1    3    3    0    0 -0.23083713764E+02 -0.27106003009E+02  0.17359448582E+02  0.39609893910E+02  0.51100000000E-03 0.  1.
         12    1    3    3    0    0  0.16915614589E+02  0.33037649948E+02 -0.18650946911E+02  0.41538923333E+02  0.00000000000E+00 0. -1.
</event>
<event>
 7    1  0.4119305E-015  0.9000767E+02  0.7816164E-02  0.1186339E+00
        -11   -1    0    0    0    0  0.00000000000E+00  0.00000000000E+00  0.45593999997E+02  0.45594000000E+02  0.51100000000E-03 0.  1.
         11   -1    0    0    0    0 -0.00000000000E+00 -0.00000000000E+00 -0.45593999997E+02  0.45594000000E+02  0.51100000000E-03 0. -1.
    9900012    2    1    2    0    0  0.35477471979E+00 -0.10203516770E+00  0.11211200420E+01  0.90007666816E+02  0.89999927218E+02 0.  0.
         12    1    1    2    0    0 -0.35477471979E+00  0.10203516770E+00 -0.11211200420E+01  0.11803331842E+01  0.00000000000E+00 0. -1.
         11    1    3    3    0    0  0.70633777181E+00  0.27850411639E+02 -0.26517788397E+02  0.38462155988E+02  0.51100000000E-03 0. -1.
        -11    1    3    3    0    0 -0.15830887699E+01 -0.14670902287E+02 -0.55587910308E+01  0.15768376643E+02  0.51100000000E-03 0.  1.
        -12    1    3    3    0    0  0.12315257179E+01 -0.13281544519E+02  0.33197699470E+02  0.35777134185E+02  0.00000000000E+00 0.  1.
</event>
<event>
 7    1  0.4119305E-015  0.9000783E+02  0.7816164E-02  0.1186339E+00
        -11   -1    0    0    0    0  0.00000000000E+00  0.00000000000E+00  0.45593999997E+02  0.45594000000E+02  0.51100000000E-03 0.  1.
         11   -1    0    0    0    0 -0.00000000000E+00 -0.00000000000E+00 -0.45593999997E+02  0.45594000000E+02  0.51100000000E-03 0. -1.
    9900012    2    1    2    0    0 -0.26790675565E+00 -0.10451765799E+01  0.47815461591E+00  0.90007830542E+02  0.90000093105E+02 0.  0.
         12    1    1    2    0    0  0.26790675565E+00  0.10451765799E+01 -0.47815461591E+00  0.11801694580E+01  0.00000000000E+00 0. -1.
         11    1    3    3    0    0 -0.42157386156E+01 -0.26666688104E+02  0.62032925374E+01  0.27701363596E+02  0.51100000000E-03 0. -1.
        -11    1    3    3    0    0  0.38866440665E+01 -0.17485127058E+02 -0.68710645547E+01  0.19184556255E+02  0.51100000000E-03 0.  1.
        -12    1    3    3    0    0  0.61187793451E-01  0.43106638582E+02  0.11459266332E+01  0.43121910691E+02  0.00000000000E+00 0.  1.
</event>
<event>
 7    1  0.4119305E-015  0.9000775E+02  0.7816164E-02  0.1186339E+00
        -11   -1    0    0    0    0  0.00000000000E+00  0.00000000000E+00  0.45593999997E+02  0.45594000000E+02  0.51100000000E-03 0. -1.
         11   -1    0    0    0    0 -0.00000000000E+00 -0.00000000000E+00 -0.45593999997E+02  0.45594000000E+02  0.51100000000E-03 0.  1.
    9900012    2    1    2    0    0 -0.11418070469E+01 -0.28993603589E+00 -0.72077601532E-01  0.90007753662E+02  0.90000015211E+02 0.  0.
         12    1    1    2    0    0  0.11418070469E+01  0.28993603589E+00  0.72077601532E-01  0.11802463378E+01  0.00000000000E+00 0. -1.
         11    1    3    3    0    0  0.18239367925E+02 -0.21597823649E+02  0.33285788270E+02  0.43670175517E+02  0.51100000000E-03 0. -1.
        -11    1    3    3    0    0 -0.44740465566E+01 -0.13425959076E+01 -0.77037563467E+01  0.90093017750E+01  0.51100000000E-03 0.  1.
        -12    1    3    3    0    0 -0.14907128415E+02  0.22650483521E+02 -0.25654109524E+02  0.37328276371E+02  0.00000000000E+00 0.  1.
</event>
<event>
 7    1  0.4119305E-015  0.9000771E+02  0.7816164E-02  0.1186339E+00
        -11   -1    0    0    0    0  0.00000000000E+00  0.00000000000E+00  0.45593999997E+02  0.45594000000E+02  0.51100000000E-03 0.  1.
         11   -1    0    0    0    0 -0.00000000000E+00 -0.00000000000E+00 -0.45593999997E+02  0.45594000000E+02  0.51100000000E-03 0. -1.
    9900012    2    1    2    0    0  0.79148895340E+00 -0.51230332455E+00  0.71005422497E+00  0.90007709162E+02  0.89999970123E+02 0.  0.
         12    1    1    2    0    0 -0.79148895340E+00  0.51230332455E+00 -0.71005422497E+00  0.11802908379E+01  0.00000000000E+00 0. -1.
         11    1    3    3    0    0 -0.75794610899E+01  0.58337801053E+01 -0.22069912032E+01  0.98159070474E+01  0.51100000000E-03 0. -1.
        -11    1    3    3    0    0 -0.33746042036E+02  0.28210084385E+01  0.12391492581E+02  0.36059707852E+02  0.51100000000E-03 0.  1.
         12    1    3    3    0    0  0.42116992080E+02 -0.91670918684E+01 -0.94744471532E+01  0.44132094263E+02  0.00000000000E+00 0. -1.
</event>
<event>
 7    1  0.4119305E-015  0.9000906E+02  0.7816164E-02  0.1186336E+00
        -11   -1    0    0    0    0  0.00000000000E+00  0.00000000000E+00  0.45593999997E+02  0.45594000000E+02  0.51100000000E-03 0. -1.
         11   -1    0    0    0    0 -0.00000000000E+00 -0.00000000000E+00 -0.45593999997E+02  0.45594000000E+02  0.51100000000E-03 0.  1.
    9900012    2    1    2    0    0 -0.55924391090E+00  0.97499379479E+00 -0.35572082623E+00  0.90009058119E+02  0.90001336877E+02 0.  0.
         12    1    1    2    0    0  0.55924391090E+00 -0.97499379479E+00  0.35572082623E+00  0.11789418807E+01  0.00000000000E+00 0. -1.
         11    1    3    3    0    0  0.33090141419E+02 -0.15326322887E+01  0.18060732365E+02  0.37729252241E+02  0.51100000000E-03 0. -1.
        -11    1    3    3    0    0  0.20400906045E+01  0.55051897610E+01  0.64169172438E+01  0.86974657892E+01  0.51100000000E-03 0.  1.
        -12    1    3    3    0    0 -0.35689475934E+02 -0.29975636775E+01 -0.24833370435E+02  0.43582340089E+02  0.00000000000E+00 0.  1.
</event>
<event>
 7    1  0.4119305E-015  0.9000772E+02  0.7816164E-02  0.1186339E+00
        -11   -1    0    0    0    0  0.00000000000E+00  0.00000000000E+00  0.45593999997E+02  0.45594000000E+02  0.51100000000E-03 0.  1.
         11   -1    0    0    0    0 -0.00000000000E+00 -0.00000000000E+00 -0.45593999997E+02  0.45594000000E+02  0.51100000000E-03 0. -1.
    9900012    2    1    2    0    0 -0.11513012442E+01  0.23344050137E+00  0.11434634913E+00  0.90007718631E+02  0.89999979717E+02 0.  0.
         12    1    1    2    0    0  0.11513012442E+01 -0.23344050137E+00 -0.11434634913E+00  0.11802813691E+01  0.00000000000E+00 0. -1.
         11    1    3    3    0    0  0.91139793969E+01  0.14031880654E+02 -0.82239920473E+01  0.18643828486E+02  0.51100000000E-03 0. -1.
        -11    1    3    3    0    0  0.17319105076E+02  0.28554164340E+00  0.29249533444E+02  0.33993648549E+02  0.51100000000E-03 0.  1.
         12    1    3    3    0    0 -0.27584385718E+02 -0.14083981796E+02 -0.20911195048E+02  0.37370241597E+02  0.00000000000E+00 0. -1.
</event>
<event>
 7    1  0.4119305E-015  0.9000758E+02  0.7816164E-02  0.1186339E+00
        -11   -1    0    0    0    0  0.00000000000E+00  0.00000000000E+00  0.45593999997E+02  0.45594000000E+02  0.51100000000E-03 0.  1.
         11   -1    0    0    0    0 -0.00000000000E+00 -0.00000000000E+00 -0.45593999997E+02  0.45594000000E+02  0.51100000000E-03 0. -1.
    9900012    2    1    2    0    0  0.55970781311E+00 -0.65315091038E+00  0.80840718830E+00  0.90007575869E+02  0.89999835070E+02 0.  0.
         12    1    1    2    0    0 -0.55970781311E+00  0.65315091038E+00 -0.80840718830E+00  0.11804241313E+01  0.00000000000E+00 0. -1.
         11    1    3    3    0    0 -0.14866551895E+01  0.84508418096E+01 -0.41988097562E+01  0.95528464121E+01  0.51100000000E-03 0. -1.
        -11    1    3    3    0    0 -0.28394761911E+02  0.33845253140E+00  0.28979884393E+02  0.40573522818E+02  0.51100000000E-03 0.  1.
         12    1    3    3    0    0  0.30441124914E+02 -0.94424452514E+01 -0.23972667449E+02  0.39881206639E+02  0.00000000000E+00 0. -1.
</event>
<event>
 7    1  0.4119305E-015  0.9000792E+02  0.7816164E-02  0.1186339E+00
        -11   -1    0    0    0    0  0.00000000000E+00  0.00000000000E+00  0.45593999997E+02  0.45594000000E+02  0.51100000000E-03 0.  1.
         11   -1    0    0    0    0 -0.00000000000E+00 -0.00000000000E+00 -0.45593999997E+02  0.45594000000E+02  0.51100000000E-03 0. -1.
    9900012    2    1    2    0    0  0.37104719322E+00  0.86487413699E+00  0.71196744926E+00  0.90007923332E+02  0.90000187120E+02 0.  0.
         12    1    1    2    0    0 -0.37104719322E+00 -0.86487413699E+00 -0.71196744926E+00  0.11800766675E+01  0.00000000000E+00 0. -1.
         11    1    3    3    0    0  0.40305261465E+02 -0.10927012808E+02  0.95721050081E+01  0.42843189718E+02  0.51100000000E-03 0. -1.
        -11    1    3    3    0    0 -0.44843603380E+01  0.39231066697E+01 -0.90693986064E+01  0.10851462801E+02  0.51100000000E-03 0.  1.
        -12    1    3    3    0    0 -0.35449853934E+02  0.78687802750E+01  0.20926104758E+00  0.36313270813E+02  0.00000000000E+00 0.  1.
</event>
<event>
 7    1  0.4119305E-015  0.9000775E+02  0.7816164E-02  0.1186339E+00
        -11   -1    0    0    0    0  0.00000000000E+00  0.00000000000E+00  0.45593999997E+02  0.45594000000E+02  0.51100000000E-03 0.  1.
         11   -1    0    0    0    0 -0.00000000000E+00 -0.00000000000E+00 -0.45593999997E+02  0.45594000000E+02  0.51100000000E-03 0. -1.
    9900012    2    1    2    0    0  0.95846421031E+00 -0.64523122301E+00  0.24084533231E+00  0.90007752802E+02  0.90000014339E+02 0.  0.
         12    1    1    2    0    0 -0.95846421031E+00  0.64523122301E+00 -0.24084533231E+00  0.11802471977E+01  0.00000000000E+00 0. -1.
         11    1    3    3    0    0 -0.92033475764E+01 -0.28506820138E+02 -0.20815345877E+02  0.36477651038E+02  0.51100000000E-03 0. -1.
        -11    1    3    3    0    0 -0.77630421578E+01  0.22690638904E+00 -0.68526964432E+01  0.10357401163E+02  0.51100000000E-03 0.  1.
        -12    1    3    3    0    0  0.17924853944E+02  0.27634682526E+02  0.27908887653E+02  0.43172700602E+02  0.00000000000E+00 0.  1.
</event>
<event>
 7    1  0.4119305E-015  0.9000790E+02  0.7816164E-02  0.1186339E+00
        -11   -1    0    0    0    0  0.00000000000E+00  0.00000000000E+00  0.45593999997E+02  0.45594000000E+02  0.51100000000E-03 0. -1.
         11   -1    0    0    0    0 -0.00000000000E+00 -0.00000000000E+00 -0.45593999997E+02  0.45594000000E+02  0.51100000000E-03 0.  1.
    9900012    2    1    2    0    0 -0.96068662023E+00  0.36621635570E+00 -0.57932227828E+00  0.90007895130E+02  0.90000158546E+02 0.  0.
         12    1    1    2    0    0  0.96068662023E+00 -0.36621635570E+00  0.57932227828E+00  0.11801048697E+01  0.00000000000E+00 0. -1.
         11    1    3    3    0    0  0.60420670810E+01  0.49653846924E+01 -0.51969959270E+01  0.93899087685E+01  0.51100000000E-03 0. -1.
        -11    1    3    3    0    0 -0.59541916005E+01  0.18900046875E+02 -0.31678774728E+02  0.37365879329E+02  0.51100000000E-03 0.  1.
         12    1    3    3    0    0 -0.10485621007E+01 -0.23499215212E+02  0.36296448376E+02  0.43252107033E+02  0.00000000000E+00 0. -1.
</event>
<event>
 7    1  0.4119305E-015  0.9000775E+02  0.7816164E-02  0.1186339E+00
        -11   -1    0    0    0    0  0.00000000000E+00  0.00000000000E+00  0.45593999997E+02  0.45594000000E+02  0.51100000000E-03 0.  1.
         11   -1    0    0    0    0 -0.00000000000E+00 -0.00000000000E+00 -0.45593999997E+02  0.45594000000E+02  0.51100000000E-03 0. -1.
    9900012    2    1    2    0    0  0.32070642726E+00  0.24388348913E+00  0.11093512375E+01  0.90007749206E+02  0.90000010695E+02 0.  0.
         12    1    1    2    0    0 -0.32070642726E+00 -0.24388348913E+00 -0.11093512375E+01  0.11802507941E+01  0.00000000000E+00 0. -1.
         11    1    3    3    0    0 -0.36251344436E+02  0.81382699669E+01  0.25579360741E+00  0.37154499622E+02  0.51100000000E-03 0. -1.
        -11    1    3    3    0    0 -0.58949533454E+01 -0.76908102350E+01  0.35012757024E+01  0.10303298929E+02  0.51100000000E-03 0.  1.
        -12    1    3    3    0    0  0.42467004209E+02 -0.20357624277E+00 -0.26477180723E+01  0.42549950655E+02  0.00000000000E+00 0.  1.
</event>
<event>
 7    1  0.4119305E-015  0.9000776E+02  0.7816164E-02  0.1186339E+00
        -11   -1    0    0    0    0  0.00000000000E+00  0.00000000000E+00  0.45593999997E+02  0.45594000000E+02  0.51100000000E-03 0.  1.
         11   -1    0    0    0    0 -0.00000000000E+00 -0.00000000000E+00 -0.45593999997E+02  0.45594000000E+02  0.51100000000E-03 0. -1.
    9900012    2    1    2    0    0 -0.34730985150E+00  0.31394851128E+00 -0.10834152968E+01  0.90007755743E+02  0.90000017319E+02 0.  0.
         12    1    1    2    0    0  0.34730985150E+00 -0.31394851128E+00  0.10834152968E+01  0.11802442569E+01  0.00000000000E+00 0. -1.
         11    1    3    3    0    0  0.58956930749E+01 -0.33233902719E+00 -0.71955766301E+01  0.93083816726E+01  0.51100000000E-03 0. -1.
        -11    1    3    3    0    0  0.14911445974E+02 -0.28494461502E+02  0.24346173015E+02  0.40336357026E+02  0.51100000000E-03 0.  1.
         12    1    3    3    0    0 -0.21154448901E+02  0.29140749041E+02 -0.18234011682E+02  0.40363017045E+02  0.00000000000E+00 0. -1.
</event>
<event>
 7    1  0.4119305E-015  0.9000769E+02  0.7816164E-02  0.1186339E+00
        -11   -1    0    0    0    0  0.00000000000E+00  0.00000000000E+00  0.45593999997E+02  0.45594000000E+02  0.51100000000E-03 0. -1.
         11   -1    0    0    0    0 -0.00000000000E+00 -0.00000000000E+00 -0.45593999997E+02  0.45594000000E+02  0.51100000000E-03 0.  1.
    9900012    2    1    2    0    0 -0.11295711859E+01  0.26094720417E+00  0.22161216301E+00  0.90007687983E+02  0.89999948664E+02 0.  0.
         12    1    1    2    0    0  0.11295711859E+01 -0.26094720417E+00 -0.22161216301E+00  0.11803120173E+01  0.00000000000E+00 0. -1.
         11    1    3    3    0    0 -0.12355145739E+00 -0.51157546263E+01 -0.32119442335E+01  0.60417544123E+01  0.51100000000E-03 0. -1.
        -11    1    3    3    0    0  0.82637855789E+01  0.44487755336E+01 -0.39209512569E+02  0.40317088586E+02  0.51100000000E-03 0.  1.
         12    1    3    3    0    0 -0.92698053074E+01  0.92792629677E+00  0.42643068966E+02  0.43648844985E+02  0.00000000000E+00 0. -1.
</event>
<event>
 7    1  0.6886303E-015  0.9000778E+02  0.7816164E-02  0.1186339E+00
        -11   -1    0    0    0    0  0.00000000000E+00  0.00000000000E+00  0.45593999997E+02  0.45594000000E+02  0.51100000000E-03 0. -1.
         11   -1    0    0    0    0 -0.00000000000E+00 -0.00000000000E+00 -0.45593999997E+02  0.45594000000E+02  0.51100000000E-03 0.  1.
    9900012    2    1    2    0    0 -0.57784383936E+00 -0.15892259295E+00 -0.10167445376E+01  0.90007775721E+02  0.90000037561E+02 0.  0.
         12    1    1    2    0    0  0.57784383936E+00  0.15892259295E+00  0.10167445376E+01  0.11802242786E+01  0.00000000000E+00 0. -1.
         11    1    3    3    0    0  0.10346040859E+02  0.11807865645E+02  0.35447290652E+02  0.38768243027E+02  0.51100000000E-03 0. -1.
        -11    1    3    3    0    0  0.59306328614E+01  0.65266900168E+01 -0.27160569827E+01  0.92275161613E+01  0.51100000000E-03 0.  1.
        -12    1    3    3    0    0 -0.16854517560E+02 -0.18493478254E+02 -0.33747978207E+02  0.42012016533E+02  0.00000000000E+00 0.  1.
</event>
<event>
 7    1  0.4119305E-015  0.9000781E+02  0.7816164E-02  0.1186339E+00
        -11   -1    0    0    0    0  0.00000000000E+00  0.00000000000E+00  0.45593999997E+02  0.45594000000E+02  0.51100000000E-03 0.  1.
         11   -1    0    0    0    0 -0.00000000000E+00 -0.00000000000E+00 -0.45593999997E+02  0.45594000000E+02  0.51100000000E-03 0. -1.
    9900012    2    1    2    0    0 -0.15542898720E+00 -0.11637273804E+01  0.12010196169E+00  0.90007811851E+02  0.90000074167E+02 0.  0.
         12    1    1    2    0    0  0.15542898720E+00  0.11637273804E+01 -0.12010196169E+00  0.11801881490E+01  0.00000000000E+00 0. -1.
         11    1    3    3    0    0 -0.47232008900E+01  0.50258274394E+01  0.25748681966E+01  0.73618961273E+01  0.51100000000E-03 0. -1.
        -11    1    3    3    0    0 -0.53631636381E+01  0.25793970513E+02  0.27233554879E+02  0.37891409984E+02  0.51100000000E-03 0.  1.
         12    1    3    3    0    0  0.99309355409E+01 -0.31983525333E+02 -0.29688321113E+02  0.44754505739E+02  0.00000000000E+00 0. -1.
</event>
<event>
 7    1  0.4119305E-015  0.9000772E+02  0.7816164E-02  0.1186339E+00
        -11   -1    0    0    0    0  0.00000000000E+00  0.00000000000E+00  0.45593999997E+02  0.45594000000E+02  0.51100000000E-03 0. -1.
         11   -1    0    0    0    0 -0.00000000000E+00 -0.00000000000E+00 -0.45593999997E+02  0.45594000000E+02  0.51100000000E-03 0.  1.
    9900012    2    1    2    0    0 -0.42516635369E+00  0.10274498678E+01 -0.39578160961E+00  0.90007719211E+02  0.89999980304E+02 0.  0.
         12    1    1    2    0    0  0.42516635369E+00 -0.10274498678E+01  0.39578160961E+00  0.11802807894E+01  0.00000000000E+00 0. -1.
         11    1    3    3    0    0 -0.12535616134E+02  0.68409236529E+01  0.38007239094E+01  0.14777868952E+02  0.51100000000E-03 0. -1.
        -11    1    3    3    0    0 -0.20622451596E+02  0.14606275671E+02 -0.21279450915E+02  0.33037006982E+02  0.51100000000E-03 0.  1.
         12    1    3    3    0    0  0.32732901376E+02 -0.20419749456E+02  0.17082945396E+02  0.42192843276E+02  0.00000000000E+00 0. -1.
</event>
<event>
 7    1  0.4119305E-015  0.9000773E+02  0.7816164E-02  0.1186339E+00
        -11   -1    0    0    0    0  0.00000000000E+00  0.00000000000E+00  0.45593999997E+02  0.45594000000E+02  0.51100000000E-03 0.  1.
         11   -1    0    0    0    0 -0.00000000000E+00 -0.00000000000E+00 -0.45593999997E+02  0.45594000000E+02  0.51100000000E-03 0. -1.
    9900012    2    1    2    0    0  0.40384822485E-02 -0.10730177612E+01  0.49158112287E+00  0.90007730783E+02  0.89999992029E+02 0.  0.
         12    1    1    2    0    0 -0.40384822485E-02  0.10730177612E+01 -0.49158112287E+00  0.11802692174E+01  0.00000000000E+00 0. -1.
         11    1    3    3    0    0  0.49756415146E+01 -0.54634757346E+01 -0.38212572082E+02  0.38920524675E+02  0.51100000000E-03 0. -1.
        -11    1    3    3    0    0 -0.33679882834E+01 -0.86493166994E+01 -0.93370975108E+00  0.93287640448E+01  0.51100000000E-03 0.  1.
        -12    1    3    3    0    0 -0.16036147489E+01  0.13039774673E+02  0.39637862956E+02  0.41758442063E+02  0.00000000000E+00 0.  1.
</event>
<event>
 7    1  0.4119305E-015  0.9000776E+02  0.7816164E-02  0.1186339E+00
        -11   -1    0    0    0    0  0.00000000000E+00  0.00000000000E+00  0.45593999997E+02  0.45594000000E+02  0.51100000000E-03 0.  1.
         11   -1    0    0    0    0 -0.00000000000E+00 -0.00000000000E+00 -0.45593999997E+02  0.45594000000E+02  0.51100000000E-03 0. -1.
    9900012    2    1    2    0    0  0.96583946420E-02 -0.10305597959E+00  0.11756899973E+01  0.90007762401E+02  0.90000024065E+02 0.  0.
         12    1    1    2    0    0 -0.96583946420E-02  0.10305597959E+00 -0.11756899973E+01  0.11802375987E+01  0.00000000000E+00 0. -1.
         11    1    3    3    0    0  0.47873860836E+01  0.88882527813E+01  0.21805315302E-01  0.10095572235E+02  0.51100000000E-03 0. -1.
        -11    1    3    3    0    0 -0.22532897544E+02  0.21311024752E+02 -0.21841013941E+02  0.37933114002E+02  0.51100000000E-03 0.  1.
         12    1    3    3    0    0  0.17755169855E+02 -0.30302333513E+02  0.22994898623E+02  0.41979076164E+02  0.00000000000E+00 0. -1.
</event>
<event>
 7    1  0.4119305E-015  0.9000800E+02  0.7816164E-02  0.1186339E+00
        -11   -1    0    0    0    0  0.00000000000E+00  0.00000000000E+00  0.45593999997E+02  0.45594000000E+02  0.51100000000E-03 0.  1.
         11   -1    0    0    0    0 -0.00000000000E+00 -0.00000000000E+00 -0.45593999997E+02  0.45594000000E+02  0.51100000000E-03 0. -1.
    9900012    2    1    2    0    0 -0.66774122895E+00 -0.70965893047E+00  0.66551243571E+00  0.90007999598E+02  0.90000264392E+02 0.  0.
         12    1    1    2    0    0  0.66774122895E+00  0.70965893047E+00 -0.66551243571E+00  0.11800004019E+01  0.00000000000E+00 0. -1.
         11    1    3    3    0    0 -0.41416965243E+02 -0.14002439235E+02 -0.19110912723E+01  0.43761690833E+02  0.51100000000E-03 0. -1.
        -11    1    3    3    0    0  0.62202496457E+01  0.81145732678E+01 -0.34990567555E+01  0.10806535218E+02  0.51100000000E-03 0.  1.
        -12    1    3    3    0    0  0.34528974368E+02  0.51782070372E+01  0.60756604635E+01  0.35439773547E+02  0.00000000000E+00 0.  1.
</event>
<event>
 7    1  0.4119305E-015  0.9000765E+02  0.7816164E-02  0.1186339E+00
        -11   -1    0    0    0    0  0.00000000000E+00  0.00000000000E+00  0.45593999997E+02  0.45594000000E+02  0.51100000000E-03 0.  1.
         11   -1    0    0    0    0 -0.00000000000E+00 -0.00000000000E+00 -0.45593999997E+02  0.45594000000E+02  0.51100000000E-03 0. -1.
    9900012    2    1    2    0    0 -0.80202382281E+00  0.73995458052E+00 -0.44993507408E+00  0.90007654049E+02  0.89999914282E+02 0.  0.
         12    1    1    2    0    0  0.80202382281E+00 -0.73995458052E+00  0.44993507408E+00  0.11803459512E+01  0.00000000000E+00 0. -1.
         11    1    3    3    0    0 -0.13373217352E+02  0.11611894294E+02 -0.22887109602E+01  0.17858253821E+02  0.51100000000E-03 0. -1.
        -11    1    3    3    0    0 -0.14350978287E+02 -0.21099572222E+02  0.24597709001E+02  0.35442768149E+02  0.51100000000E-03 0.  1.
         12    1    3    3    0    0  0.26922171816E+02  0.10227632509E+02 -0.22758933115E+02  0.36706632078E+02  0.00000000000E+00 0. -1.
</event>
<event>
 7    1  0.4119305E-015  0.9000787E+02  0.7816164E-02  0.1186339E+00
        -11   -1    0    0    0    0  0.00000000000E+00  0.00000000000E+00  0.45593999997E+02  0.45594000000E+02  0.51100000000E-03 0.  1.
         11   -1    0    0    0    0 -0.00000000000E+00 -0.00000000000E+00 -0.45593999997E+02  0.45594000000E+02  0.51100000000E-03 0. -1.
    9900012    2    1    2    0    0 -0.21614194207E+00  0.41659763428E+00  0.10827934208E+01  0.90007867584E+02  0.90000130636E+02 0.  0.
         12    1    1    2    0    0  0.21614194207E+00 -0.41659763428E+00 -0.10827934208E+01  0.11801324163E+01  0.00000000000E+00 0. -1.
         11    1    3    3    0    0  0.52491515472E+01  0.56616010227E+01  0.53114074670E+01  0.93711454821E+01  0.51100000000E-03 0. -1.
        -11    1    3    3    0    0 -0.28638323340E+02 -0.11469947073E+02  0.27177433581E+02  0.41113576175E+02  0.51100000000E-03 0.  1.
         12    1    3    3    0    0  0.23173029850E+02  0.62249436850E+01 -0.31406047628E+02  0.39523145926E+02  0.00000000000E+00 0. -1.
</event>
<event>
 7    1  0.4119305E-015  0.9000771E+02  0.7816164E-02  0.1186339E+00
        -11   -1    0    0    0    0  0.00000000000E+00  0.00000000000E+00  0.45593999997E+02  0.45594000000E+02  0.51100000000E-03 0.  1.
         11   -1    0    0    0    0 -0.00000000000E+00 -0.00000000000E+00 -0.45593999997E+02  0.45594000000E+02  0.51100000000E-03 0. -1.
    9900012    2    1    2    0    0  0.44393915386E+00  0.10158858342E+01  0.40495301960E+00  0.90007706414E+02  0.89999967339E+02 0.  0.
         12    1    1    2    0    0 -0.44393915386E+00 -0.10158858342E+01 -0.40495301960E+00  0.11802935858E+01  0.00000000000E+00 0. -1.
         11    1    3    3    0    0 -0.33859155610E+02 -0.10985312047E+02 -0.17443051368E+02  0.39640629923E+02  0.51100000000E-03 0. -1.
        -11    1    3    3    0    0 -0.13253222336E+01 -0.59950937399E+01  0.63400005421E+01  0.88257144248E+01  0.51100000000E-03 0.  1.
        -12    1    3    3    0    0  0.35628416997E+02  0.17996291621E+02  0.11508003845E+02  0.41541362067E+02  0.00000000000E+00 0.  1.
</event>
<event>
 7    1  0.4119305E-015  0.9000779E+02  0.7816164E-02  0.1186339E+00
        -11   -1    0    0    0    0  0.00000000000E+00  0.00000000000E+00  0.45593999997E+02  0.45594000000E+02  0.51100000000E-03 0.  1.
         11   -1    0    0    0    0 -0.00000000000E+00 -0.00000000000E+00 -0.45593999997E+02  0.45594000000E+02  0.51100000000E-03 0. -1.
    9900012    2    1    2    0    0  0.96895862363E+00 -0.57263760371E+00  0.35510030940E+00  0.90007792023E+02  0.90000054078E+02 0.  0.
         12    1    1    2    0    0 -0.96895862363E+00  0.57263760371E+00 -0.35510030940E+00  0.11802079771E+01  0.00000000000E+00 0. -1.
         11    1    3    3    0    0 -0.18095766920E+00  0.13604512575E+02  0.11144957483E+01  0.13651285988E+02  0.51100000000E-03 0. -1.
        -11    1    3    3    0    0  0.35740723007E+02  0.72378890878E+00 -0.10861076353E+02  0.37361559540E+02  0.51100000000E-03 0.  1.
         12    1    3    3    0    0 -0.34590806714E+02 -0.14900939088E+02  0.10101680914E+02  0.38994946495E+02  0.00000000000E+00 0. -1.
</event>
<event>
 7    1  0.4119305E-015  0.9000775E+02  0.7816164E-02  0.1186339E+00
        -11   -1    0    0    0    0  0.00000000000E+00  0.00000000000E+00  0.45593999997E+02  0.45594000000E+02  0.51100000000E-03 0.  1.
         11   -1    0    0    0    0 -0.00000000000E+00 -0.00000000000E+00 -0.45593999997E+02  0.45594000000E+02  0.51100000000E-03 0. -1.
    9900012    2    1    2    0    0 -0.60398361922E+00  0.84546346146E+00  0.55980816026E+00  0.90007750089E+02  0.90000011590E+02 0.  0.
         12    1    1    2    0    0  0.60398361922E+00 -0.84546346146E+00 -0.55980816026E+00  0.11802499114E+01  0.00000000000E+00 0. -1.
         11    1    3    3    0    0 -0.62522571494E+01  0.61586272979E+01 -0.52598106205E+01  0.10231569659E+02  0.51100000000E-03 0. -1.
        -11    1    3    3    0    0  0.82222046922E+01  0.18105489470E+02  0.36217457335E+02  0.41317279860E+02  0.51100000000E-03 0.  1.
         12    1    3    3    0    0 -0.25739311620E+01 -0.23418653307E+02 -0.30397838554E+02  0.38458900570E+02  0.00000000000E+00 0. -1.
</event>
<event>
 7    1  0.4119305E-015  0.9000771E+02  0.7816164E-02  0.1186339E+00
        -11   -1    0    0    0    0  0.00000000000E+00  0.00000000000E+00  0.45593999997E+02  0.45594000000E+02  0.51100000000E-03 0.  1.
         11   -1    0    0    0    0 -0.00000000000E+00 -0.00000000000E+00 -0.45593999997E+02  0.45594000000E+02  0.51100000000E-03 0. -1.
    9900012    2    1    2    0    0  0.49233999167E+00  0.30279578284E+00  0.10290743225E+01  0.90007712783E+02  0.89999973792E+02 0.  0.
         12    1    1    2    0    0 -0.49233999167E+00 -0.30279578284E+00 -0.10290743225E+01  0.11802872171E+01  0.00000000000E+00 0. -1.
         11    1    3    3    0    0  0.43448517648E+01 -0.61244012884E+01  0.51400563527E+01  0.90997916223E+01  0.51100000000E-03 0. -1.
        -11    1    3    3    0    0  0.38092051181E+02  0.63870162454E+01  0.11093386547E+01  0.38639733076E+02  0.51100000000E-03 0.  1.
         12    1    3    3    0    0 -0.41944562954E+02  0.40180825769E-01 -0.52203206849E+01  0.42268188085E+02  0.00000000000E+00 0. -1.
</event>
<event>
 7    1  0.4119305E-015  0.9000775E+02  0.7816164E-02  0.1186339E+00
        -11   -1    0    0    0    0  0.00000000000E+00  0.00000000000E+00  0.45593999997E+02  0.45594000000E+02  0.51100000000E-03 0. -1.
         11   -1    0    0    0    0 -0.00000000000E+00 -0.00000000000E+00 -0.45593999997E+02  0.45594000000E+02  0.51100000000E-03 0.  1.
    9900012    2    1    2    0    0  0.11727130605E+01  0.47494744367E-01  0.12441223718E+00  0.90007749994E+02  0.90000011493E+02 0.  0.
         12    1    1    2    0    0 -0.11727130605E+01 -0.47494744367E-01 -0.12441223718E+00  0.11802500065E+01  0.00000000000E+00 0. -1.
         11    1    3    3    0    0 -0.37167227390E+02 -0.12537625604E+02 -0.66013230531E+01  0.39776529687E+02  0.51100000000E-03 0. -1.
        -11    1    3    3    0    0 -0.24734328592E+00 -0.49517620879E+01  0.60743326125E+01  0.78408318069E+01  0.51100000000E-03 0.  1.
        -12    1    3    3    0    0  0.38587283736E+02  0.17536882436E+02  0.65140267779E+00  0.42390388500E+02  0.00000000000E+00 0.  1.
</event>
<event>
 7    1  0.4119305E-015  0.9000747E+02  0.7816164E-02  0.1186340E+00
        -11   -1    0    0    0    0  0.00000000000E+00  0.00000000000E+00  0.45593999997E+02  0.45594000000E+02  0.51100000000E-03 0.  1.
         11   -1    0    0    0    0 -0.00000000000E+00 -0.00000000000E+00 -0.45593999997E+02  0.45594000000E+02  0.51100000000E-03 0. -1.
    9900012    2    1    2    0    0  0.10363426515E+01  0.12666335597E+00  0.55099663899E+00  0.90007471731E+02  0.89999729558E+02 0.  0.
         12    1    1    2    0    0 -0.10363426515E+01 -0.12666335597E+00 -0.55099663899E+00  0.11805282687E+01  0.00000000000E+00 0. -1.
         11    1    3    3    0    0 -0.35696754432E+02  0.15050578660E+02 -0.80666295595E+00  0.38748276096E+02  0.51100000000E-03 0. -1.
        -11    1    3    3    0    0 -0.26189107504E+01 -0.63486458461E+01 -0.73436174367E+01  0.10054487302E+02  0.51100000000E-03 0.  1.
        -12    1    3    3    0    0  0.39352007834E+02 -0.85752694582E+01  0.87012770316E+01  0.41204708333E+02  0.00000000000E+00 0.  1.
</event>
<event>
 7    1  0.4119305E-015  0.9000768E+02  0.7816164E-02  0.1186339E+00
        -11   -1    0    0    0    0  0.00000000000E+00  0.00000000000E+00  0.45593999997E+02  0.45594000000E+02  0.51100000000E-03 0.  1.
         11   -1    0    0    0    0 -0.00000000000E+00 -0.00000000000E+00 -0.45593999997E+02  0.45594000000E+02  0.51100000000E-03 0. -1.
    9900012    2    1    2    0    0 -0.18818621492E+00 -0.34414013198E+00  0.11132463498E+01  0.90007676351E+02  0.89999936878E+02 0.  0.
         12    1    1    2    0    0  0.18818621492E+00  0.34414013198E+00 -0.11132463498E+01  0.11803236494E+01  0.00000000000E+00 0. -1.
         11    1    3    3    0    0  0.61038562028E+01 -0.71851929652E+01  0.79133461554E+01  0.12308741046E+02  0.51100000000E-03 0. -1.
        -11    1    3    3    0    0  0.19203302811E+02  0.18597394065E+02  0.24069474882E+02  0.35971787920E+02  0.51100000000E-03 0.  1.
         12    1    3    3    0    0 -0.25495345229E+02 -0.11756341232E+02 -0.30869574687E+02  0.41727147385E+02  0.00000000000E+00 0. -1.
</event>
<event>
 7    1  0.4119305E-015  0.9000758E+02  0.7816164E-02  0.1186339E+00
        -11   -1    0    0    0    0  0.00000000000E+00  0.00000000000E+00  0.45593999997E+02  0.45594000000E+02  0.51100000000E-03 0. -1.
         11   -1    0    0    0    0 -0.00000000000E+00 -0.00000000000E+00 -0.45593999997E+02  0.45594000000E+02  0.51100000000E-03 0.  1.
    9900012    2    1    2    0    0  0.62797742329E+00 -0.29742142253E+00 -0.95424605290E+00  0.90007576061E+02  0.89999835265E+02 0.  0.
         12    1    1    2    0    0 -0.62797742329E+00  0.29742142253E+00  0.95424605290E+00  0.11804239392E+01  0.00000000000E+00 0. -1.
         11    1    3    3    0    0  0.31504849068E+02  0.13152606577E+02 -0.62942769246E+01  0.34715479211E+02  0.51100000000E-03 0. -1.
        -11    1    3    3    0    0  0.40206426233E+01  0.10992793110E+02  0.48850131990E+01  0.12683470412E+02  0.51100000000E-03 0.  1.
        -12    1    3    3    0    0 -0.34897514268E+02 -0.24442821110E+02  0.45501767267E+00  0.42608626438E+02  0.00000000000E+00 0.  1.
</event>
<event>
 7    1  0.4119305E-015  0.9000768E+02  0.7816164E-02  0.1186339E+00
        -11   -1    0    0    0    0  0.00000000000E+00  0.00000000000E+00  0.45593999997E+02  0.45594000000E+02  0.51100000000E-03 0.  1.
         11   -1    0    0    0    0 -0.00000000000E+00 -0.00000000000E+00 -0.45593999997E+02  0.45594000000E+02  0.51100000000E-03 0. -1.
    9900012    2    1    2    0    0 -0.40068770776E+00  0.16559641004E+00  0.10978036825E+01  0.90007684053E+02  0.89999944682E+02 0.  0.
         12    1    1    2    0    0  0.40068770776E+00 -0.16559641004E+00 -0.10978036825E+01  0.11803159473E+01  0.00000000000E+00 0. -1.
         11    1    3    3    0    0 -0.24849947064E+02 -0.34985811345E+01  0.21214980135E+02  0.32860847851E+02  0.51100000000E-03 0. -1.
        -11    1    3    3    0    0  0.49525679757E+01 -0.14184811659E+00  0.15550374711E+02  0.16320606740E+02  0.51100000000E-03 0.  1.
         12    1    3    3    0    0  0.19496691381E+02  0.38060256612E+01 -0.35667551164E+02  0.40826229463E+02  0.00000000000E+00 0. -1.
</event>
<event>
 7    1  0.4119305E-015  0.9000766E+02  0.7816164E-02  0.1186339E+00
        -11   -1    0    0    0    0  0.00000000000E+00  0.00000000000E+00  0.45593999997E+02  0.45594000000E+02  0.51100000000E-03 0.  1.
         11   -1    0    0    0    0 -0.00000000000E+00 -0.00000000000E+00 -0.45593999997E+02  0.45594000000E+02  0.51100000000E-03 0. -1.
    9900012    2    1    2    0    0 -0.27348184986E-01  0.58673809765E+00  0.10238142297E+01  0.90007658907E+02  0.89999919205E+02 0.  0.
         12    1    1    2    0    0  0.27348184986E-01 -0.58673809765E+00 -0.10238142297E+01  0.11803410928E+01  0.00000000000E+00 0. -1.
         11    1    3    3    0    0  0.26085836818E+02 -0.14510673454E+01 -0.22973892664E+02  0.34790461672E+02  0.51100000000E-03 0. -1.
        -11    1    3    3    0    0  0.26312441275E+01 -0.43756854782E+01 -0.93948172303E+01  0.10692645141E+02  0.51100000000E-03 0.  1.
        -12    1    3    3    0    0 -0.28744429131E+02  0.64134909212E+01  0.33392524124E+02  0.44524552094E+02  0.00000000000E+00 0.  1.
</event>
<event>
 7    1  0.4119305E-015  0.9000772E+02  0.7816164E-02  0.1186339E+00
        -11   -1    0    0    0    0  0.00000000000E+00  0.00000000000E+00  0.45593999997E+02  0.45594000000E+02  0.51100000000E-03 0.  1.
         11   -1    0    0    0    0 -0.00000000000E+00 -0.00000000000E+00 -0.45593999997E+02  0.45594000000E+02  0.51100000000E-03 0. -1.
    9900012    2    1    2    0    0 -0.11637678195E+01  0.19633828963E+00 -0.12094964735E-01  0.90007724375E+02  0.89999985537E+02 0.  0.
         12    1    1    2    0    0  0.11637678195E+01 -0.19633828963E+00  0.12094964735E-01  0.11802756245E+01  0.00000000000E+00 0. -1.
         11    1    3    3    0    0 -0.12634347291E+02 -0.13588381811E+02 -0.38927904900E+02  0.43123689915E+02  0.51100000000E-03 0. -1.
        -11    1    3    3    0    0  0.85853554307E+01  0.17514075039E+00  0.43552358652E+01  0.96284516853E+01  0.51100000000E-03 0.  1.
        -12    1    3    3    0    0  0.28852240406E+01  0.13609579350E+02  0.34560574070E+02  0.37255582775E+02  0.00000000000E+00 0.  1.
</event>
<event>
 7    1  0.4119305E-015  0.9000768E+02  0.7816164E-02  0.1186339E+00
        -11   -1    0    0    0    0  0.00000000000E+00  0.00000000000E+00  0.45593999997E+02  0.45594000000E+02  0.51100000000E-03 0. -1.
         11   -1    0    0    0    0 -0.00000000000E+00 -0.00000000000E+00 -0.45593999997E+02  0.45594000000E+02  0.51100000000E-03 0.  1.
    9900012    2    1    2    0    0  0.62460159369E+00  0.46610215419E+00 -0.88643818445E+00  0.90007681812E+02  0.89999942412E+02 0.  0.
         12    1    1    2    0    0 -0.62460159369E+00 -0.46610215419E+00  0.88643818445E+00  0.11803181875E+01  0.00000000000E+00 0. -1.
         11    1    3    3    0    0 -0.14346257252E+01  0.31597765624E+02  0.16157436433E+02  0.35518160084E+02  0.51100000000E-03 0. -1.
        -11    1    3    3    0    0 -0.10080730792E+02 -0.15406444734E+01  0.87210968378E+01  0.13418354929E+02  0.51100000000E-03 0.  1.
        -12    1    3    3    0    0  0.12139958111E+02 -0.29591018996E+02 -0.25764971456E+02  0.41071166799E+02  0.00000000000E+00 0.  1.
</event>
<event>
 7    1  0.4119305E-015  0.9000776E+02  0.7816164E-02  0.1186339E+00
        -11   -1    0    0    0    0  0.00000000000E+00  0.00000000000E+00  0.45593999997E+02  0.45594000000E+02  0.51100000000E-03 0. -1.
         11   -1    0    0    0    0 -0.00000000000E+00 -0.00000000000E+00 -0.45593999997E+02  0.45594000000E+02  0.51100000000E-03 0.  1.
    9900012    2    1    2    0    0 -0.97786381765E+00  0.14418686201E-02  0.66087152662E+00  0.90007758118E+02  0.90000019725E+02 0.  0.
         12    1    1    2    0    0  0.97786381765E+00 -0.14418686201E-02 -0.66087152662E+00  0.11802418818E+01  0.00000000000E+00 0. -1.
         11    1    3    3    0    0  0.15153164676E+02  0.31390477122E+02 -0.86215858458E+01  0.35906993698E+02  0.51100000000E-03 0. -1.
        -11    1    3    3    0    0  0.23972481161E+01  0.85708476866E+01  0.39350044276E+01  0.97309037968E+01  0.51100000000E-03 0.  1.
        -12    1    3    3    0    0 -0.18528276610E+02 -0.39959882940E+02  0.53474529448E+01  0.44369860623E+02  0.00000000000E+00 0.  1.
</event>
<event>
 7    1  0.4119305E-015  0.9000774E+02  0.7816164E-02  0.1186339E+00
        -11   -1    0    0    0    0  0.00000000000E+00  0.00000000000E+00  0.45593999997E+02  0.45594000000E+02  0.51100000000E-03 0. -1.
         11   -1    0    0    0    0 -0.00000000000E+00 -0.00000000000E+00 -0.45593999997E+02  0.45594000000E+02  0.51100000000E-03 0.  1.
    9900012    2    1    2    0    0  0.54601138019E-01  0.93923419172E+00 -0.71264676873E+00  0.90007742584E+02  0.90000003986E+02 0.  0.
         12    1    1    2    0    0 -0.54601138019E-01 -0.93923419172E+00  0.71264676873E+00  0.11802574161E+01  0.00000000000E+00 0. -1.
         11    1    3    3    0    0 -0.12201883508E+02 -0.72544554654E+01 -0.43489406857E+01  0.14846762967E+02  0.51100000000E-03 0. -1.
        -11    1    3    3    0    0  0.92953366864E+01  0.37348301381E+01 -0.34872063481E+02  0.36282406920E+02  0.51100000000E-03 0.  1.
         12    1    3    3    0    0  0.29611479598E+01  0.44588595190E+01  0.38508357398E+02  0.38878572697E+02  0.00000000000E+00 0. -1.
</event>
<event>
 7    1  0.4119305E-015  0.9000777E+02  0.7816164E-02  0.1186339E+00
        -11   -1    0    0    0    0  0.00000000000E+00  0.00000000000E+00  0.45593999997E+02  0.45594000000E+02  0.51100000000E-03 0. -1.
         11   -1    0    0    0    0 -0.00000000000E+00 -0.00000000000E+00 -0.45593999997E+02  0.45594000000E+02  0.51100000000E-03 0.  1.
    9900012    2    1    2    0    0 -0.86739334178E+00  0.71968144754E+00 -0.35017794425E+00  0.90007772400E+02  0.90000034196E+02 0.  0.
         12    1    1    2    0    0  0.86739334178E+00 -0.71968144754E+00  0.35017794425E+00  0.11802276001E+01  0.00000000000E+00 0. -1.
         11    1    3    3    0    0 -0.30498897881E+02  0.11608375221E+02 -0.41250687841E+01  0.32893059145E+02  0.51100000000E-03 0. -1.
        -11    1    3    3    0    0 -0.91370391337E+01  0.18786636573E+01 -0.10340419675E+02  0.13926203380E+02  0.51100000000E-03 0.  1.
        -12    1    3    3    0    0  0.38768543672E+02 -0.12767357431E+02  0.14115310515E+02  0.43188509874E+02  0.00000000000E+00 0.  1.
</event>
<event>
 7    1  0.4119305E-015  0.9000706E+02  0.7816164E-02  0.1186340E+00
        -11   -1    0    0    0    0  0.00000000000E+00  0.00000000000E+00  0.45593999997E+02  0.45594000000E+02  0.51100000000E-03 0. -1.
         11   -1    0    0    0    0 -0.00000000000E+00 -0.00000000000E+00 -0.45593999997E+02  0.45594000000E+02  0.51100000000E-03 0.  1.
    9900012    2    1    2    0    0 -0.87406331552E+00  0.76996350656E-01 -0.79038479258E+00  0.90007058326E+02  0.89999310693E+02 0.  0.
         12    1    1    2    0    0  0.87406331552E+00 -0.76996350656E-01  0.79038479258E+00  0.11809416742E+01  0.00000000000E+00 0. -1.
         11    1    3    3    0    0 -0.29044636495E+01  0.56812865974E+01  0.62977822559E+01  0.89652098746E+01  0.51100000000E-03 0. -1.
        -11    1    3    3    0    0 -0.32789764474E+02 -0.56971499426E+01  0.18270405856E+02  0.37966220540E+02  0.51100000000E-03 0.  1.
         12    1    3    3    0    0  0.34820164808E+02  0.92859695863E-01 -0.25358572904E+02  0.43075627911E+02  0.00000000000E+00 0. -1.
</event>
<event>
 7    1  0.4119305E-015  0.9000838E+02  0.7816164E-02  0.1186338E+00
        -11   -1    0    0    0    0  0.00000000000E+00  0.00000000000E+00  0.45593999997E+02  0.45594000000E+02  0.51100000000E-03 0.  1.
         11   -1    0    0    0    0 -0.00000000000E+00 -0.00000000000E+00 -0.45593999997E+02  0.45594000000E+02  0.51100000000E-03 0. -1.
    9900012    2    1    2    0    0  0.55034694696E-01 -0.59583405849E+00  0.10165919567E+01  0.90008378769E+02  0.90000648566E+02 0.  0.
         12    1    1    2    0    0 -0.55034694696E-01  0.59583405849E+00 -0.10165919567E+01  0.11796212313E+01  0.00000000000E+00 0. -1.
         11    1    3    3    0    0 -0.91812160743E+01  0.39422132932E+02 -0.61992165185E+01  0.40949109627E+02  0.51100000000E-03 0. -1.
        -11    1    3    3    0    0 -0.25502621357E+01 -0.20287730355E+01  0.86647031335E+01  0.92572586463E+01  0.51100000000E-03 0.  1.
        -12    1    3    3    0    0  0.11786512905E+02 -0.37989193955E+02 -0.14488946583E+01  0.39802010496E+02  0.00000000000E+00 0.  1.
</event>
<event>
 7    1  0.4119305E-015  0.9000772E+02  0.7816164E-02  0.1186339E+00
        -11   -1    0    0    0    0  0.00000000000E+00  0.00000000000E+00  0.45593999997E+02  0.45594000000E+02  0.51100000000E-03 0.  1.
         11   -1    0    0    0    0 -0.00000000000E+00 -0.00000000000E+00 -0.45593999997E+02  0.45594000000E+02  0.51100000000E-03 0. -1.
    9900012    2    1    2    0    0 -0.33939199001E+00  0.10941157318E+01  0.28424179292E+00  0.90007716325E+02  0.89999977380E+02 0.  0.
         12    1    1    2    0    0  0.33939199001E+00 -0.10941157318E+01 -0.28424179292E+00  0.11802836753E+01  0.00000000000E+00 0. -1.
         11    1    3    3    0    0 -0.73953269674E+01  0.21177877948E+01  0.69585742516E+01  0.10372928322E+02  0.51100000000E-03 0. -1.
        -11    1    3    3    0    0 -0.81945581215E+01 -0.28774011971E+02  0.21825579177E+02  0.37033099444E+02  0.51100000000E-03 0.  1.
         12    1    3    3    0    0  0.15250493099E+02  0.27750339908E+02 -0.28499911636E+02  0.42601688559E+02  0.00000000000E+00 0. -1.
</event>
<event>
 7    1  0.4119305E-015  0.9000810E+02  0.7816164E-02  0.1186338E+00
        -11   -1    0    0    0    0  0.00000000000E+00  0.00000000000E+00  0.45593999997E+02  0.45594000000E+02  0.51100000000E-03 0.  1.
         11   -1    0    0    0    0 -0.00000000000E+00 -0.00000000000E+00 -0.45593999997E+02  0.45594000000E+02  0.51100000000E-03 0. -1.
    9900012    2    1    2    0    0 -0.14951884606E+00 -0.11022198278E+01 -0.39360770733E+00  0.90008096842E+02  0.90000362920E+02 0.  0.
         12    1    1    2    0    0  0.14951884606E+00  0.11022198278E+01  0.39360770733E+00  0.11799031577E+01  0.00000000000E+00 0. -1.
         11    1    3    3    0    0  0.21722827106E+02  0.15604133773E+02  0.25483998700E+02  0.36943259173E+02  0.51100000000E-03 0. -1.
        -11    1    3    3    0    0  0.10442793657E+02 -0.40300336830E+01 -0.33535564144E+01  0.11685009702E+02  0.51100000000E-03 0.  1.
        -12    1    3    3    0    0 -0.32315139609E+02 -0.12676319917E+02 -0.22524049993E+02  0.41379827968E+02  0.00000000000E+00 0.  1.
</event>
<event>
 7    1  0.4119305E-015  0.9000779E+02  0.7816164E-02  0.1186339E+00
        -11   -1    0    0    0    0  0.00000000000E+00  0.00000000000E+00  0.45593999997E+02  0.45594000000E+02  0.51100000000E-03 0. -1.
         11   -1    0    0    0    0 -0.00000000000E+00 -0.00000000000E+00 -0.45593999997E+02  0.45594000000E+02  0.51100000000E-03 0.  1.
    9900012    2    1    2    0    0  0.41860937812E+00 -0.69691484296E+00 -0.85555867475E+00  0.90007786140E+02  0.90000048117E+02 0.  0.
         12    1    1    2    0    0 -0.41860937812E+00  0.69691484296E+00  0.85555867475E+00  0.11802138602E+01  0.00000000000E+00 0. -1.
         11    1    3    3    0    0  0.16216534400E+01  0.68217743573E+01 -0.67421556698E+01  0.97274368977E+01  0.51100000000E-03 0. -1.
        -11    1    3    3    0    0  0.16820751405E+02  0.31354979542E+02 -0.53521005483E+01  0.35982181707E+02  0.51100000000E-03 0.  1.
         12    1    3    3    0    0 -0.18023795466E+02 -0.38873668742E+02  0.11238697543E+02  0.44298167535E+02  0.00000000000E+00 0. -1.
</event>
<event>
 7    1  0.4119305E-015  0.9000766E+02  0.7816164E-02  0.1186339E+00
        -11   -1    0    0    0    0  0.00000000000E+00  0.00000000000E+00  0.45593999997E+02  0.45594000000E+02  0.51100000000E-03 0.  1.
         11   -1    0    0    0    0 -0.00000000000E+00 -0.00000000000E+00 -0.45593999997E+02  0.45594000000E+02  0.51100000000E-03 0. -1.
    9900012    2    1    2    0    0  0.80122053090E+00  0.66911150272E+00  0.55094337824E+00  0.90007659732E+02  0.89999920040E+02 0.  0.
         12    1    1    2    0    0 -0.80122053090E+00 -0.66911150272E+00 -0.55094337824E+00  0.11803402680E+01  0.00000000000E+00 0. -1.
         11    1    3    3    0    0 -0.12602337705E+02 -0.33606319019E+02 -0.51903112416E+01  0.36264899348E+02  0.51100000000E-03 0. -1.
        -11    1    3    3    0    0 -0.58933633008E+01  0.11562745015E+02 -0.13134642834E+02  0.18464767692E+02  0.51100000000E-03 0.  1.
        -12    1    3    3    0    0  0.19296921537E+02  0.22712685507E+02  0.18875897454E+02  0.35277992693E+02  0.00000000000E+00 0.  1.
</event>
<event>
 7    1  0.4119305E-015  0.9000769E+02  0.7816164E-02  0.1186339E+00
        -11   -1    0    0    0    0  0.00000000000E+00  0.00000000000E+00  0.45593999997E+02  0.45594000000E+02  0.51100000000E-03 0.  1.
         11   -1    0    0    0    0 -0.00000000000E+00 -0.00000000000E+00 -0.45593999997E+02  0.45594000000E+02  0.51100000000E-03 0. -1.
    9900012    2    1    2    0    0  0.11503394091E+01  0.16542429974E+00  0.20611917595E+00  0.90007690265E+02  0.89999950977E+02 0.  0.
         12    1    1    2    0    0 -0.11503394091E+01 -0.16542429974E+00 -0.20611917595E+00  0.11803097346E+01  0.00000000000E+00 0. -1.
         11    1    3    3    0    0 -0.31501227055E+01  0.27286054008E+02 -0.33838352233E+02  0.43583094182E+02  0.51100000000E-03 0. -1.
        -11    1    3    3    0    0  0.13058460143E+01  0.28813724219E+00  0.92431179702E+01  0.93393515276E+01  0.51100000000E-03 0.  1.
        -12    1    3    3    0    0  0.29946161002E+01 -0.27408766950E+02  0.24801353439E+02  0.37085244555E+02  0.00000000000E+00 0.  1.
</event>
<event>
 7    1  0.4119305E-015  0.9000778E+02  0.7816164E-02  0.1186339E+00
        -11   -1    0    0    0    0  0.00000000000E+00  0.00000000000E+00  0.45593999997E+02  0.45594000000E+02  0.51100000000E-03 0.  1.
         11   -1    0    0    0    0 -0.00000000000E+00 -0.00000000000E+00 -0.45593999997E+02  0.45594000000E+02  0.51100000000E-03 0. -1.
    9900012    2    1    2    0    0  0.45859991510E+00 -0.96191840374E+00  0.50725867353E+00  0.90007782961E+02  0.90000044896E+02 0.  0.
         12    1    1    2    0    0 -0.45859991510E+00  0.96191840374E+00 -0.50725867353E+00  0.11802170391E+01  0.00000000000E+00 0. -1.
         11    1    3    3    0    0 -0.16992545250E+01  0.63496437672E+01 -0.35549143267E+02  0.36151722354E+02  0.51100000000E-03 0. -1.
        -11    1    3    3    0    0  0.57500508941E+00  0.68066445096E+01 -0.62310979538E+01  0.92459516711E+01  0.51100000000E-03 0.  1.
        -12    1    3    3    0    0  0.15828493507E+01 -0.14118206681E+02  0.42287499894E+02  0.44610108936E+02  0.00000000000E+00 0.  1.
</event>
<event>
 7    1  0.4119305E-015  0.9000773E+02  0.7816164E-02  0.1186339E+00
        -11   -1    0    0    0    0  0.00000000000E+00  0.00000000000E+00  0.45593999997E+02  0.45594000000E+02  0.51100000000E-03 0. -1.
         11   -1    0    0    0    0 -0.00000000000E+00 -0.00000000000E+00 -0.45593999997E+02  0.45594000000E+02  0.51100000000E-03 0.  1.
    9900012    2    1    2    0    0  0.96676344549E+00 -0.98964910173E-01 -0.66978946306E+00  0.90007727346E+02  0.89999988547E+02 0.  0.
         12    1    1    2    0    0 -0.96676344549E+00  0.98964910173E-01  0.66978946306E+00  0.11802726540E+01  0.00000000000E+00 0. -1.
         11    1    3    3    0    0 -0.18966138150E+02 -0.18601606599E+02  0.27493661796E+02  0.38231343210E+02  0.51100000000E-03 0. -1.
        -11    1    3    3    0    0  0.10773785039E+01  0.11617637376E+02  0.52521684149E+01  0.12795136418E+02  0.51100000000E-03 0.  1.
        -12    1    3    3    0    0  0.18855523092E+02  0.68850043126E+01 -0.33415619674E+02  0.38981247718E+02  0.00000000000E+00 0.  1.
</event>
<event>
 7    1  0.4119305E-015  0.9000779E+02  0.7816164E-02  0.1186339E+00
        -11   -1    0    0    0    0  0.00000000000E+00  0.00000000000E+00  0.45593999997E+02  0.45594000000E+02  0.51100000000E-03 0.  1.
         11   -1    0    0    0    0 -0.00000000000E+00 -0.00000000000E+00 -0.45593999997E+02  0.45594000000E+02  0.51100000000E-03 0. -1.
    9900012    2    1    2    0    0 -0.59984792533E+00  0.90618136287E+00 -0.46033535153E+00  0.90007792039E+02  0.90000054094E+02 0.  0.
         12    1    1    2    0    0  0.59984792533E+00 -0.90618136287E+00  0.46033535153E+00  0.11802079613E+01  0.00000000000E+00 0. -1.
         11    1    3    3    0    0  0.90111477256E+01 -0.17435246536E+01 -0.46494472279E+01  0.10288732737E+02  0.51100000000E-03 0. -1.
        -11    1    3    3    0    0  0.13645317230E+02 -0.33505203723E+02  0.60996692771E+01  0.36687863448E+02  0.51100000000E-03 0.  1.
         12    1    3    3    0    0 -0.23256312880E+02  0.36154909739E+02 -0.19105574007E+01  0.43031195854E+02  0.00000000000E+00 0. -1.
</event>
<event>
 7    1  0.4119305E-015  0.9000782E+02  0.7816164E-02  0.1186339E+00
        -11   -1    0    0    0    0  0.00000000000E+00  0.00000000000E+00  0.45593999997E+02  0.45594000000E+02  0.51100000000E-03 0. -1.
         11   -1    0    0    0    0 -0.00000000000E+00 -0.00000000000E+00 -0.45593999997E+02  0.45594000000E+02  0.51100000000E-03 0.  1.
    9900012    2    1    2    0    0 -0.50108607159E+00 -0.33773573004E+00 -0.10137371867E+01  0.90007823844E+02  0.90000086319E+02 0.  0.
         12    1    1    2    0    0  0.50108607159E+00  0.33773573004E+00  0.10137371867E+01  0.11801761556E+01  0.00000000000E+00 0. -1.
         11    1    3    3    0    0 -0.30069946617E+01 -0.40300224364E+01 -0.86139368327E+01  0.99741167905E+01  0.51100000000E-03 0. -1.
        -11    1    3    3    0    0  0.82928689326E+01 -0.20504297628E+02 -0.28571470483E+02  0.36132074700E+02  0.51100000000E-03 0.  1.
         12    1    3    3    0    0 -0.57869603425E+01  0.24196584334E+02  0.36171670128E+02  0.43901632354E+02  0.00000000000E+00 0. -1.
</event>
<event>
 7    1  0.4119305E-015  0.9000792E+02  0.7816164E-02  0.1186339E+00
        -11   -1    0    0    0    0  0.00000000000E+00  0.00000000000E+00  0.45593999997E+02  0.45594000000E+02  0.51100000000E-03 0. -1.
         11   -1    0    0    0    0 -0.00000000000E+00 -0.00000000000E+00 -0.45593999997E+02  0.45594000000E+02  0.51100000000E-03 0.  1.
    9900012    2    1    2    0    0  0.53051697402E+00  0.69560587956E+00 -0.79200074399E+00  0.90007923317E+02  0.90000187105E+02 0.  0.
         12    1    1    2    0    0 -0.53051697402E+00 -0.69560587956E+00  0.79200074399E+00  0.11800766830E+01  0.00000000000E+00 0. -1.
         11    1    3    3    0    0 -0.14451611361E+02  0.17992533401E+02  0.32033777837E+02  0.39480922632E+02  0.51100000000E-03 0. -1.
        -11    1    3    3    0    0 -0.57197213437E+01 -0.56413871237E+01  0.20844583946E+01  0.82997245731E+01  0.51100000000E-03 0.  1.
        -12    1    3    3    0    0  0.20701849679E+02 -0.11655540397E+02 -0.34910236976E+02  0.42227276112E+02  0.00000000000E+00 0.  1.
</event>
<event>
 7    1  0.4119305E-015  0.9000772E+02  0.7816164E-02  0.1186339E+00
        -11   -1    0    0    0    0  0.00000000000E+00  0.00000000000E+00  0.45593999997E+02  0.45594000000E+02  0.51100000000E-03 0.  1.
         11   -1    0    0    0    0 -0.00000000000E+00 -0.00000000000E+00 -0.45593999997E+02  0.45594000000E+02  0.51100000000E-03 0. -1.
    9900012    2    1    2    0    0  0.78015709101E+00 -0.85619101442E+00 -0.22663225191E+00  0.90007716001E+02  0.89999977053E+02 0.  0.
         12    1    1    2    0    0 -0.78015709101E+00  0.85619101442E+00  0.22663225191E+00  0.11802839986E+01  0.00000000000E+00 0. -1.
         11    1    3    3    0    0 -0.55352860811E+01  0.26019758580E+00  0.74892175257E+01  0.93164088678E+01  0.51100000000E-03 0. -1.
        -11    1    3    3    0    0 -0.18911939625E+02 -0.18315780614E+02  0.24742461501E+02  0.36129194307E+02  0.51100000000E-03 0.  1.
         12    1    3    3    0    0  0.25227382797E+02  0.17199392014E+02 -0.32458311279E+02  0.44562112826E+02  0.00000000000E+00 0. -1.
</event>
<event>
 7    1  0.4119305E-015  0.9000777E+02  0.7816164E-02  0.1186339E+00
        -11   -1    0    0    0    0  0.00000000000E+00  0.00000000000E+00  0.45593999997E+02  0.45594000000E+02  0.51100000000E-03 0.  1.
         11   -1    0    0    0    0 -0.00000000000E+00 -0.00000000000E+00 -0.45593999997E+02  0.45594000000E+02  0.51100000000E-03 0. -1.
    9900012    2    1    2    0    0  0.19689624405E+00 -0.82537310170E+00  0.82032864047E+00  0.90007767834E+02  0.90000029569E+02 0.  0.
         12    1    1    2    0    0 -0.19689624405E+00  0.82537310170E+00 -0.82032864047E+00  0.11802321663E+01  0.00000000000E+00 0. -1.
         11    1    3    3    0    0 -0.22305646855E+02  0.17159357169E+02 -0.21928681571E+02  0.35677058395E+02  0.51100000000E-03 0. -1.
        -11    1    3    3    0    0  0.40070473075E+01 -0.65732824081E+01 -0.11457931151E+02  0.13803936260E+02  0.51100000000E-03 0.  1.
        -12    1    3    3    0    0  0.18495495791E+02 -0.11411447863E+02  0.34206941362E+02  0.40526773178E+02  0.00000000000E+00 0.  1.
</event>
<event>
 7    1  0.4119305E-015  0.9000768E+02  0.7816164E-02  0.1186339E+00
        -11   -1    0    0    0    0  0.00000000000E+00  0.00000000000E+00  0.45593999997E+02  0.45594000000E+02  0.51100000000E-03 0.  1.
         11   -1    0    0    0    0 -0.00000000000E+00 -0.00000000000E+00 -0.45593999997E+02  0.45594000000E+02  0.51100000000E-03 0. -1.
    9900012    2    1    2    0    0 -0.13890525356E+00 -0.70107221908E+00  0.93934160959E+00  0.90007678186E+02  0.89999938738E+02 0.  0.
         12    1    1    2    0    0  0.13890525356E+00  0.70107221908E+00 -0.93934160959E+00  0.11803218143E+01  0.00000000000E+00 0. -1.
         11    1    3    3    0    0 -0.42138809136E+02  0.89604225936E+00 -0.56413305168E+01  0.42524190026E+02  0.51100000000E-03 0. -1.
        -11    1    3    3    0    0  0.77627747562E+01 -0.82408366560E+01 -0.21682574602E+01  0.11527072542E+02  0.51100000000E-03 0.  1.
        -12    1    3    3    0    0  0.34237129126E+02  0.66437221775E+01  0.87489295865E+01  0.35956415618E+02  0.00000000000E+00 0.  1.
</event>
<event>
 7    1  0.4119305E-015  0.9000774E+02  0.7816164E-02  0.1186339E+00
        -11   -1    0    0    0    0  0.00000000000E+00  0.00000000000E+00  0.45593999997E+02  0.45594000000E+02  0.51100000000E-03 0. -1.
         11   -1    0    0    0    0 -0.00000000000E+00 -0.00000000000E+00 -0.45593999997E+02  0.45594000000E+02  0.51100000000E-03 0.  1.
    9900012    2    1    2    0    0 -0.44808775792E+00  0.90935104862E+00 -0.60440762300E+00  0.90007741324E+02  0.90000002709E+02 0.  0.
         12    1    1    2    0    0  0.44808775792E+00 -0.90935104862E+00  0.60440762300E+00  0.11802586764E+01  0.00000000000E+00 0. -1.
         11    1    3    3    0    0  0.63295153842E+01  0.68693224034E+01  0.28977497871E+01  0.97799442417E+01  0.51100000000E-03 0. -1.
        -11    1    3    3    0    0 -0.52063892369E+01  0.36880374367E+01 -0.40991468117E+02  0.41485040287E+02  0.51100000000E-03 0.  1.
         12    1    3    3    0    0 -0.15712139052E+01 -0.96480087915E+01  0.37489310707E+02  0.38742756794E+02  0.00000000000E+00 0. -1.
</event>
<event>
 7    1  0.4119305E-015  0.9000770E+02  0.7816164E-02  0.1186339E+00
        -11   -1    0    0    0    0  0.00000000000E+00  0.00000000000E+00  0.45593999997E+02  0.45594000000E+02  0.51100000000E-03 0.  1.
         11   -1    0    0    0    0 -0.00000000000E+00 -0.00000000000E+00 -0.45593999997E+02  0.45594000000E+02  0.51100000000E-03 0. -1.
    9900012    2    1    2    0    0 -0.66310422910E-01 -0.10991698212E+01 -0.42490215602E+00  0.90007697831E+02  0.89999958642E+02 0.  0.
         12    1    1    2    0    0  0.66310422910E-01  0.10991698212E+01  0.42490215602E+00  0.11803021690E+01  0.00000000000E+00 0. -1.
         11    1    3    3    0    0 -0.79865305236E+01  0.29882209411E+01  0.27684900385E+01  0.89654153028E+01  0.51100000000E-03 0. -1.
        -11    1    3    3    0    0  0.12914633471E+02 -0.12892205141E+02  0.36108537797E+02  0.40457671871E+02  0.51100000000E-03 0.  1.
         12    1    3    3    0    0 -0.49944133701E+01  0.88048143784E+01 -0.39301929992E+02  0.40584610658E+02  0.00000000000E+00 0. -1.
</event>
<event>
 7    1  0.4119305E-015  0.9000775E+02  0.7816164E-02  0.1186339E+00
        -11   -1    0    0    0    0  0.00000000000E+00  0.00000000000E+00  0.45593999997E+02  0.45594000000E+02  0.51100000000E-03 0.  1.
         11   -1    0    0    0    0 -0.00000000000E+00 -0.00000000000E+00 -0.45593999997E+02  0.45594000000E+02  0.51100000000E-03 0. -1.
    9900012    2    1    2    0    0  0.98374074992E+00 -0.20753976049E-01  0.65177849878E+00  0.90007749263E+02  0.90000010753E+02 0.  0.
         12    1    1    2    0    0 -0.98374074992E+00  0.20753976049E-01 -0.65177849878E+00  0.11802507369E+01  0.00000000000E+00 0. -1.
         11    1    3    3    0    0 -0.25041561899E+02  0.17204079537E+02 -0.54009222961E+01  0.30858226407E+02  0.51100000000E-03 0.  1.
        -11    1    3    3    0    0 -0.55114389945E+01  0.13245508707E+02  0.52904295734E+01  0.15290785004E+02  0.51100000000E-03 0. -1.
         12    1    3    3    0    0  0.31536741644E+02 -0.30470342220E+02  0.76227122140E+00  0.43858737852E+02  0.00000000000E+00 0. -1.
</event>
<event>
 7    1  0.4119305E-015  0.9000766E+02  0.7816164E-02  0.1186339E+00
        -11   -1    0    0    0    0  0.00000000000E+00  0.00000000000E+00  0.45593999997E+02  0.45594000000E+02  0.51100000000E-03 0.  1.
         11   -1    0    0    0    0 -0.00000000000E+00 -0.00000000000E+00 -0.45593999997E+02  0.45594000000E+02  0.51100000000E-03 0. -1.
    9900012    2    1    2    0    0 -0.46152991258E+00  0.46698138027E+00  0.98087578594E+00  0.90007661584E+02  0.89999921916E+02 0.  0.
         12    1    1    2    0    0  0.46152991258E+00 -0.46698138027E+00 -0.98087578594E+00  0.11803384164E+01  0.00000000000E+00 0. -1.
         11    1    3    3    0    0  0.21542382761E+01 -0.89480390576E+01 -0.16154442090E+01  0.93443997015E+01  0.51100000000E-03 0. -1.
        -11    1    3    3    0    0  0.72439404075E+01 -0.22475053132E+02 -0.27129157192E+02  0.35966565809E+02  0.51100000000E-03 0.  1.
         12    1    3    3    0    0 -0.98597085961E+01  0.31890073569E+02  0.29725477187E+02  0.44696696073E+02  0.00000000000E+00 0. -1.
</event>
<event>
 7    1  0.4119305E-015  0.9000763E+02  0.7816164E-02  0.1186339E+00
        -11   -1    0    0    0    0  0.00000000000E+00  0.00000000000E+00  0.45593999997E+02  0.45594000000E+02  0.51100000000E-03 0. -1.
         11   -1    0    0    0    0 -0.00000000000E+00 -0.00000000000E+00 -0.45593999997E+02  0.45594000000E+02  0.51100000000E-03 0.  1.
    9900012    2    1    2    0    0 -0.50627723827E-01 -0.69309836952E+00 -0.95411200440E+00  0.90007627926E+02  0.89999887815E+02 0.  0.
         12    1    1    2    0    0  0.50627723827E-01  0.69309836952E+00  0.95411200440E+00  0.11803720740E+01  0.00000000000E+00 0. -1.
         11    1    3    3    0    0  0.72250253595E+01 -0.65602788582E+01 -0.39012416838E+01  0.10509897101E+02  0.51100000000E-03 0. -1.
        -11    1    3    3    0    0  0.34364204496E+02 -0.76173001203E+01 -0.30036113748E+01  0.35326243691E+02  0.51100000000E-03 0.  1.
         12    1    3    3    0    0 -0.41639857579E+02  0.13484480609E+02  0.59507410542E+01  0.44171487134E+02  0.00000000000E+00 0. -1.
</event>
<event>
 7    1  0.4119305E-015  0.9000773E+02  0.7816164E-02  0.1186339E+00
        -11   -1    0    0    0    0  0.00000000000E+00  0.00000000000E+00  0.45593999997E+02  0.45594000000E+02  0.51100000000E-03 0. -1.
         11   -1    0    0    0    0 -0.00000000000E+00 -0.00000000000E+00 -0.45593999997E+02  0.45594000000E+02  0.51100000000E-03 0.  1.
    9900012    2    1    2    0    0  0.68650632474E+00  0.87263261420E+00 -0.40031714289E+00  0.90007732052E+02  0.89999993315E+02 0.  0.
         12    1    1    2    0    0 -0.68650632474E+00 -0.87263261420E+00  0.40031714289E+00  0.11802679476E+01  0.00000000000E+00 0. -1.
         11    1    3    3    0    0  0.15762412781E+02 -0.35017369374E+02  0.14886254842E+02  0.41185803355E+02  0.51100000000E-03 0. -1.
        -11    1    3    3    0    0 -0.76391648707E+01 -0.15082890729E+01 -0.52547359625E+01  0.93938291525E+01  0.51100000000E-03 0.  1.
        -12    1    3    3    0    0 -0.74367415854E+01  0.37398291061E+02 -0.10031836022E+02  0.39428099544E+02  0.00000000000E+00 0.  1.
</event>
<event>
 7    1  0.4119305E-015  0.9000774E+02  0.7816164E-02  0.1186339E+00
        -11   -1    0    0    0    0  0.00000000000E+00  0.00000000000E+00  0.45593999997E+02  0.45594000000E+02  0.51100000000E-03 0. -1.
         11   -1    0    0    0    0 -0.00000000000E+00 -0.00000000000E+00 -0.45593999997E+02  0.45594000000E+02  0.51100000000E-03 0.  1.
    9900012    2    1    2    0    0  0.26458663536E-01 -0.74444329803E+00 -0.91548560582E+00  0.90007741647E+02  0.90000003037E+02 0.  0.
         12    1    1    2    0    0 -0.26458663536E-01  0.74444329803E+00  0.91548560582E+00  0.11802583528E+01  0.00000000000E+00 0. -1.
         11    1    3    3    0    0 -0.13242758761E+01  0.43303270397E+01 -0.92118578018E+01  0.10264685250E+02  0.51100000000E-03 0. -1.
        -11    1    3    3    0    0 -0.16968004696E+02  0.32958898432E+02  0.28858007113E+01  0.37182388509E+02  0.51100000000E-03 0.  1.
         12    1    3    3    0    0  0.18318739236E+02 -0.38033668770E+02  0.54105714847E+01  0.42560667888E+02  0.00000000000E+00 0. -1.
</event>
<event>
 7    1  0.4119305E-015  0.9000773E+02  0.7816164E-02  0.1186339E+00
        -11   -1    0    0    0    0  0.00000000000E+00  0.00000000000E+00  0.45593999997E+02  0.45594000000E+02  0.51100000000E-03 0.  1.
         11   -1    0    0    0    0 -0.00000000000E+00 -0.00000000000E+00 -0.45593999997E+02  0.45594000000E+02  0.51100000000E-03 0. -1.
    9900012    2    1    2    0    0  0.26710365325E+00  0.52772716882E+00  0.10213712694E+01  0.90007729016E+02  0.89999990239E+02 0.  0.
         12    1    1    2    0    0 -0.26710365325E+00 -0.52772716882E+00 -0.10213712694E+01  0.11802709843E+01  0.00000000000E+00 0. -1.
         11    1    3    3    0    0 -0.14655673658E+02 -0.90993321729E+00 -0.32001231808E+02  0.35209311075E+02  0.51100000000E-03 0. -1.
        -11    1    3    3    0    0 -0.71125768387E+01  0.58317739817E+01 -0.51221464844E+01  0.10527807081E+02  0.51100000000E-03 0.  1.
        -12    1    3    3    0    0  0.22035354150E+02 -0.43941135956E+01  0.38144749562E+02  0.44270610861E+02  0.00000000000E+00 0.  1.
</event>
<event>
 7    1  0.4119305E-015  0.9000774E+02  0.7816164E-02  0.1186339E+00
        -11   -1    0    0    0    0  0.00000000000E+00  0.00000000000E+00  0.45593999997E+02  0.45594000000E+02  0.51100000000E-03 0.  1.
         11   -1    0    0    0    0 -0.00000000000E+00 -0.00000000000E+00 -0.45593999997E+02  0.45594000000E+02  0.51100000000E-03 0. -1.
    9900012    2    1    2    0    0  0.32121010819E-01 -0.11535297499E+01 -0.24768385160E+00  0.90007741582E+02  0.90000002971E+02 0.  0.
         12    1    1    2    0    0 -0.32121010819E-01  0.11535297499E+01  0.24768385160E+00  0.11802584181E+01  0.00000000000E+00 0. -1.
         11    1    3    3    0    0 -0.17783770006E+02 -0.32799670314E+02  0.21178502358E+02  0.42902328733E+02  0.51100000000E-03 0. -1.
        -11    1    3    3    0    0  0.43006636116E+01 -0.11682748003E+01 -0.80083934184E+01  0.91648752809E+01  0.51100000000E-03 0.  1.
        -12    1    3    3    0    0  0.13515227406E+02  0.32814415365E+02 -0.13417792791E+02  0.37940537568E+02  0.00000000000E+00 0.  1.
</event>
<event>
 7    1  0.4119305E-015  0.9000774E+02  0.7816164E-02  0.1186339E+00
        -11   -1    0    0    0    0  0.00000000000E+00  0.00000000000E+00  0.45593999997E+02  0.45594000000E+02  0.51100000000E-03 0.  1.
         11   -1    0    0    0    0 -0.00000000000E+00 -0.00000000000E+00 -0.45593999997E+02  0.45594000000E+02  0.51100000000E-03 0. -1.
    9900012    2    1    2    0    0 -0.54632331412E+00 -0.87301692897E+00  0.57652149516E+00  0.90007743775E+02  0.90000005193E+02 0.  0.
         12    1    1    2    0    0  0.54632331412E+00  0.87301692897E+00 -0.57652149516E+00  0.11802562248E+01  0.00000000000E+00 0. -1.
         11    1    3    3    0    0 -0.88932063315E+01 -0.63856940947E+00 -0.94303480539E-01  0.89166015472E+01  0.51100000000E-03 0. -1.
        -11    1    3    3    0    0 -0.27922530500E+02 -0.83186947401E+00 -0.24322785881E+02  0.37039946404E+02  0.51100000000E-03 0.  1.
         12    1    3    3    0    0  0.36269413517E+02  0.59742195451E+00  0.24993610856E+02  0.44051195824E+02  0.00000000000E+00 0. -1.
</event>
<event>
 7    1  0.9344273E-015  0.9000773E+02  0.7816164E-02  0.1186339E+00
        -11   -1    0    0    0    0  0.00000000000E+00  0.00000000000E+00  0.45593999997E+02  0.45594000000E+02  0.51100000000E-03 0. -1.
         11   -1    0    0    0    0 -0.00000000000E+00 -0.00000000000E+00 -0.45593999997E+02  0.45594000000E+02  0.51100000000E-03 0.  1.
    9900012    2    1    2    0    0 -0.10189885940E+01  0.29645312891E+00 -0.51654995180E+00  0.90007726275E+02  0.89999987462E+02 0.  0.
         12    1    1    2    0    0  0.10189885940E+01 -0.29645312891E+00  0.51654995180E+00  0.11802737246E+01  0.00000000000E+00 0. -1.
         11    1    3    3    0    0 -0.19734620570E+02 -0.22243289027E+02  0.20233359132E+02  0.35966762126E+02  0.51100000000E-03 0. -1.
        -11    1    3    3    0    0 -0.54896060914E+01 -0.80884050715E+01  0.11641639982E+00  0.97760740934E+01  0.51100000000E-03 0.  1.
        -12    1    3    3    0    0  0.24205238068E+02  0.30628147227E+02 -0.20866325484E+02  0.44264890056E+02  0.00000000000E+00 0.  1.
</event>
<event>
 7    1  0.4119305E-015  0.9000776E+02  0.7816164E-02  0.1186339E+00
        -11   -1    0    0    0    0  0.00000000000E+00  0.00000000000E+00  0.45593999997E+02  0.45594000000E+02  0.51100000000E-03 0. -1.
         11   -1    0    0    0    0 -0.00000000000E+00 -0.00000000000E+00 -0.45593999997E+02  0.45594000000E+02  0.51100000000E-03 0.  1.
    9900012    2    1    2    0    0  0.82219936664E+00  0.83235589782E+00 -0.15533552675E+00  0.90007763894E+02  0.90000025578E+02 0.  0.
         12    1    1    2    0    0 -0.82219936664E+00 -0.83235589782E+00  0.15533552675E+00  0.11802361056E+01  0.00000000000E+00 0. -1.
         11    1    3    3    0    0 -0.93726460616E+01  0.20378128669E+01 -0.53835630652E+01  0.10999178470E+02  0.51100000000E-03 0. -1.
        -11    1    3    3    0    0  0.17013533791E+02 -0.26228986074E+02 -0.24380885825E+02  0.39646533725E+02  0.51100000000E-03 0.  1.
         12    1    3    3    0    0 -0.68186883624E+01  0.25023529105E+02  0.29609113364E+02  0.39362051700E+02  0.00000000000E+00 0. -1.
</event>
<event>
 7    1  0.4119305E-015  0.9000774E+02  0.7816164E-02  0.1186339E+00
        -11   -1    0    0    0    0  0.00000000000E+00  0.00000000000E+00  0.45593999997E+02  0.45594000000E+02  0.51100000000E-03 0. -1.
         11   -1    0    0    0    0 -0.00000000000E+00 -0.00000000000E+00 -0.45593999997E+02  0.45594000000E+02  0.51100000000E-03 0.  1.
    9900012    2    1    2    0    0 -0.45851202507E+00 -0.73673058730E+00 -0.80001256230E+00  0.90007735057E+02  0.89999996360E+02 0.  0.
         12    1    1    2    0    0  0.45851202507E+00  0.73673058730E+00  0.80001256230E+00  0.11802649428E+01  0.00000000000E+00 0. -1.
         11    1    3    3    0    0  0.93850118605E+01  0.50362122490E+00  0.29692466307E+01  0.98563942583E+01  0.51100000000E-03 0. -1.
        -11    1    3    3    0    0 -0.18191970840E+02  0.34078641353E+02 -0.16058124305E+02  0.41834972881E+02  0.51100000000E-03 0.  1.
         12    1    3    3    0    0  0.83484469540E+01 -0.35318993165E+02  0.12288865112E+02  0.38316367918E+02  0.00000000000E+00 0. -1.
</event>
<event>
 7    1  0.4119305E-015  0.9000775E+02  0.7816164E-02  0.1186339E+00
        -11   -1    0    0    0    0  0.00000000000E+00  0.00000000000E+00  0.45593999997E+02  0.45594000000E+02  0.51100000000E-03 0.  1.
         11   -1    0    0    0    0 -0.00000000000E+00 -0.00000000000E+00 -0.45593999997E+02  0.45594000000E+02  0.51100000000E-03 0. -1.
    9900012    2    1    2    0    0  0.95523077313E+00 -0.60390318508E+00  0.34033105802E+00  0.90007749977E+02  0.90000011477E+02 0.  0.
         12    1    1    2    0    0 -0.95523077313E+00  0.60390318508E+00 -0.34033105802E+00  0.11802500226E+01  0.00000000000E+00 0. -1.
         11    1    3    3    0    0 -0.29428832999E+02 -0.16983501061E+02 -0.14416882396E+02  0.36909917614E+02  0.51100000000E-03 0. -1.
        -11    1    3    3    0    0 -0.68648519804E+01  0.59998218391E+01 -0.41937844387E+01  0.10035531027E+02  0.51100000000E-03 0.  1.
        -12    1    3    3    0    0  0.37248915752E+02  0.10379776037E+02  0.18950997893E+02  0.43062301337E+02  0.00000000000E+00 0.  1.
</event>
<event>
 7    1  0.4119305E-015  0.9000771E+02  0.7816164E-02  0.1186339E+00
        -11   -1    0    0    0    0  0.00000000000E+00  0.00000000000E+00  0.45593999997E+02  0.45594000000E+02  0.51100000000E-03 0. -1.
         11   -1    0    0    0    0 -0.00000000000E+00 -0.00000000000E+00 -0.45593999997E+02  0.45594000000E+02  0.51100000000E-03 0.  1.
    9900012    2    1    2    0    0  0.11617697227E+00 -0.40465242497E+00 -0.11026513612E+01  0.90007711604E+02  0.89999972597E+02 0.  0.
         12    1    1    2    0    0 -0.11617697227E+00  0.40465242497E+00  0.11026513612E+01  0.11802883962E+01  0.00000000000E+00 0. -1.
         11    1    3    3    0    0 -0.67205830930E+01 -0.83412635951E+01  0.49289248004E+01  0.11791404302E+02  0.51100000000E-03 0. -1.
        -11    1    3    3    0    0 -0.46016464404E+01 -0.31938820866E+02 -0.15296679162E+02  0.35710668181E+02  0.51100000000E-03 0.  1.
         12    1    3    3    0    0  0.11438406506E+02  0.39875432036E+02  0.92651030003E+01  0.42505639121E+02  0.00000000000E+00 0. -1.
</event>
<event>
 7    1  0.4119305E-015  0.9000794E+02  0.7816164E-02  0.1186339E+00
        -11   -1    0    0    0    0  0.00000000000E+00  0.00000000000E+00  0.45593999997E+02  0.45594000000E+02  0.51100000000E-03 0. -1.
         11   -1    0    0    0    0 -0.00000000000E+00 -0.00000000000E+00 -0.45593999997E+02  0.45594000000E+02  0.51100000000E-03 0.  1.
    9900012    2    1    2    0    0 -0.11189349226E+01 -0.22764874156E+00 -0.29784108047E+00  0.90007937027E+02  0.90000200996E+02 0.  0.
         12    1    1    2    0    0  0.11189349226E+01  0.22764874156E+00  0.29784108047E+00  0.11800629728E+01  0.00000000000E+00 0. -1.
         11    1    3    3    0    0 -0.10696302267E+02  0.11503869329E+01 -0.16758721633E+00  0.10759291706E+02  0.51100000000E-03 0. -1.
        -11    1    3    3    0    0  0.92276266436E+01 -0.87830771871E+01 -0.38301315621E+02  0.40364369398E+02  0.51100000000E-03 0.  1.
         12    1    3    3    0    0  0.34974070094E+00  0.74050415127E+01  0.38171061757E+02  0.38884275923E+02  0.00000000000E+00 0. -1.
</event>
<event>
 7    1  0.4119305E-015  0.9000776E+02  0.7816164E-02  0.1186339E+00
        -11   -1    0    0    0    0  0.00000000000E+00  0.00000000000E+00  0.45593999997E+02  0.45594000000E+02  0.51100000000E-03 0.  1.
         11   -1    0    0    0    0 -0.00000000000E+00 -0.00000000000E+00 -0.45593999997E+02  0.45594000000E+02  0.51100000000E-03 0. -1.
    9900012    2    1    2    0    0  0.56677696275E+00 -0.70647613274E+00 -0.75671553720E+00  0.90007761441E+02  0.90000023092E+02 0.  0.
         12    1    1    2    0    0 -0.56677696275E+00  0.70647613274E+00  0.75671553720E+00  0.11802385589E+01  0.00000000000E+00 0. -1.
         11    1    3    3    0    0 -0.78897763090E+01 -0.26515639207E+01  0.29503711813E+01  0.88308579311E+01  0.51100000000E-03 0. -1.
        -11    1    3    3    0    0 -0.14384832010E+02 -0.33719106333E+02  0.73873850452E+01  0.37396189404E+02  0.51100000000E-03 0.  1.
         12    1    3    3    0    0  0.22841385282E+02  0.35664194121E+02 -0.11094471764E+02  0.43780714106E+02  0.00000000000E+00 0. -1.
</event>
<event>
 7    1  0.4119305E-015  0.9000776E+02  0.7816164E-02  0.1186339E+00
        -11   -1    0    0    0    0  0.00000000000E+00  0.00000000000E+00  0.45593999997E+02  0.45594000000E+02  0.51100000000E-03 0. -1.
         11   -1    0    0    0    0 -0.00000000000E+00 -0.00000000000E+00 -0.45593999997E+02  0.45594000000E+02  0.51100000000E-03 0.  1.
    9900012    2    1    2    0    0 -0.24441608672E+00 -0.53290381497E-01 -0.11534253051E+01  0.90007758913E+02  0.90000020531E+02 0.  0.
         12    1    1    2    0    0  0.24441608672E+00  0.53290381497E-01  0.11534253051E+01  0.11802410866E+01  0.00000000000E+00 0. -1.
         11    1    3    3    0    0  0.15290171513E+01 -0.80197983940E+01 -0.11816283332E+02  0.14362437529E+02  0.51100000000E-03 0. -1.
        -11    1    3    3    0    0 -0.16031707202E+02 -0.80984729511E+01 -0.26917339272E+02  0.32359605277E+02  0.51100000000E-03 0.  1.
         12    1    3    3    0    0  0.14258273964E+02  0.16064980964E+02  0.37580197300E+02  0.43285716107E+02  0.00000000000E+00 0. -1.
</event>
<event>
 7    1  0.4119305E-015  0.9000772E+02  0.7816164E-02  0.1186339E+00
        -11   -1    0    0    0    0  0.00000000000E+00  0.00000000000E+00  0.45593999997E+02  0.45594000000E+02  0.51100000000E-03 0. -1.
         11   -1    0    0    0    0 -0.00000000000E+00 -0.00000000000E+00 -0.45593999997E+02  0.45594000000E+02  0.51100000000E-03 0.  1.
    9900012    2    1    2    0    0 -0.67495999403E+00  0.96737601220E+00  0.40826155657E-01  0.90007722864E+02  0.89999984006E+02 0.  0.
         12    1    1    2    0    0  0.67495999403E+00 -0.96737601220E+00 -0.40826155657E-01  0.11802771359E+01  0.00000000000E+00 0. -1.
         11    1    3    3    0    0 -0.10328179407E+02  0.18487915161E+01  0.39722589302E+01  0.11219098057E+02  0.51100000000E-03 0. -1.
        -11    1    3    3    0    0  0.35274372182E+02  0.15952008148E+02  0.16356452993E+02  0.42027151361E+02  0.51100000000E-03 0.  1.
         12    1    3    3    0    0 -0.25621152769E+02 -0.16833423652E+02 -0.20287885767E+02  0.36761473446E+02  0.00000000000E+00 0. -1.
</event>
<event>
 7    1  0.4119305E-015  0.9000774E+02  0.7816164E-02  0.1186339E+00
        -11   -1    0    0    0    0  0.00000000000E+00  0.00000000000E+00  0.45593999997E+02  0.45594000000E+02  0.51100000000E-03 0.  1.
         11   -1    0    0    0    0 -0.00000000000E+00 -0.00000000000E+00 -0.45593999997E+02  0.45594000000E+02  0.51100000000E-03 0. -1.
    9900012    2    1    2    0    0  0.10682601665E+01 -0.11176112889E+00  0.48922703887E+00  0.90007740101E+02  0.90000001471E+02 0.  0.
         12    1    1    2    0    0 -0.10682601665E+01  0.11176112889E+00 -0.48922703887E+00  0.11802598988E+01  0.00000000000E+00 0. -1.
         11    1    3    3    0    0 -0.31499918082E+02 -0.30263816341E+01  0.19856496298E+02  0.37358857992E+02  0.51100000000E-03 0. -1.
        -11    1    3    3    0    0 -0.87107519786E+00 -0.12183659301E+02 -0.37901653131E+01  0.12789279859E+02  0.51100000000E-03 0.  1.
        -12    1    3    3    0    0  0.33439253447E+02  0.15098279806E+02 -0.15577103946E+02  0.39859602250E+02  0.00000000000E+00 0.  1.
</event>
<event>
 7    1  0.4119305E-015  0.9000770E+02  0.7816164E-02  0.1186339E+00
        -11   -1    0    0    0    0  0.00000000000E+00  0.00000000000E+00  0.45593999997E+02  0.45594000000E+02  0.51100000000E-03 0.  1.
         11   -1    0    0    0    0 -0.00000000000E+00 -0.00000000000E+00 -0.45593999997E+02  0.45594000000E+02  0.51100000000E-03 0. -1.
    9900012    2    1    2    0    0  0.31907824877E+00 -0.11278219632E+01 -0.13898302104E+00  0.90007699365E+02  0.89999960196E+02 0.  0.
         12    1    1    2    0    0 -0.31907824877E+00  0.11278219632E+01  0.13898302104E+00  0.11803006353E+01  0.00000000000E+00 0. -1.
         11    1    3    3    0    0  0.89690012816E+00  0.21127863612E+01  0.89812287502E+01  0.92698849061E+01  0.51100000000E-03 0. -1.
        -11    1    3    3    0    0  0.14764546657E+02 -0.27739137435E+02 -0.31262208360E+02  0.44325808007E+02  0.51100000000E-03 0.  1.
         12    1    3    3    0    0 -0.15342368536E+02  0.24498529111E+02  0.22141996589E+02  0.36412006452E+02  0.00000000000E+00 0. -1.
</event>
<event>
 7    1  0.4119305E-015  0.9000772E+02  0.7816164E-02  0.1186339E+00
        -11   -1    0    0    0    0  0.00000000000E+00  0.00000000000E+00  0.45593999997E+02  0.45594000000E+02  0.51100000000E-03 0.  1.
         11   -1    0    0    0    0 -0.00000000000E+00 -0.00000000000E+00 -0.45593999997E+02  0.45594000000E+02  0.51100000000E-03 0. -1.
    9900012    2    1    2    0    0  0.30630756538E+00 -0.32798996438E+00  0.10916294324E+01  0.90007721830E+02  0.89999982958E+02 0.  0.
         12    1    1    2    0    0 -0.30630756538E+00  0.32798996438E+00 -0.10916294324E+01  0.11802781702E+01  0.00000000000E+00 0. -1.
         11    1    3    3    0    0  0.47628353062E+01  0.22205907031E+02 -0.34174813489E+02  0.41032971919E+02  0.51100000000E-03 0. -1.
        -11    1    3    3    0    0 -0.49527704297E+01 -0.39138874031E+01  0.28447075000E+02  0.29139054993E+02  0.51100000000E-03 0.  1.
        -12    1    3    3    0    0  0.49624268894E+00 -0.18620009593E+02  0.68193679210E+01  0.19835694918E+02  0.00000000000E+00 0.  1.
</event>
<event>
 7    1  0.4119305E-015  0.9000778E+02  0.7816164E-02  0.1186339E+00
        -11   -1    0    0    0    0  0.00000000000E+00  0.00000000000E+00  0.45593999997E+02  0.45594000000E+02  0.51100000000E-03 0. -1.
         11   -1    0    0    0    0 -0.00000000000E+00 -0.00000000000E+00 -0.45593999997E+02  0.45594000000E+02  0.51100000000E-03 0.  1.
    9900012    2    1    2    0    0 -0.10542098869E+01 -0.12018493079E+00 -0.51683618328E+00  0.90007778604E+02  0.90000040482E+02 0.  0.
         12    1    1    2    0    0  0.10542098869E+01  0.12018493079E+00  0.51683618328E+00  0.11802213960E+01  0.00000000000E+00 0. -1.
         11    1    3    3    0    0  0.17639264012E+01  0.83813738238E+01  0.47117961351E+00  0.85779294712E+01  0.51100000000E-03 0. -1.
        -11    1    3    3    0    0  0.18980913602E+02 -0.33296562966E+02 -0.20104605794E+02  0.43279687625E+02  0.51100000000E-03 0.  1.
         12    1    3    3    0    0 -0.21799049890E+02  0.24795004211E+02  0.19116589997E+02  0.38150161508E+02  0.00000000000E+00 0. -1.
</event>
<event>
 7    1  0.4119305E-015  0.9000774E+02  0.7816164E-02  0.1186339E+00
        -11   -1    0    0    0    0  0.00000000000E+00  0.00000000000E+00  0.45593999997E+02  0.45594000000E+02  0.51100000000E-03 0.  1.
         11   -1    0    0    0    0 -0.00000000000E+00 -0.00000000000E+00 -0.45593999997E+02  0.45594000000E+02  0.51100000000E-03 0. -1.
    9900012    2    1    2    0    0 -0.95020930526E+00 -0.57125736835E+00  0.40469918930E+00  0.90007739801E+02  0.90000001166E+02 0.  0.
         12    1    1    2    0    0  0.95020930526E+00  0.57125736835E+00 -0.40469918930E+00  0.11802601995E+01  0.00000000000E+00 0. -1.
         11    1    3    3    0    0 -0.38469748413E+02  0.79675993070E+01 -0.66036900210E+01  0.39837330531E+02  0.51100000000E-03 0. -1.
        -11    1    3    3    0    0 -0.34874302093E+01 -0.20749340507E+01  0.76416279591E+01  0.86522828725E+01  0.51100000000E-03 0.  1.
        -12    1    3    3    0    0  0.41006969317E+02 -0.64639226246E+01 -0.63323874874E+00  0.41518126397E+02  0.00000000000E+00 0.  1.
</event>
<event>
 7    1  0.4119305E-015  0.9000773E+02  0.7816164E-02  0.1186339E+00
        -11   -1    0    0    0    0  0.00000000000E+00  0.00000000000E+00  0.45593999997E+02  0.45594000000E+02  0.51100000000E-03 0.  1.
         11   -1    0    0    0    0 -0.00000000000E+00 -0.00000000000E+00 -0.45593999997E+02  0.45594000000E+02  0.51100000000E-03 0. -1.
    9900012    2    1    2    0    0 -0.86182677772E+00  0.38409962483E+00  0.70905403047E+00  0.90007730736E+02  0.89999991982E+02 0.  0.
         12    1    1    2    0    0  0.86182677772E+00 -0.38409962483E+00 -0.70905403047E+00  0.11802692637E+01  0.00000000000E+00 0. -1.
         11    1    3    3    0    0  0.47478008252E+01 -0.19531286616E+01 -0.10000527448E+02  0.11241302137E+02  0.51100000000E-03 0. -1.
        -11    1    3    3    0    0  0.26270274170E+02  0.65642313030E+01 -0.20492605044E+02  0.33958258191E+02  0.51100000000E-03 0.  1.
         12    1    3    3    0    0 -0.31879901773E+02 -0.42270030166E+01  0.31202186522E+02  0.44808170409E+02  0.00000000000E+00 0. -1.
</event>
<event>
 7    1  0.4119305E-015  0.9000787E+02  0.7816164E-02  0.1186339E+00
        -11   -1    0    0    0    0  0.00000000000E+00  0.00000000000E+00  0.45593999997E+02  0.45594000000E+02  0.51100000000E-03 0.  1.
         11   -1    0    0    0    0 -0.00000000000E+00 -0.00000000000E+00 -0.45593999997E+02  0.45594000000E+02  0.51100000000E-03 0. -1.
    9900012    2    1    2    0    0 -0.10946897256E+01 -0.28064363597E+00  0.33998617002E+00  0.90007874142E+02  0.90000137280E+02 0.  0.
         12    1    1    2    0    0  0.10946897256E+01  0.28064363597E+00 -0.33998617002E+00  0.11801258584E+01  0.00000000000E+00 0. -1.
         11    1    3    3    0    0  0.25296138856E+01  0.22626370908E+01  0.80795315904E+01  0.87634070998E+01  0.51100000000E-03 0. -1.
        -11    1    3    3    0    0  0.36940134263E+02  0.77589189039E+01  0.35034127652E+01  0.37908419160E+02  0.51100000000E-03 0.  1.
         12    1    3    3    0    0 -0.40564437874E+02 -0.10302199631E+02 -0.11242958186E+02  0.43336047882E+02  0.00000000000E+00 0. -1.
</event>
<event>
 7    1  0.4119305E-015  0.9000768E+02  0.7816164E-02  0.1186339E+00
        -11   -1    0    0    0    0  0.00000000000E+00  0.00000000000E+00  0.45593999997E+02  0.45594000000E+02  0.51100000000E-03 0. -1.
         11   -1    0    0    0    0 -0.00000000000E+00 -0.00000000000E+00 -0.45593999997E+02  0.45594000000E+02  0.51100000000E-03 0.  1.
    9900012    2    1    2    0    0  0.61398592244E+00  0.25736460987E+00 -0.97465057892E+00  0.90007678431E+02  0.89999938986E+02 0.  0.
         12    1    1    2    0    0 -0.61398592244E+00 -0.25736460987E+00  0.97465057892E+00  0.11803215690E+01  0.00000000000E+00 0. -1.
         11    1    3    3    0    0 -0.19549323845E+02  0.24142576924E+02 -0.24144720220E+02  0.39344727704E+02  0.51100000000E-03 0. -1.
        -11    1    3    3    0    0 -0.23590040277E+01  0.61616553971E+01  0.11400127255E+00  0.65987797195E+01  0.51100000000E-03 0.  1.
        -12    1    3    3    0    0  0.22522313795E+02 -0.30046867711E+02  0.23056068369E+02  0.44064171007E+02  0.00000000000E+00 0.  1.
</event>
<event>
 7    1  0.4119305E-015  0.9000763E+02  0.7816164E-02  0.1186339E+00
        -11   -1    0    0    0    0  0.00000000000E+00  0.00000000000E+00  0.45593999997E+02  0.45594000000E+02  0.51100000000E-03 0. -1.
         11   -1    0    0    0    0 -0.00000000000E+00 -0.00000000000E+00 -0.45593999997E+02  0.45594000000E+02  0.51100000000E-03 0.  1.
    9900012    2    1    2    0    0 -0.46094796384E+00  0.74506516149E+00 -0.79100163835E+00  0.90007627723E+02  0.89999887609E+02 0.  0.
         12    1    1    2    0    0  0.46094796384E+00 -0.74506516149E+00  0.79100163835E+00  0.11803722769E+01  0.00000000000E+00 0. -1.
         11    1    3    3    0    0  0.46704819946E+01 -0.78481043180E+01 -0.28244304383E+01  0.95594744107E+01  0.51100000000E-03 0. -1.
        -11    1    3    3    0    0  0.36095695780E+02  0.77590880434E+01  0.10432571267E+02  0.38365886469E+02  0.51100000000E-03 0.  1.
         12    1    3    3    0    0 -0.41227125738E+02  0.83408143604E+00 -0.83991424670E+01  0.42082266843E+02  0.00000000000E+00 0. -1.
</event>
<event>
 7    1  0.4119305E-015  0.9000785E+02  0.7816164E-02  0.1186339E+00
        -11   -1    0    0    0    0  0.00000000000E+00  0.00000000000E+00  0.45593999997E+02  0.45594000000E+02  0.51100000000E-03 0.  1.
         11   -1    0    0    0    0 -0.00000000000E+00 -0.00000000000E+00 -0.45593999997E+02  0.45594000000E+02  0.51100000000E-03 0. -1.
    9900012    2    1    2    0    0  0.33782928017E+00  0.34484669097E+00  0.10768957425E+01  0.90007850728E+02  0.90000113558E+02 0.  0.
         12    1    1    2    0    0 -0.33782928017E+00 -0.34484669097E+00 -0.10768957425E+01  0.11801492715E+01  0.00000000000E+00 0. -1.
         11    1    3    3    0    0 -0.30846569642E+02  0.29825479666E+02 -0.32444277394E+01  0.43030180195E+02  0.51100000000E-03 0. -1.
        -11    1    3    3    0    0  0.80486660838E+01  0.70653820557E+00 -0.22359581654E+01  0.83833007308E+01  0.51100000000E-03 0.  1.
        -12    1    3    3    0    0  0.23135732838E+02 -0.30187171181E+02  0.65572816474E+01  0.38594369803E+02  0.00000000000E+00 0.  1.
</event>
<event>
 7    1  0.4119305E-015  0.9000787E+02  0.7816164E-02  0.1186339E+00
        -11   -1    0    0    0    0  0.00000000000E+00  0.00000000000E+00  0.45593999997E+02  0.45594000000E+02  0.51100000000E-03 0.  1.
         11   -1    0    0    0    0 -0.00000000000E+00 -0.00000000000E+00 -0.45593999997E+02  0.45594000000E+02  0.51100000000E-03 0. -1.
    9900012    2    1    2    0    0 -0.33457603161E+00  0.10226300336E+01  0.48476986088E+00  0.90007866480E+02  0.90000129518E+02 0.  0.
         12    1    1    2    0    0  0.33457603161E+00 -0.10226300336E+01 -0.48476986088E+00  0.11801335198E+01  0.00000000000E+00 0. -1.
         11    1    3    3    0    0  0.99015945411E+00 -0.27019526445E+02 -0.53651129419E+01  0.27564826540E+02  0.51100000000E-03 0. -1.
        -11    1    3    3    0    0  0.40361679543E+01 -0.11607453857E+02 -0.13280778923E+02  0.18094273289E+02  0.51100000000E-03 0.  1.
        -12    1    3    3    0    0 -0.53609034401E+01  0.39649610335E+02  0.19130661726E+02  0.44348766651E+02  0.00000000000E+00 0.  1.
</event>
<event>
 7    1  0.4119305E-015  0.9000782E+02  0.7816164E-02  0.1186339E+00
        -11   -1    0    0    0    0  0.00000000000E+00  0.00000000000E+00  0.45593999997E+02  0.45594000000E+02  0.51100000000E-03 0.  1.
         11   -1    0    0    0    0 -0.00000000000E+00 -0.00000000000E+00 -0.45593999997E+02  0.45594000000E+02  0.51100000000E-03 0. -1.
    9900012    2    1    2    0    0  0.72796109490E+00  0.46419446189E+00 -0.80461836519E+00  0.90007824349E+02  0.90000086830E+02 0.  0.
         12    1    1    2    0    0 -0.72796109490E+00 -0.46419446189E+00  0.80461836519E+00  0.11801756512E+01  0.00000000000E+00 0. -1.
         11    1    3    3    0    0  0.71215270484E+01  0.12826881629E+02 -0.10566208190E+02  0.18080093905E+02  0.51100000000E-03 0. -1.
        -11    1    3    3    0    0  0.18879594276E+02  0.10716780186E+02  0.26144848593E+02  0.33982959933E+02  0.51100000000E-03 0.  1.
         12    1    3    3    0    0 -0.25273160230E+02 -0.23079467353E+02 -0.16383258768E+02  0.37944770511E+02  0.00000000000E+00 0. -1.
</event>
<event>
 7    1  0.4119305E-015  0.9000806E+02  0.7816164E-02  0.1186338E+00
        -11   -1    0    0    0    0  0.00000000000E+00  0.00000000000E+00  0.45593999997E+02  0.45594000000E+02  0.51100000000E-03 0. -1.
         11   -1    0    0    0    0 -0.00000000000E+00 -0.00000000000E+00 -0.45593999997E+02  0.45594000000E+02  0.51100000000E-03 0.  1.
    9900012    2    1    2    0    0 -0.79195633793E+00 -0.54779241978E+00 -0.68189851073E+00  0.90008060614E+02  0.90000326213E+02 0.  0.
         12    1    1    2    0    0  0.79195633793E+00  0.54779241978E+00  0.68189851073E+00  0.11799393863E+01  0.00000000000E+00 0. -1.
         11    1    3    3    0    0 -0.28186261792E+01  0.48285543723E+01 -0.61916330665E+01  0.83424163859E+01  0.51100000000E-03 0. -1.
        -11    1    3    3    0    0  0.31962386882E+01  0.37346801310E+02 -0.45502106889E+01  0.37758494772E+02  0.51100000000E-03 0.  1.
         12    1    3    3    0    0 -0.11695688469E+01 -0.42723148102E+02  0.10059945245E+02  0.43907149456E+02  0.00000000000E+00 0. -1.
</event>
<event>
 7    1  0.4119305E-015  0.9000774E+02  0.7816164E-02  0.1186339E+00
        -11   -1    0    0    0    0  0.00000000000E+00  0.00000000000E+00  0.45593999997E+02  0.45594000000E+02  0.51100000000E-03 0.  1.
         11   -1    0    0    0    0 -0.00000000000E+00 -0.00000000000E+00 -0.45593999997E+02  0.45594000000E+02  0.51100000000E-03 0. -1.
    9900012    2    1    2    0    0 -0.72693923844E+00 -0.27044031711E+00  0.88962323892E+00  0.90007742346E+02  0.90000003745E+02 0.  0.
         12    1    1    2    0    0  0.72693923844E+00  0.27044031711E+00 -0.88962323892E+00  0.11802576535E+01  0.00000000000E+00 0. -1.
         11    1    3    3    0    0  0.94243234548E+01  0.60558282253E+01 -0.56883025081E+01  0.12563746008E+02  0.51100000000E-03 0. -1.
        -11    1    3    3    0    0  0.16968116152E+02  0.13748696870E+02  0.29462712322E+02  0.36674174142E+02  0.51100000000E-03 0.  1.
         12    1    3    3    0    0 -0.27119378846E+02 -0.20074965412E+02 -0.22884786575E+02  0.40769822196E+02  0.00000000000E+00 0. -1.
</event>
<event>
 7    1  0.4119305E-015  0.9000788E+02  0.7816164E-02  0.1186339E+00
        -11   -1    0    0    0    0  0.00000000000E+00  0.00000000000E+00  0.45593999997E+02  0.45594000000E+02  0.51100000000E-03 0. -1.
         11   -1    0    0    0    0 -0.00000000000E+00 -0.00000000000E+00 -0.45593999997E+02  0.45594000000E+02  0.51100000000E-03 0.  1.
    9900012    2    1    2    0    0  0.17101621726E+00 -0.10658704336E+01  0.47682520941E+00  0.90007877715E+02  0.90000140901E+02 0.  0.
         12    1    1    2    0    0 -0.17101621726E+00  0.10658704336E+01 -0.47682520941E+00  0.11801222852E+01  0.00000000000E+00 0. -1.
         11    1    3    3    0    0  0.63549704192E+01  0.66083869601E+01 -0.18111887171E+00  0.91700180780E+01  0.51100000000E-03 0. -1.
        -11    1    3    3    0    0  0.82696121744E+00  0.33851548759E+02 -0.13434071463E+02  0.36429184654E+02  0.51100000000E-03 0.  1.
         12    1    3    3    0    0 -0.70109154193E+01 -0.41525806153E+02  0.14092015544E+02  0.44408674983E+02  0.00000000000E+00 0. -1.
</event>
<event>
 7    1  0.4119305E-015  0.9000775E+02  0.7816164E-02  0.1186339E+00
        -11   -1    0    0    0    0  0.00000000000E+00  0.00000000000E+00  0.45593999997E+02  0.45594000000E+02  0.51100000000E-03 0.  1.
         11   -1    0    0    0    0 -0.00000000000E+00 -0.00000000000E+00 -0.45593999997E+02  0.45594000000E+02  0.51100000000E-03 0. -1.
    9900012    2    1    2    0    0  0.17960620754E+00 -0.11379489043E+01  0.25653482491E+00  0.90007747394E+02  0.90000008859E+02 0.  0.
         12    1    1    2    0    0 -0.17960620754E+00  0.11379489043E+01 -0.25653482491E+00  0.11802526064E+01  0.00000000000E+00 0. -1.
         11    1    3    3    0    0  0.11909163854E+02  0.75418585401E+01 -0.36367618265E+02  0.39003993032E+02  0.51100000000E-03 0. -1.
        -11    1    3    3    0    0  0.66235176287E+01 -0.56472820105E+01 -0.12639392592E+01  0.87954717097E+01  0.51100000000E-03 0.  1.
        -12    1    3    3    0    0 -0.18353075275E+02 -0.30325254339E+01  0.37888092349E+02  0.42208282652E+02  0.00000000000E+00 0.  1.
</event>
<event>
 7    1  0.4119305E-015  0.9000775E+02  0.7816164E-02  0.1186339E+00
        -11   -1    0    0    0    0  0.00000000000E+00  0.00000000000E+00  0.45593999997E+02  0.45594000000E+02  0.51100000000E-03 0. -1.
         11   -1    0    0    0    0 -0.00000000000E+00 -0.00000000000E+00 -0.45593999997E+02  0.45594000000E+02  0.51100000000E-03 0.  1.
    9900012    2    1    2    0    0  0.33218811355E+00  0.65649985458E-01 -0.11306381178E+01  0.90007745190E+02  0.90000006626E+02 0.  0.
         12    1    1    2    0    0 -0.33218811355E+00 -0.65649985458E-01  0.11306381178E+01  0.11802548101E+01  0.00000000000E+00 0. -1.
         11    1    3    3    0    0 -0.69426223162E+00  0.10093782797E+02 -0.39901994153E+01  0.10876035253E+02  0.51100000000E-03 0. -1.
        -11    1    3    3    0    0  0.14965137440E+02 -0.14685975372E+02 -0.33721679813E+02  0.39708750936E+02  0.51100000000E-03 0.  1.
         12    1    3    3    0    0 -0.13938687094E+02  0.46578425607E+01  0.36581241110E+02  0.39422959001E+02  0.00000000000E+00 0. -1.
</event>
<event>
 7    1  0.4119305E-015  0.9000761E+02  0.7816164E-02  0.1186339E+00
        -11   -1    0    0    0    0  0.00000000000E+00  0.00000000000E+00  0.45593999997E+02  0.45594000000E+02  0.51100000000E-03 0.  1.
         11   -1    0    0    0    0 -0.00000000000E+00 -0.00000000000E+00 -0.45593999997E+02  0.45594000000E+02  0.51100000000E-03 0. -1.
    9900012    2    1    2    0    0  0.10788841366E+01  0.35158645777E+00  0.32513787520E+00  0.90007610803E+02  0.89999870466E+02 0.  0.
         12    1    1    2    0    0 -0.10788841366E+01 -0.35158645777E+00 -0.32513787520E+00  0.11803891966E+01  0.00000000000E+00 0. -1.
         11    1    3    3    0    0  0.23039392873E+01 -0.21037759288E+01 -0.11678502749E+02  0.12088069991E+02  0.51100000000E-03 0. -1.
        -11    1    3    3    0    0  0.23526359710E+02 -0.27247639580E+02 -0.36991921293E+01  0.36188499369E+02  0.51100000000E-03 0.  1.
         12    1    3    3    0    0 -0.24751414861E+02  0.29703001967E+02  0.15702832753E+02  0.41731041443E+02  0.00000000000E+00 0. -1.
</event>
<event>
 7    1  0.4119305E-015  0.9000697E+02  0.7816164E-02  0.1186341E+00
        -11   -1    0    0    0    0  0.00000000000E+00  0.00000000000E+00  0.45593999997E+02  0.45594000000E+02  0.51100000000E-03 0.  1.
         11   -1    0    0    0    0 -0.00000000000E+00 -0.00000000000E+00 -0.45593999997E+02  0.45594000000E+02  0.51100000000E-03 0. -1.
    9900012    2    1    2    0    0  0.10459367201E+01 -0.93241965128E-02  0.54841924851E+00  0.90006968995E+02  0.89999220182E+02 0.  0.
         12    1    1    2    0    0 -0.10459367201E+01  0.93241965129E-02 -0.54841924851E+00  0.11810310052E+01  0.00000000000E+00 0. -1.
         11    1    3    3    0    0 -0.49186927351E+01 -0.65158896773E+01 -0.69071757377E+01  0.10693897018E+02  0.51100000000E-03 0. -1.
        -11    1    3    3    0    0 -0.16140956052E+02 -0.27181794126E+02  0.19640748818E+02  0.37217461071E+02  0.51100000000E-03 0.  1.
         12    1    3    3    0    0  0.22105585507E+02  0.33688359607E+02 -0.12185153832E+02  0.42095610905E+02  0.00000000000E+00 0. -1.
</event>
<event>
 7    1  0.4119305E-015  0.9000777E+02  0.7816164E-02  0.1186339E+00
        -11   -1    0    0    0    0  0.00000000000E+00  0.00000000000E+00  0.45593999997E+02  0.45594000000E+02  0.51100000000E-03 0.  1.
         11   -1    0    0    0    0 -0.00000000000E+00 -0.00000000000E+00 -0.45593999997E+02  0.45594000000E+02  0.51100000000E-03 0. -1.
    9900012    2    1    2    0    0 -0.60209298786E+00 -0.64171501022E+00  0.78653144827E+00  0.90007768735E+02  0.90000030482E+02 0.  0.
         12    1    1    2    0    0  0.60209298786E+00  0.64171501022E+00 -0.78653144827E+00  0.11802312653E+01  0.00000000000E+00 0. -1.
         11    1    3    3    0    0 -0.11878115485E+01 -0.33720005339E+01  0.10033783693E+02  0.10651671199E+02  0.51100000000E-03 0. -1.
        -11    1    3    3    0    0 -0.14550230473E+02  0.24899250635E+02  0.23365829013E+02  0.37116625045E+02  0.51100000000E-03 0.  1.
         12    1    3    3    0    0  0.15135949034E+02 -0.22168965111E+02 -0.32613081257E+02  0.42239472491E+02  0.00000000000E+00 0. -1.
</event>
<event>
 7    1  0.4119305E-015  0.9000753E+02  0.7816164E-02  0.1186339E+00
        -11   -1    0    0    0    0  0.00000000000E+00  0.00000000000E+00  0.45593999997E+02  0.45594000000E+02  0.51100000000E-03 0.  1.
         11   -1    0    0    0    0 -0.00000000000E+00 -0.00000000000E+00 -0.45593999997E+02  0.45594000000E+02  0.51100000000E-03 0. -1.
    9900012    2    1    2    0    0  0.44211987799E+00 -0.10638833303E+01  0.25725589994E+00  0.90007534700E+02  0.89999793358E+02 0.  0.
         12    1    1    2    0    0 -0.44211987799E+00  0.10638833303E+01 -0.25725589994E+00  0.11804653003E+01  0.00000000000E+00 0. -1.
         11    1    3    3    0    0 -0.39353813490E+01 -0.69817895817E+01 -0.44469989859E+01  0.91656103106E+01  0.51100000000E-03 0. -1.
        -11    1    3    3    0    0  0.34259258810E+02  0.23857300649E+02 -0.10136556790E+02  0.42960649347E+02  0.51100000000E-03 0.  1.
         12    1    3    3    0    0 -0.29881757583E+02 -0.17939394398E+02  0.14840811676E+02  0.37881275042E+02  0.00000000000E+00 0. -1.
</event>
<event>
 7    1  0.4119305E-015  0.9000759E+02  0.7816164E-02  0.1186339E+00
        -11   -1    0    0    0    0  0.00000000000E+00  0.00000000000E+00  0.45593999997E+02  0.45594000000E+02  0.51100000000E-03 0. -1.
         11   -1    0    0    0    0 -0.00000000000E+00 -0.00000000000E+00 -0.45593999997E+02  0.45594000000E+02  0.51100000000E-03 0.  1.
    9900012    2    1    2    0    0 -0.50836556392E+00  0.10264402989E+01 -0.28523562664E+00  0.90007587108E+02  0.89999846457E+02 0.  0.
         12    1    1    2    0    0  0.50836556392E+00 -0.10264402989E+01  0.28523562664E+00  0.11804128923E+01  0.00000000000E+00 0. -1.
         11    1    3    3    0    0 -0.10484428665E+02 -0.23598770919E+01  0.17057290774E+01  0.10881258028E+02  0.51100000000E-03 0. -1.
        -11    1    3    3    0    0 -0.90571455538E+00 -0.16211091414E+02 -0.35370219603E+02  0.38918790304E+02  0.51100000000E-03 0.  1.
         12    1    3    3    0    0  0.10881777656E+02  0.19597408805E+02  0.33379254899E+02  0.40207538776E+02  0.00000000000E+00 0. -1.
</event>
<event>
 7    1  0.4119305E-015  0.9000725E+02  0.7816164E-02  0.1186340E+00
        -11   -1    0    0    0    0  0.00000000000E+00  0.00000000000E+00  0.45593999997E+02  0.45594000000E+02  0.51100000000E-03 0.  1.
         11   -1    0    0    0    0 -0.00000000000E+00 -0.00000000000E+00 -0.45593999997E+02  0.45594000000E+02  0.51100000000E-03 0. -1.
    9900012    2    1    2    0    0 -0.99173761095E+00 -0.45259782634E+00  0.45364021637E+00  0.90007246966E+02  0.89999501825E+02 0.  0.
         12    1    1    2    0    0  0.99173761095E+00  0.45259782634E+00 -0.45364021637E+00  0.11807530340E+01  0.00000000000E+00 0. -1.
         11    1    3    3    0    0 -0.27041985776E+02 -0.24899165214E+02  0.20567598511E+02  0.42122007690E+02  0.51100000000E-03 0. -1.
        -11    1    3    3    0    0 -0.98180397420E-01  0.15927680901E+02 -0.65683282187E+01  0.17229149547E+02  0.51100000000E-03 0.  1.
        -12    1    3    3    0    0  0.26148428563E+02  0.85188864873E+01 -0.13545630076E+02  0.30656089729E+02  0.00000000000E+00 0.  1.
</event>
<event>
 7    1  0.4119305E-015  0.9000775E+02  0.7816164E-02  0.1186339E+00
        -11   -1    0    0    0    0  0.00000000000E+00  0.00000000000E+00  0.45593999997E+02  0.45594000000E+02  0.51100000000E-03 0.  1.
         11   -1    0    0    0    0 -0.00000000000E+00 -0.00000000000E+00 -0.45593999997E+02  0.45594000000E+02  0.51100000000E-03 0. -1.
    9900012    2    1    2    0    0  0.76320942845E+00  0.56778034196E+00  0.69865850464E+00  0.90007751359E+02  0.90000012877E+02 0.  0.
         12    1    1    2    0    0 -0.76320942845E+00 -0.56778034196E+00 -0.69865850464E+00  0.11802486410E+01  0.00000000000E+00 0. -1.
         11    1    3    3    0    0  0.13107281463E+02  0.28671160504E+02 -0.23982441682E+02  0.39610526143E+02  0.51100000000E-03 0. -1.
        -11    1    3    3    0    0 -0.27341587847E+00 -0.35936648824E+01 -0.74169112695E+01  0.82461964911E+01  0.51100000000E-03 0.  1.
        -12    1    3    3    0    0 -0.12070656157E+02 -0.24509715279E+02  0.32098011457E+02  0.42151028725E+02  0.00000000000E+00 0.  1.
</event>
<event>
 7    1  0.4119305E-015  0.9000759E+02  0.7816164E-02  0.1186339E+00
        -11   -1    0    0    0    0  0.00000000000E+00  0.00000000000E+00  0.45593999997E+02  0.45594000000E+02  0.51100000000E-03 0.  1.
         11   -1    0    0    0    0 -0.00000000000E+00 -0.00000000000E+00 -0.45593999997E+02  0.45594000000E+02  0.51100000000E-03 0. -1.
    9900012    2    1    2    0    0  0.41075165910E+00  0.84441597743E+00  0.71526783100E+00  0.90007591876E+02  0.89999851289E+02 0.  0.
         12    1    1    2    0    0 -0.41075165910E+00 -0.84441597743E+00 -0.71526783100E+00  0.11804081237E+01  0.00000000000E+00 0. -1.
         11    1    3    3    0    0  0.14381280764E+02 -0.12387676854E+02 -0.29361143942E+02  0.34962158802E+02  0.51100000000E-03 0. -1.
        -11    1    3    3    0    0  0.10960983817E+02 -0.28388571662E+01 -0.18426055975E+01  0.11471594130E+02  0.51100000000E-03 0.  1.
        -12    1    3    3    0    0 -0.24931512921E+02  0.16070949998E+02  0.31919017371E+02  0.43573838944E+02  0.00000000000E+00 0.  1.
</event>
<event>
 7    1  0.4119305E-015  0.9000769E+02  0.7816164E-02  0.1186339E+00
        -11   -1    0    0    0    0  0.00000000000E+00  0.00000000000E+00  0.45593999997E+02  0.45594000000E+02  0.51100000000E-03 0.  1.
         11   -1    0    0    0    0 -0.00000000000E+00 -0.00000000000E+00 -0.45593999997E+02  0.45594000000E+02  0.51100000000E-03 0. -1.
    9900012    2    1    2    0    0  0.89875599595E+00 -0.73161811324E+00 -0.22381625471E+00  0.90007694480E+02  0.89999955247E+02 0.  0.
         12    1    1    2    0    0 -0.89875599595E+00  0.73161811324E+00  0.22381625471E+00  0.11803055197E+01  0.00000000000E+00 0. -1.
         11    1    3    3    0    0  0.45028306409E+00  0.92470803901E+01 -0.25999970243E-01  0.92580736029E+01  0.51100000000E-03 0. -1.
        -11    1    3    3    0    0 -0.87947939844E+01  0.27292189292E+02 -0.22406048803E+02  0.36390150052E+02  0.51100000000E-03 0.  1.
         12    1    3    3    0    0  0.92432669162E+01 -0.37270887795E+02  0.22208232519E+02  0.44359470826E+02  0.00000000000E+00 0. -1.
</event>
<event>
 7    1  0.4119305E-015  0.9000773E+02  0.7816164E-02  0.1186339E+00
        -11   -1    0    0    0    0  0.00000000000E+00  0.00000000000E+00  0.45593999997E+02  0.45594000000E+02  0.51100000000E-03 0. -1.
         11   -1    0    0    0    0 -0.00000000000E+00 -0.00000000000E+00 -0.45593999997E+02  0.45594000000E+02  0.51100000000E-03 0.  1.
    9900012    2    1    2    0    0  0.85060854039E-01  0.64306351699E+00 -0.98603524022E+00  0.90007732433E+02  0.89999993701E+02 0.  0.
         12    1    1    2    0    0 -0.85060854039E-01 -0.64306351699E+00  0.98603524022E+00  0.11802675674E+01  0.00000000000E+00 0. -1.
         11    1    3    3    0    0  0.25348660721E+02  0.74958820804E+01  0.19859800931E+02  0.33062887681E+02  0.51100000000E-03 0. -1.
        -11    1    3    3    0    0  0.86909728806E+01  0.11451057219E+02 -0.46519633467E+01  0.15109615623E+02  0.51100000000E-03 0.  1.
        -12    1    3    3    0    0 -0.33954572748E+02 -0.18303875782E+02 -0.16193872825E+02  0.41835229128E+02  0.00000000000E+00 0.  1.
</event>
<event>
 7    1  0.4119305E-015  0.9000771E+02  0.7816164E-02  0.1186339E+00
        -11   -1    0    0    0    0  0.00000000000E+00  0.00000000000E+00  0.45593999997E+02  0.45594000000E+02  0.51100000000E-03 0. -1.
         11   -1    0    0    0    0 -0.00000000000E+00 -0.00000000000E+00 -0.45593999997E+02  0.45594000000E+02  0.51100000000E-03 0.  1.
    9900012    2    1    2    0    0 -0.10791982979E+01 -0.14158616399E+00  0.45648426468E+00  0.90007706184E+02  0.89999967106E+02 0.  0.
         12    1    1    2    0    0  0.10791982979E+01  0.14158616399E+00 -0.45648426468E+00  0.11802938159E+01  0.00000000000E+00 0. -1.
         11    1    3    3    0    0 -0.16928315570E+02 -0.92909979211E+00  0.39927461051E+02  0.43377796632E+02  0.51100000000E-03 0. -1.
        -11    1    3    3    0    0  0.27728663783E+01  0.58734780821E+01 -0.22854286943E+01  0.68854714661E+01  0.51100000000E-03 0.  1.
        -12    1    3    3    0    0  0.13076250894E+02 -0.50859644539E+01 -0.37185548092E+02  0.39744438086E+02  0.00000000000E+00 0.  1.
</event>
<event>
 7    1  0.4157313E-015  0.9000776E+02  0.7816164E-02  0.1186339E+00
        -11   -1    0    0    0    0  0.00000000000E+00  0.00000000000E+00  0.45593999997E+02  0.45594000000E+02  0.51100000000E-03 0.  1.
         11   -1    0    0    0    0 -0.00000000000E+00 -0.00000000000E+00 -0.45593999997E+02  0.45594000000E+02  0.51100000000E-03 0. -1.
    9900012    2    1    2    0    0 -0.23357072320E+00  0.79011840013E+00  0.84505689075E+00  0.90007761246E+02  0.90000022894E+02 0.  0.
         12    1    1    2    0    0  0.23357072320E+00 -0.79011840013E+00 -0.84505689075E+00  0.11802387545E+01  0.00000000000E+00 0. -1.
         11    1    3    3    0    0  0.30240612778E+02 -0.17277908784E+02 -0.19011393229E+02  0.39679388427E+02  0.51100000000E-03 0. -1.
        -11    1    3    3    0    0  0.38144484742E+01  0.89309075347E+01  0.95277092845E-01  0.97118589643E+01  0.51100000000E-03 0.  1.
        -12    1    3    3    0    0 -0.34288631976E+02  0.91371196492E+01  0.19761173027E+02  0.40616513854E+02  0.00000000000E+00 0.  1.
</event>
<event>
 7    1  0.4119305E-015  0.9000774E+02  0.7816164E-02  0.1186339E+00
        -11   -1    0    0    0    0  0.00000000000E+00  0.00000000000E+00  0.45593999997E+02  0.45594000000E+02  0.51100000000E-03 0. -1.
         11   -1    0    0    0    0 -0.00000000000E+00 -0.00000000000E+00 -0.45593999997E+02  0.45594000000E+02  0.51100000000E-03 0.  1.
    9900012    2    1    2    0    0  0.69379798167E+00 -0.76972751562E+00 -0.56496200732E+00  0.90007738098E+02  0.89999999441E+02 0.  0.
         12    1    1    2    0    0 -0.69379798167E+00  0.76972751562E+00  0.56496200732E+00  0.11802619020E+01  0.00000000000E+00 0. -1.
         11    1    3    3    0    0  0.70266993998E+01  0.38009199897E+01  0.37422010917E+01  0.88218799865E+01  0.51100000000E-03 0. -1.
        -11    1    3    3    0    0  0.25695642071E+02 -0.17417113161E+01 -0.30352883559E+02  0.39806998385E+02  0.51100000000E-03 0.  1.
         12    1    3    3    0    0 -0.32028543489E+02 -0.28289361892E+01  0.26045720460E+02  0.41378859727E+02  0.00000000000E+00 0. -1.
</event>
<event>
 7    1  0.4119305E-015  0.9000782E+02  0.7816164E-02  0.1186339E+00
        -11   -1    0    0    0    0  0.00000000000E+00  0.00000000000E+00  0.45593999997E+02  0.45594000000E+02  0.51100000000E-03 0.  1.
         11   -1    0    0    0    0 -0.00000000000E+00 -0.00000000000E+00 -0.45593999997E+02  0.45594000000E+02  0.51100000000E-03 0. -1.
    9900012    2    1    2    0    0 -0.93475751843E-01  0.78921654361E+00  0.87248675364E+00  0.90007816284E+02  0.90000078659E+02 0.  0.
         12    1    1    2    0    0  0.93475751843E-01 -0.78921654361E+00 -0.87248675364E+00  0.11801837163E+01  0.00000000000E+00 0. -1.
         11    1    3    3    0    0 -0.26781044313E+02  0.37868835155E+01 -0.22480908028E+02  0.35170385942E+02  0.51100000000E-03 0. -1.
        -11    1    3    3    0    0 -0.61770695735E+01 -0.61991921276E+01 -0.60372141630E+01  0.10631750875E+02  0.51100000000E-03 0.  1.
        -12    1    3    3    0    0  0.32864638135E+02  0.32015251557E+01  0.29390608944E+02  0.44205679467E+02  0.00000000000E+00 0.  1.
</event>
<event>
 7    1  0.4119305E-015  0.9000769E+02  0.7816164E-02  0.1186339E+00
        -11   -1    0    0    0    0  0.00000000000E+00  0.00000000000E+00  0.45593999997E+02  0.45594000000E+02  0.51100000000E-03 0.  1.
         11   -1    0    0    0    0 -0.00000000000E+00 -0.00000000000E+00 -0.45593999997E+02  0.45594000000E+02  0.51100000000E-03 0. -1.
    9900012    2    1    2    0    0 -0.14330077707E+00  0.41459535283E+00  0.10957678659E+01  0.90007690026E+02  0.89999950734E+02 0.  0.
         12    1    1    2    0    0  0.14330077707E+00 -0.41459535283E+00 -0.10957678659E+01  0.11803099742E+01  0.00000000000E+00 0. -1.
         11    1    3    3    0    0  0.23539590624E+01  0.13152456969E+02  0.12198276994E+02  0.18092158784E+02  0.51100000000E-03 0. -1.
        -11    1    3    3    0    0 -0.72492146711E+01  0.11375247679E+02  0.24903138895E+02  0.28321611893E+02  0.51100000000E-03 0.  1.
         12    1    3    3    0    0  0.47519548316E+01 -0.24113109296E+02 -0.36005648023E+02  0.43593919349E+02  0.00000000000E+00 0. -1.
</event>
<event>
 7    1  0.4119305E-015  0.9000771E+02  0.7816164E-02  0.1186339E+00
        -11   -1    0    0    0    0  0.00000000000E+00  0.00000000000E+00  0.45593999997E+02  0.45594000000E+02  0.51100000000E-03 0. -1.
         11   -1    0    0    0    0 -0.00000000000E+00 -0.00000000000E+00 -0.45593999997E+02  0.45594000000E+02  0.51100000000E-03 0.  1.
    9900012    2    1    2    0    0  0.31080763079E+00 -0.10578414058E+01 -0.42126049071E+00  0.90007707568E+02  0.89999968508E+02 0.  0.
         12    1    1    2    0    0 -0.31080763079E+00  0.10578414058E+01  0.42126049071E+00  0.11802924317E+01  0.00000000000E+00 0. -1.
         11    1    3    3    0    0 -0.23101283289E+01  0.25106751437E+01  0.88871984147E+01  0.95195839456E+01  0.51100000000E-03 0. -1.
        -11    1    3    3    0    0  0.34337770052E+02  0.16493492268E+02 -0.17742658904E+02  0.42022847174E+02  0.51100000000E-03 0.  1.
         12    1    3    3    0    0 -0.31716834092E+02 -0.20062008818E+02  0.84341999985E+01  0.38465276449E+02  0.00000000000E+00 0. -1.
</event>
<event>
 7    1  0.4119305E-015  0.9000774E+02  0.7816164E-02  0.1186339E+00
        -11   -1    0    0    0    0  0.00000000000E+00  0.00000000000E+00  0.45593999997E+02  0.45594000000E+02  0.51100000000E-03 0. -1.
         11   -1    0    0    0    0 -0.00000000000E+00 -0.00000000000E+00 -0.45593999997E+02  0.45594000000E+02  0.51100000000E-03 0.  1.
    9900012    2    1    2    0    0 -0.17957791099E+00  0.64435325960E+00 -0.97241070488E+00  0.90007736501E+02  0.89999997822E+02 0.  0.
         12    1    1    2    0    0  0.17957791099E+00 -0.64435325960E+00  0.97241070488E+00  0.11802634995E+01  0.00000000000E+00 0. -1.
         11    1    3    3    0    0  0.62707328800E+01  0.43079655016E+01  0.18758937356E+00  0.76102462279E+01  0.51100000000E-03 0. -1.
        -11    1    3    3    0    0  0.15707707486E+02  0.30845990220E+02 -0.16836534250E+02  0.38492545680E+02  0.51100000000E-03 0.  1.
         12    1    3    3    0    0 -0.22158018277E+02 -0.34509602462E+02  0.15676534172E+02  0.43904944593E+02  0.00000000000E+00 0. -1.
</event>
<event>
 7    1  0.4119305E-015  0.9000790E+02  0.7816164E-02  0.1186339E+00
        -11   -1    0    0    0    0  0.00000000000E+00  0.00000000000E+00  0.45593999997E+02  0.45594000000E+02  0.51100000000E-03 0. -1.
         11   -1    0    0    0    0 -0.00000000000E+00 -0.00000000000E+00 -0.45593999997E+02  0.45594000000E+02  0.51100000000E-03 0.  1.
    9900012    2    1    2    0    0  0.11582343373E+01 -0.17904396601E+00  0.13811986232E+00  0.90007898047E+02  0.90000161502E+02 0.  0.
         12    1    1    2    0    0 -0.11582343373E+01  0.17904396601E+00 -0.13811986232E+00  0.11801019525E+01  0.00000000000E+00 0. -1.
         11    1    3    3    0    0  0.36584833504E+02 -0.60307874017E+01 -0.47125488971E+01  0.37376845193E+02  0.51100000000E-03 0. -1.
        -11    1    3    3    0    0  0.70564993675E+01  0.42466806582E+01 -0.40780427514E+01  0.91901530390E+01  0.51100000000E-03 0.  1.
        -12    1    3    3    0    0 -0.42483098534E+02  0.16050627775E+01  0.89287115108E+01  0.43440899816E+02  0.00000000000E+00 0.  1.
</event>
<event>
 7    1  0.4119305E-015  0.9000759E+02  0.7816164E-02  0.1186339E+00
        -11   -1    0    0    0    0  0.00000000000E+00  0.00000000000E+00  0.45593999997E+02  0.45594000000E+02  0.51100000000E-03 0.  1.
         11   -1    0    0    0    0 -0.00000000000E+00 -0.00000000000E+00 -0.45593999997E+02  0.45594000000E+02  0.51100000000E-03 0. -1.
    9900012    2    1    2    0    0 -0.12631844648E+00 -0.10565139719E+00  0.11688655115E+01  0.90007591108E+02  0.89999850511E+02 0.  0.
         12    1    1    2    0    0  0.12631844648E+00  0.10565139719E+00 -0.11688655115E+01  0.11804088917E+01  0.00000000000E+00 0. -1.
         11    1    3    3    0    0  0.75686354894E+01  0.44895344161E+01  0.18668647487E+01  0.89958516382E+01  0.51100000000E-03 0. -1.
        -11    1    3    3    0    0 -0.26565947871E+02 -0.21244215200E+02  0.27117236751E+02  0.43501848179E+02  0.51100000000E-03 0.  1.
         12    1    3    3    0    0  0.18870993935E+02  0.16649029387E+02 -0.27815235988E+02  0.37509891291E+02  0.00000000000E+00 0. -1.
</event>
<event>
 7    1  0.4119305E-015  0.9000759E+02  0.7816164E-02  0.1186339E+00
        -11   -1    0    0    0    0  0.00000000000E+00  0.00000000000E+00  0.45593999997E+02  0.45594000000E+02  0.51100000000E-03 0.  1.
         11   -1    0    0    0    0 -0.00000000000E+00 -0.00000000000E+00 -0.45593999997E+02  0.45594000000E+02  0.51100000000E-03 0. -1.
    9900012    2    1    2    0    0  0.71815767846E+00 -0.83492864138E+00  0.42486874331E+00  0.90007589166E+02  0.89999848543E+02 0.  0.
         12    1    1    2    0    0 -0.71815767846E+00  0.83492864138E+00 -0.42486874331E+00  0.11804108337E+01  0.00000000000E+00 0. -1.
         11    1    3    3    0    0  0.98485788523E+01 -0.69121373829E-01 -0.35406595721E+02  0.36750868072E+02  0.51100000000E-03 0. -1.
        -11    1    3    3    0    0  0.77990046498E+01  0.66132628378E+00 -0.48239941696E+01  0.91941691299E+01  0.51100000000E-03 0.  1.
        -12    1    3    3    0    0 -0.16929425824E+02 -0.14271335513E+01  0.40655458634E+02  0.44062551965E+02  0.00000000000E+00 0.  1.
</event>
<event>
 7    1  0.4119305E-015  0.9000765E+02  0.7816164E-02  0.1186339E+00
        -11   -1    0    0    0    0  0.00000000000E+00  0.00000000000E+00  0.45593999997E+02  0.45594000000E+02  0.51100000000E-03 0. -1.
         11   -1    0    0    0    0 -0.00000000000E+00 -0.00000000000E+00 -0.45593999997E+02  0.45594000000E+02  0.51100000000E-03 0.  1.
    9900012    2    1    2    0    0  0.65311855265E+00 -0.57953162136E+00 -0.79423803359E+00  0.90007646325E+02  0.89999906456E+02 0.  0.
         12    1    1    2    0    0 -0.65311855265E+00  0.57953162136E+00  0.79423803359E+00  0.11803536750E+01  0.00000000000E+00 0. -1.
         11    1    3    3    0    0 -0.21385806915E+02 -0.28523280194E+02 -0.18844522572E+01  0.35699879706E+02  0.51100000000E-03 0. -1.
        -11    1    3    3    0    0 -0.98502893744E+01 -0.20355337075E+01 -0.25849712626E+01  0.10385262391E+02  0.51100000000E-03 0.  1.
        -12    1    3    3    0    0  0.31889214842E+02  0.29979282281E+02  0.36751854862E+01  0.43922504228E+02  0.00000000000E+00 0.  1.
</event>
<event>
 7    1  0.4119305E-015  0.9000778E+02  0.7816164E-02  0.1186339E+00
        -11   -1    0    0    0    0  0.00000000000E+00  0.00000000000E+00  0.45593999997E+02  0.45594000000E+02  0.51100000000E-03 0.  1.
         11   -1    0    0    0    0 -0.00000000000E+00 -0.00000000000E+00 -0.45593999997E+02  0.45594000000E+02  0.51100000000E-03 0. -1.
    9900012    2    1    2    0    0  0.72816159210E+00 -0.45982624771E+00  0.80701393712E+00  0.90007775031E+02  0.90000036862E+02 0.  0.
         12    1    1    2    0    0 -0.72816159210E+00  0.45982624771E+00 -0.80701393712E+00  0.11802249688E+01  0.00000000000E+00 0. -1.
         11    1    3    3    0    0  0.36798921067E+02 -0.39561622275E+01 -0.41860781890E+01  0.37246947017E+02  0.51100000000E-03 0. -1.
        -11    1    3    3    0    0  0.57332312227E+01 -0.71045345304E+01  0.29158878748E+01  0.95836711915E+01  0.51100000000E-03 0.  1.
        -12    1    3    3    0    0 -0.41803990697E+02  0.10600870510E+02  0.20772042513E+01  0.43177156823E+02  0.00000000000E+00 0.  1.
</event>
<event>
 7    1  0.4119305E-015  0.9000766E+02  0.7816164E-02  0.1186339E+00
        -11   -1    0    0    0    0  0.00000000000E+00  0.00000000000E+00  0.45593999997E+02  0.45594000000E+02  0.51100000000E-03 0. -1.
         11   -1    0    0    0    0 -0.00000000000E+00 -0.00000000000E+00 -0.45593999997E+02  0.45594000000E+02  0.51100000000E-03 0.  1.
    9900012    2    1    2    0    0  0.60640739073E+00  0.10055719876E+01 -0.11960810677E+00  0.90007656387E+02  0.89999916651E+02 0.  0.
         12    1    1    2    0    0 -0.60640739073E+00 -0.10055719876E+01  0.11960810677E+00  0.11803436131E+01  0.00000000000E+00 0. -1.
         11    1    3    3    0    0  0.33394830955E+02 -0.99458803028E+01  0.12606169679E+02  0.37054699888E+02  0.51100000000E-03 0. -1.
        -11    1    3    3    0    0  0.48038963253E+01  0.96762116999E+00  0.76183248318E+01  0.90582881460E+01  0.51100000000E-03 0.  1.
        -12    1    3    3    0    0 -0.37592319890E+02  0.99838311204E+01 -0.20344102618E+02  0.43894668353E+02  0.00000000000E+00 0.  1.
</event>
<event>
 7    1  0.4119305E-015  0.9000781E+02  0.7816164E-02  0.1186339E+00
        -11   -1    0    0    0    0  0.00000000000E+00  0.00000000000E+00  0.45593999997E+02  0.45594000000E+02  0.51100000000E-03 0.  1.
         11   -1    0    0    0    0 -0.00000000000E+00 -0.00000000000E+00 -0.45593999997E+02  0.45594000000E+02  0.51100000000E-03 0. -1.
    9900012    2    1    2    0    0  0.10919493773E+01  0.36997829881E+00  0.25222023780E+00  0.90007808307E+02  0.90000070577E+02 0.  0.
         12    1    1    2    0    0 -0.10919493773E+01 -0.36997829881E+00 -0.25222023780E+00  0.11801916931E+01  0.00000000000E+00 0. -1.
         11    1    3    3    0    0 -0.22103425294E+01 -0.29604990443E+00  0.79847963903E+01  0.82903699132E+01  0.51100000000E-03 0. -1.
        -11    1    3    3    0    0 -0.91176502110E+01  0.11238729925E+02  0.33977757261E+02  0.36931403770E+02  0.51100000000E-03 0.  1.
         12    1    3    3    0    0  0.12419942118E+02 -0.10572701721E+02 -0.41710333413E+02  0.44786034624E+02  0.00000000000E+00 0. -1.
</event>
<event>
 7    1  0.4119305E-015  0.9000782E+02  0.7816164E-02  0.1186339E+00
        -11   -1    0    0    0    0  0.00000000000E+00  0.00000000000E+00  0.45593999997E+02  0.45594000000E+02  0.51100000000E-03 0.  1.
         11   -1    0    0    0    0 -0.00000000000E+00 -0.00000000000E+00 -0.45593999997E+02  0.45594000000E+02  0.51100000000E-03 0. -1.
    9900012    2    1    2    0    0  0.11966641912E+00 -0.65558484381E+00  0.97402384323E+00  0.90007816122E+02  0.90000078495E+02 0.  0.
         12    1    1    2    0    0 -0.11966641912E+00  0.65558484381E+00 -0.97402384323E+00  0.11801838782E+01  0.00000000000E+00 0. -1.
         11    1    3    3    0    0  0.36578396604E+02 -0.45751326119E+01 -0.18251195154E+02  0.41134134989E+02  0.51100000000E-03 0. -1.
        -11    1    3    3    0    0  0.10144164374E+01  0.72189114481E+01  0.37372482161E+01  0.81919929012E+01  0.51100000000E-03 0.  1.
        -12    1    3    3    0    0 -0.37473146622E+02 -0.32993636800E+01  0.15487970781E+02  0.40681688231E+02  0.00000000000E+00 0.  1.
</event>
<event>
 7    1  0.4119305E-015  0.9000766E+02  0.7816164E-02  0.1186339E+00
        -11   -1    0    0    0    0  0.00000000000E+00  0.00000000000E+00  0.45593999997E+02  0.45594000000E+02  0.51100000000E-03 0. -1.
         11   -1    0    0    0    0 -0.00000000000E+00 -0.00000000000E+00 -0.45593999997E+02  0.45594000000E+02  0.51100000000E-03 0.  1.
    9900012    2    1    2    0    0  0.18937349077E+00 -0.48080742094E+00 -0.10612061997E+01  0.90007662466E+02  0.89999922811E+02 0.  0.
         12    1    1    2    0    0 -0.18937349077E+00  0.48080742094E+00  0.10612061997E+01  0.11803375336E+01  0.00000000000E+00 0. -1.
         11    1    3    3    0    0 -0.97072380201E+01 -0.11457841398E+02  0.39130599269E+02  0.41913200771E+02  0.51100000000E-03 0. -1.
        -11    1    3    3    0    0 -0.50558176594E+01  0.70074611345E+01 -0.58671892543E+01  0.10444602135E+02  0.51100000000E-03 0.  1.
        -12    1    3    3    0    0  0.14952429170E+02  0.39695728423E+01 -0.34324616214E+02  0.37649859560E+02  0.00000000000E+00 0.  1.
</event>
<event>
 7    1  0.4119305E-015  0.9000772E+02  0.7816164E-02  0.1186339E+00
        -11   -1    0    0    0    0  0.00000000000E+00  0.00000000000E+00  0.45593999997E+02  0.45594000000E+02  0.51100000000E-03 0.  1.
         11   -1    0    0    0    0 -0.00000000000E+00 -0.00000000000E+00 -0.45593999997E+02  0.45594000000E+02  0.51100000000E-03 0. -1.
    9900012    2    1    2    0    0  0.76957921584E+00  0.12050527688E+00 -0.88672686791E+00  0.90007721122E+02  0.89999982241E+02 0.  0.
         12    1    1    2    0    0 -0.76957921584E+00 -0.12050527688E+00  0.88672686791E+00  0.11802788778E+01  0.00000000000E+00 0. -1.
         11    1    3    3    0    0 -0.19220283323E+02 -0.29780234082E+02 -0.18750981632E+02  0.40098390809E+02  0.51100000000E-03 0. -1.
        -11    1    3    3    0    0 -0.59780866663E+01  0.17377148175E+01  0.83897282152E+01  0.10447234695E+02  0.51100000000E-03 0.  1.
        -12    1    3    3    0    0  0.25967949206E+02  0.28163024542E+02  0.94745265490E+01  0.39462095619E+02  0.00000000000E+00 0.  1.
</event>
<event>
 7    1  0.4119305E-015  0.9000774E+02  0.7816164E-02  0.1186339E+00
        -11   -1    0    0    0    0  0.00000000000E+00  0.00000000000E+00  0.45593999997E+02  0.45594000000E+02  0.51100000000E-03 0.  1.
         11   -1    0    0    0    0 -0.00000000000E+00 -0.00000000000E+00 -0.45593999997E+02  0.45594000000E+02  0.51100000000E-03 0. -1.
    9900012    2    1    2    0    0 -0.11281342177E+01 -0.88836363948E-02  0.34677499553E+00  0.90007737898E+02  0.89999999238E+02 0.  0.
         12    1    1    2    0    0  0.11281342177E+01  0.88836363948E-02 -0.34677499553E+00  0.11802621021E+01  0.00000000000E+00 0. -1.
         11    1    3    3    0    0 -0.64165016248E+01  0.79718189346E+01  0.20855208305E+01  0.10443696071E+02  0.51100000000E-03 0. -1.
        -11    1    3    3    0    0 -0.35409303476E+02  0.19873020522E+01  0.84171555854E+01  0.36450194108E+02  0.51100000000E-03 0.  1.
         12    1    3    3    0    0  0.40697670883E+02 -0.99680046233E+01 -0.10155901420E+02  0.43113847719E+02  0.00000000000E+00 0. -1.
</event>
<event>
 7    1  0.4119305E-015  0.9000772E+02  0.7816164E-02  0.1186339E+00
        -11   -1    0    0    0    0  0.00000000000E+00  0.00000000000E+00  0.45593999997E+02  0.45594000000E+02  0.51100000000E-03 0.  1.
         11   -1    0    0    0    0 -0.00000000000E+00 -0.00000000000E+00 -0.45593999997E+02  0.45594000000E+02  0.51100000000E-03 0. -1.
    9900012    2    1    2    0    0 -0.96233807473E+00 -0.89560515214E-02 -0.68328847045E+00  0.90007721255E+02  0.89999982376E+02 0.  0.
         12    1    1    2    0    0  0.96233807473E+00  0.89560515214E-02  0.68328847045E+00  0.11802787445E+01  0.00000000000E+00 0. -1.
         11    1    3    3    0    0  0.29333425980E+02 -0.11444101131E+02 -0.20357532135E+02  0.37494618885E+02  0.51100000000E-03 0. -1.
        -11    1    3    3    0    0 -0.70384546971E+00 -0.70227359660E+01 -0.59531608673E+01  0.92333278652E+01  0.51100000000E-03 0.  1.
        -12    1    3    3    0    0 -0.29591918585E+02  0.18457881045E+02  0.25627404531E+02  0.43279774506E+02  0.00000000000E+00 0.  1.
</event>
<event>
 7    1  0.4119305E-015  0.9000786E+02  0.7816164E-02  0.1186339E+00
        -11   -1    0    0    0    0  0.00000000000E+00  0.00000000000E+00  0.45593999997E+02  0.45594000000E+02  0.51100000000E-03 0.  1.
         11   -1    0    0    0    0 -0.00000000000E+00 -0.00000000000E+00 -0.45593999997E+02  0.45594000000E+02  0.51100000000E-03 0. -1.
    9900012    2    1    2    0    0 -0.53985076477E+00 -0.27545737528E+00 -0.10126308694E+01  0.90007857258E+02  0.90000120174E+02 0.  0.
         12    1    1    2    0    0  0.53985076477E+00  0.27545737528E+00  0.10126308694E+01  0.11801427419E+01  0.00000000000E+00 0. -1.
         11    1    3    3    0    0  0.26285747208E+02 -0.27751116301E+02 -0.33892653860E+01  0.38373846332E+02  0.51100000000E-03 0. -1.
        -11    1    3    3    0    0  0.13925975657E+01 -0.43976352031E+01  0.74506724516E+01  0.87630499030E+01  0.51100000000E-03 0.  1.
        -12    1    3    3    0    0 -0.28218195538E+02  0.31873294129E+02 -0.50740379350E+01  0.42870961023E+02  0.00000000000E+00 0.  1.
</event>
<event>
 7    1  0.4119305E-015  0.9000770E+02  0.7816164E-02  0.1186339E+00
        -11   -1    0    0    0    0  0.00000000000E+00  0.00000000000E+00  0.45593999997E+02  0.45594000000E+02  0.51100000000E-03 0.  1.
         11   -1    0    0    0    0 -0.00000000000E+00 -0.00000000000E+00 -0.45593999997E+02  0.45594000000E+02  0.51100000000E-03 0. -1.
    9900012    2    1    2    0    0 -0.22542806200E+00  0.35284728471E+00  0.11035362522E+01  0.90007698650E+02  0.89999959472E+02 0.  0.
         12    1    1    2    0    0  0.22542806200E+00 -0.35284728471E+00 -0.11035362522E+01  0.11803013502E+01  0.00000000000E+00 0. -1.
         11    1    3    3    0    0 -0.34340492858E+01 -0.93396316647E+01  0.29145730546E+01  0.10368999493E+02  0.51100000000E-03 0. -1.
        -11    1    3    3    0    0  0.27590262595E+00 -0.15460548016E+02  0.33086349799E+02  0.36521380183E+02  0.51100000000E-03 0.  1.
         12    1    3    3    0    0  0.29327185979E+01  0.25153026966E+02 -0.34897386601E+02  0.43117318974E+02  0.00000000000E+00 0. -1.
</event>
<event>
 7    1  0.4119305E-015  0.9000778E+02  0.7816164E-02  0.1186339E+00
        -11   -1    0    0    0    0  0.00000000000E+00  0.00000000000E+00  0.45593999997E+02  0.45594000000E+02  0.51100000000E-03 0. -1.
         11   -1    0    0    0    0 -0.00000000000E+00 -0.00000000000E+00 -0.45593999997E+02  0.45594000000E+02  0.51100000000E-03 0.  1.
    9900012    2    1    2    0    0 -0.11551175261E+01  0.27337450818E-02 -0.24210262253E+00  0.90007780676E+02  0.90000042581E+02 0.  0.
         12    1    1    2    0    0  0.11551175261E+01 -0.27337450818E-02  0.24210262253E+00  0.11802193238E+01  0.00000000000E+00 0. -1.
         11    1    3    3    0    0  0.18609377441E+02 -0.49896312406E+01  0.30310027148E+02  0.35915220933E+02  0.51100000000E-03 0. -1.
        -11    1    3    3    0    0  0.42477293380E+01 -0.76317157554E+01  0.44545987303E+01  0.98045775028E+01  0.51100000000E-03 0.  1.
        -12    1    3    3    0    0 -0.24012224305E+02  0.12624080741E+02 -0.35006728501E+02  0.44287982241E+02  0.00000000000E+00 0.  1.
</event>
<event>
 7    1  0.4119305E-015  0.9000778E+02  0.7816164E-02  0.1186339E+00
        -11   -1    0    0    0    0  0.00000000000E+00  0.00000000000E+00  0.45593999997E+02  0.45594000000E+02  0.51100000000E-03 0. -1.
         11   -1    0    0    0    0 -0.00000000000E+00 -0.00000000000E+00 -0.45593999997E+02  0.45594000000E+02  0.51100000000E-03 0.  1.
    9900012    2    1    2    0    0 -0.87020146132E+00 -0.74123796270E+00  0.29367099101E+00  0.90007776737E+02  0.90000038589E+02 0.  0.
         12    1    1    2    0    0  0.87020146132E+00  0.74123796270E+00 -0.29367099101E+00  0.11802232635E+01  0.00000000000E+00 0. -1.
         11    1    3    3    0    0 -0.65888467340E+01 -0.61591514973E+00 -0.96883411905E+00  0.66881157710E+01  0.51100000000E-03 0. -1.
        -11    1    3    3    0    0  0.61911145922E+00  0.41063091009E+02 -0.49101402863E+01  0.41360249275E+02  0.51100000000E-03 0.  1.
         12    1    3    3    0    0  0.50995338134E+01 -0.41188413822E+02  0.61726453963E+01  0.41959411691E+02  0.00000000000E+00 0. -1.
</event>
<event>
 7    1  0.4119305E-015  0.9000780E+02  0.7816164E-02  0.1186339E+00
        -11   -1    0    0    0    0  0.00000000000E+00  0.00000000000E+00  0.45593999997E+02  0.45594000000E+02  0.51100000000E-03 0.  1.
         11   -1    0    0    0    0 -0.00000000000E+00 -0.00000000000E+00 -0.45593999997E+02  0.45594000000E+02  0.51100000000E-03 0. -1.
    9900012    2    1    2    0    0 -0.11329871602E+01  0.31002442356E+00 -0.11440825298E+00  0.90007803280E+02  0.90000065484E+02 0.  0.
         12    1    1    2    0    0  0.11329871602E+01 -0.31002442356E+00  0.11440825298E+00  0.11801967195E+01  0.00000000000E+00 0. -1.
         11    1    3    3    0    0  0.81584447698E+01 -0.99634518425E+01  0.74496208135E+00  0.12899052773E+02  0.51100000000E-03 0. -1.
        -11    1    3    3    0    0 -0.22355609212E+02 -0.11804474990E+02 -0.29372408205E+02  0.38753803130E+02  0.51100000000E-03 0.  1.
         12    1    3    3    0    0  0.13064177282E+02  0.22077951256E+02  0.28513037870E+02  0.38354947377E+02  0.00000000000E+00 0. -1.
</event>
<event>
 7    1  0.4119305E-015  0.9000775E+02  0.7816164E-02  0.1186339E+00
        -11   -1    0    0    0    0  0.00000000000E+00  0.00000000000E+00  0.45593999997E+02  0.45594000000E+02  0.51100000000E-03 0.  1.
         11   -1    0    0    0    0 -0.00000000000E+00 -0.00000000000E+00 -0.45593999997E+02  0.45594000000E+02  0.51100000000E-03 0. -1.
    9900012    2    1    2    0    0  0.10669865530E+01 -0.38899728313E+00  0.32125249878E+00  0.90007753264E+02  0.90000014807E+02 0.  0.
         12    1    1    2    0    0 -0.10669865530E+01  0.38899728313E+00 -0.32125249878E+00  0.11802467363E+01  0.00000000000E+00 0. -1.
         11    1    3    3    0    0 -0.66208362730E+01 -0.53709115282E+00  0.93590546942E+01  0.11476752367E+02  0.51100000000E-03 0. -1.
        -11    1    3    3    0    0 -0.23757964185E+02 -0.21602952284E+02  0.12719587293E+02  0.34538620569E+02  0.51100000000E-03 0.  1.
         12    1    3    3    0    0  0.31445787011E+02  0.21751046154E+02 -0.21757389489E+02  0.43992380328E+02  0.00000000000E+00 0. -1.
</event>
<event>
 7    1  0.4119305E-015  0.9000772E+02  0.7816164E-02  0.1186339E+00
        -11   -1    0    0    0    0  0.00000000000E+00  0.00000000000E+00  0.45593999997E+02  0.45594000000E+02  0.51100000000E-03 0. -1.
         11   -1    0    0    0    0 -0.00000000000E+00 -0.00000000000E+00 -0.45593999997E+02  0.45594000000E+02  0.51100000000E-03 0.  1.
    9900012    2    1    2    0    0 -0.29070615553E+00 -0.11323802858E+01 -0.16209467521E+00  0.90007716193E+02  0.89999977247E+02 0.  0.
         12    1    1    2    0    0  0.29070615553E+00  0.11323802858E+01  0.16209467521E+00  0.11802838067E+01  0.00000000000E+00 0. -1.
         11    1    3    3    0    0 -0.26720988038E+01  0.52307221901E+01 -0.99125083594E+01  0.11522082663E+02  0.51100000000E-03 0. -1.
        -11    1    3    3    0    0 -0.13672179976E+02  0.33956265883E+01 -0.30759142722E+02  0.33831695886E+02  0.51100000000E-03 0.  1.
         12    1    3    3    0    0  0.16053572624E+02 -0.97587290642E+01  0.40509556407E+02  0.44653937645E+02  0.00000000000E+00 0. -1.
</event>
<event>
 7    1  0.4119305E-015  0.9000774E+02  0.7816164E-02  0.1186339E+00
        -11   -1    0    0    0    0  0.00000000000E+00  0.00000000000E+00  0.45593999997E+02  0.45594000000E+02  0.51100000000E-03 0. -1.
         11   -1    0    0    0    0 -0.00000000000E+00 -0.00000000000E+00 -0.45593999997E+02  0.45594000000E+02  0.51100000000E-03 0.  1.
    9900012    2    1    2    0    0  0.34122031972E+00  0.10880657307E+01  0.30447088486E+00  0.90007736953E+02  0.89999998281E+02 0.  0.
         12    1    1    2    0    0 -0.34122031972E+00 -0.10880657307E+01 -0.30447088486E+00  0.11802630472E+01  0.00000000000E+00 0. -1.
         11    1    3    3    0    0 -0.20380033462E+02 -0.17314741979E+02  0.31154890678E+02  0.41058169311E+02  0.51100000000E-03 0. -1.
        -11    1    3    3    0    0 -0.17023317899E+01 -0.50096655906E+01 -0.66299708345E+01  0.84824051058E+01  0.51100000000E-03 0.  1.
        -12    1    3    3    0    0  0.22423585572E+02  0.23412473300E+02 -0.24220448959E+02  0.40467162536E+02  0.00000000000E+00 0.  1.
</event>
<event>
 7    1  0.4119305E-015  0.9000750E+02  0.7816164E-02  0.1186340E+00
        -11   -1    0    0    0    0  0.00000000000E+00  0.00000000000E+00  0.45593999997E+02  0.45594000000E+02  0.51100000000E-03 0.  1.
         11   -1    0    0    0    0 -0.00000000000E+00 -0.00000000000E+00 -0.45593999997E+02  0.45594000000E+02  0.51100000000E-03 0. -1.
    9900012    2    1    2    0    0  0.23037866025E+00  0.77100121199E+00 -0.86374366206E+00  0.90007504210E+02  0.89999762465E+02 0.  0.
         12    1    1    2    0    0 -0.23037866025E+00 -0.77100121199E+00  0.86374366206E+00  0.11804957898E+01  0.00000000000E+00 0. -1.
         11    1    3    3    0    0  0.77684466023E+01  0.55350360472E+01  0.14124979693E+01  0.96426416210E+01  0.51100000000E-03 0. -1.
        -11    1    3    3    0    0 -0.19625327890E+02 -0.25731807090E+02 -0.29604661551E+02  0.43860179853E+02  0.51100000000E-03 0.  1.
         12    1    3    3    0    0  0.12087259948E+02  0.20967772255E+02  0.27328419919E+02  0.36504682736E+02  0.00000000000E+00 0. -1.
</event>
<event>
 7    1  0.4119305E-015  0.9000784E+02  0.7816164E-02  0.1186339E+00
        -11   -1    0    0    0    0  0.00000000000E+00  0.00000000000E+00  0.45593999997E+02  0.45594000000E+02  0.51100000000E-03 0. -1.
         11   -1    0    0    0    0 -0.00000000000E+00 -0.00000000000E+00 -0.45593999997E+02  0.45594000000E+02  0.51100000000E-03 0.  1.
    9900012    2    1    2    0    0 -0.68615425196E+00  0.19063941043E+00 -0.94107965353E+00  0.90007838165E+02  0.90000100829E+02 0.  0.
         12    1    1    2    0    0  0.68615425196E+00 -0.19063941043E+00  0.94107965353E+00  0.11801618349E+01  0.00000000000E+00 0. -1.
         11    1    3    3    0    0 -0.13669254176E+02 -0.29685935689E+02  0.20650593447E+02  0.38659414085E+02  0.51100000000E-03 0. -1.
        -11    1    3    3    0    0 -0.69417192037E+01 -0.33224725564E+01 -0.52834093050E+01  0.93349185072E+01  0.51100000000E-03 0.  1.
        -12    1    3    3    0    0  0.19924819128E+02  0.33199047655E+02 -0.16308263796E+02  0.42013505573E+02  0.00000000000E+00 0.  1.
</event>
<event>
 7    1  0.4119305E-015  0.9000794E+02  0.7816164E-02  0.1186339E+00
        -11   -1    0    0    0    0  0.00000000000E+00  0.00000000000E+00  0.45593999997E+02  0.45594000000E+02  0.51100000000E-03 0. -1.
         11   -1    0    0    0    0 -0.00000000000E+00 -0.00000000000E+00 -0.45593999997E+02  0.45594000000E+02  0.51100000000E-03 0.  1.
    9900012    2    1    2    0    0  0.88504253514E+00 -0.44463765410E+00  0.64152168341E+00  0.90007935170E+02  0.90000199114E+02 0.  0.
         12    1    1    2    0    0 -0.88504253514E+00  0.44463765410E+00 -0.64152168341E+00  0.11800648299E+01  0.00000000000E+00 0. -1.
         11    1    3    3    0    0 -0.19072706258E+02 -0.18993011569E+02  0.26382046685E+02  0.37689720084E+02  0.51100000000E-03 0. -1.
        -11    1    3    3    0    0 -0.87268081467E+01 -0.33717397613E+00  0.10023438461E+01  0.87906518625E+01  0.51100000000E-03 0.  1.
        -12    1    3    3    0    0  0.28684556940E+02  0.18885547891E+02 -0.26742868848E+02  0.43527563224E+02  0.00000000000E+00 0.  1.
</event>
<event>
 7    1  0.4119305E-015  0.9000768E+02  0.7816164E-02  0.1186339E+00
        -11   -1    0    0    0    0  0.00000000000E+00  0.00000000000E+00  0.45593999997E+02  0.45594000000E+02  0.51100000000E-03 0. -1.
         11   -1    0    0    0    0 -0.00000000000E+00 -0.00000000000E+00 -0.45593999997E+02  0.45594000000E+02  0.51100000000E-03 0.  1.
    9900012    2    1    2    0    0  0.27093630578E-01 -0.65338958483E+00  0.98259696507E+00  0.90007682750E+02  0.89999943362E+02 0.  0.
         12    1    1    2    0    0 -0.27093630578E-01  0.65338958483E+00 -0.98259696507E+00  0.11803172498E+01  0.00000000000E+00 0. -1.
         11    1    3    3    0    0  0.36542416622E+02 -0.44858320760E+01 -0.59365551587E+01  0.37292272516E+02  0.51100000000E-03 0. -1.
        -11    1    3    3    0    0  0.29437700942E+01 -0.71810477788E+01 -0.59445233655E+01  0.97760210655E+01  0.51100000000E-03 0.  1.
        -12    1    3    3    0    0 -0.39459093086E+02  0.11013490270E+02  0.12863675489E+02  0.42939389169E+02  0.00000000000E+00 0.  1.
</event>
<event>
 7    1  0.4119305E-015  0.9000778E+02  0.7816164E-02  0.1186339E+00
        -11   -1    0    0    0    0  0.00000000000E+00  0.00000000000E+00  0.45593999997E+02  0.45594000000E+02  0.51100000000E-03 0. -1.
         11   -1    0    0    0    0 -0.00000000000E+00 -0.00000000000E+00 -0.45593999997E+02  0.45594000000E+02  0.51100000000E-03 0.  1.
    9900012    2    1    2    0    0  0.99898329598E+00  0.60040504422E+00 -0.18567135826E+00  0.90007776421E+02  0.90000038270E+02 0.  0.
         12    1    1    2    0    0 -0.99898329598E+00 -0.60040504422E+00  0.18567135826E+00  0.11802235788E+01  0.00000000000E+00 0. -1.
         11    1    3    3    0    0  0.72114076230E+01  0.40084430165E+02 -0.95005464856E+01  0.41821362070E+02  0.51100000000E-03 0. -1.
        -11    1    3    3    0    0 -0.21596379743E+01  0.21921540803E+01 -0.32434481616E+01  0.44709654360E+01  0.51100000000E-03 0.  1.
        -12    1    3    3    0    0 -0.40527863526E+01 -0.41676179201E+02  0.12558323289E+02  0.43715448915E+02  0.00000000000E+00 0.  1.
</event>
<event>
 7    1  0.4247993E-015  0.9000776E+02  0.7816164E-02  0.1186339E+00
        -11   -1    0    0    0    0  0.00000000000E+00  0.00000000000E+00  0.45593999997E+02  0.45594000000E+02  0.51100000000E-03 0.  1.
         11   -1    0    0    0    0 -0.00000000000E+00 -0.00000000000E+00 -0.45593999997E+02  0.45594000000E+02  0.51100000000E-03 0. -1.
    9900012    2    1    2    0    0 -0.10092753872E+01  0.57075695960E+00 -0.22039510585E+00  0.90007756670E+02  0.90000018259E+02 0.  0.
         12    1    1    2    0    0  0.10092753872E+01 -0.57075695960E+00  0.22039510585E+00  0.11802433295E+01  0.00000000000E+00 0. -1.
         11    1    3    3    0    0 -0.91115082847E+01 -0.28360636904E+02 -0.20758212912E+02  0.36307694947E+02  0.51100000000E-03 0. -1.
        -11    1    3    3    0    0  0.11627991493E+01 -0.41778929741E+01 -0.82238262289E+01  0.92972151567E+01  0.51100000000E-03 0.  1.
        -12    1    3    3    0    0  0.69394337483E+01  0.33109286838E+02  0.28761644035E+02  0.44402846567E+02  0.00000000000E+00 0.  1.
</event>
<event>
 7    1  0.4119305E-015  0.9000780E+02  0.7816164E-02  0.1186339E+00
        -11   -1    0    0    0    0  0.00000000000E+00  0.00000000000E+00  0.45593999997E+02  0.45594000000E+02  0.51100000000E-03 0. -1.
         11   -1    0    0    0    0 -0.00000000000E+00 -0.00000000000E+00 -0.45593999997E+02  0.45594000000E+02  0.51100000000E-03 0.  1.
    9900012    2    1    2    0    0 -0.52958936668E+00 -0.96063697787E+00 -0.43542557407E+00  0.90007795047E+02  0.90000057142E+02 0.  0.
         12    1    1    2    0    0  0.52958936668E+00  0.96063697787E+00  0.43542557407E+00  0.11802049530E+01  0.00000000000E+00 0. -1.
         11    1    3    3    0    0  0.22406007863E+02 -0.18949848044E+02  0.26056959156E+02  0.39243993807E+02  0.51100000000E-03 0. -1.
        -11    1    3    3    0    0 -0.42982606564E+01 -0.78073854333E+01  0.65062692703E+00  0.89360856998E+01  0.51100000000E-03 0.  1.
        -12    1    3    3    0    0 -0.18637336573E+02  0.25796596499E+02 -0.27143011657E+02  0.41827715540E+02  0.00000000000E+00 0.  1.
</event>
<event>
 7    1  0.4119305E-015  0.9000762E+02  0.7816164E-02  0.1186339E+00
        -11   -1    0    0    0    0  0.00000000000E+00  0.00000000000E+00  0.45593999997E+02  0.45594000000E+02  0.51100000000E-03 0.  1.
         11   -1    0    0    0    0 -0.00000000000E+00 -0.00000000000E+00 -0.45593999997E+02  0.45594000000E+02  0.51100000000E-03 0. -1.
    9900012    2    1    2    0    0 -0.14664449828E+00  0.19551161149E+00  0.11548034126E+01  0.90007618570E+02  0.89999878335E+02 0.  0.
         12    1    1    2    0    0  0.14664449828E+00 -0.19551161149E+00 -0.11548034126E+01  0.11803814303E+01  0.00000000000E+00 0. -1.
         11    1    3    3    0    0  0.20330249800E+01 -0.85756639858E+01  0.72594427373E+01  0.11418174656E+02  0.51100000000E-03 0. -1.
        -11    1    3    3    0    0  0.28361185204E+02  0.26504877438E+02  0.95241426901E+01  0.39969671607E+02  0.51100000000E-03 0.  1.
         12    1    3    3    0    0 -0.30540854682E+02 -0.17733701840E+02 -0.15628782015E+02  0.38619772306E+02  0.00000000000E+00 0. -1.
</event>
<event>
 7    1  0.4119305E-015  0.9000800E+02  0.7816164E-02  0.1186339E+00
        -11   -1    0    0    0    0  0.00000000000E+00  0.00000000000E+00  0.45593999997E+02  0.45594000000E+02  0.51100000000E-03 0. -1.
         11   -1    0    0    0    0 -0.00000000000E+00 -0.00000000000E+00 -0.45593999997E+02  0.45594000000E+02  0.51100000000E-03 0.  1.
    9900012    2    1    2    0    0  0.59355431802E+00  0.25665581863E-01 -0.10195284903E+01  0.90007998393E+02  0.90000263171E+02 0.  0.
         12    1    1    2    0    0 -0.59355431802E+00 -0.25665581863E-01  0.10195284903E+01  0.11800016072E+01  0.00000000000E+00 0. -1.
         11    1    3    3    0    0 -0.21518726020E+02 -0.24520396223E+02  0.19398060148E+02  0.37955106879E+02  0.51100000000E-03 0. -1.
        -11    1    3    3    0    0  0.57472222408E+01 -0.16252978968E+01  0.80764577066E+01  0.10044965211E+02  0.51100000000E-03 0.  1.
        -12    1    3    3    0    0  0.16365058097E+02  0.26171359701E+02 -0.28494046345E+02  0.42007926303E+02  0.00000000000E+00 0.  1.
</event>
<event>
 7    1  0.4119305E-015  0.9000776E+02  0.7816164E-02  0.1186339E+00
        -11   -1    0    0    0    0  0.00000000000E+00  0.00000000000E+00  0.45593999997E+02  0.45594000000E+02  0.51100000000E-03 0.  1.
         11   -1    0    0    0    0 -0.00000000000E+00 -0.00000000000E+00 -0.45593999997E+02  0.45594000000E+02  0.51100000000E-03 0. -1.
    9900012    2    1    2    0    0  0.94254204958E+00 -0.34033303017E+00 -0.62350089491E+00  0.90007760426E+02  0.90000022063E+02 0.  0.
         12    1    1    2    0    0 -0.94254204958E+00  0.34033303017E+00  0.62350089491E+00  0.11802395742E+01  0.00000000000E+00 0. -1.
         11    1    3    3    0    0 -0.49642538128E+01  0.53616666392E+00  0.77767446502E+01  0.92417015871E+01  0.51100000000E-03 0. -1.
        -11    1    3    3    0    0 -0.17035932893E+02  0.97739754648E+01 -0.37425352850E+02  0.42265951334E+02  0.51100000000E-03 0.  1.
         12    1    3    3    0    0  0.22942728755E+02 -0.10650475159E+02  0.29025107305E+02  0.38500107505E+02  0.00000000000E+00 0. -1.
</event>
<event>
 7    1  0.4119305E-015  0.9000774E+02  0.7816164E-02  0.1186339E+00
        -11   -1    0    0    0    0  0.00000000000E+00  0.00000000000E+00  0.45593999997E+02  0.45594000000E+02  0.51100000000E-03 0.  1.
         11   -1    0    0    0    0 -0.00000000000E+00 -0.00000000000E+00 -0.45593999997E+02  0.45594000000E+02  0.51100000000E-03 0. -1.
    9900012    2    1    2    0    0 -0.82361555200E+00  0.78198193756E+00  0.32120482857E+00  0.90007741185E+02  0.90000002569E+02 0.  0.
         12    1    1    2    0    0  0.82361555200E+00 -0.78198193756E+00 -0.32120482857E+00  0.11802588149E+01  0.00000000000E+00 0. -1.
         11    1    3    3    0    0  0.28998381336E+02  0.21922947818E+02 -0.17397770212E+02  0.40301416473E+02  0.51100000000E-03 0. -1.
        -11    1    3    3    0    0 -0.61188359866E+01  0.70825690977E+01  0.16716041358E+01  0.95077441858E+01  0.51100000000E-03 0.  1.
        -12    1    3    3    0    0 -0.23703160901E+02 -0.28223534978E+02  0.16047370905E+02  0.40198580526E+02  0.00000000000E+00 0.  1.
</event>
<event>
 7    1  0.4119305E-015  0.9000772E+02  0.7816164E-02  0.1186339E+00
        -11   -1    0    0    0    0  0.00000000000E+00  0.00000000000E+00  0.45593999997E+02  0.45594000000E+02  0.51100000000E-03 0. -1.
         11   -1    0    0    0    0 -0.00000000000E+00 -0.00000000000E+00 -0.45593999997E+02  0.45594000000E+02  0.51100000000E-03 0.  1.
    9900012    2    1    2    0    0  0.15864845841E+00  0.77357553024E+00 -0.87719794240E+00  0.90007718396E+02  0.89999979479E+02 0.  0.
         12    1    1    2    0    0 -0.15864845841E+00 -0.77357553024E+00  0.87719794240E+00  0.11802816039E+01  0.00000000000E+00 0. -1.
         11    1    3    3    0    0  0.11931316366E+02  0.15703957498E+02  0.31998184714E+02  0.37587955739E+02  0.51100000000E-03 0. -1.
        -11    1    3    3    0    0 -0.37682147483E+00  0.75106336277E+01  0.34122668313E+01  0.82580371216E+01  0.51100000000E-03 0.  1.
        -12    1    3    3    0    0 -0.11395846433E+02 -0.22441015596E+02 -0.36287649488E+02  0.44161725536E+02  0.00000000000E+00 0.  1.
</event>
<event>
 7    1  0.4119305E-015  0.9000779E+02  0.7816164E-02  0.1186339E+00
        -11   -1    0    0    0    0  0.00000000000E+00  0.00000000000E+00  0.45593999997E+02  0.45594000000E+02  0.51100000000E-03 0. -1.
         11   -1    0    0    0    0 -0.00000000000E+00 -0.00000000000E+00 -0.45593999997E+02  0.45594000000E+02  0.51100000000E-03 0.  1.
    9900012    2    1    2    0    0  0.50313664882E+00 -0.10666335205E+01 -0.45060196556E-01  0.90007794943E+02  0.90000057037E+02 0.  0.
         12    1    1    2    0    0 -0.50313664882E+00  0.10666335205E+01  0.45060196556E-01  0.11802050567E+01  0.00000000000E+00 0. -1.
         11    1    3    3    0    0  0.32959224478E+01  0.23548809488E+01 -0.47716369262E+01  0.62591603496E+01  0.51100000000E-03 0. -1.
        -11    1    3    3    0    0  0.21093068724E+02  0.17304822009E+02 -0.27400972814E+02  0.38667657343E+02  0.51100000000E-03 0.  1.
         12    1    3    3    0    0 -0.23885854523E+02 -0.20726336479E+02  0.32127549544E+02  0.45080977250E+02  0.00000000000E+00 0. -1.
</event>
<event>
 7    1  0.4119305E-015  0.9000769E+02  0.7816164E-02  0.1186339E+00
        -11   -1    0    0    0    0  0.00000000000E+00  0.00000000000E+00  0.45593999997E+02  0.45594000000E+02  0.51100000000E-03 0. -1.
         11   -1    0    0    0    0 -0.00000000000E+00 -0.00000000000E+00 -0.45593999997E+02  0.45594000000E+02  0.51100000000E-03 0.  1.
    9900012    2    1    2    0    0 -0.10348308930E+01  0.12163888148E+00 -0.55449212745E+00  0.90007689654E+02  0.89999950357E+02 0.  0.
         12    1    1    2    0    0  0.10348308930E+01 -0.12163888148E+00  0.55449212745E+00  0.11803103464E+01  0.00000000000E+00 0. -1.
         11    1    3    3    0    0  0.87013934360E+01  0.11139483664E+01  0.42654632811E+00  0.87827712439E+01  0.51100000000E-03 0. -1.
        -11    1    3    3    0    0 -0.79058659228E+01 -0.24701102082E+02 -0.32602460424E+02  0.41660143855E+02  0.51100000000E-03 0.  1.
         12    1    3    3    0    0 -0.18303584062E+01  0.23708792597E+02  0.31621421968E+02  0.39564774555E+02  0.00000000000E+00 0. -1.
</event>
<event>
 7    1  0.4119305E-015  0.9000770E+02  0.7816164E-02  0.1186339E+00
        -11   -1    0    0    0    0  0.00000000000E+00  0.00000000000E+00  0.45593999997E+02  0.45594000000E+02  0.51100000000E-03 0. -1.
         11   -1    0    0    0    0 -0.00000000000E+00 -0.00000000000E+00 -0.45593999997E+02  0.45594000000E+02  0.51100000000E-03 0.  1.
    9900012    2    1    2    0    0  0.34602835100E+00 -0.56274909519E+00 -0.97809945507E+00  0.90007703127E+02  0.89999964009E+02 0.  0.
         12    1    1    2    0    0 -0.34602835100E+00  0.56274909519E+00  0.97809945507E+00  0.11802968728E+01  0.00000000000E+00 0. -1.
         11    1    3    3    0    0  0.25477402777E+02 -0.17855051969E+02 -0.23596079394E+02  0.39047098434E+02  0.51100000000E-03 0. -1.
        -11    1    3    3    0    0  0.30761434427E+01 -0.74604026799E+01  0.50903415721E+01  0.95410609582E+01  0.51100000000E-03 0.  1.
        -12    1    3    3    0    0 -0.28207517869E+02  0.24752705553E+02  0.17527638366E+02  0.41419543735E+02  0.00000000000E+00 0.  1.
</event>
<event>
 7    1  0.4119305E-015  0.9000776E+02  0.7816164E-02  0.1186339E+00
        -11   -1    0    0    0    0  0.00000000000E+00  0.00000000000E+00  0.45593999997E+02  0.45594000000E+02  0.51100000000E-03 0. -1.
         11   -1    0    0    0    0 -0.00000000000E+00 -0.00000000000E+00 -0.45593999997E+02  0.45594000000E+02  0.51100000000E-03 0.  1.
    9900012    2    1    2    0    0  0.13246068593E+00 -0.10464476699E+01 -0.52950213771E+00  0.90007758045E+02  0.90000019651E+02 0.  0.
         12    1    1    2    0    0 -0.13246068593E+00  0.10464476699E+01  0.52950213771E+00  0.11802419552E+01  0.00000000000E+00 0. -1.
         11    1    3    3    0    0  0.36288211016E+01 -0.54561383671E+01 -0.65419874294E+01  0.92593405951E+01  0.51100000000E-03 0. -1.
        -11    1    3    3    0    0 -0.60410982180E+01 -0.37713366849E+02  0.51496535385E+01  0.38539743624E+02  0.51100000000E-03 0.  1.
         12    1    3    3    0    0  0.25447378024E+01  0.42123057546E+02  0.86283175318E+00  0.42208673826E+02  0.00000000000E+00 0. -1.
</event>
<event>
 7    1  0.4119305E-015  0.9000781E+02  0.7816164E-02  0.1186339E+00
        -11   -1    0    0    0    0  0.00000000000E+00  0.00000000000E+00  0.45593999997E+02  0.45594000000E+02  0.51100000000E-03 0.  1.
         11   -1    0    0    0    0 -0.00000000000E+00 -0.00000000000E+00 -0.45593999997E+02  0.45594000000E+02  0.51100000000E-03 0. -1.
    9900012    2    1    2    0    0 -0.31928686343E+00  0.55197630841E+00  0.99309394081E+00  0.90007806151E+02  0.90000068392E+02 0.  0.
         12    1    1    2    0    0  0.31928686343E+00 -0.55197630841E+00 -0.99309394081E+00  0.11801938491E+01  0.00000000000E+00 0. -1.
         11    1    3    3    0    0  0.21948223453E+02 -0.33882652660E+01 -0.28805801932E+02  0.36372779375E+02  0.51100000000E-03 0. -1.
        -11    1    3    3    0    0 -0.19744830673E+00 -0.11292821502E+02 -0.25876408159E+01  0.11587177765E+02  0.51100000000E-03 0.  1.
        -12    1    3    3    0    0 -0.22070062010E+02  0.15233063076E+02  0.32386536688E+02  0.42047849011E+02  0.00000000000E+00 0.  1.
</event>
<event>
 7    1  0.4119305E-015  0.9000881E+02  0.7816164E-02  0.1186337E+00
        -11   -1    0    0    0    0  0.00000000000E+00  0.00000000000E+00  0.45593999997E+02  0.45594000000E+02  0.51100000000E-03 0. -1.
         11   -1    0    0    0    0 -0.00000000000E+00 -0.00000000000E+00 -0.45593999997E+02  0.45594000000E+02  0.51100000000E-03 0.  1.
    9900012    2    1    2    0    0  0.11015363295E+01 -0.24998671707E+00 -0.33853575915E+00  0.90008812948E+02  0.90001088472E+02 0.  0.
         12    1    1    2    0    0 -0.11015363295E+01  0.24998671707E+00  0.33853575915E+00  0.11791870522E+01  0.00000000000E+00 0. -1.
         11    1    3    3    0    0  0.21504073533E+02 -0.26841387160E+02 -0.17380558991E+02  0.38535296473E+02  0.51100000000E-03 0. -1.
        -11    1    3    3    0    0  0.23551469064E+01 -0.65154285448E+00 -0.77822241436E+01  0.81568522069E+01  0.51100000000E-03 0.  1.
        -12    1    3    3    0    0 -0.22757684110E+02  0.27242943297E+02  0.24824247375E+02  0.43316664268E+02  0.00000000000E+00 0.  1.
</event>
<event>
 7    1  0.4119305E-015  0.9000760E+02  0.7816164E-02  0.1186339E+00
        -11   -1    0    0    0    0  0.00000000000E+00  0.00000000000E+00  0.45593999997E+02  0.45594000000E+02  0.51100000000E-03 0.  1.
         11   -1    0    0    0    0 -0.00000000000E+00 -0.00000000000E+00 -0.45593999997E+02  0.45594000000E+02  0.51100000000E-03 0. -1.
    9900012    2    1    2    0    0 -0.28544041260E+00 -0.42506401935E-01  0.11445841577E+01  0.90007595020E+02  0.89999854474E+02 0.  0.
         12    1    1    2    0    0  0.28544041260E+00  0.42506401935E-01 -0.11445841577E+01  0.11804049802E+01  0.00000000000E+00 0. -1.
         11    1    3    3    0    0 -0.17005933852E+02 -0.10295872256E+02 -0.23775501286E+02  0.30991631666E+02  0.51100000000E-03 0. -1.
        -11    1    3    3    0    0 -0.38767032709E+01  0.94609965404E+00 -0.13699264513E+02  0.14268629271E+02  0.51100000000E-03 0.  1.
        -12    1    3    3    0    0  0.20597196710E+02  0.93072661996E+01  0.38619349957E+02  0.44747334083E+02  0.00000000000E+00 0.  1.
</event>
<event>
 7    1  0.4119305E-015  0.9000781E+02  0.7816164E-02  0.1186339E+00
        -11   -1    0    0    0    0  0.00000000000E+00  0.00000000000E+00  0.45593999997E+02  0.45594000000E+02  0.51100000000E-03 0. -1.
         11   -1    0    0    0    0 -0.00000000000E+00 -0.00000000000E+00 -0.45593999997E+02  0.45594000000E+02  0.51100000000E-03 0.  1.
    9900012    2    1    2    0    0 -0.36930511411E+00 -0.65601063262E+00 -0.90891076686E+00  0.90007807219E+02  0.90000069475E+02 0.  0.
         12    1    1    2    0    0  0.36930511411E+00  0.65601063262E+00  0.90891076686E+00  0.11801927807E+01  0.00000000000E+00 0. -1.
         11    1    3    3    0    0  0.27218997210E+02 -0.16822250824E+02 -0.28145483553E+01  0.32121388740E+02  0.51100000000E-03 0. -1.
        -11    1    3    3    0    0  0.25440013723E+01  0.20468240021E+02 -0.12598936055E+02  0.24169277658E+02  0.51100000000E-03 0.  1.
        -12    1    3    3    0    0 -0.30132303696E+02 -0.43019998294E+01  0.14504573643E+02  0.33717140821E+02  0.00000000000E+00 0.  1.
</event>
<event>
 7    1  0.4119305E-015  0.9000773E+02  0.7816164E-02  0.1186339E+00
        -11   -1    0    0    0    0  0.00000000000E+00  0.00000000000E+00  0.45593999997E+02  0.45594000000E+02  0.51100000000E-03 0. -1.
         11   -1    0    0    0    0 -0.00000000000E+00 -0.00000000000E+00 -0.45593999997E+02  0.45594000000E+02  0.51100000000E-03 0.  1.
    9900012    2    1    2    0    0 -0.11270576501E+01 -0.18707359568E+00  0.29626546786E+00  0.90007733630E+02  0.89999994914E+02 0.  0.
         12    1    1    2    0    0  0.11270576501E+01  0.18707359568E+00 -0.29626546786E+00  0.11802663700E+01  0.00000000000E+00 0. -1.
         11    1    3    3    0    0  0.21880025105E+02 -0.12302782859E+02  0.21050574297E+02  0.32760046446E+02  0.51100000000E-03 0. -1.
        -11    1    3    3    0    0  0.65272742678E+01  0.23843168391E+01  0.10866480500E+02  0.12898475680E+02  0.51100000000E-03 0.  1.
        -12    1    3    3    0    0 -0.29534357022E+02  0.97313924246E+01 -0.31620789329E+02  0.44349211504E+02  0.00000000000E+00 0.  1.
</event>
<event>
 7    1  0.4119305E-015  0.9000770E+02  0.7816164E-02  0.1186339E+00
        -11   -1    0    0    0    0  0.00000000000E+00  0.00000000000E+00  0.45593999997E+02  0.45594000000E+02  0.51100000000E-03 0.  1.
         11   -1    0    0    0    0 -0.00000000000E+00 -0.00000000000E+00 -0.45593999997E+02  0.45594000000E+02  0.51100000000E-03 0. -1.
    9900012    2    1    2    0    0  0.12650671185E+00  0.90325823270E+00 -0.74915182859E+00  0.90007700104E+02  0.89999960945E+02 0.  0.
         12    1    1    2    0    0 -0.12650671185E+00 -0.90325823270E+00  0.74915182859E+00  0.11802998964E+01  0.00000000000E+00 0. -1.
         11    1    3    3    0    0 -0.46238263658E+01 -0.57059024554E+01 -0.30770295614E+01  0.79627384910E+01  0.51100000000E-03 0. -1.
        -11    1    3    3    0    0 -0.35548614137E+02 -0.97093443474E+01 -0.71707205453E+01  0.37541904162E+02  0.51100000000E-03 0.  1.
         12    1    3    3    0    0  0.40298947215E+02  0.16318505036E+02  0.94985982781E+01  0.44503057451E+02  0.00000000000E+00 0. -1.
</event>
<event>
 7    1  0.4119305E-015  0.9000772E+02  0.7816164E-02  0.1186339E+00
        -11   -1    0    0    0    0  0.00000000000E+00  0.00000000000E+00  0.45593999997E+02  0.45594000000E+02  0.51100000000E-03 0. -1.
         11   -1    0    0    0    0 -0.00000000000E+00 -0.00000000000E+00 -0.45593999997E+02  0.45594000000E+02  0.51100000000E-03 0.  1.
    9900012    2    1    2    0    0  0.75309435975E+00 -0.87705413303E+00  0.23807999838E+00  0.90007721578E+02  0.89999982703E+02 0.  0.
         12    1    1    2    0    0 -0.75309435975E+00  0.87705413303E+00 -0.23807999838E+00  0.11802784216E+01  0.00000000000E+00 0. -1.
         11    1    3    3    0    0  0.39568083808E+01 -0.27227525128E+02 -0.32607610633E+02  0.42664396499E+02  0.51100000000E-03 0. -1.
        -11    1    3    3    0    0 -0.14460346612E+01  0.10344532103E+02 -0.34727179946E+00  0.10450883151E+02  0.51100000000E-03 0.  1.
        -12    1    3    3    0    0 -0.17576793598E+01  0.16005938892E+02  0.33192962430E+02  0.36892441928E+02  0.00000000000E+00 0.  1.
</event>
<event>
 7    1  0.4119305E-015  0.9000794E+02  0.7816164E-02  0.1186339E+00
        -11   -1    0    0    0    0  0.00000000000E+00  0.00000000000E+00  0.45593999997E+02  0.45594000000E+02  0.51100000000E-03 0. -1.
         11   -1    0    0    0    0 -0.00000000000E+00 -0.00000000000E+00 -0.45593999997E+02  0.45594000000E+02  0.51100000000E-03 0.  1.
    9900012    2    1    2    0    0 -0.44345556527E+00 -0.66858641779E+00 -0.86537855089E+00  0.90007940394E+02  0.90000204407E+02 0.  0.
         12    1    1    2    0    0  0.44345556527E+00  0.66858641779E+00  0.86537855089E+00  0.11800596056E+01  0.00000000000E+00 0. -1.
         11    1    3    3    0    0  0.27768921081E+01 -0.35745634038E+02 -0.42517906203E+01  0.36104559356E+02  0.51100000000E-03 0. -1.
        -11    1    3    3    0    0 -0.92240956901E+01 -0.64690447887E+01 -0.24276439291E+01  0.11525013540E+02  0.51100000000E-03 0.  1.
        -12    1    3    3    0    0  0.60037480168E+01  0.41546092409E+02  0.58140559985E+01  0.42378367499E+02  0.00000000000E+00 0.  1.
</event>
<event>
 7    1  0.4119305E-015  0.9000810E+02  0.7816164E-02  0.1186338E+00
        -11   -1    0    0    0    0  0.00000000000E+00  0.00000000000E+00  0.45593999997E+02  0.45594000000E+02  0.51100000000E-03 0.  1.
         11   -1    0    0    0    0 -0.00000000000E+00 -0.00000000000E+00 -0.45593999997E+02  0.45594000000E+02  0.51100000000E-03 0. -1.
    9900012    2    1    2    0    0 -0.46931537640E-01 -0.33290381647E+00  0.11309938854E+01  0.90008095475E+02  0.90000361534E+02 0.  0.
         12    1    1    2    0    0  0.46931537640E-01  0.33290381647E+00 -0.11309938854E+01  0.11799045254E+01  0.00000000000E+00 0. -1.
         11    1    3    3    0    0 -0.73180812378E+01  0.30901690959E+01 -0.39963855879E+01  0.88923875350E+01  0.51100000000E-03 0. -1.
        -11    1    3    3    0    0 -0.21451280948E+02 -0.32603803252E+02  0.87959892450E+01  0.40006685290E+02  0.51100000000E-03 0.  1.
         12    1    3    3    0    0  0.28722430648E+02  0.29180730340E+02 -0.36686097718E+01  0.41109022649E+02  0.00000000000E+00 0. -1.
</event>
<event>
 7    1  0.4119305E-015  0.9000730E+02  0.7816164E-02  0.1186340E+00
        -11   -1    0    0    0    0  0.00000000000E+00  0.00000000000E+00  0.45593999997E+02  0.45594000000E+02  0.51100000000E-03 0.  1.
         11   -1    0    0    0    0 -0.00000000000E+00 -0.00000000000E+00 -0.45593999997E+02  0.45594000000E+02  0.51100000000E-03 0. -1.
    9900012    2    1    2    0    0  0.98550891831E+00 -0.49054517620E+00  0.42682869418E+00  0.90007303116E+02  0.89999558716E+02 0.  0.
         12    1    1    2    0    0 -0.98550891831E+00  0.49054517620E+00 -0.42682869418E+00  0.11806968841E+01  0.00000000000E+00 0. -1.
         11    1    3    3    0    0 -0.30209010662E+00  0.46425745330E+01  0.11521479794E+02  0.12425347224E+02  0.51100000000E-03 0. -1.
        -11    1    3    3    0    0 -0.15925390883E+02  0.23557287946E+02  0.17653718547E+02  0.33469652956E+02  0.51100000000E-03 0.  1.
         12    1    3    3    0    0  0.17212989908E+02 -0.28690407655E+02 -0.28748369647E+02  0.44112302937E+02  0.00000000000E+00 0. -1.
</event>
<event>
 7    1  0.4119305E-015  0.9000781E+02  0.7816164E-02  0.1186339E+00
        -11   -1    0    0    0    0  0.00000000000E+00  0.00000000000E+00  0.45593999997E+02  0.45594000000E+02  0.51100000000E-03 0. -1.
         11   -1    0    0    0    0 -0.00000000000E+00 -0.00000000000E+00 -0.45593999997E+02  0.45594000000E+02  0.51100000000E-03 0.  1.
    9900012    2    1    2    0    0  0.35979510504E+00 -0.39621163063E-01 -0.11233133081E+01  0.90007807159E+02  0.90000069413E+02 0.  0.
         12    1    1    2    0    0 -0.35979510504E+00  0.39621163063E-01  0.11233133081E+01  0.11801928412E+01  0.00000000000E+00 0. -1.
         11    1    3    3    0    0  0.25944779702E+01  0.21817805603E+02 -0.58415379282E+01  0.22734808618E+02  0.51100000000E-03 0. -1.
        -11    1    3    3    0    0 -0.17512507588E+00  0.16773544273E+02 -0.16177643116E+02  0.23304475822E+02  0.51100000000E-03 0.  1.
         12    1    3    3    0    0 -0.20595577892E+01 -0.38630971039E+02  0.20895867736E+02  0.43968522719E+02  0.00000000000E+00 0. -1.
</event>
<event>
 7    1  0.4119305E-015  0.9000767E+02  0.7816164E-02  0.1186339E+00
        -11   -1    0    0    0    0  0.00000000000E+00  0.00000000000E+00  0.45593999997E+02  0.45594000000E+02  0.51100000000E-03 0.  1.
         11   -1    0    0    0    0 -0.00000000000E+00 -0.00000000000E+00 -0.45593999997E+02  0.45594000000E+02  0.51100000000E-03 0. -1.
    9900012    2    1    2    0    0 -0.14147022098E+00 -0.22946147263E+00  0.11491358496E+01  0.90007669711E+02  0.89999930151E+02 0.  0.
         12    1    1    2    0    0  0.14147022098E+00  0.22946147263E+00 -0.11491358496E+01  0.11803302893E+01  0.00000000000E+00 0. -1.
         11    1    3    3    0    0 -0.45547159275E+01  0.71577194740E+01 -0.36591296322E+01  0.92394596798E+01  0.51100000000E-03 0. -1.
        -11    1    3    3    0    0  0.32182426762E+02  0.14648460611E+02  0.21713102261E+02  0.41493912814E+02  0.51100000000E-03 0.  1.
         12    1    3    3    0    0 -0.27769181055E+02 -0.22035641558E+02 -0.16904836779E+02  0.39274297217E+02  0.00000000000E+00 0. -1.
</event>
<event>
 7    1  0.4119305E-015  0.9000780E+02  0.7816164E-02  0.1186339E+00
        -11   -1    0    0    0    0  0.00000000000E+00  0.00000000000E+00  0.45593999997E+02  0.45594000000E+02  0.51100000000E-03 0. -1.
         11   -1    0    0    0    0 -0.00000000000E+00 -0.00000000000E+00 -0.45593999997E+02  0.45594000000E+02  0.51100000000E-03 0.  1.
    9900012    2    1    2    0    0  0.21335147420E+00  0.81529937444E+00 -0.82621983081E+00  0.90007800385E+02  0.90000062550E+02 0.  0.
         12    1    1    2    0    0 -0.21335147420E+00 -0.81529937444E+00  0.82621983081E+00  0.11801996146E+01  0.00000000000E+00 0. -1.
         11    1    3    3    0    0 -0.13618665032E+01  0.94623982723E+01 -0.69286218192E+01  0.11806670234E+02  0.51100000000E-03 0. -1.
        -11    1    3    3    0    0  0.26232051908E+02 -0.13979745099E+01 -0.26079470887E+02  0.37016397475E+02  0.51100000000E-03 0.  1.
         12    1    3    3    0    0 -0.24656833931E+02 -0.72491243879E+01  0.32181872875E+02  0.41184732676E+02  0.00000000000E+00 0. -1.
</event>
<event>
 7    1  0.4119305E-015  0.9000774E+02  0.7816164E-02  0.1186339E+00
        -11   -1    0    0    0    0  0.00000000000E+00  0.00000000000E+00  0.45593999997E+02  0.45594000000E+02  0.51100000000E-03 0.  1.
         11   -1    0    0    0    0 -0.00000000000E+00 -0.00000000000E+00 -0.45593999997E+02  0.45594000000E+02  0.51100000000E-03 0. -1.
    9900012    2    1    2    0    0 -0.10405592444E+01  0.25928143493E+00 -0.49298298234E+00  0.90007736206E+02  0.89999997523E+02 0.  0.
         12    1    1    2    0    0  0.10405592444E+01 -0.25928143493E+00  0.49298298234E+00  0.11802637944E+01  0.00000000000E+00 0. -1.
         11    1    3    3    0    0  0.63457667496E+01 -0.21156837602E+00  0.72519619397E+01  0.96386964396E+01  0.51100000000E-03 0. -1.
        -11    1    3    3    0    0 -0.39759581584E+02 -0.79450291158E+01  0.11018918902E+02  0.42016239592E+02  0.51100000000E-03 0.  1.
         12    1    3    3    0    0  0.32373255590E+02  0.84158789267E+01 -0.18763863824E+02  0.38352800174E+02  0.00000000000E+00 0. -1.
</event>
<event>
 7    1  0.4119305E-015  0.9000765E+02  0.7816164E-02  0.1186339E+00
        -11   -1    0    0    0    0  0.00000000000E+00  0.00000000000E+00  0.45593999997E+02  0.45594000000E+02  0.51100000000E-03 0.  1.
         11   -1    0    0    0    0 -0.00000000000E+00 -0.00000000000E+00 -0.45593999997E+02  0.45594000000E+02  0.51100000000E-03 0. -1.
    9900012    2    1    2    0    0 -0.10770310309E+01  0.29868400232E+00  0.37948253841E+00  0.90007654723E+02  0.89999914966E+02 0.  0.
         12    1    1    2    0    0  0.10770310309E+01 -0.29868400232E+00 -0.37948253841E+00  0.11803452765E+01  0.00000000000E+00 0. -1.
         11    1    3    3    0    0 -0.32292854667E+02  0.24616793504E+02  0.56440289687E+01  0.40995976001E+02  0.51100000000E-03 0. -1.
        -11    1    3    3    0    0 -0.87707541371E+00 -0.43419288660E+01  0.78380782192E+01  0.90031704411E+01  0.51100000000E-03 0.  1.
        -12    1    3    3    0    0  0.32092899050E+02 -0.19976180636E+02 -0.13102624650E+02  0.40008508282E+02  0.00000000000E+00 0.  1.
</event>
<event>
 7    1  0.4119305E-015  0.9000802E+02  0.7816164E-02  0.1186338E+00
        -11   -1    0    0    0    0  0.00000000000E+00  0.00000000000E+00  0.45593999997E+02  0.45594000000E+02  0.51100000000E-03 0.  1.
         11   -1    0    0    0    0 -0.00000000000E+00 -0.00000000000E+00 -0.45593999997E+02  0.45594000000E+02  0.51100000000E-03 0. -1.
    9900012    2    1    2    0    0 -0.19096713500E+00 -0.25767514768E+00  0.11355540340E+01  0.90008022080E+02  0.90000287171E+02 0.  0.
         12    1    1    2    0    0  0.19096713500E+00  0.25767514768E+00 -0.11355540340E+01  0.11799779204E+01  0.00000000000E+00 0. -1.
         11    1    3    3    0    0 -0.23056017337E+02  0.23206980401E+02 -0.26823296024E+02  0.42304055179E+02  0.51100000000E-03 0. -1.
        -11    1    3    3    0    0 -0.33450205385E+01 -0.67359801976E+01  0.62937815674E+01  0.98068485409E+01  0.51100000000E-03 0.  1.
        -12    1    3    3    0    0  0.26210070741E+02 -0.16728675351E+02  0.21665068491E+02  0.37897118359E+02  0.00000000000E+00 0.  1.
</event>
<event>
 7    1  0.4119305E-015  0.9000769E+02  0.7816164E-02  0.1186339E+00
        -11   -1    0    0    0    0  0.00000000000E+00  0.00000000000E+00  0.45593999997E+02  0.45594000000E+02  0.51100000000E-03 0. -1.
         11   -1    0    0    0    0 -0.00000000000E+00 -0.00000000000E+00 -0.45593999997E+02  0.45594000000E+02  0.51100000000E-03 0.  1.
    9900012    2    1    2    0    0  0.40586858485E+00  0.10022147109E+01 -0.47326237290E+00  0.90007686097E+02  0.89999946754E+02 0.  0.
         12    1    1    2    0    0 -0.40586858485E+00 -0.10022147109E+01  0.47326237290E+00  0.11803139026E+01  0.00000000000E+00 0. -1.
         11    1    3    3    0    0  0.91844099161E+00 -0.88939607520E+01 -0.15715856017E+02  0.18081321918E+02  0.51100000000E-03 0. -1.
        -11    1    3    3    0    0  0.29581751675E+02 -0.11975564232E+02  0.52477155015E+00  0.31918169689E+02  0.51100000000E-03 0.  1.
         12    1    3    3    0    0 -0.30094324082E+02  0.21871739695E+02  0.14717822094E+02  0.40008194491E+02  0.00000000000E+00 0. -1.
</event>
<event>
 7    1  0.4119305E-015  0.9000773E+02  0.7816164E-02  0.1186339E+00
        -11   -1    0    0    0    0  0.00000000000E+00  0.00000000000E+00  0.45593999997E+02  0.45594000000E+02  0.51100000000E-03 0.  1.
         11   -1    0    0    0    0 -0.00000000000E+00 -0.00000000000E+00 -0.45593999997E+02  0.45594000000E+02  0.51100000000E-03 0. -1.
    9900012    2    1    2    0    0  0.17435999906E-01 -0.53809834468E-01  0.11789125496E+01  0.90007731254E+02  0.89999992507E+02 0.  0.
         12    1    1    2    0    0 -0.17435999906E-01  0.53809834468E-01 -0.11789125496E+01  0.11802687456E+01  0.00000000000E+00 0. -1.
         11    1    3    3    0    0  0.18279838732E+02  0.27325412722E+02  0.13878354575E+02  0.35685282827E+02  0.51100000000E-03 0. -1.
        -11    1    3    3    0    0  0.66643809644E+01 -0.23531521804E+01  0.10066184469E+02  0.12299567831E+02  0.51100000000E-03 0.  1.
        -12    1    3    3    0    0 -0.24926783697E+02 -0.25026070376E+02 -0.22765626494E+02  0.42022880596E+02  0.00000000000E+00 0.  1.
</event>
<event>
 7    1  0.4119305E-015  0.9000766E+02  0.7816164E-02  0.1186339E+00
        -11   -1    0    0    0    0  0.00000000000E+00  0.00000000000E+00  0.45593999997E+02  0.45594000000E+02  0.51100000000E-03 0.  1.
         11   -1    0    0    0    0 -0.00000000000E+00 -0.00000000000E+00 -0.45593999997E+02  0.45594000000E+02  0.51100000000E-03 0. -1.
    9900012    2    1    2    0    0 -0.46029384612E+00 -0.10817180290E+01 -0.10596366902E+00  0.90007655720E+02  0.89999915976E+02 0.  0.
         12    1    1    2    0    0  0.46029384612E+00  0.10817180290E+01  0.10596366902E+00  0.11803442795E+01  0.00000000000E+00 0. -1.
         11    1    3    3    0    0 -0.34716566991E+01  0.69289591874E+01 -0.35523375863E+02  0.36358948123E+02  0.51100000000E-03 0. -1.
        -11    1    3    3    0    0  0.54264652815E+01  0.18446950030E+01 -0.75615226082E+01  0.94882058115E+01  0.51100000000E-03 0.  1.
        -12    1    3    3    0    0 -0.24151024286E+01 -0.98553722195E+01  0.42978934802E+02  0.44160501786E+02  0.00000000000E+00 0.  1.
</event>
<event>
 7    1  0.4119305E-015  0.9000775E+02  0.7816164E-02  0.1186339E+00
        -11   -1    0    0    0    0  0.00000000000E+00  0.00000000000E+00  0.45593999997E+02  0.45594000000E+02  0.51100000000E-03 0.  1.
         11   -1    0    0    0    0 -0.00000000000E+00 -0.00000000000E+00 -0.45593999997E+02  0.45594000000E+02  0.51100000000E-03 0. -1.
    9900012    2    1    2    0    0  0.94912423748E+00  0.58042319571E+00  0.39404054309E+00  0.90007747547E+02  0.90000009014E+02 0.  0.
         12    1    1    2    0    0 -0.94912423748E+00 -0.58042319571E+00 -0.39404054309E+00  0.11802524535E+01  0.00000000000E+00 0. -1.
         11    1    3    3    0    0 -0.15152061089E+01 -0.24756538321E+01  0.10127847299E+02  0.10535558961E+02  0.51100000000E-03 0. -1.
        -11    1    3    3    0    0  0.33998619675E+02 -0.25976976620E+00  0.16986496061E+02  0.38006771355E+02  0.51100000000E-03 0.  1.
         12    1    3    3    0    0 -0.31534289329E+02  0.33158467940E+01 -0.26720302817E+02  0.41465417230E+02  0.00000000000E+00 0. -1.
</event>
<event>
 7    1  0.4119305E-015  0.9000775E+02  0.7816164E-02  0.1186339E+00
        -11   -1    0    0    0    0  0.00000000000E+00  0.00000000000E+00  0.45593999997E+02  0.45594000000E+02  0.51100000000E-03 0. -1.
         11   -1    0    0    0    0 -0.00000000000E+00 -0.00000000000E+00 -0.45593999997E+02  0.45594000000E+02  0.51100000000E-03 0.  1.
    9900012    2    1    2    0    0 -0.11572970957E+01  0.19864288244E+00 -0.11916741228E+00  0.90007747301E+02  0.90000008765E+02 0.  0.
         12    1    1    2    0    0  0.11572970957E+01 -0.19864288244E+00  0.11916741228E+00  0.11802526995E+01  0.00000000000E+00 0. -1.
         11    1    3    3    0    0  0.23132990454E+01  0.35281673404E+01  0.80017216777E+01  0.90458204340E+01  0.51100000000E-03 0. -1.
        -11    1    3    3    0    0 -0.23485768712E+02 -0.27467828246E+02  0.17793542042E+02  0.40282416253E+02  0.51100000000E-03 0.  1.
         12    1    3    3    0    0  0.20015172571E+02  0.24138303788E+02 -0.25914431132E+02  0.40679510613E+02  0.00000000000E+00 0. -1.
</event>
<event>
 7    1  0.4197789E-015  0.9000774E+02  0.7816164E-02  0.1186339E+00
        -11   -1    0    0    0    0  0.00000000000E+00  0.00000000000E+00  0.45593999997E+02  0.45594000000E+02  0.51100000000E-03 0.  1.
         11   -1    0    0    0    0 -0.00000000000E+00 -0.00000000000E+00 -0.45593999997E+02  0.45594000000E+02  0.51100000000E-03 0. -1.
    9900012    2    1    2    0    0 -0.36295859587E+00  0.94748489982E+00  0.60294435880E+00  0.90007742199E+02  0.90000003596E+02 0.  0.
         12    1    1    2    0    0  0.36295859587E+00 -0.94748489982E+00 -0.60294435880E+00  0.11802578013E+01  0.00000000000E+00 0. -1.
         11    1    3    3    0    0  0.19189540473E+02  0.33805567750E+02 -0.82050877338E+01  0.39728809943E+02  0.51100000000E-03 0. -1.
        -11    1    3    3    0    0  0.83488340922E+01 -0.38401421732E+01  0.25740675767E+01  0.95433509188E+01  0.51100000000E-03 0.  1.
        -12    1    3    3    0    0 -0.27901333161E+02 -0.29017940677E+02  0.62339645159E+01  0.40735581337E+02  0.00000000000E+00 0.  1.
</event>
<event>
 7    1  0.4119305E-015  0.9000747E+02  0.7816164E-02  0.1186340E+00
        -11   -1    0    0    0    0  0.00000000000E+00  0.00000000000E+00  0.45593999997E+02  0.45594000000E+02  0.51100000000E-03 0. -1.
         11   -1    0    0    0    0 -0.00000000000E+00 -0.00000000000E+00 -0.45593999997E+02  0.45594000000E+02  0.51100000000E-03 0.  1.
    9900012    2    1    2    0    0 -0.71284666403E+00 -0.93007027788E+00  0.14306226027E+00  0.90007471348E+02  0.89999729169E+02 0.  0.
         12    1    1    2    0    0  0.71284666403E+00  0.93007027788E+00 -0.14306226027E+00  0.11805286521E+01  0.00000000000E+00 0. -1.
         11    1    3    3    0    0  0.29072127708E+02  0.80316145740E+01  0.22891188740E+02  0.37864257081E+02  0.51100000000E-03 0. -1.
        -11    1    3    3    0    0 -0.26989157938E+01  0.55510932057E+01  0.70284049479E+01  0.93539969325E+01  0.51100000000E-03 0.  1.
        -12    1    3    3    0    0 -0.27086058578E+02 -0.14512778058E+02 -0.29776531427E+02  0.42789217334E+02  0.00000000000E+00 0.  1.
</event>
<event>
 7    1  0.4119305E-015  0.9000773E+02  0.7816164E-02  0.1186339E+00
        -11   -1    0    0    0    0  0.00000000000E+00  0.00000000000E+00  0.45593999997E+02  0.45594000000E+02  0.51100000000E-03 0. -1.
         11   -1    0    0    0    0 -0.00000000000E+00 -0.00000000000E+00 -0.45593999997E+02  0.45594000000E+02  0.51100000000E-03 0.  1.
    9900012    2    1    2    0    0 -0.94192957077E+00 -0.47022197783E+00 -0.53356108825E+00  0.90007734157E+02  0.89999995448E+02 0.  0.
         12    1    1    2    0    0  0.94192957077E+00  0.47022197783E+00  0.53356108825E+00  0.11802658428E+01  0.00000000000E+00 0. -1.
         11    1    3    3    0    0  0.85404734304E+01  0.18480391776E+01  0.68142864788E+01  0.11081039468E+02  0.51100000000E-03 0. -1.
        -11    1    3    3    0    0 -0.14559890654E+02  0.36461390697E+02 -0.65798408584E+01  0.39808513328E+02  0.51100000000E-03 0.  1.
         12    1    3    3    0    0  0.50774876529E+01 -0.38779651853E+02 -0.76800670865E+00  0.39118181361E+02  0.00000000000E+00 0. -1.
</event>
<event>
 7    1  0.4119305E-015  0.9000771E+02  0.7816164E-02  0.1186339E+00
        -11   -1    0    0    0    0  0.00000000000E+00  0.00000000000E+00  0.45593999997E+02  0.45594000000E+02  0.51100000000E-03 0. -1.
         11   -1    0    0    0    0 -0.00000000000E+00 -0.00000000000E+00 -0.45593999997E+02  0.45594000000E+02  0.51100000000E-03 0.  1.
    9900012    2    1    2    0    0 -0.91117631349E+00 -0.24445392447E+00  0.70927802480E+00  0.90007713886E+02  0.89999974909E+02 0.  0.
         12    1    1    2    0    0  0.91117631349E+00  0.24445392447E+00 -0.70927802480E+00  0.11802861144E+01  0.00000000000E+00 0. -1.
         11    1    3    3    0    0  0.13525004400E+02 -0.31242004526E+02  0.16087313455E+02  0.37653555547E+02  0.51100000000E-03 0. -1.
        -11    1    3    3    0    0  0.10348269258E+02  0.94343777207E+01  0.35410194002E+01  0.14444133005E+02  0.51100000000E-03 0.  1.
        -12    1    3    3    0    0 -0.24784449972E+02  0.21563172881E+02 -0.18919054830E+02  0.37910025334E+02  0.00000000000E+00 0.  1.
</event>
<event>
 7    1  0.4119305E-015  0.9000785E+02  0.7816164E-02  0.1186339E+00
        -11   -1    0    0    0    0  0.00000000000E+00  0.00000000000E+00  0.45593999997E+02  0.45594000000E+02  0.51100000000E-03 0.  1.
         11   -1    0    0    0    0 -0.00000000000E+00 -0.00000000000E+00 -0.45593999997E+02  0.45594000000E+02  0.51100000000E-03 0. -1.
    9900012    2    1    2    0    0 -0.67435789300E+00 -0.94208198852E+00 -0.22469412257E+00  0.90007845565E+02  0.90000108327E+02 0.  0.
         12    1    1    2    0    0  0.67435789300E+00  0.94208198852E+00  0.22469412257E+00  0.11801544347E+01  0.00000000000E+00 0. -1.
         11    1    3    3    0    0 -0.35062303975E+02  0.16709861572E+02 -0.56719817578E+01  0.39252465032E+02  0.51100000000E-03 0. -1.
        -11    1    3    3    0    0 -0.45806937712E+01 -0.86000573865E+01 -0.22864451643E+01  0.10008575035E+02  0.51100000000E-03 0.  1.
        -12    1    3    3    0    0  0.38968639853E+02 -0.90518861743E+01  0.77337327995E+01  0.40746805498E+02  0.00000000000E+00 0.  1.
</event>
<event>
 7    1  0.4119305E-015  0.9000781E+02  0.7816164E-02  0.1186339E+00
        -11   -1    0    0    0    0  0.00000000000E+00  0.00000000000E+00  0.45593999997E+02  0.45594000000E+02  0.51100000000E-03 0. -1.
         11   -1    0    0    0    0 -0.00000000000E+00 -0.00000000000E+00 -0.45593999997E+02  0.45594000000E+02  0.51100000000E-03 0.  1.
    9900012    2    1    2    0    0  0.67441474495E+00  0.89781079309E+00  0.36325229624E+00  0.90007808618E+02  0.90000070891E+02 0.  0.
         12    1    1    2    0    0 -0.67441474495E+00 -0.89781079309E+00 -0.36325229624E+00  0.11801913824E+01  0.00000000000E+00 0. -1.
         11    1    3    3    0    0 -0.31560907326E+02  0.84340932614E+01  0.99940299741E+01  0.34162924871E+02  0.51100000000E-03 0. -1.
        -11    1    3    3    0    0 -0.11044837194E+02 -0.28574626559E+01 -0.88533301809E+00  0.11442785337E+02  0.51100000000E-03 0.  1.
        -12    1    3    3    0    0  0.43280159265E+02 -0.46788198124E+01 -0.87454446598E+01  0.44402098409E+02  0.00000000000E+00 0.  1.
</event>
<event>
 7    1  0.4119305E-015  0.9000794E+02  0.7816164E-02  0.1186339E+00
        -11   -1    0    0    0    0  0.00000000000E+00  0.00000000000E+00  0.45593999997E+02  0.45594000000E+02  0.51100000000E-03 0.  1.
         11   -1    0    0    0    0 -0.00000000000E+00 -0.00000000000E+00 -0.45593999997E+02  0.45594000000E+02  0.51100000000E-03 0. -1.
    9900012    2    1    2    0    0  0.73032066092E+00 -0.63050400883E+00  0.67943161610E+00  0.90007944538E+02  0.90000208605E+02 0.  0.
         12    1    1    2    0    0 -0.73032066092E+00  0.63050400883E+00 -0.67943161610E+00  0.11800554622E+01  0.00000000000E+00 0. -1.
         11    1    3    3    0    0 -0.62265399825E+01  0.73693268799E+00  0.56443445005E+01  0.84363199940E+01  0.51100000000E-03 0. -1.
        -11    1    3    3    0    0  0.13112784528E+02  0.38685537575E+02 -0.39162751593E+01  0.41034779723E+02  0.51100000000E-03 0.  1.
         12    1    3    3    0    0 -0.61559238849E+01 -0.40052974272E+02 -0.10486377251E+01  0.40536844820E+02  0.00000000000E+00 0. -1.
</event>
<event>
 7    1  0.4119305E-015  0.9000773E+02  0.7816164E-02  0.1186339E+00
        -11   -1    0    0    0    0  0.00000000000E+00  0.00000000000E+00  0.45593999997E+02  0.45594000000E+02  0.51100000000E-03 0.  1.
         11   -1    0    0    0    0 -0.00000000000E+00 -0.00000000000E+00 -0.45593999997E+02  0.45594000000E+02  0.51100000000E-03 0. -1.
    9900012    2    1    2    0    0 -0.54566770085E+00 -0.10414872873E+01  0.10288104298E+00  0.90007731591E+02  0.89999992848E+02 0.  0.
         12    1    1    2    0    0  0.54566770085E+00  0.10414872873E+01 -0.10288104298E+00  0.11802684095E+01  0.00000000000E+00 0. -1.
         11    1    3    3    0    0 -0.67832494073E+01  0.36488699209E+02 -0.11361194244E+02  0.38813842601E+02  0.51100000000E-03 0. -1.
        -11    1    3    3    0    0  0.65517447869E+01  0.39978074701E+01  0.50115245212E+01  0.91664171085E+01  0.51100000000E-03 0.  1.
        -12    1    3    3    0    0 -0.31416308045E+00 -0.41527993967E+02  0.64525507659E+01  0.42027471881E+02  0.00000000000E+00 0.  1.
</event>
<event>
 7    1  0.4119305E-015  0.9000769E+02  0.7816164E-02  0.1186339E+00
        -11   -1    0    0    0    0  0.00000000000E+00  0.00000000000E+00  0.45593999997E+02  0.45594000000E+02  0.51100000000E-03 0. -1.
         11   -1    0    0    0    0 -0.00000000000E+00 -0.00000000000E+00 -0.45593999997E+02  0.45594000000E+02  0.51100000000E-03 0.  1.
    9900012    2    1    2    0    0 -0.10889505361E+01  0.35063627621E+00  0.29046821189E+00  0.90007690358E+02  0.89999951071E+02 0.  0.
         12    1    1    2    0    0  0.10889505361E+01 -0.35063627621E+00 -0.29046821189E+00  0.11803096417E+01  0.00000000000E+00 0. -1.
         11    1    3    3    0    0  0.17112186111E+02 -0.28300562450E+02  0.24668859535E+02  0.41258955143E+02  0.51100000000E-03 0. -1.
        -11    1    3    3    0    0 -0.59386190797E+01  0.49746596008E+01  0.48859409002E+01  0.91589766600E+01  0.51100000000E-03 0.  1.
        -12    1    3    3    0    0 -0.12262517567E+02  0.23676539125E+02 -0.29264332223E+02  0.39589758556E+02  0.00000000000E+00 0.  1.
</event>
<event>
 7    1  0.4119305E-015  0.9000803E+02  0.7816164E-02  0.1186338E+00
        -11   -1    0    0    0    0  0.00000000000E+00  0.00000000000E+00  0.45593999997E+02  0.45594000000E+02  0.51100000000E-03 0.  1.
         11   -1    0    0    0    0 -0.00000000000E+00 -0.00000000000E+00 -0.45593999997E+02  0.45594000000E+02  0.51100000000E-03 0. -1.
    9900012    2    1    2    0    0  0.76187289374E-01  0.25317737876E+00  0.11499706320E+01  0.90008027228E+02  0.90000292387E+02 0.  0.
         12    1    1    2    0    0 -0.76187289374E-01 -0.25317737876E+00 -0.11499706320E+01  0.11799727719E+01  0.00000000000E+00 0. -1.
         11    1    3    3    0    0 -0.20530509001E+02  0.72164046504E+01 -0.33304533221E+02  0.39784044908E+02  0.51100000000E-03 0. -1.
        -11    1    3    3    0    0  0.23175876785E+01  0.10189885568E+02  0.51312420134E+01  0.11641933920E+02  0.51100000000E-03 0.  1.
        -12    1    3    3    0    0  0.18289108612E+02 -0.17153112839E+02  0.29323261839E+02  0.38582048401E+02  0.00000000000E+00 0.  1.
</event>
<event>
 7    1  0.4119305E-015  0.9000771E+02  0.7816164E-02  0.1186339E+00
        -11   -1    0    0    0    0  0.00000000000E+00  0.00000000000E+00  0.45593999997E+02  0.45594000000E+02  0.51100000000E-03 0.  1.
         11   -1    0    0    0    0 -0.00000000000E+00 -0.00000000000E+00 -0.45593999997E+02  0.45594000000E+02  0.51100000000E-03 0. -1.
    9900012    2    1    2    0    0 -0.41678610495E+00 -0.39284008558E-01  0.11035512836E+01  0.90007712185E+02  0.89999973186E+02 0.  0.
         12    1    1    2    0    0  0.41678610495E+00  0.39284008558E-01 -0.11035512836E+01  0.11802878150E+01  0.00000000000E+00 0. -1.
         11    1    3    3    0    0  0.71018047444E+00 -0.33519086834E+01  0.89452342964E+01  0.95789803740E+01  0.51100000000E-03 0. -1.
        -11    1    3    3    0    0  0.31552630491E+02 -0.88532976875E+01  0.17661267059E+02  0.37227271257E+02  0.51100000000E-03 0.  1.
         12    1    3    3    0    0 -0.32679597071E+02  0.12165922362E+02 -0.25502950071E+02  0.43201460554E+02  0.00000000000E+00 0. -1.
</event>
<event>
 7    1  0.4119305E-015  0.9000773E+02  0.7816164E-02  0.1186339E+00
        -11   -1    0    0    0    0  0.00000000000E+00  0.00000000000E+00  0.45593999997E+02  0.45594000000E+02  0.51100000000E-03 0. -1.
         11   -1    0    0    0    0 -0.00000000000E+00 -0.00000000000E+00 -0.45593999997E+02  0.45594000000E+02  0.51100000000E-03 0.  1.
    9900012    2    1    2    0    0 -0.28799425882E+00 -0.86470566592E+00 -0.74991356994E+00  0.90007734376E+02  0.89999995669E+02 0.  0.
         12    1    1    2    0    0  0.28799425882E+00  0.86470566592E+00  0.74991356994E+00  0.11802656244E+01  0.00000000000E+00 0. -1.
         11    1    3    3    0    0 -0.10814497779E+02 -0.24315239875E+02  0.21369358348E+02  0.34129660544E+02  0.51100000000E-03 0. -1.
        -11    1    3    3    0    0  0.46809966086E+00 -0.11336888380E+02  0.30843032072E+01  0.11758277168E+02  0.51100000000E-03 0.  1.
        -12    1    3    3    0    0  0.10058403859E+02  0.34787422589E+02 -0.25203575125E+02  0.44119796664E+02  0.00000000000E+00 0.  1.
</event>
<event>
 7    1  0.4119305E-015  0.9000777E+02  0.7816164E-02  0.1186339E+00
        -11   -1    0    0    0    0  0.00000000000E+00  0.00000000000E+00  0.45593999997E+02  0.45594000000E+02  0.51100000000E-03 0. -1.
         11   -1    0    0    0    0 -0.00000000000E+00 -0.00000000000E+00 -0.45593999997E+02  0.45594000000E+02  0.51100000000E-03 0.  1.
    9900012    2    1    2    0    0  0.47930557198E+00 -0.10160052551E+01 -0.36186703833E+00  0.90007767708E+02  0.90000029442E+02 0.  0.
         12    1    1    2    0    0 -0.47930557198E+00  0.10160052551E+01  0.36186703833E+00  0.11802322920E+01  0.00000000000E+00 0. -1.
         11    1    3    3    0    0 -0.35628205569E+01 -0.85631303864E+01 -0.10655500885E+01  0.93357532951E+01  0.51100000000E-03 0. -1.
        -11    1    3    3    0    0  0.90782457100E+01 -0.88419453508E+01 -0.37077024151E+02  0.39182907790E+02  0.51100000000E-03 0.  1.
         12    1    3    3    0    0 -0.50361195811E+01  0.16389070482E+02  0.37780707201E+02  0.41489106622E+02  0.00000000000E+00 0. -1.
</event>
<event>
 7    1  0.4119305E-015  0.9000780E+02  0.7816164E-02  0.1186339E+00
        -11   -1    0    0    0    0  0.00000000000E+00  0.00000000000E+00  0.45593999997E+02  0.45594000000E+02  0.51100000000E-03 0. -1.
         11   -1    0    0    0    0 -0.00000000000E+00 -0.00000000000E+00 -0.45593999997E+02  0.45594000000E+02  0.51100000000E-03 0.  1.
    9900012    2    1    2    0    0  0.71744592807E+00  0.13800889449E+00 -0.92687369154E+00  0.90007800883E+02  0.90000063055E+02 0.  0.
         12    1    1    2    0    0 -0.71744592807E+00 -0.13800889449E+00  0.92687369154E+00  0.11801991166E+01  0.00000000000E+00 0. -1.
         11    1    3    3    0    0  0.85860364255E+01 -0.22833231148E+01  0.19814921198E+01  0.91027411931E+01  0.51100000000E-03 0. -1.
        -11    1    3    3    0    0  0.29175797302E+02 -0.21842441510E+02  0.90903331933E+00  0.36457451106E+02  0.51100000000E-03 0.  1.
         12    1    3    3    0    0 -0.37044387799E+02  0.24263773519E+02 -0.38173991307E+01  0.44447608585E+02  0.00000000000E+00 0. -1.
</event>
<event>
 7    1  0.4119305E-015  0.9000772E+02  0.7816164E-02  0.1186339E+00
        -11   -1    0    0    0    0  0.00000000000E+00  0.00000000000E+00  0.45593999997E+02  0.45594000000E+02  0.51100000000E-03 0. -1.
         11   -1    0    0    0    0 -0.00000000000E+00 -0.00000000000E+00 -0.45593999997E+02  0.45594000000E+02  0.51100000000E-03 0.  1.
    9900012    2    1    2    0    0  0.11520442479E+01  0.12162427556E+00 -0.22597617009E+00  0.90007718829E+02  0.89999979917E+02 0.  0.
         12    1    1    2    0    0 -0.11520442479E+01 -0.12162427556E+00  0.22597617009E+00  0.11802811711E+01  0.00000000000E+00 0. -1.
         11    1    3    3    0    0 -0.75464425506E+01 -0.10195799072E+01 -0.36889288908E+01  0.84614735702E+01  0.51100000000E-03 0. -1.
        -11    1    3    3    0    0  0.42068217915E+02 -0.24252342802E+01 -0.13092422600E+02  0.44125143055E+02  0.51100000000E-03 0.  1.
         12    1    3    3    0    0 -0.33369731116E+02  0.35664384629E+01  0.16555375321E+02  0.37421102203E+02  0.00000000000E+00 0. -1.
</event>
<event>
 7    1  0.4119305E-015  0.9000768E+02  0.7816164E-02  0.1186339E+00
        -11   -1    0    0    0    0  0.00000000000E+00  0.00000000000E+00  0.45593999997E+02  0.45594000000E+02  0.51100000000E-03 0.  1.
         11   -1    0    0    0    0 -0.00000000000E+00 -0.00000000000E+00 -0.45593999997E+02  0.45594000000E+02  0.51100000000E-03 0. -1.
    9900012    2    1    2    0    0 -0.79351330909E+00  0.80024786375E+00 -0.35084972921E+00  0.90007679896E+02  0.89999940471E+02 0.  0.
         12    1    1    2    0    0  0.79351330909E+00 -0.80024786375E+00  0.35084972921E+00  0.11803201039E+01  0.00000000000E+00 0. -1.
         11    1    3    3    0    0  0.93099596367E+01  0.10611902743E+02  0.79150293648E+01  0.16184422089E+02  0.51100000000E-03 0. -1.
        -11    1    3    3    0    0  0.12799774108E+01  0.25325884276E+02  0.15670876080E+02  0.29809648001E+02  0.51100000000E-03 0.  1.
         12    1    3    3    0    0 -0.11383450357E+02 -0.35137539155E+02 -0.23936755174E+02  0.44013609806E+02  0.00000000000E+00 0. -1.
</event>
<event>
 7    1  0.4119305E-015  0.9000791E+02  0.7816164E-02  0.1186339E+00
        -11   -1    0    0    0    0  0.00000000000E+00  0.00000000000E+00  0.45593999997E+02  0.45594000000E+02  0.51100000000E-03 0.  1.
         11   -1    0    0    0    0 -0.00000000000E+00 -0.00000000000E+00 -0.45593999997E+02  0.45594000000E+02  0.51100000000E-03 0. -1.
    9900012    2    1    2    0    0 -0.11017063595E+01 -0.39425053584E+00 -0.15303483890E+00  0.90007910999E+02  0.90000174624E+02 0.  0.
         12    1    1    2    0    0  0.11017063595E+01  0.39425053584E+00  0.15303483890E+00  0.11800890007E+01  0.00000000000E+00 0. -1.
         11    1    3    3    0    0 -0.14362819551E+02 -0.24085585038E+02 -0.28682943612E+02  0.40113803692E+02  0.51100000000E-03 0. -1.
        -11    1    3    3    0    0  0.52992138471E+01 -0.72490046539E+01  0.65745627721E+01  0.11128998687E+02  0.51100000000E-03 0.  1.
        -12    1    3    3    0    0  0.79618993448E+01  0.30940339157E+02  0.21955346001E+02  0.38765108620E+02  0.00000000000E+00 0.  1.
</event>
<event>
 7    1  0.4119305E-015  0.9000767E+02  0.7816164E-02  0.1186339E+00
        -11   -1    0    0    0    0  0.00000000000E+00  0.00000000000E+00  0.45593999997E+02  0.45594000000E+02  0.51100000000E-03 0.  1.
         11   -1    0    0    0    0 -0.00000000000E+00 -0.00000000000E+00 -0.45593999997E+02  0.45594000000E+02  0.51100000000E-03 0. -1.
    9900012    2    1    2    0    0  0.63554352943E+00  0.35772894878E+00  0.92806348947E+00  0.90007666395E+02  0.89999926791E+02 0.  0.
         12    1    1    2    0    0 -0.63554352943E+00 -0.35772894878E+00 -0.92806348947E+00  0.11803336050E+01  0.00000000000E+00 0. -1.
         11    1    3    3    0    0 -0.13188446718E+00  0.12027160196E+02 -0.38924987564E+02  0.40740945411E+02  0.51100000000E-03 0. -1.
        -11    1    3    3    0    0 -0.77406651882E+01 -0.35381800935E+01  0.88098867138E+00  0.85564453618E+01  0.51100000000E-03 0.  1.
        -12    1    3    3    0    0  0.85080931848E+01 -0.81312511534E+01  0.38972062382E+02  0.40710275622E+02  0.00000000000E+00 0.  1.
</event>
<event>
 7    1  0.4119305E-015  0.9000769E+02  0.7816164E-02  0.1186339E+00
        -11   -1    0    0    0    0  0.00000000000E+00  0.00000000000E+00  0.45593999997E+02  0.45594000000E+02  0.51100000000E-03 0.  1.
         11   -1    0    0    0    0 -0.00000000000E+00 -0.00000000000E+00 -0.45593999997E+02  0.45594000000E+02  0.51100000000E-03 0. -1.
    9900012    2    1    2    0    0 -0.47190562270E+00 -0.10687420989E+01  0.16799129003E+00  0.90007692555E+02  0.89999953297E+02 0.  0.
         12    1    1    2    0    0  0.47190562270E+00  0.10687420989E+01 -0.16799129003E+00  0.11803074448E+01  0.00000000000E+00 0. -1.
         11    1    3    3    0    0  0.22258641351E+00  0.25036176882E+01 -0.81042518283E+01  0.84850777367E+01  0.51100000000E-03 0. -1.
        -11    1    3    3    0    0  0.33039701117E+01  0.36631073912E+02 -0.85468625366E+01  0.37759775608E+02  0.51100000000E-03 0.  1.
         12    1    3    3    0    0 -0.39984621479E+01 -0.40203433699E+02  0.16819105655E+02  0.43762839211E+02  0.00000000000E+00 0. -1.
</event>
<event>
 7    1  0.4119305E-015  0.9000778E+02  0.7816164E-02  0.1186339E+00
        -11   -1    0    0    0    0  0.00000000000E+00  0.00000000000E+00  0.45593999997E+02  0.45594000000E+02  0.51100000000E-03 0.  1.
         11   -1    0    0    0    0 -0.00000000000E+00 -0.00000000000E+00 -0.45593999997E+02  0.45594000000E+02  0.51100000000E-03 0. -1.
    9900012    2    1    2    0    0 -0.25699982336E+00 -0.10736785264E+01 -0.41722214204E+00  0.90007784425E+02  0.90000046380E+02 0.  0.
         12    1    1    2    0    0  0.25699982336E+00  0.10736785264E+01  0.41722214204E+00  0.11802155748E+01  0.00000000000E+00 0. -1.
         11    1    3    3    0    0 -0.63557096541E+01  0.70410730190E+01 -0.13765311293E+01  0.95847061863E+01  0.51100000000E-03 0. -1.
        -11    1    3    3    0    0  0.27827454096E+02  0.25199393277E+02  0.11522764589E+02  0.39270226979E+02  0.51100000000E-03 0.  1.
         12    1    3    3    0    0 -0.21728744265E+02 -0.33314144822E+02 -0.10563455601E+02  0.41152851260E+02  0.00000000000E+00 0. -1.
</event>
<event>
 7    1  0.4119305E-015  0.9000773E+02  0.7816164E-02  0.1186339E+00
        -11   -1    0    0    0    0  0.00000000000E+00  0.00000000000E+00  0.45593999997E+02  0.45594000000E+02  0.51100000000E-03 0.  1.
         11   -1    0    0    0    0 -0.00000000000E+00 -0.00000000000E+00 -0.45593999997E+02  0.45594000000E+02  0.51100000000E-03 0. -1.
    9900012    2    1    2    0    0 -0.21121606837E+00 -0.11600287245E+01  0.52476075624E-01  0.90007731976E+02  0.89999993238E+02 0.  0.
         12    1    1    2    0    0  0.21121606837E+00  0.11600287245E+01 -0.52476075624E-01  0.11802680236E+01  0.00000000000E+00 0. -1.
         11    1    3    3    0    0  0.14993330175E+02  0.35942099500E+02  0.12115451008E+01  0.38962832392E+02  0.51100000000E-03 0. -1.
        -11    1    3    3    0    0  0.87140814189E+01 -0.38592439135E+01  0.27121667267E+01  0.99088257213E+01  0.51100000000E-03 0.  1.
        -12    1    3    3    0    0 -0.23918627663E+02 -0.33242884311E+02 -0.38712357519E+01  0.41136073863E+02  0.00000000000E+00 0.  1.
</event>
<event>
 7    1  0.4119305E-015  0.9000777E+02  0.7816164E-02  0.1186339E+00
        -11   -1    0    0    0    0  0.00000000000E+00  0.00000000000E+00  0.45593999997E+02  0.45594000000E+02  0.51100000000E-03 0.  1.
         11   -1    0    0    0    0 -0.00000000000E+00 -0.00000000000E+00 -0.45593999997E+02  0.45594000000E+02  0.51100000000E-03 0. -1.
    9900012    2    1    2    0    0 -0.41210858064E+00  0.55221407385E+00  0.95820982818E+00  0.90007771234E+02  0.90000033014E+02 0.  0.
         12    1    1    2    0    0  0.41210858064E+00 -0.55221407385E+00 -0.95820982818E+00  0.11802287661E+01  0.00000000000E+00 0. -1.
         11    1    3    3    0    0 -0.13058559398E+02  0.21414451729E+01  0.10943008214E+02  0.17171522647E+02  0.51100000000E-03 0. -1.
        -11    1    3    3    0    0  0.33881565654E+02 -0.40069607123E+01  0.17238809686E+02  0.38225551467E+02  0.51100000000E-03 0.  1.
         12    1    3    3    0    0 -0.21235114837E+02  0.24177296133E+01 -0.27223608073E+02  0.34610697120E+02  0.00000000000E+00 0. -1.
</event>
<event>
 7    1  0.4119305E-015  0.9000776E+02  0.7816164E-02  0.1186339E+00
        -11   -1    0    0    0    0  0.00000000000E+00  0.00000000000E+00  0.45593999997E+02  0.45594000000E+02  0.51100000000E-03 0. -1.
         11   -1    0    0    0    0 -0.00000000000E+00 -0.00000000000E+00 -0.45593999997E+02  0.45594000000E+02  0.51100000000E-03 0.  1.
    9900012    2    1    2    0    0 -0.43162812457E+00  0.85870423458E+00 -0.68505180436E+00  0.90007757747E+02  0.90000019350E+02 0.  0.
         12    1    1    2    0    0  0.43162812457E+00 -0.85870423458E+00  0.68505180436E+00  0.11802422527E+01  0.00000000000E+00 0. -1.
         11    1    3    3    0    0 -0.52853309272E+00  0.33670625429E+02  0.17157800237E+02  0.37793921115E+02  0.51100000000E-03 0. -1.
        -11    1    3    3    0    0 -0.42366141266E+01  0.73514748214E+01 -0.48816670746E+01  0.97889608742E+01  0.51100000000E-03 0.  1.
        -12    1    3    3    0    0  0.43335190948E+01 -0.40163396016E+02 -0.12961184967E+02  0.42424875758E+02  0.00000000000E+00 0.  1.
</event>
<event>
 7    1  0.4119305E-015  0.9000766E+02  0.7816164E-02  0.1186339E+00
        -11   -1    0    0    0    0  0.00000000000E+00  0.00000000000E+00  0.45593999997E+02  0.45594000000E+02  0.51100000000E-03 0.  1.
         11   -1    0    0    0    0 -0.00000000000E+00 -0.00000000000E+00 -0.45593999997E+02  0.45594000000E+02  0.51100000000E-03 0. -1.
    9900012    2    1    2    0    0  0.11175632177E+01 -0.34897621447E+00  0.14991673481E+00  0.90007658113E+02  0.89999918400E+02 0.  0.
         12    1    1    2    0    0 -0.11175632177E+01  0.34897621447E+00 -0.14991673481E+00  0.11803418874E+01  0.00000000000E+00 0. -1.
         11    1    3    3    0    0 -0.41058955645E+01 -0.94434773646E+01  0.21387488679E+01  0.10517218744E+02  0.51100000000E-03 0. -1.
        -11    1    3    3    0    0 -0.20353997772E+02  0.14385605237E+02  0.29473436551E+02  0.38599408360E+02  0.51100000000E-03 0.  1.
         12    1    3    3    0    0  0.25577456554E+02 -0.52911040867E+01 -0.31462268684E+02  0.40891031009E+02  0.00000000000E+00 0. -1.
</event>
<event>
 7    1  0.4119305E-015  0.9000773E+02  0.7816164E-02  0.1186339E+00
        -11   -1    0    0    0    0  0.00000000000E+00  0.00000000000E+00  0.45593999997E+02  0.45594000000E+02  0.51100000000E-03 0. -1.
         11   -1    0    0    0    0 -0.00000000000E+00 -0.00000000000E+00 -0.45593999997E+02  0.45594000000E+02  0.51100000000E-03 0.  1.
    9900012    2    1    2    0    0 -0.78641222142E+00 -0.94666099534E-01 -0.87500272932E+00  0.90007730697E+02  0.89999991942E+02 0.  0.
         12    1    1    2    0    0  0.78641222142E+00  0.94666099534E-01  0.87500272932E+00  0.11802693035E+01  0.00000000000E+00 0. -1.
         11    1    3    3    0    0 -0.11517835863E+02  0.34231523971E+01  0.27832852306E+02  0.30315774492E+02  0.51100000000E-03 0. -1.
        -11    1    3    3    0    0  0.98925355991E+00 -0.42416240960E+01  0.14631104383E+02  0.15265621943E+02  0.51100000000E-03 0.  1.
        -12    1    3    3    0    0  0.97421700818E+01  0.72380559937E+00 -0.43338959418E+02  0.44426334261E+02  0.00000000000E+00 0.  1.
</event>
<event>
 7    1  0.4119305E-015  0.9000777E+02  0.7816164E-02  0.1186339E+00
        -11   -1    0    0    0    0  0.00000000000E+00  0.00000000000E+00  0.45593999997E+02  0.45594000000E+02  0.51100000000E-03 0.  1.
         11   -1    0    0    0    0 -0.00000000000E+00 -0.00000000000E+00 -0.45593999997E+02  0.45594000000E+02  0.51100000000E-03 0. -1.
    9900012    2    1    2    0    0 -0.79109701287E+00 -0.85236359045E+00 -0.20142753829E+00  0.90007774925E+02  0.90000036754E+02 0.  0.
         12    1    1    2    0    0  0.79109701287E+00  0.85236359045E+00  0.20142753829E+00  0.11802250748E+01  0.00000000000E+00 0. -1.
         11    1    3    3    0    0 -0.88916749561E+00 -0.82323651519E+01 -0.62319703502E+01  0.10363392762E+02  0.51100000000E-03 0. -1.
        -11    1    3    3    0    0 -0.16363327384E+02 -0.14753173190E+02  0.33901379198E+02  0.40431647431E+02  0.51100000000E-03 0.  1.
         12    1    3    3    0    0  0.16461397867E+02  0.22133174752E+02 -0.27870836386E+02  0.39212734732E+02  0.00000000000E+00 0. -1.
</event>
<event>
 7    1  0.4119305E-015  0.9000745E+02  0.7816164E-02  0.1186340E+00
        -11   -1    0    0    0    0  0.00000000000E+00  0.00000000000E+00  0.45593999997E+02  0.45594000000E+02  0.51100000000E-03 0. -1.
         11   -1    0    0    0    0 -0.00000000000E+00 -0.00000000000E+00 -0.45593999997E+02  0.45594000000E+02  0.51100000000E-03 0.  1.
    9900012    2    1    2    0    0  0.74816535503E+00 -0.54147848999E+00 -0.73536365372E+00  0.90007445022E+02  0.89999702495E+02 0.  0.
         12    1    1    2    0    0 -0.74816535503E+00  0.54147848999E+00  0.73536365372E+00  0.11805549783E+01  0.00000000000E+00 0. -1.
         11    1    3    3    0    0 -0.74762667181E+01  0.37057938188E+01  0.47266012909E+01  0.95900068766E+01  0.51100000000E-03 0. -1.
        -11    1    3    3    0    0 -0.19223510076E+02  0.30421855616E+02 -0.14332834587E+01  0.36015093232E+02  0.51100000000E-03 0.  1.
         12    1    3    3    0    0  0.27447942149E+02 -0.34669127925E+02 -0.40286814860E+01  0.44402344913E+02  0.00000000000E+00 0. -1.
</event>
<event>
 7    1  0.4119305E-015  0.9000782E+02  0.7816164E-02  0.1186339E+00
        -11   -1    0    0    0    0  0.00000000000E+00  0.00000000000E+00  0.45593999997E+02  0.45594000000E+02  0.51100000000E-03 0.  1.
         11   -1    0    0    0    0 -0.00000000000E+00 -0.00000000000E+00 -0.45593999997E+02  0.45594000000E+02  0.51100000000E-03 0. -1.
    9900012    2    1    2    0    0  0.14140426040E+00  0.91022206987E+00  0.73778776769E+00  0.90007817738E+02  0.90000080132E+02 0.  0.
         12    1    1    2    0    0 -0.14140426040E+00 -0.91022206987E+00 -0.73778776769E+00  0.11801822620E+01  0.00000000000E+00 0. -1.
         11    1    3    3    0    0 -0.36767393432E+02  0.95196429694E+01  0.76040673494E+01  0.38733534083E+02  0.51100000000E-03 0. -1.
        -11    1    3    3    0    0 -0.72844526441E+00 -0.21104172708E+01  0.94725224975E+01  0.97320694761E+01  0.51100000000E-03 0.  1.
        -12    1    3    3    0    0  0.37637242956E+02 -0.64990036287E+01 -0.16338802079E+02  0.41542214179E+02  0.00000000000E+00 0.  1.
</event>
<event>
 7    1  0.4119305E-015  0.9000773E+02  0.7816164E-02  0.1186339E+00
        -11   -1    0    0    0    0  0.00000000000E+00  0.00000000000E+00  0.45593999997E+02  0.45594000000E+02  0.51100000000E-03 0. -1.
         11   -1    0    0    0    0 -0.00000000000E+00 -0.00000000000E+00 -0.45593999997E+02  0.45594000000E+02  0.51100000000E-03 0.  1.
    9900012    2    1    2    0    0  0.34237945729E+00 -0.11215987739E+00 -0.11239380892E+01  0.90007728693E+02  0.89999989911E+02 0.  0.
         12    1    1    2    0    0 -0.34237945729E+00  0.11215987739E+00  0.11239380892E+01  0.11802713075E+01  0.00000000000E+00 0. -1.
         11    1    3    3    0    0 -0.92859717613E+01 -0.30843218128E+02  0.22607613522E+02  0.39352732630E+02  0.51100000000E-03 0. -1.
        -11    1    3    3    0    0 -0.63397292513E+01 -0.32906893076E+01 -0.44375316249E+01  0.84090719037E+01  0.51100000000E-03 0.  1.
        -12    1    3    3    0    0  0.15968080470E+02  0.34021747558E+02 -0.19294019986E+02  0.42245924159E+02  0.00000000000E+00 0.  1.
</event>
<event>
 7    1  0.4119305E-015  0.9000775E+02  0.7816164E-02  0.1186339E+00
        -11   -1    0    0    0    0  0.00000000000E+00  0.00000000000E+00  0.45593999997E+02  0.45594000000E+02  0.51100000000E-03 0.  1.
         11   -1    0    0    0    0 -0.00000000000E+00 -0.00000000000E+00 -0.45593999997E+02  0.45594000000E+02  0.51100000000E-03 0. -1.
    9900012    2    1    2    0    0  0.42371845196E+00 -0.47265595188E+00  0.99501285582E+00  0.90007749366E+02  0.90000010858E+02 0.  0.
         12    1    1    2    0    0 -0.42371845196E+00  0.47265595188E+00 -0.99501285582E+00  0.11802506338E+01  0.00000000000E+00 0. -1.
         11    1    3    3    0    0 -0.70277488372E+01  0.43002477015E+01 -0.11654624558E+02  0.14272759294E+02  0.51100000000E-03 0. -1.
        -11    1    3    3    0    0  0.47527478896E+00  0.32879297973E+02 -0.55319776316E+01  0.33344818160E+02  0.51100000000E-03 0.  1.
         12    1    3    3    0    0  0.69761925002E+01 -0.37652201626E+02  0.18181615046E+02  0.42390171913E+02  0.00000000000E+00 0. -1.
</event>
<event>
 7    1  0.4119305E-015  0.9000773E+02  0.7816164E-02  0.1186339E+00
        -11   -1    0    0    0    0  0.00000000000E+00  0.00000000000E+00  0.45593999997E+02  0.45594000000E+02  0.51100000000E-03 0. -1.
         11   -1    0    0    0    0 -0.00000000000E+00 -0.00000000000E+00 -0.45593999997E+02  0.45594000000E+02  0.51100000000E-03 0.  1.
    9900012    2    1    2    0    0  0.42920805328E+00 -0.48208124656E+00  0.98813217517E+00  0.90007734319E+02  0.89999995612E+02 0.  0.
         12    1    1    2    0    0 -0.42920805328E+00  0.48208124656E+00 -0.98813217517E+00  0.11802656806E+01  0.00000000000E+00 0. -1.
         11    1    3    3    0    0 -0.20520819303E+02  0.21272120618E+02  0.22759709471E+02  0.37304309616E+02  0.51100000000E-03 0. -1.
        -11    1    3    3    0    0 -0.33627081360E+01 -0.20083924601E+01  0.83660501154E+01  0.92375451867E+01  0.51100000000E-03 0.  1.
        -12    1    3    3    0    0  0.24312735492E+02 -0.19745809405E+02 -0.30137627411E+02  0.43465879517E+02  0.00000000000E+00 0.  1.
</event>
<event>
 7    1  0.4119305E-015  0.9000769E+02  0.7816164E-02  0.1186339E+00
        -11   -1    0    0    0    0  0.00000000000E+00  0.00000000000E+00  0.45593999997E+02  0.45594000000E+02  0.51100000000E-03 0.  1.
         11   -1    0    0    0    0 -0.00000000000E+00 -0.00000000000E+00 -0.45593999997E+02  0.45594000000E+02  0.51100000000E-03 0. -1.
    9900012    2    1    2    0    0 -0.81122669410E-01 -0.79015021700E+00  0.87305138151E+00  0.90007687767E+02  0.89999948445E+02 0.  0.
         12    1    1    2    0    0  0.81122669410E-01  0.79015021700E+00 -0.87305138151E+00  0.11803122331E+01  0.00000000000E+00 0. -1.
         11    1    3    3    0    0 -0.49702934783E+01  0.19360349200E+01 -0.73064747040E+01  0.90463595624E+01  0.51100000000E-03 0. -1.
        -11    1    3    3    0    0 -0.33228728564E+02 -0.16723200667E+02  0.14383558962E+02  0.39883588244E+02  0.51100000000E-03 0.  1.
         12    1    3    3    0    0  0.38117899373E+02  0.13997015530E+02 -0.62040328769E+01  0.41077739961E+02  0.00000000000E+00 0. -1.
</event>
<event>
 7    1  0.4119305E-015  0.9000772E+02  0.7816164E-02  0.1186339E+00
        -11   -1    0    0    0    0  0.00000000000E+00  0.00000000000E+00  0.45593999997E+02  0.45594000000E+02  0.51100000000E-03 0. -1.
         11   -1    0    0    0    0 -0.00000000000E+00 -0.00000000000E+00 -0.45593999997E+02  0.45594000000E+02  0.51100000000E-03 0.  1.
    9900012    2    1    2    0    0  0.60499934511E+00 -0.23292118068E-01 -0.10131626999E+01  0.90007718090E+02  0.89999979169E+02 0.  0.
         12    1    1    2    0    0 -0.60499934511E+00  0.23292118068E-01  0.10131626999E+01  0.11802819099E+01  0.00000000000E+00 0. -1.
         11    1    3    3    0    0 -0.71309955032E+01  0.19068668159E+02  0.26699005229E+02  0.33575319547E+02  0.51100000000E-03 0. -1.
        -11    1    3    3    0    0 -0.27753921554E+01  0.13398667658E+02 -0.14165598781E+02  0.19694955844E+02  0.51100000000E-03 0.  1.
        -12    1    3    3    0    0  0.10511387004E+02 -0.32490627935E+02 -0.13546569149E+02  0.36737442699E+02  0.00000000000E+00 0.  1.
</event>
<event>
 7    1  0.4119305E-015  0.9000767E+02  0.7816164E-02  0.1186339E+00
        -11   -1    0    0    0    0  0.00000000000E+00  0.00000000000E+00  0.45593999997E+02  0.45594000000E+02  0.51100000000E-03 0.  1.
         11   -1    0    0    0    0 -0.00000000000E+00 -0.00000000000E+00 -0.45593999997E+02  0.45594000000E+02  0.51100000000E-03 0. -1.
    9900012    2    1    2    0    0 -0.86443318794E+00  0.80121570254E+00 -0.63239831663E-01  0.90007665041E+02  0.89999925420E+02 0.  0.
         12    1    1    2    0    0  0.86443318794E+00 -0.80121570254E+00  0.63239831663E-01  0.11803349587E+01  0.00000000000E+00 0. -1.
         11    1    3    3    0    0  0.16285184878E+00 -0.13102177378E+01  0.10090673595E+02  0.10176683404E+02  0.51100000000E-03 0. -1.
        -11    1    3    3    0    0 -0.15721035121E+02  0.34961790478E+02  0.85471417371E+01  0.39275073149E+02  0.51100000000E-03 0.  1.
         12    1    3    3    0    0  0.14693750085E+02 -0.32850357038E+02 -0.18701055164E+02  0.40555908488E+02  0.00000000000E+00 0. -1.
</event>
<event>
 7    1  0.4119305E-015  0.9000773E+02  0.7816164E-02  0.1186339E+00
        -11   -1    0    0    0    0  0.00000000000E+00  0.00000000000E+00  0.45593999997E+02  0.45594000000E+02  0.51100000000E-03 0.  1.
         11   -1    0    0    0    0 -0.00000000000E+00 -0.00000000000E+00 -0.45593999997E+02  0.45594000000E+02  0.51100000000E-03 0. -1.
    9900012    2    1    2    0    0 -0.48371673416E+00  0.81644492744E+00  0.70176348075E+00  0.90007730462E+02  0.89999991705E+02 0.  0.
         12    1    1    2    0    0  0.48371673416E+00 -0.81644492744E+00 -0.70176348075E+00  0.11802695376E+01  0.00000000000E+00 0. -1.
         11    1    3    3    0    0 -0.31425573309E+01  0.27410418785E+01  0.76599515059E+01  0.87214582778E+01  0.51100000000E-03 0. -1.
        -11    1    3    3    0    0 -0.33166310170E+02 -0.38689362997E+01  0.17660795075E+02  0.37774018602E+02  0.51100000000E-03 0.  1.
         12    1    3    3    0    0  0.35825150767E+02  0.19443393486E+01 -0.24618983100E+02  0.43512253583E+02  0.00000000000E+00 0. -1.
</event>
<event>
 7    1  0.4119305E-015  0.9000671E+02  0.7816164E-02  0.1186341E+00
        -11   -1    0    0    0    0  0.00000000000E+00  0.00000000000E+00  0.45593999997E+02  0.45594000000E+02  0.51100000000E-03 0.  1.
         11   -1    0    0    0    0 -0.00000000000E+00 -0.00000000000E+00 -0.45593999997E+02  0.45594000000E+02  0.51100000000E-03 0. -1.
    9900012    2    1    2    0    0  0.88094598292E+00  0.78667520230E+00  0.23066155116E-01  0.90006705902E+02  0.89998953614E+02 0.  0.
         12    1    1    2    0    0 -0.88094598292E+00 -0.78667520230E+00 -0.23066155116E-01  0.11812940981E+01  0.00000000000E+00 0. -1.
         11    1    3    3    0    0 -0.17679240307E+02 -0.34853071232E+02  0.13230236798E+02  0.41259317471E+02  0.51100000000E-03 0. -1.
        -11    1    3    3    0    0 -0.55468251758E+01  0.48174570502E+01 -0.46434564948E+01  0.86911938445E+01  0.51100000000E-03 0.  1.
        -12    1    3    3    0    0  0.24107011466E+02  0.30822289384E+02 -0.85637141482E+01  0.40056194586E+02  0.00000000000E+00 0.  1.
</event>
<event>
 7    1  0.4119305E-015  0.9000787E+02  0.7816164E-02  0.1186339E+00
        -11   -1    0    0    0    0  0.00000000000E+00  0.00000000000E+00  0.45593999997E+02  0.45594000000E+02  0.51100000000E-03 0.  1.
         11   -1    0    0    0    0 -0.00000000000E+00 -0.00000000000E+00 -0.45593999997E+02  0.45594000000E+02  0.51100000000E-03 0. -1.
    9900012    2    1    2    0    0 -0.49411746313E+00 -0.36757376360E+00  0.10066999779E+01  0.90007869760E+02  0.90000132840E+02 0.  0.
         12    1    1    2    0    0  0.49411746313E+00  0.36757376360E+00 -0.10066999779E+01  0.11801302405E+01  0.00000000000E+00 0. -1.
         11    1    3    3    0    0  0.84416529648E+01 -0.50340406588E+01 -0.25979946288E+01  0.10166250365E+02  0.51100000000E-03 0. -1.
        -11    1    3    3    0    0  0.27143175100E+02  0.12099940302E+02  0.23580875745E+02  0.37937029549E+02  0.51100000000E-03 0.  1.
         12    1    3    3    0    0 -0.36078945528E+02 -0.74334734073E+01 -0.19976181138E+02  0.41904589846E+02  0.00000000000E+00 0. -1.
</event>
<event>
 7    1  0.4119305E-015  0.9000718E+02  0.7816164E-02  0.1186340E+00
        -11   -1    0    0    0    0  0.00000000000E+00  0.00000000000E+00  0.45593999997E+02  0.45594000000E+02  0.51100000000E-03 0. -1.
         11   -1    0    0    0    0 -0.00000000000E+00 -0.00000000000E+00 -0.45593999997E+02  0.45594000000E+02  0.51100000000E-03 0.  1.
    9900012    2    1    2    0    0  0.87887708361E+00 -0.51092303141E+00  0.60073214660E+00  0.90007175549E+02  0.89999429464E+02 0.  0.
         12    1    1    2    0    0 -0.87887708361E+00  0.51092303141E+00 -0.60073214660E+00  0.11808244510E+01  0.00000000000E+00 0. -1.
         11    1    3    3    0    0  0.16689340511E+02 -0.59285048018E+01 -0.54089404507E+01  0.18518582369E+02  0.51100000000E-03 0. -1.
        -11    1    3    3    0    0 -0.46187570945E+01  0.20160530186E+02 -0.26778918726E+02  0.33836228851E+02  0.51100000000E-03 0.  1.
         12    1    3    3    0    0 -0.11191706333E+02 -0.14742948415E+02  0.32788591323E+02  0.37652364329E+02  0.00000000000E+00 0. -1.
</event>
<event>
 7    1  0.4119305E-015  0.9000762E+02  0.7816164E-02  0.1186339E+00
        -11   -1    0    0    0    0  0.00000000000E+00  0.00000000000E+00  0.45593999997E+02  0.45594000000E+02  0.51100000000E-03 0. -1.
         11   -1    0    0    0    0 -0.00000000000E+00 -0.00000000000E+00 -0.45593999997E+02  0.45594000000E+02  0.51100000000E-03 0.  1.
    9900012    2    1    2    0    0  0.48632890589E+00  0.10658436180E+01 -0.14411747633E+00  0.90007615203E+02  0.89999874923E+02 0.  0.
         12    1    1    2    0    0 -0.48632890589E+00 -0.10658436180E+01  0.14411747633E+00  0.11803847973E+01  0.00000000000E+00 0. -1.
         11    1    3    3    0    0  0.24818163146E+02 -0.26456580500E+02 -0.94367374904E+01  0.37482581133E+02  0.51100000000E-03 0. -1.
        -11    1    3    3    0    0  0.96146255429E+01  0.78587811104E+01  0.12679617311E+01  0.12482355230E+02  0.51100000000E-03 0.  1.
        -12    1    3    3    0    0 -0.33946459783E+02  0.19663643007E+02  0.80246582829E+01  0.40042678840E+02  0.00000000000E+00 0.  1.
</event>
<event>
 7    1  0.4119305E-015  0.9000774E+02  0.7816164E-02  0.1186339E+00
        -11   -1    0    0    0    0  0.00000000000E+00  0.00000000000E+00  0.45593999997E+02  0.45594000000E+02  0.51100000000E-03 0. -1.
         11   -1    0    0    0    0 -0.00000000000E+00 -0.00000000000E+00 -0.45593999997E+02  0.45594000000E+02  0.51100000000E-03 0.  1.
    9900012    2    1    2    0    0 -0.45776650628E+00 -0.98128348859E+00 -0.46963596191E+00  0.90007735031E+02  0.89999996334E+02 0.  0.
         12    1    1    2    0    0  0.45776650628E+00  0.98128348859E+00  0.46963596191E+00  0.11802649685E+01  0.00000000000E+00 0. -1.
         11    1    3    3    0    0 -0.18874774001E+02 -0.23983510811E+02  0.14003078792E+02  0.33579042576E+02  0.51100000000E-03 0. -1.
        -11    1    3    3    0    0  0.45229671058E+01 -0.11741078531E+02 -0.14249675393E+02  0.19009560899E+02  0.51100000000E-03 0.  1.
        -12    1    3    3    0    0  0.13894040388E+02  0.34743305853E+02 -0.22303936160E+00  0.37419131557E+02  0.00000000000E+00 0.  1.
</event>
<event>
 7    1  0.4119305E-015  0.9000763E+02  0.7816164E-02  0.1186339E+00
        -11   -1    0    0    0    0  0.00000000000E+00  0.00000000000E+00  0.45593999997E+02  0.45594000000E+02  0.51100000000E-03 0.  1.
         11   -1    0    0    0    0 -0.00000000000E+00 -0.00000000000E+00 -0.45593999997E+02  0.45594000000E+02  0.51100000000E-03 0. -1.
    9900012    2    1    2    0    0 -0.77896239818E+00  0.51739385899E+00  0.72028142607E+00  0.90007625417E+02  0.89999885273E+02 0.  0.
         12    1    1    2    0    0  0.77896239818E+00 -0.51739385899E+00 -0.72028142607E+00  0.11803745829E+01  0.00000000000E+00 0. -1.
         11    1    3    3    0    0  0.76804694515E+01  0.86930287857E+01  0.18364857603E+01  0.11744404654E+02  0.51100000000E-03 0. -1.
        -11    1    3    3    0    0 -0.73375413472E+01  0.12433858759E+02  0.34331858373E+02  0.37244017724E+02  0.51100000000E-03 0.  1.
         12    1    3    3    0    0 -0.11218905025E+01 -0.20609493685E+02 -0.35448062707E+02  0.41019203039E+02  0.00000000000E+00 0. -1.
</event>
<event>
 7    1  0.4119305E-015  0.9000779E+02  0.7816164E-02  0.1186339E+00
        -11   -1    0    0    0    0  0.00000000000E+00  0.00000000000E+00  0.45593999997E+02  0.45594000000E+02  0.51100000000E-03 0.  1.
         11   -1    0    0    0    0 -0.00000000000E+00 -0.00000000000E+00 -0.45593999997E+02  0.45594000000E+02  0.51100000000E-03 0. -1.
    9900012    2    1    2    0    0  0.36454976326E+00 -0.10522821229E+01 -0.39076745046E+00  0.90007790952E+02  0.90000052993E+02 0.  0.
         12    1    1    2    0    0 -0.36454976326E+00  0.10522821229E+01  0.39076745046E+00  0.11802090477E+01  0.00000000000E+00 0. -1.
         11    1    3    3    0    0 -0.20457943182E+01  0.89728228568E+01  0.43781760711E+01  0.10191430242E+02  0.51100000000E-03 0. -1.
        -11    1    3    3    0    0  0.37636428864E+02 -0.15782913563E+02  0.85878758093E+01  0.41705548184E+02  0.51100000000E-03 0.  1.
         12    1    3    3    0    0 -0.35226084782E+02  0.57578085831E+01 -0.13356819331E+02  0.38110812526E+02  0.00000000000E+00 0. -1.
</event>
<event>
 7    1  0.4119305E-015  0.9000774E+02  0.7816164E-02  0.1186339E+00
        -11   -1    0    0    0    0  0.00000000000E+00  0.00000000000E+00  0.45593999997E+02  0.45594000000E+02  0.51100000000E-03 0. -1.
         11   -1    0    0    0    0 -0.00000000000E+00 -0.00000000000E+00 -0.45593999997E+02  0.45594000000E+02  0.51100000000E-03 0.  1.
    9900012    2    1    2    0    0 -0.65135541092E+00  0.74228151525E+00 -0.64634169749E+00  0.90007744388E+02  0.90000005814E+02 0.  0.
         12    1    1    2    0    0  0.65135541092E+00 -0.74228151525E+00  0.64634169749E+00  0.11802556118E+01  0.00000000000E+00 0. -1.
         11    1    3    3    0    0 -0.82956843168E+00  0.18732198334E+01  0.87074875273E+01  0.89452487739E+01  0.51100000000E-03 0. -1.
        -11    1    3    3    0    0 -0.36413255150E+02  0.20037927738E+01  0.12229579740E+02  0.38464307572E+02  0.51100000000E-03 0.  1.
         12    1    3    3    0    0  0.36591468171E+02 -0.31347310920E+01 -0.21583408965E+02  0.42598188042E+02  0.00000000000E+00 0. -1.
</event>
<event>
 7    1  0.4119305E-015  0.9000785E+02  0.7816164E-02  0.1186339E+00
        -11   -1    0    0    0    0  0.00000000000E+00  0.00000000000E+00  0.45593999997E+02  0.45594000000E+02  0.51100000000E-03 0. -1.
         11   -1    0    0    0    0 -0.00000000000E+00 -0.00000000000E+00 -0.45593999997E+02  0.45594000000E+02  0.51100000000E-03 0.  1.
    9900012    2    1    2    0    0 -0.88557818536E+00  0.76138813629E+00 -0.16970982459E+00  0.90007846603E+02  0.90000109378E+02 0.  0.
         12    1    1    2    0    0  0.88557818536E+00 -0.76138813629E+00  0.16970982459E+00  0.11801533972E+01  0.00000000000E+00 0. -1.
         11    1    3    3    0    0  0.37682558386E+02 -0.24208039254E+01  0.14608297808E+02  0.40487502556E+02  0.51100000000E-03 0. -1.
        -11    1    3    3    0    0 -0.91282893799E+01  0.72991504812E+01  0.61105738898E+01  0.13188721632E+02  0.51100000000E-03 0.  1.
        -12    1    3    3    0    0 -0.29439847191E+02 -0.41169584195E+01 -0.20888581523E+02  0.36331622415E+02  0.00000000000E+00 0.  1.
</event>
<event>
 7    1  0.4119305E-015  0.9000762E+02  0.7816164E-02  0.1186339E+00
        -11   -1    0    0    0    0  0.00000000000E+00  0.00000000000E+00  0.45593999997E+02  0.45594000000E+02  0.51100000000E-03 0. -1.
         11   -1    0    0    0    0 -0.00000000000E+00 -0.00000000000E+00 -0.45593999997E+02  0.45594000000E+02  0.51100000000E-03 0.  1.
    9900012    2    1    2    0    0  0.76535508027E-01 -0.65358783736E+00 -0.97993324851E+00  0.90007617047E+02  0.89999876792E+02 0.  0.
         12    1    1    2    0    0 -0.76535508027E-01  0.65358783736E+00  0.97993324851E+00  0.11803829534E+01  0.00000000000E+00 0. -1.
         11    1    3    3    0    0 -0.11129647909E+02 -0.32541236428E+00  0.44382886149E+01  0.11986382351E+02  0.51100000000E-03 0. -1.
        -11    1    3    3    0    0 -0.25205750651E+02 -0.99500391141E+01 -0.23842556970E+02  0.36094330128E+02  0.51100000000E-03 0.  1.
         12    1    3    3    0    0  0.36411934068E+02  0.96218636410E+01  0.18424335107E+02  0.41926904567E+02  0.00000000000E+00 0. -1.
</event>
<event>
 7    1  0.4119305E-015  0.9000789E+02  0.7816164E-02  0.1186339E+00
        -11   -1    0    0    0    0  0.00000000000E+00  0.00000000000E+00  0.45593999997E+02  0.45594000000E+02  0.51100000000E-03 0. -1.
         11   -1    0    0    0    0 -0.00000000000E+00 -0.00000000000E+00 -0.45593999997E+02  0.45594000000E+02  0.51100000000E-03 0.  1.
    9900012    2    1    2    0    0 -0.27347207580E+00  0.28677971271E+00 -0.11115901824E+01  0.90007888855E+02  0.90000152188E+02 0.  0.
         12    1    1    2    0    0  0.27347207580E+00 -0.28677971271E+00  0.11115901824E+01  0.11801111446E+01  0.00000000000E+00 0. -1.
         11    1    3    3    0    0  0.66555547378E+00 -0.43555912574E+01 -0.84110751779E+01  0.94952791006E+01  0.51100000000E-03 0. -1.
        -11    1    3    3    0    0  0.24495381419E+02 -0.64510325946E+01 -0.26582025924E+02  0.36718437261E+02  0.51100000000E-03 0.  1.
         12    1    3    3    0    0 -0.25434408969E+02  0.11093403565E+02  0.33881510919E+02  0.43794172494E+02  0.00000000000E+00 0. -1.
</event>
<event>
 7    1  0.4119305E-015  0.9000775E+02  0.7816164E-02  0.1186339E+00
        -11   -1    0    0    0    0  0.00000000000E+00  0.00000000000E+00  0.45593999997E+02  0.45594000000E+02  0.51100000000E-03 0. -1.
         11   -1    0    0    0    0 -0.00000000000E+00 -0.00000000000E+00 -0.45593999997E+02  0.45594000000E+02  0.51100000000E-03 0.  1.
    9900012    2    1    2    0    0 -0.11554370083E+01  0.21927341363E+00 -0.99378825538E-01  0.90007749323E+02  0.90000010814E+02 0.  0.
         12    1    1    2    0    0  0.11554370083E+01 -0.21927341363E+00  0.99378825538E-01  0.11802506772E+01  0.00000000000E+00 0. -1.
         11    1    3    3    0    0 -0.74348585803E+01 -0.51528143082E+01  0.30285425667E+01  0.95394280617E+01  0.51100000000E-03 0. -1.
        -11    1    3    3    0    0  0.57949890047E+01 -0.27120993904E+01 -0.41123987321E+02  0.41618742342E+02  0.51100000000E-03 0.  1.
         12    1    3    3    0    0  0.48443256731E+00  0.80841871123E+01  0.37996065929E+02  0.38849578920E+02  0.00000000000E+00 0. -1.
</event>
<event>
 7    1  0.4119305E-015  0.9000762E+02  0.7816164E-02  0.1186339E+00
        -11   -1    0    0    0    0  0.00000000000E+00  0.00000000000E+00  0.45593999997E+02  0.45594000000E+02  0.51100000000E-03 0. -1.
         11   -1    0    0    0    0 -0.00000000000E+00 -0.00000000000E+00 -0.45593999997E+02  0.45594000000E+02  0.51100000000E-03 0.  1.
    9900012    2    1    2    0    0  0.88552816178E+00  0.28540262876E+00  0.72640993242E+00  0.90007624562E+02  0.89999884406E+02 0.  0.
         12    1    1    2    0    0 -0.88552816178E+00 -0.28540262876E+00 -0.72640993242E+00  0.11803754385E+01  0.00000000000E+00 0. -1.
         11    1    3    3    0    0 -0.48710815983E+01 -0.90414374679E+01  0.18318784229E+01  0.10432200451E+02  0.51100000000E-03 0. -1.
        -11    1    3    3    0    0 -0.34487582930E+01 -0.23618776517E+02 -0.27466693770E+02  0.36389006648E+02  0.51100000000E-03 0.  1.
         12    1    3    3    0    0  0.92053680531E+01  0.32945616613E+02  0.26361225280E+02  0.43186417463E+02  0.00000000000E+00 0. -1.
</event>
<event>
 7    1  0.4119305E-015  0.9000775E+02  0.7816164E-02  0.1186339E+00
        -11   -1    0    0    0    0  0.00000000000E+00  0.00000000000E+00  0.45593999997E+02  0.45594000000E+02  0.51100000000E-03 0. -1.
         11   -1    0    0    0    0 -0.00000000000E+00 -0.00000000000E+00 -0.45593999997E+02  0.45594000000E+02  0.51100000000E-03 0.  1.
    9900012    2    1    2    0    0  0.15878886494E+00  0.21175793627E+00 -0.11501860241E+01  0.90007752900E+02  0.90000014438E+02 0.  0.
         12    1    1    2    0    0 -0.15878886494E+00 -0.21175793627E+00  0.11501860241E+01  0.11802471001E+01  0.00000000000E+00 0. -1.
         11    1    3    3    0    0 -0.46534166589E+01 -0.66947485242E+01  0.58495324773E+01  0.10034489268E+02  0.51100000000E-03 0. -1.
        -11    1    3    3    0    0  0.94205327144E+00 -0.26849031180E+02 -0.28971837781E+02  0.39511078502E+02  0.51100000000E-03 0.  1.
         12    1    3    3    0    0  0.38701522524E+01  0.33755537641E+02  0.21972119280E+02  0.40462185130E+02  0.00000000000E+00 0. -1.
</event>
<event>
 7    1  0.4119305E-015  0.9000796E+02  0.7816164E-02  0.1186339E+00
        -11   -1    0    0    0    0  0.00000000000E+00  0.00000000000E+00  0.45593999997E+02  0.45594000000E+02  0.51100000000E-03 0. -1.
         11   -1    0    0    0    0 -0.00000000000E+00 -0.00000000000E+00 -0.45593999997E+02  0.45594000000E+02  0.51100000000E-03 0.  1.
    9900012    2    1    2    0    0 -0.86160599960E+00 -0.65549271719E+00 -0.46953546623E+00  0.90007957986E+02  0.90000222231E+02 0.  0.
         12    1    1    2    0    0  0.86160599960E+00  0.65549271719E+00  0.46953546623E+00  0.11800420140E+01  0.00000000000E+00 0. -1.
         11    1    3    3    0    0  0.15670821577E+02 -0.10617718341E+02  0.33146263503E+02  0.38170477809E+02  0.51100000000E-03 0. -1.
        -11    1    3    3    0    0  0.54682780344E+01  0.12114899053E+02 -0.22751451672E+01  0.13485144772E+02  0.51100000000E-03 0.  1.
        -12    1    3    3    0    0 -0.22000705611E+02 -0.21526734288E+01 -0.31340653802E+02  0.38352335405E+02  0.00000000000E+00 0.  1.
</event>
<event>
 7    1  0.4119305E-015  0.9000752E+02  0.7816164E-02  0.1186339E+00
        -11   -1    0    0    0    0  0.00000000000E+00  0.00000000000E+00  0.45593999997E+02  0.45594000000E+02  0.51100000000E-03 0.  1.
         11   -1    0    0    0    0 -0.00000000000E+00 -0.00000000000E+00 -0.45593999997E+02  0.45594000000E+02  0.51100000000E-03 0. -1.
    9900012    2    1    2    0    0  0.41815292734E+00  0.57631759513E+00  0.94156788695E+00  0.90007515385E+02  0.89999773788E+02 0.  0.
         12    1    1    2    0    0 -0.41815292734E+00 -0.57631759513E+00 -0.94156788695E+00  0.11804846152E+01  0.00000000000E+00 0. -1.
         11    1    3    3    0    0 -0.81004479238E+01 -0.32590325570E+01 -0.23269827824E+01  0.90362270282E+01  0.51100000000E-03 0. -1.
        -11    1    3    3    0    0  0.27379685015E+02 -0.19212118884E+02  0.26924419240E+02  0.42938060218E+02  0.51100000000E-03 0.  1.
         12    1    3    3    0    0 -0.18861084164E+02  0.23047469036E+02 -0.23655868571E+02  0.38033228139E+02  0.00000000000E+00 0. -1.
</event>
<event>
 7    1  0.4119305E-015  0.9000769E+02  0.7816164E-02  0.1186339E+00
        -11   -1    0    0    0    0  0.00000000000E+00  0.00000000000E+00  0.45593999997E+02  0.45594000000E+02  0.51100000000E-03 0. -1.
         11   -1    0    0    0    0 -0.00000000000E+00 -0.00000000000E+00 -0.45593999997E+02  0.45594000000E+02  0.51100000000E-03 0.  1.
    9900012    2    1    2    0    0 -0.62565486393E+00  0.99556839736E+00  0.10259539244E+00  0.90007692304E+02  0.89999953042E+02 0.  0.
         12    1    1    2    0    0  0.62565486393E+00 -0.99556839736E+00 -0.10259539244E+00  0.11803076960E+01  0.00000000000E+00 0. -1.
         11    1    3    3    0    0 -0.82438062705E+01  0.37064440756E+00  0.91924824345E+00  0.83031763017E+01  0.51100000000E-03 0. -1.
        -11    1    3    3    0    0 -0.27888976614E+02 -0.12145148115E+02 -0.22817386862E+02  0.38025422848E+02  0.51100000000E-03 0.  1.
         12    1    3    3    0    0  0.35507128020E+02  0.12770072104E+02  0.22000734011E+02  0.43679093155E+02  0.00000000000E+00 0. -1.
</event>
<event>
 7    1  0.4119305E-015  0.9000750E+02  0.7816164E-02  0.1186340E+00
        -11   -1    0    0    0    0  0.00000000000E+00  0.00000000000E+00  0.45593999997E+02  0.45594000000E+02  0.51100000000E-03 0.  1.
         11   -1    0    0    0    0 -0.00000000000E+00 -0.00000000000E+00 -0.45593999997E+02  0.45594000000E+02  0.51100000000E-03 0. -1.
    9900012    2    1    2    0    0  0.74838527755E+00 -0.34643042039E+00  0.84468519694E+00  0.90007496869E+02  0.89999755028E+02 0.  0.
         12    1    1    2    0    0 -0.74838527755E+00  0.34643042039E+00 -0.84468519694E+00  0.11805031308E+01  0.00000000000E+00 0. -1.
         11    1    3    3    0    0 -0.10607116867E+02  0.32118706163E+02 -0.20610988460E+02  0.39609784894E+02  0.51100000000E-03 0. -1.
        -11    1    3    3    0    0  0.95779152237E+01  0.24440380578E+01  0.10940236783E+01  0.99451832627E+01  0.51100000000E-03 0.  1.
        -12    1    3    3    0    0  0.17775869211E+01 -0.34909174641E+02  0.20361649979E+02  0.40452528712E+02  0.00000000000E+00 0.  1.
</event>
<event>
 7    1  0.4119305E-015  0.9000820E+02  0.7816164E-02  0.1186338E+00
        -11   -1    0    0    0    0  0.00000000000E+00  0.00000000000E+00  0.45593999997E+02  0.45594000000E+02  0.51100000000E-03 0.  1.
         11   -1    0    0    0    0 -0.00000000000E+00 -0.00000000000E+00 -0.45593999997E+02  0.45594000000E+02  0.51100000000E-03 0. -1.
    9900012    2    1    2    0    0  0.48138597166E+00 -0.28520686502E+00  0.10386830710E+01  0.90008195808E+02  0.90000463191E+02 0.  0.
         12    1    1    2    0    0 -0.48138597166E+00  0.28520686502E+00 -0.10386830710E+01  0.11798041921E+01  0.00000000000E+00 0. -1.
         11    1    3    3    0    0 -0.73983107777E+01 -0.29424297271E+01 -0.48284646234E+01  0.93116575293E+01  0.51100000000E-03 0. -1.
        -11    1    3    3    0    0 -0.34624963893E+02  0.95530516944E+01 -0.50548193357E+01  0.36272580830E+02  0.51100000000E-03 0.  1.
         12    1    3    3    0    0  0.42504660642E+02 -0.68958288324E+01  0.10921967030E+02  0.44423957449E+02  0.00000000000E+00 0. -1.
</event>
<event>
 7    1  0.4119305E-015  0.9000775E+02  0.7816164E-02  0.1186339E+00
        -11   -1    0    0    0    0  0.00000000000E+00  0.00000000000E+00  0.45593999997E+02  0.45594000000E+02  0.51100000000E-03 0. -1.
         11   -1    0    0    0    0 -0.00000000000E+00 -0.00000000000E+00 -0.45593999997E+02  0.45594000000E+02  0.51100000000E-03 0.  1.
    9900012    2    1    2    0    0 -0.40573946709E+00  0.11035776423E+01 -0.10240162702E+00  0.90007748238E+02  0.90000009715E+02 0.  0.
         12    1    1    2    0    0  0.40573946709E+00 -0.11035776423E+01  0.10240162702E+00  0.11802517616E+01  0.00000000000E+00 0. -1.
         11    1    3    3    0    0 -0.40862949907E+01  0.57927405120E+01 -0.79918467893E+01  0.10682849094E+02  0.51100000000E-03 0. -1.
        -11    1    3    3    0    0  0.36244280892E+01  0.10183873522E+02 -0.33575775585E+02  0.35272942396E+02  0.51100000000E-03 0.  1.
         12    1    3    3    0    0  0.56127434479E-01 -0.14873036391E+02  0.41465220747E+02  0.44051956749E+02  0.00000000000E+00 0. -1.
</event>
<event>
 7    1  0.4119305E-015  0.9000776E+02  0.7816164E-02  0.1186339E+00
        -11   -1    0    0    0    0  0.00000000000E+00  0.00000000000E+00  0.45593999997E+02  0.45594000000E+02  0.51100000000E-03 0.  1.
         11   -1    0    0    0    0 -0.00000000000E+00 -0.00000000000E+00 -0.45593999997E+02  0.45594000000E+02  0.51100000000E-03 0. -1.
    9900012    2    1    2    0    0 -0.28472081436E+00  0.10883767892E+01  0.35682898803E+00  0.90007764047E+02  0.90000025733E+02 0.  0.
         12    1    1    2    0    0  0.28472081436E+00 -0.10883767892E+01 -0.35682898803E+00  0.11802359528E+01  0.00000000000E+00 0. -1.
         11    1    3    3    0    0  0.26775582733E+02 -0.25017233449E+02  0.62760204882E+01  0.37177711516E+02  0.51100000000E-03 0. -1.
        -11    1    3    3    0    0 -0.43813328998E+01 -0.46006614535E+01  0.96913250983E+01  0.11588095021E+02  0.51100000000E-03 0.  1.
        -12    1    3    3    0    0 -0.22678970647E+02  0.30706271692E+02 -0.15610516598E+02  0.41241957511E+02  0.00000000000E+00 0.  1.
</event>
<event>
 7    1  0.4119305E-015  0.9000775E+02  0.7816164E-02  0.1186339E+00
        -11   -1    0    0    0    0  0.00000000000E+00  0.00000000000E+00  0.45593999997E+02  0.45594000000E+02  0.51100000000E-03 0. -1.
         11   -1    0    0    0    0 -0.00000000000E+00 -0.00000000000E+00 -0.45593999997E+02  0.45594000000E+02  0.51100000000E-03 0.  1.
    9900012    2    1    2    0    0 -0.34018481524E-01 -0.55192807080E+00  0.10426935757E+01  0.90007749287E+02  0.90000010778E+02 0.  0.
         12    1    1    2    0    0  0.34018481524E-01  0.55192807080E+00 -0.10426935757E+01  0.11802507129E+01  0.00000000000E+00 0. -1.
         11    1    3    3    0    0 -0.30007949157E+00  0.97231790318E+01  0.19752607283E+01  0.99263242639E+01  0.51100000000E-03 0. -1.
        -11    1    3    3    0    0  0.26724205597E+02  0.18557403769E+02  0.17368249207E+02  0.36881112784E+02  0.51100000000E-03 0.  1.
         12    1    3    3    0    0 -0.26458144587E+02 -0.28832510871E+02 -0.18300816359E+02  0.43200312239E+02  0.00000000000E+00 0. -1.
</event>
<event>
 7    1  0.4431916E-015  0.9000781E+02  0.7816164E-02  0.1186339E+00
        -11   -1    0    0    0    0  0.00000000000E+00  0.00000000000E+00  0.45593999997E+02  0.45594000000E+02  0.51100000000E-03 0.  1.
         11   -1    0    0    0    0 -0.00000000000E+00 -0.00000000000E+00 -0.45593999997E+02  0.45594000000E+02  0.51100000000E-03 0. -1.
    9900012    2    1    2    0    0  0.55649279013E+00  0.25540345315E+00  0.10089277957E+01  0.90007809148E+02  0.90000071429E+02 0.  0.
         12    1    1    2    0    0 -0.55649279013E+00 -0.25540345315E+00 -0.10089277957E+01  0.11801908517E+01  0.00000000000E+00 0. -1.
         11    1    3    3    0    0 -0.32647301855E+01 -0.33800154275E+02 -0.14032567961E+02  0.36742643564E+02  0.51100000000E-03 0. -1.
        -11    1    3    3    0    0 -0.63548636944E-01 -0.42546173330E+01 -0.75166547692E+01  0.86374710570E+01  0.51100000000E-03 0.  1.
        -12    1    3    3    0    0  0.38847716126E+01  0.38310175061E+02  0.22558150526E+02  0.44627694528E+02  0.00000000000E+00 0.  1.
</event>
<event>
 7    1  0.4119305E-015  0.9000779E+02  0.7816164E-02  0.1186339E+00
        -11   -1    0    0    0    0  0.00000000000E+00  0.00000000000E+00  0.45593999997E+02  0.45594000000E+02  0.51100000000E-03 0. -1.
         11   -1    0    0    0    0 -0.00000000000E+00 -0.00000000000E+00 -0.45593999997E+02  0.45594000000E+02  0.51100000000E-03 0.  1.
    9900012    2    1    2    0    0 -0.73868001209E+00  0.86423663870E+00  0.31677694829E+00  0.90007787831E+02  0.90000049831E+02 0.  0.
         12    1    1    2    0    0  0.73868001209E+00 -0.86423663870E+00 -0.31677694829E+00  0.11802121686E+01  0.00000000000E+00 0. -1.
         11    1    3    3    0    0  0.90310856253E+01 -0.77900967000E+01  0.32183583905E+02  0.34322429800E+02  0.51100000000E-03 0. -1.
        -11    1    3    3    0    0  0.89625851811E+01 -0.25451416160E+01  0.66280346989E+01  0.11434007312E+02  0.51100000000E-03 0.  1.
        -12    1    3    3    0    0 -0.18732350818E+02  0.11199474955E+02 -0.38494841655E+02  0.44251350720E+02  0.00000000000E+00 0.  1.
</event>
<event>
 7    1  0.4119305E-015  0.9000779E+02  0.7816164E-02  0.1186339E+00
        -11   -1    0    0    0    0  0.00000000000E+00  0.00000000000E+00  0.45593999997E+02  0.45594000000E+02  0.51100000000E-03 0.  1.
         11   -1    0    0    0    0 -0.00000000000E+00 -0.00000000000E+00 -0.45593999997E+02  0.45594000000E+02  0.51100000000E-03 0. -1.
    9900012    2    1    2    0    0  0.79054363379E+00 -0.81027250935E+00  0.33374951324E+00  0.90007792597E+02  0.90000054659E+02 0.  0.
         12    1    1    2    0    0 -0.79054363379E+00  0.81027250935E+00 -0.33374951324E+00  0.11802074029E+01  0.00000000000E+00 0. -1.
         11    1    3    3    0    0 -0.30555382294E+02 -0.17735254227E+02  0.64352817443E+01  0.35910771100E+02  0.51100000000E-03 0. -1.
        -11    1    3    3    0    0  0.32635698091E+01 -0.88006443291E+01  0.91163253980E+01  0.13084709302E+02  0.51100000000E-03 0.  1.
        -12    1    3    3    0    0  0.28082356119E+02  0.25725626047E+02 -0.15217857629E+02  0.41012312194E+02  0.00000000000E+00 0.  1.
</event>
<event>
 7    1  0.4119305E-015  0.9000778E+02  0.7816164E-02  0.1186339E+00
        -11   -1    0    0    0    0  0.00000000000E+00  0.00000000000E+00  0.45593999997E+02  0.45594000000E+02  0.51100000000E-03 0.  1.
         11   -1    0    0    0    0 -0.00000000000E+00 -0.00000000000E+00 -0.45593999997E+02  0.45594000000E+02  0.51100000000E-03 0. -1.
    9900012    2    1    2    0    0 -0.37591713513E+00 -0.44096101382E+00  0.10281810744E+01  0.90007781109E+02  0.90000043020E+02 0.  0.
         12    1    1    2    0    0  0.37591713513E+00  0.44096101382E+00 -0.10281810744E+01  0.11802188907E+01  0.00000000000E+00 0. -1.
         11    1    3    3    0    0 -0.68535121093E+01  0.46263256707E+01  0.31939932889E+01  0.88642603095E+01  0.51100000000E-03 0. -1.
        -11    1    3    3    0    0  0.51554694654E+01  0.36905229472E+02  0.75973698787E+01  0.38030183501E+02  0.51100000000E-03 0.  1.
         12    1    3    3    0    0  0.13221255088E+01 -0.41972516157E+02 -0.97631820932E+01  0.43113337298E+02  0.00000000000E+00 0. -1.
</event>
<event>
 7    1  0.4119305E-015  0.9000799E+02  0.7816164E-02  0.1186339E+00
        -11   -1    0    0    0    0  0.00000000000E+00  0.00000000000E+00  0.45593999997E+02  0.45594000000E+02  0.51100000000E-03 0.  1.
         11   -1    0    0    0    0 -0.00000000000E+00 -0.00000000000E+00 -0.45593999997E+02  0.45594000000E+02  0.51100000000E-03 0. -1.
    9900012    2    1    2    0    0 -0.95629348282E+00 -0.69111031541E+00 -0.17312907807E-01  0.90007987106E+02  0.90000251735E+02 0.  0.
         12    1    1    2    0    0  0.95629348282E+00  0.69111031541E+00  0.17312907807E-01  0.11800128941E+01  0.00000000000E+00 0. -1.
         11    1    3    3    0    0  0.30433487039E+01 -0.84422115064E+00  0.38272761084E+01  0.49621289136E+01  0.51100000000E-03 0. -1.
        -11    1    3    3    0    0  0.73448453149E+01  0.38226438050E+02  0.14170219216E+02  0.41424659704E+02  0.51100000000E-03 0.  1.
         12    1    3    3    0    0 -0.11344487502E+02 -0.38073327215E+02 -0.18014808232E+02  0.43621198488E+02  0.00000000000E+00 0. -1.
</event>
<event>
 7    1  0.4119305E-015  0.9000807E+02  0.7816164E-02  0.1186338E+00
        -11   -1    0    0    0    0  0.00000000000E+00  0.00000000000E+00  0.45593999997E+02  0.45594000000E+02  0.51100000000E-03 0. -1.
         11   -1    0    0    0    0 -0.00000000000E+00 -0.00000000000E+00 -0.45593999997E+02  0.45594000000E+02  0.51100000000E-03 0.  1.
    9900012    2    1    2    0    0  0.11182781146E+01  0.22773443885E+00  0.29969979783E+00  0.90008072509E+02  0.90000338265E+02 0.  0.
         12    1    1    2    0    0 -0.11182781146E+01 -0.22773443885E+00 -0.29969979783E+00  0.11799274915E+01  0.00000000000E+00 0. -1.
         11    1    3    3    0    0  0.51667348900E+01 -0.27172351835E+02  0.25361306524E+02  0.37526360369E+02  0.51100000000E-03 0. -1.
        -11    1    3    3    0    0 -0.13988175489E+01  0.44933964121E+01  0.96917999281E+01  0.10773963429E+02  0.51100000000E-03 0.  1.
        -12    1    3    3    0    0 -0.26496392265E+01  0.22906689862E+02 -0.34753406654E+02  0.41707748711E+02  0.00000000000E+00 0.  1.
</event>
<event>
 7    1  0.4695029E-015  0.9000778E+02  0.7816164E-02  0.1186339E+00
        -11   -1    0    0    0    0  0.00000000000E+00  0.00000000000E+00  0.45593999997E+02  0.45594000000E+02  0.51100000000E-03 0.  1.
         11   -1    0    0    0    0 -0.00000000000E+00 -0.00000000000E+00 -0.45593999997E+02  0.45594000000E+02  0.51100000000E-03 0. -1.
    9900012    2    1    2    0    0 -0.12645095812E+00  0.54967861406E-01  0.11721400415E+01  0.90007778162E+02  0.90000040033E+02 0.  0.
         12    1    1    2    0    0  0.12645095812E+00 -0.54967861406E-01 -0.11721400415E+01  0.11802218382E+01  0.00000000000E+00 0. -1.
         11    1    3    3    0    0  0.30741157002E+02 -0.64630245423E+00 -0.29393625442E+02  0.42537297252E+02  0.51100000000E-03 0. -1.
        -11    1    3    3    0    0 -0.53155030092E+01  0.73311321992E+01  0.36303338730E+01  0.97559928174E+01  0.51100000000E-03 0.  1.
        -12    1    3    3    0    0 -0.25552104951E+02 -0.66298618836E+01  0.26935431610E+02  0.37714488092E+02  0.00000000000E+00 0.  1.
</event>
<event>
 7    1  0.4119305E-015  0.9000786E+02  0.7816164E-02  0.1186339E+00
        -11   -1    0    0    0    0  0.00000000000E+00  0.00000000000E+00  0.45593999997E+02  0.45594000000E+02  0.51100000000E-03 0.  1.
         11   -1    0    0    0    0 -0.00000000000E+00 -0.00000000000E+00 -0.45593999997E+02  0.45594000000E+02  0.51100000000E-03 0. -1.
    9900012    2    1    2    0    0  0.11763436491E+01 -0.90902492709E-01 -0.26319943888E-01  0.90007855779E+02  0.90000118675E+02 0.  0.
         12    1    1    2    0    0 -0.11763436491E+01  0.90902492709E-01  0.26319943888E-01  0.11801442214E+01  0.00000000000E+00 0. -1.
         11    1    3    3    0    0  0.47531926084E+01 -0.37317270046E+01  0.78785301971E+01  0.99292429085E+01  0.51100000000E-03 0. -1.
        -11    1    3    3    0    0 -0.18419570307E+02  0.41948085986E+01  0.32188412801E+02  0.37322525482E+02  0.51100000000E-03 0.  1.
         12    1    3    3    0    0  0.14842721348E+02 -0.55398408672E+00 -0.40093262942E+02  0.42756087388E+02  0.00000000000E+00 0. -1.
</event>
<event>
 7    1  0.4119305E-015  0.9000764E+02  0.7816164E-02  0.1186339E+00
        -11   -1    0    0    0    0  0.00000000000E+00  0.00000000000E+00  0.45593999997E+02  0.45594000000E+02  0.51100000000E-03 0.  1.
         11   -1    0    0    0    0 -0.00000000000E+00 -0.00000000000E+00 -0.45593999997E+02  0.45594000000E+02  0.51100000000E-03 0. -1.
    9900012    2    1    2    0    0  0.10107915996E+01  0.60919884922E+00  0.20870784388E-01  0.90007636291E+02  0.89999896290E+02 0.  0.
         12    1    1    2    0    0 -0.10107915996E+01 -0.60919884922E+00 -0.20870784388E-01  0.11803637089E+01  0.00000000000E+00 0. -1.
         11    1    3    3    0    0 -0.14397129394E+02  0.20279372711E+02 -0.25112882465E+02  0.35343841872E+02  0.51100000000E-03 0. -1.
        -11    1    3    3    0    0 -0.48179426308E+01  0.10103708008E+02  0.81244687947E+00  0.11223081435E+02  0.51100000000E-03 0.  1.
        -12    1    3    3    0    0  0.20225863625E+02 -0.29773881870E+02  0.24321306370E+02  0.43440712983E+02  0.00000000000E+00 0.  1.
</event>
<event>
 7    1  0.4119305E-015  0.9000764E+02  0.7816164E-02  0.1186339E+00
        -11   -1    0    0    0    0  0.00000000000E+00  0.00000000000E+00  0.45593999997E+02  0.45594000000E+02  0.51100000000E-03 0. -1.
         11   -1    0    0    0    0 -0.00000000000E+00 -0.00000000000E+00 -0.45593999997E+02  0.45594000000E+02  0.51100000000E-03 0.  1.
    9900012    2    1    2    0    0 -0.19828535546E-01  0.10274622340E+01  0.58067780386E+00  0.90007636274E+02  0.89999896273E+02 0.  0.
         12    1    1    2    0    0  0.19828535546E-01 -0.10274622340E+01 -0.58067780386E+00  0.11803637258E+01  0.00000000000E+00 0. -1.
         11    1    3    3    0    0  0.50940978323E+01  0.59300024570E+01 -0.52256810450E+00  0.78350392181E+01  0.51100000000E-03 0. -1.
        -11    1    3    3    0    0 -0.70594450851E+01  0.72112411425E+01 -0.38974067684E+02  0.40259355631E+02  0.51100000000E-03 0.  1.
         12    1    3    3    0    0  0.19455187172E+01 -0.12113781365E+02  0.40077313592E+02  0.41913241426E+02  0.00000000000E+00 0. -1.
</event>
<event>
 7    1  0.4119305E-015  0.9000774E+02  0.7816164E-02  0.1186339E+00
        -11   -1    0    0    0    0  0.00000000000E+00  0.00000000000E+00  0.45593999997E+02  0.45594000000E+02  0.51100000000E-03 0. -1.
         11   -1    0    0    0    0 -0.00000000000E+00 -0.00000000000E+00 -0.45593999997E+02  0.45594000000E+02  0.51100000000E-03 0.  1.
    9900012    2    1    2    0    0  0.28744751743E+00 -0.11182207958E+01 -0.24489295414E+00  0.90007738850E+02  0.90000000203E+02 0.  0.
         12    1    1    2    0    0 -0.28744751743E+00  0.11182207958E+01  0.24489295414E+00  0.11802611501E+01  0.00000000000E+00 0. -1.
         11    1    3    3    0    0  0.35971038383E+02 -0.17996645079E+01  0.60090605254E+01  0.36513876860E+02  0.51100000000E-03 0. -1.
        -11    1    3    3    0    0  0.77580903123E+01  0.53435197132E+01 -0.16064749540E+01  0.95562508473E+01  0.51100000000E-03 0.  1.
        -12    1    3    3    0    0 -0.43441681178E+02 -0.46620760011E+01 -0.46474785256E+01  0.43937611142E+02  0.00000000000E+00 0.  1.
</event>
<event>
 7    1  0.4119305E-015  0.9000774E+02  0.7816164E-02  0.1186339E+00
        -11   -1    0    0    0    0  0.00000000000E+00  0.00000000000E+00  0.45593999997E+02  0.45594000000E+02  0.51100000000E-03 0.  1.
         11   -1    0    0    0    0 -0.00000000000E+00 -0.00000000000E+00 -0.45593999997E+02  0.45594000000E+02  0.51100000000E-03 0. -1.
    9900012    2    1    2    0    0 -0.90317300230E+00  0.71522529252E+00  0.25640185609E+00  0.90007741298E+02  0.90000002683E+02 0.  0.
         12    1    1    2    0    0  0.90317300230E+00 -0.71522529252E+00 -0.25640185609E+00  0.11802587017E+01  0.00000000000E+00 0. -1.
         11    1    3    3    0    0 -0.35450211204E+02 -0.13091619840E+00  0.48262059434E+01  0.35777463263E+02  0.51100000000E-03 0. -1.
        -11    1    3    3    0    0 -0.96833007540E+01 -0.29084178911E+00  0.47096978211E+00  0.96991089918E+01  0.51100000000E-03 0.  1.
        -12    1    3    3    0    0  0.44230338956E+02  0.11369832800E+01 -0.50407738694E+01  0.44531169043E+02  0.00000000000E+00 0.  1.
</event>
<event>
 7    1  0.4119305E-015  0.9000779E+02  0.7816164E-02  0.1186339E+00
        -11   -1    0    0    0    0  0.00000000000E+00  0.00000000000E+00  0.45593999997E+02  0.45594000000E+02  0.51100000000E-03 0. -1.
         11   -1    0    0    0    0 -0.00000000000E+00 -0.00000000000E+00 -0.45593999997E+02  0.45594000000E+02  0.51100000000E-03 0.  1.
    9900012    2    1    2    0    0 -0.19016974486E+00  0.52161522002E+00 -0.10414638512E+01  0.90007790729E+02  0.90000052767E+02 0.  0.
         12    1    1    2    0    0  0.19016974486E+00 -0.52161522002E+00  0.10414638512E+01  0.11802092708E+01  0.00000000000E+00 0. -1.
         11    1    3    3    0    0  0.37623345184E+01 -0.17867765206E+00 -0.90448058490E+01  0.97977344238E+01  0.51100000000E-03 0. -1.
        -11    1    3    3    0    0 -0.24486935367E+02  0.33131155000E+02  0.11250457433E+01  0.41213458524E+02  0.51100000000E-03 0.  1.
         12    1    3    3    0    0  0.20534431104E+02 -0.32430862128E+02  0.68782962546E+01  0.38996597781E+02  0.00000000000E+00 0. -1.
</event>
<event>
 7    1  0.4119305E-015  0.9000720E+02  0.7816164E-02  0.1186340E+00
        -11   -1    0    0    0    0  0.00000000000E+00  0.00000000000E+00  0.45593999997E+02  0.45594000000E+02  0.51100000000E-03 0.  1.
         11   -1    0    0    0    0 -0.00000000000E+00 -0.00000000000E+00 -0.45593999997E+02  0.45594000000E+02  0.51100000000E-03 0. -1.
    9900012    2    1    2    0    0 -0.10392147332E+01 -0.55071821805E+00  0.10499001934E+00  0.90007203353E+02  0.89999457636E+02 0.  0.
         12    1    1    2    0    0  0.10392147332E+01  0.55071821805E+00 -0.10499001934E+00  0.11807966470E+01  0.00000000000E+00 0. -1.
         11    1    3    3    0    0 -0.92616999428E+00  0.19913839265E+01 -0.28708283622E+01  0.36145617366E+01  0.51100000000E-03 0. -1.
        -11    1    3    3    0    0 -0.32385186698E+02 -0.29280086878E+02 -0.42469259839E+01  0.43865250320E+02  0.51100000000E-03 0.  1.
         12    1    3    3    0    0  0.32272141959E+02  0.26737984734E+02  0.72227443655E+01  0.42527391296E+02  0.00000000000E+00 0. -1.
</event>
<event>
 7    1  0.5846223E-015  0.9000777E+02  0.7816164E-02  0.1186339E+00
        -11   -1    0    0    0    0  0.00000000000E+00  0.00000000000E+00  0.45593999997E+02  0.45594000000E+02  0.51100000000E-03 0.  1.
         11   -1    0    0    0    0 -0.00000000000E+00 -0.00000000000E+00 -0.45593999997E+02  0.45594000000E+02  0.51100000000E-03 0. -1.
    9900012    2    1    2    0    0 -0.81831200558E+00  0.97288889269E-01  0.84489419206E+00  0.90007768725E+02  0.90000030472E+02 0.  0.
         12    1    1    2    0    0  0.81831200558E+00 -0.97288889269E-01 -0.84489419206E+00  0.11802312749E+01  0.00000000000E+00 0. -1.
         11    1    3    3    0    0 -0.38138233301E+00 -0.29785452875E+02 -0.22938377025E+02  0.37596380095E+02  0.51100000000E-03 0. -1.
        -11    1    3    3    0    0 -0.56669453637E+01 -0.22720538621E+00 -0.70168709392E+01  0.90223262012E+01  0.51100000000E-03 0.  1.
        -12    1    3    3    0    0  0.52300156911E+01  0.30109947151E+02  0.30800142157E+02  0.43389062428E+02  0.00000000000E+00 0.  1.
</event>
<event>
 7    1  0.4119305E-015  0.9000772E+02  0.7816164E-02  0.1186339E+00
        -11   -1    0    0    0    0  0.00000000000E+00  0.00000000000E+00  0.45593999997E+02  0.45594000000E+02  0.51100000000E-03 0. -1.
         11   -1    0    0    0    0 -0.00000000000E+00 -0.00000000000E+00 -0.45593999997E+02  0.45594000000E+02  0.51100000000E-03 0.  1.
    9900012    2    1    2    0    0 -0.94162293215E+00 -0.41205127777E+00  0.58019907889E+00  0.90007715724E+02  0.89999976771E+02 0.  0.
         12    1    1    2    0    0  0.94162293215E+00  0.41205127777E+00 -0.58019907889E+00  0.11802842763E+01  0.00000000000E+00 0. -1.
         11    1    3    3    0    0 -0.31629723071E+02 -0.62701805169E+01  0.13028551904E+02  0.34777833604E+02  0.51100000000E-03 0. -1.
        -11    1    3    3    0    0 -0.11324182166E+02 -0.13085643165E-01 -0.15327783845E+01  0.11427453032E+02  0.51100000000E-03 0.  1.
        -12    1    3    3    0    0  0.42012282304E+02  0.58712148823E+01 -0.10915574441E+02  0.43802429087E+02  0.00000000000E+00 0.  1.
</event>
<event>
 7    1  0.4119305E-015  0.9000778E+02  0.7816164E-02  0.1186339E+00
        -11   -1    0    0    0    0  0.00000000000E+00  0.00000000000E+00  0.45593999997E+02  0.45594000000E+02  0.51100000000E-03 0.  1.
         11   -1    0    0    0    0 -0.00000000000E+00 -0.00000000000E+00 -0.45593999997E+02  0.45594000000E+02  0.51100000000E-03 0. -1.
    9900012    2    1    2    0    0 -0.14618111130E+00 -0.74732857361E+00  0.90169115158E+00  0.90007781441E+02  0.90000043356E+02 0.  0.
         12    1    1    2    0    0  0.14618111130E+00  0.74732857361E+00 -0.90169115158E+00  0.11802185590E+01  0.00000000000E+00 0. -1.
         11    1    3    3    0    0  0.28903487269E+02  0.23043816719E+02 -0.29330074986E+01  0.37081418507E+02  0.51100000000E-03 0. -1.
        -11    1    3    3    0    0  0.49673837225E+01  0.43811516956E+01  0.56716018344E+01  0.87198886951E+01  0.51100000000E-03 0.  1.
        -12    1    3    3    0    0 -0.34017052102E+02 -0.28172296988E+02 -0.18369031842E+01  0.44206474239E+02  0.00000000000E+00 0.  1.
</event>
<event>
 7    1  0.5104313E-015  0.9000788E+02  0.7816164E-02  0.1186339E+00
        -11   -1    0    0    0    0  0.00000000000E+00  0.00000000000E+00  0.45593999997E+02  0.45594000000E+02  0.51100000000E-03 0. -1.
         11   -1    0    0    0    0 -0.00000000000E+00 -0.00000000000E+00 -0.45593999997E+02  0.45594000000E+02  0.51100000000E-03 0.  1.
    9900012    2    1    2    0    0  0.78128703261E+00 -0.91799536437E-01 -0.87968125154E+00  0.90007883189E+02  0.90000146447E+02 0.  0.
         12    1    1    2    0    0 -0.78128703261E+00  0.91799536437E-01  0.87968125154E+00  0.11801168105E+01  0.00000000000E+00 0. -1.
         11    1    3    3    0    0 -0.71889831096E+01  0.23481175903E+02  0.25987984912E+02  0.35755034050E+02  0.51100000000E-03 0. -1.
        -11    1    3    3    0    0 -0.49256772745E+01  0.10945838837E+01  0.81098161590E+01  0.95514150200E+01  0.51100000000E-03 0.  1.
        -12    1    3    3    0    0  0.12895947417E+02 -0.24667559323E+02 -0.34977482322E+02  0.44701434119E+02  0.00000000000E+00 0.  1.
</event>
<event>
 7    1  0.4119305E-015  0.9000770E+02  0.7816164E-02  0.1186339E+00
        -11   -1    0    0    0    0  0.00000000000E+00  0.00000000000E+00  0.45593999997E+02  0.45594000000E+02  0.51100000000E-03 0.  1.
         11   -1    0    0    0    0 -0.00000000000E+00 -0.00000000000E+00 -0.45593999997E+02  0.45594000000E+02  0.51100000000E-03 0. -1.
    9900012    2    1    2    0    0 -0.81301275376E+00  0.77776740512E+00  0.35665665681E+00  0.90007696715E+02  0.89999957511E+02 0.  0.
         12    1    1    2    0    0  0.81301275376E+00 -0.77776740512E+00 -0.35665665681E+00  0.11803032852E+01  0.00000000000E+00 0. -1.
         11    1    3    3    0    0  0.73139331393E+01 -0.69469929511E+01 -0.24461531782E+01  0.10379691453E+02  0.51100000000E-03 0. -1.
        -11    1    3    3    0    0  0.65782529486E+01 -0.24795660423E+02  0.26424283931E+02  0.36828534714E+02  0.51100000000E-03 0.  1.
         12    1    3    3    0    0 -0.14705198842E+02  0.32520420779E+02 -0.23621474096E+02  0.42799470547E+02  0.00000000000E+00 0. -1.
</event>
<event>
 7    1  0.4119305E-015  0.9000781E+02  0.7816164E-02  0.1186339E+00
        -11   -1    0    0    0    0  0.00000000000E+00  0.00000000000E+00  0.45593999997E+02  0.45594000000E+02  0.51100000000E-03 0. -1.
         11   -1    0    0    0    0 -0.00000000000E+00 -0.00000000000E+00 -0.45593999997E+02  0.45594000000E+02  0.51100000000E-03 0.  1.
    9900012    2    1    2    0    0  0.27807871643E+00 -0.10425323989E+01 -0.47818222879E+00  0.90007805177E+02  0.90000067406E+02 0.  0.
         12    1    1    2    0    0 -0.27807871643E+00  0.10425323989E+01  0.47818222879E+00  0.11801948226E+01  0.00000000000E+00 0. -1.
         11    1    3    3    0    0 -0.30258268072E+01 -0.47323769170E+00 -0.91848534209E+01  0.96819995045E+01  0.51100000000E-03 0. -1.
        -11    1    3    3    0    0  0.39085682407E+02  0.64771521205E+01  0.16694197069E+02  0.42992328210E+02  0.51100000000E-03 0.  1.
         12    1    3    3    0    0 -0.35781776884E+02 -0.70464468277E+01 -0.79875258774E+01  0.37333477463E+02  0.00000000000E+00 0. -1.
</event>
<event>
 7    1  0.4119305E-015  0.9000821E+02  0.7816164E-02  0.1186338E+00
        -11   -1    0    0    0    0  0.00000000000E+00  0.00000000000E+00  0.45593999997E+02  0.45594000000E+02  0.51100000000E-03 0.  1.
         11   -1    0    0    0    0 -0.00000000000E+00 -0.00000000000E+00 -0.45593999997E+02  0.45594000000E+02  0.51100000000E-03 0. -1.
    9900012    2    1    2    0    0 -0.69263496032E+00  0.84204904267E+00  0.45069098751E+00  0.90008206736E+02  0.90000474264E+02 0.  0.
         12    1    1    2    0    0  0.69263496032E+00 -0.84204904267E+00 -0.45069098751E+00  0.11797932636E+01  0.00000000000E+00 0. -1.
         11    1    3    3    0    0 -0.27972590855E+01  0.18976679122E+01  0.75130742189E+01  0.82384516977E+01  0.51100000000E-03 0. -1.
        -11    1    3    3    0    0  0.12441673397E+02 -0.38648811711E+02  0.51169905931E+01  0.40923214397E+02  0.51100000000E-03 0.  1.
         12    1    3    3    0    0 -0.10337049272E+02  0.37593192841E+02 -0.12179373825E+02  0.40846540642E+02  0.00000000000E+00 0. -1.
</event>
<event>
 7    1  0.4119305E-015  0.9000799E+02  0.7816164E-02  0.1186339E+00
        -11   -1    0    0    0    0  0.00000000000E+00  0.00000000000E+00  0.45593999997E+02  0.45594000000E+02  0.51100000000E-03 0. -1.
         11   -1    0    0    0    0 -0.00000000000E+00 -0.00000000000E+00 -0.45593999997E+02  0.45594000000E+02  0.51100000000E-03 0.  1.
    9900012    2    1    2    0    0 -0.11737110389E+01 -0.11543694733E+00 -0.38657674518E-01  0.90007992497E+02  0.90000257197E+02 0.  0.
         12    1    1    2    0    0  0.11737110389E+01  0.11543694733E+00  0.38657674518E-01  0.11800075031E+01  0.00000000000E+00 0. -1.
         11    1    3    3    0    0  0.23696715061E+02  0.32841349150E+01  0.30196315548E+02  0.38524502849E+02  0.51100000000E-03 0. -1.
        -11    1    3    3    0    0  0.79461952964E+01 -0.17322598193E+01 -0.25697379814E+01  0.85291439971E+01  0.51100000000E-03 0.  1.
        -12    1    3    3    0    0 -0.32816621397E+02 -0.16673120430E+01 -0.27665235241E+02  0.42954345651E+02  0.00000000000E+00 0.  1.
</event>
<event>
 7    1  0.4119305E-015  0.9000777E+02  0.7816164E-02  0.1186339E+00
        -11   -1    0    0    0    0  0.00000000000E+00  0.00000000000E+00  0.45593999997E+02  0.45594000000E+02  0.51100000000E-03 0.  1.
         11   -1    0    0    0    0 -0.00000000000E+00 -0.00000000000E+00 -0.45593999997E+02  0.45594000000E+02  0.51100000000E-03 0. -1.
    9900012    2    1    2    0    0 -0.43891312592E+00 -0.43618979576E+00  0.10050041113E+01  0.90007771406E+02  0.90000033189E+02 0.  0.
         12    1    1    2    0    0  0.43891312592E+00  0.43618979576E+00 -0.10050041113E+01  0.11802285939E+01  0.00000000000E+00 0. -1.
         11    1    3    3    0    0  0.87811270368E+01 -0.19008211451E+01 -0.42003200200E+00  0.89943171061E+01  0.51100000000E-03 0. -1.
        -11    1    3    3    0    0 -0.65657375244E+00  0.84915791638E+01  0.39991114519E+02  0.40887984133E+02  0.51100000000E-03 0.  1.
         12    1    3    3    0    0 -0.85634664103E+01 -0.70269478144E+01 -0.38566078405E+02  0.40125470167E+02  0.00000000000E+00 0. -1.
</event>
<event>
 7    1  0.4119305E-015  0.9000779E+02  0.7816164E-02  0.1186339E+00
        -11   -1    0    0    0    0  0.00000000000E+00  0.00000000000E+00  0.45593999997E+02  0.45594000000E+02  0.51100000000E-03 0. -1.
         11   -1    0    0    0    0 -0.00000000000E+00 -0.00000000000E+00 -0.45593999997E+02  0.45594000000E+02  0.51100000000E-03 0.  1.
    9900012    2    1    2    0    0 -0.82184313443E+00  0.94349918153E-01 -0.84175872051E+00  0.90007794175E+02  0.90000056259E+02 0.  0.
         12    1    1    2    0    0  0.82184313443E+00 -0.94349918153E-01  0.84175872051E+00  0.11802058245E+01  0.00000000000E+00 0. -1.
         11    1    3    3    0    0  0.69908410429E+01 -0.60383368216E+01 -0.28136123875E+01  0.96565928249E+01  0.51100000000E-03 0. -1.
        -11    1    3    3    0    0 -0.31085603066E+02 -0.14559495024E+02 -0.22243182585E+02  0.40902967925E+02  0.51100000000E-03 0.  1.
         12    1    3    3    0    0  0.23272918888E+02  0.20692181764E+02  0.24215036252E+02  0.39448233426E+02  0.00000000000E+00 0. -1.
</event>
<event>
 7    1  0.4119305E-015  0.9000772E+02  0.7816164E-02  0.1186339E+00
        -11   -1    0    0    0    0  0.00000000000E+00  0.00000000000E+00  0.45593999997E+02  0.45594000000E+02  0.51100000000E-03 0. -1.
         11   -1    0    0    0    0 -0.00000000000E+00 -0.00000000000E+00 -0.45593999997E+02  0.45594000000E+02  0.51100000000E-03 0.  1.
    9900012    2    1    2    0    0 -0.95139437598E+00 -0.10195144945E+00 -0.69102076880E+00  0.90007722465E+02  0.89999983602E+02 0.  0.
         12    1    1    2    0    0  0.95139437598E+00  0.10195144945E+00  0.69102076880E+00  0.11802775350E+01  0.00000000000E+00 0. -1.
         11    1    3    3    0    0 -0.28354278654E+02 -0.60237869122E+01  0.20038895381E+02  0.35239302705E+02  0.51100000000E-03 0. -1.
        -11    1    3    3    0    0 -0.32391421680E+01 -0.96169957583E+00  0.10166148506E+02  0.10712958684E+02  0.51100000000E-03 0.  1.
        -12    1    3    3    0    0  0.30642026446E+02  0.68835350386E+01 -0.30896064656E+02  0.44055461076E+02  0.00000000000E+00 0.  1.
</event>
<event>
 7    1  0.4119305E-015  0.9000771E+02  0.7816164E-02  0.1186339E+00
        -11   -1    0    0    0    0  0.00000000000E+00  0.00000000000E+00  0.45593999997E+02  0.45594000000E+02  0.51100000000E-03 0.  1.
         11   -1    0    0    0    0 -0.00000000000E+00 -0.00000000000E+00 -0.45593999997E+02  0.45594000000E+02  0.51100000000E-03 0. -1.
    9900012    2    1    2    0    0 -0.71729634903E+00  0.83600169637E+00  0.42388922251E+00  0.90007705561E+02  0.89999966475E+02 0.  0.
         12    1    1    2    0    0  0.71729634903E+00 -0.83600169637E+00 -0.42388922251E+00  0.11802944385E+01  0.00000000000E+00 0. -1.
         11    1    3    3    0    0  0.51817877492E+01 -0.26445118871E+02  0.12042465738E+02  0.29516372028E+02  0.51100000000E-03 0. -1.
        -11    1    3    3    0    0  0.14184156107E+02 -0.96856580449E+01 -0.51194073019E+01  0.17922348831E+02  0.51100000000E-03 0.  1.
        -12    1    3    3    0    0 -0.20083240205E+02  0.36966778613E+02 -0.64991692141E+01  0.42568984702E+02  0.00000000000E+00 0.  1.
</event>
<event>
 7    1  0.4119305E-015  0.9000780E+02  0.7816164E-02  0.1186339E+00
        -11   -1    0    0    0    0  0.00000000000E+00  0.00000000000E+00  0.45593999997E+02  0.45594000000E+02  0.51100000000E-03 0. -1.
         11   -1    0    0    0    0 -0.00000000000E+00 -0.00000000000E+00 -0.45593999997E+02  0.45594000000E+02  0.51100000000E-03 0.  1.
    9900012    2    1    2    0    0 -0.46804157004E-01 -0.97863616439E-01 -0.11752064962E+01  0.90007797380E+02  0.90000059505E+02 0.  0.
         12    1    1    2    0    0  0.46804157004E-01  0.97863616439E-01  0.11752064962E+01  0.11802026204E+01  0.00000000000E+00 0. -1.
         11    1    3    3    0    0 -0.12707392827E+01 -0.20953113234E+01 -0.10066714075E+02  0.10360687255E+02  0.51100000000E-03 0. -1.
        -11    1    3    3    0    0  0.81894543094E+01  0.20740750766E+02 -0.29131816684E+02  0.36686627643E+02  0.51100000000E-03 0.  1.
         12    1    3    3    0    0 -0.69655191836E+01 -0.18743303059E+02  0.38023324263E+02  0.42960482482E+02  0.00000000000E+00 0. -1.
</event>
<event>
 7    1  0.4119305E-015  0.9000734E+02  0.7816164E-02  0.1186340E+00
        -11   -1    0    0    0    0  0.00000000000E+00  0.00000000000E+00  0.45593999997E+02  0.45594000000E+02  0.51100000000E-03 0.  1.
         11   -1    0    0    0    0 -0.00000000000E+00 -0.00000000000E+00 -0.45593999997E+02  0.45594000000E+02  0.51100000000E-03 0. -1.
    9900012    2    1    2    0    0  0.22459208395E+00 -0.11977689561E+00  0.11528946343E+01  0.90007341647E+02  0.89999597756E+02 0.  0.
         12    1    1    2    0    0 -0.22459208395E+00  0.11977689561E+00 -0.11528946343E+01  0.11806583531E+01  0.00000000000E+00 0. -1.
         11    1    3    3    0    0  0.68068335411E+01  0.69790539156E+01  0.14268244375E+01  0.98527155977E+01  0.51100000000E-03 0. -1.
        -11    1    3    3    0    0 -0.14198965491E+02  0.16482552443E+02  0.32473790410E+02  0.39087494418E+02  0.51100000000E-03 0.  1.
         12    1    3    3    0    0  0.76167240334E+01 -0.23581383255E+02 -0.32747720213E+02  0.41067131631E+02  0.00000000000E+00 0. -1.
</event>
<event>
 7    1  0.4119305E-015  0.9000767E+02  0.7816164E-02  0.1186339E+00
        -11   -1    0    0    0    0  0.00000000000E+00  0.00000000000E+00  0.45593999997E+02  0.45594000000E+02  0.51100000000E-03 0.  1.
         11   -1    0    0    0    0 -0.00000000000E+00 -0.00000000000E+00 -0.45593999997E+02  0.45594000000E+02  0.51100000000E-03 0. -1.
    9900012    2    1    2    0    0 -0.59621975719E+00  0.10107284233E+01 -0.12701406621E+00  0.90007668471E+02  0.89999928895E+02 0.  0.
         12    1    1    2    0    0  0.59621975719E+00 -0.10107284233E+01  0.12701406621E+00  0.11803315287E+01  0.00000000000E+00 0. -1.
         11    1    3    3    0    0 -0.95572285648E+01  0.26619494014E+01 -0.30998257209E+01  0.10394013287E+02  0.51100000000E-03 0. -1.
        -11    1    3    3    0    0 -0.25165159976E+02  0.20739121971E+02  0.16588846566E+02  0.36586695497E+02  0.51100000000E-03 0.  1.
         12    1    3    3    0    0  0.34126168784E+02 -0.22390342949E+02 -0.13616034911E+02  0.43026959687E+02  0.00000000000E+00 0. -1.
</event>
<event>
 7    1  0.4119305E-015  0.9000773E+02  0.7816164E-02  0.1186339E+00
        -11   -1    0    0    0    0  0.00000000000E+00  0.00000000000E+00  0.45593999997E+02  0.45594000000E+02  0.51100000000E-03 0.  1.
         11   -1    0    0    0    0 -0.00000000000E+00 -0.00000000000E+00 -0.45593999997E+02  0.45594000000E+02  0.51100000000E-03 0. -1.
    9900012    2    1    2    0    0 -0.51603874875E+00  0.10543588402E+01  0.12274010824E+00  0.90007731519E+02  0.89999992775E+02 0.  0.
         12    1    1    2    0    0  0.51603874875E+00 -0.10543588402E+01 -0.12274010824E+00  0.11802684815E+01  0.00000000000E+00 0. -1.
         11    1    3    3    0    0 -0.70963228047E+01 -0.19951217354E+02 -0.32160514580E+02  0.38505942004E+02  0.51100000000E-03 0. -1.
        -11    1    3    3    0    0 -0.59157396501E+01 -0.57904565139E+01  0.80751212530E+00  0.83172975383E+01  0.51100000000E-03 0.  1.
        -12    1    3    3    0    0  0.12496023706E+02  0.26796032709E+02  0.31475742563E+02  0.43184491977E+02  0.00000000000E+00 0.  1.
</event>
<event>
 7    1  0.4119305E-015  0.9000774E+02  0.7816164E-02  0.1186339E+00
        -11   -1    0    0    0    0  0.00000000000E+00  0.00000000000E+00  0.45593999997E+02  0.45594000000E+02  0.51100000000E-03 0.  1.
         11   -1    0    0    0    0 -0.00000000000E+00 -0.00000000000E+00 -0.45593999997E+02  0.45594000000E+02  0.51100000000E-03 0. -1.
    9900012    2    1    2    0    0 -0.10575350212E+01 -0.47297918156E+00  0.22565249887E+00  0.90007742114E+02  0.90000003510E+02 0.  0.
         12    1    1    2    0    0  0.10575350212E+01  0.47297918156E+00 -0.22565249887E+00  0.11802578860E+01  0.00000000000E+00 0. -1.
         11    1    3    3    0    0 -0.44730717767E+01  0.58830231259E+01 -0.19071664654E+01  0.76325366955E+01  0.51100000000E-03 0. -1.
        -11    1    3    3    0    0 -0.87469675593E+00  0.37869150297E+02  0.21883412351E+01  0.37942409995E+02  0.51100000000E-03 0.  1.
         12    1    3    3    0    0  0.42902335114E+01 -0.44225152604E+02 -0.55522270826E-01  0.44432795424E+02  0.00000000000E+00 0. -1.
</event>
<event>
 7    1  0.4119305E-015  0.9000764E+02  0.7816164E-02  0.1186339E+00
        -11   -1    0    0    0    0  0.00000000000E+00  0.00000000000E+00  0.45593999997E+02  0.45594000000E+02  0.51100000000E-03 0.  1.
         11   -1    0    0    0    0 -0.00000000000E+00 -0.00000000000E+00 -0.45593999997E+02  0.45594000000E+02  0.51100000000E-03 0. -1.
    9900012    2    1    2    0    0  0.19177421695E+00  0.79517834441E+00  0.85097646867E+00  0.90007641199E+02  0.89999901262E+02 0.  0.
         12    1    1    2    0    0 -0.19177421695E+00 -0.79517834441E+00 -0.85097646867E+00  0.11803588014E+01  0.00000000000E+00 0. -1.
         11    1    3    3    0    0  0.23836620389E+01 -0.24208877163E+01  0.91344596908E+01  0.97458142890E+01  0.51100000000E-03 0. -1.
        -11    1    3    3    0    0 -0.13004376956E+02 -0.12507090413E+02  0.31408006679E+02  0.36221595968E+02  0.51100000000E-03 0.  1.
         12    1    3    3    0    0  0.10812489135E+02  0.15723156474E+02 -0.39691489901E+02  0.44040230942E+02  0.00000000000E+00 0. -1.
</event>
<event>
 7    1  0.4119305E-015  0.9000769E+02  0.7816164E-02  0.1186339E+00
        -11   -1    0    0    0    0  0.00000000000E+00  0.00000000000E+00  0.45593999997E+02  0.45594000000E+02  0.51100000000E-03 0. -1.
         11   -1    0    0    0    0 -0.00000000000E+00 -0.00000000000E+00 -0.45593999997E+02  0.45594000000E+02  0.51100000000E-03 0.  1.
    9900012    2    1    2    0    0 -0.11472118263E+01  0.52010295420E-01  0.27265507319E+00  0.90007686129E+02  0.89999946786E+02 0.  0.
         12    1    1    2    0    0  0.11472118263E+01 -0.52010295420E-01 -0.27265507319E+00  0.11803138710E+01  0.00000000000E+00 0. -1.
         11    1    3    3    0    0 -0.24729515256E+02  0.11498433508E+02  0.24490548161E+02  0.36654465586E+02  0.51100000000E-03 0. -1.
        -11    1    3    3    0    0  0.16825457925E+02  0.10654878908E+02 -0.52591090079E-01  0.19915452418E+02  0.51100000000E-03 0.  1.
        -12    1    3    3    0    0  0.67568455046E+01 -0.22101302120E+02 -0.24165301997E+02  0.33437768125E+02  0.00000000000E+00 0.  1.
</event>
<event>
 7    1  0.4119305E-015  0.9000772E+02  0.7816164E-02  0.1186339E+00
        -11   -1    0    0    0    0  0.00000000000E+00  0.00000000000E+00  0.45593999997E+02  0.45594000000E+02  0.51100000000E-03 0. -1.
         11   -1    0    0    0    0 -0.00000000000E+00 -0.00000000000E+00 -0.45593999997E+02  0.45594000000E+02  0.51100000000E-03 0.  1.
    9900012    2    1    2    0    0 -0.67317109050E+00 -0.76867880267E+00 -0.59080010702E+00  0.90007715634E+02  0.89999976680E+02 0.  0.
         12    1    1    2    0    0  0.67317109050E+00  0.76867880267E+00  0.59080010702E+00  0.11802843662E+01  0.00000000000E+00 0. -1.
         11    1    3    3    0    0 -0.25101969307E+02 -0.34258239746E+02 -0.85103195642E+01  0.43314678724E+02  0.51100000000E-03 0. -1.
        -11    1    3    3    0    0  0.70490994909E+01  0.31235630019E+01  0.87926499877E+01  0.11694320995E+02  0.51100000000E-03 0.  1.
        -12    1    3    3    0    0  0.17379698725E+02  0.30365997942E+02 -0.87313053052E+00  0.34998715915E+02  0.00000000000E+00 0.  1.
</event>
<event>
 7    1  0.4119305E-015  0.9000744E+02  0.7816164E-02  0.1186340E+00
        -11   -1    0    0    0    0  0.00000000000E+00  0.00000000000E+00  0.45593999997E+02  0.45594000000E+02  0.51100000000E-03 0.  1.
         11   -1    0    0    0    0 -0.00000000000E+00 -0.00000000000E+00 -0.45593999997E+02  0.45594000000E+02  0.51100000000E-03 0. -1.
    9900012    2    1    2    0    0 -0.96085918927E+00 -0.33891792922E+00  0.59633439170E+00  0.90007436384E+02  0.89999693744E+02 0.  0.
         12    1    1    2    0    0  0.96085918927E+00  0.33891792922E+00 -0.59633439170E+00  0.11805636159E+01  0.00000000000E+00 0. -1.
         11    1    3    3    0    0  0.54311163930E+01 -0.34315204793E+02  0.11852361469E+02  0.36708429249E+02  0.51100000000E-03 0. -1.
        -11    1    3    3    0    0 -0.41902485329E+01 -0.67127459753E+01  0.50738311495E+01  0.94001544717E+01  0.51100000000E-03 0.  1.
        -12    1    3    3    0    0 -0.22017270493E+01  0.40689032840E+02 -0.16329858227E+02  0.43898852663E+02  0.00000000000E+00 0.  1.
</event>
<event>
 7    1  0.4119305E-015  0.9000775E+02  0.7816164E-02  0.1186339E+00
        -11   -1    0    0    0    0  0.00000000000E+00  0.00000000000E+00  0.45593999997E+02  0.45594000000E+02  0.51100000000E-03 0. -1.
         11   -1    0    0    0    0 -0.00000000000E+00 -0.00000000000E+00 -0.45593999997E+02  0.45594000000E+02  0.51100000000E-03 0.  1.
    9900012    2    1    2    0    0 -0.81185531334E+00 -0.83896994459E+00 -0.17324048471E+00  0.90007749229E+02  0.90000010718E+02 0.  0.
         12    1    1    2    0    0  0.81185531334E+00  0.83896994459E+00  0.17324048471E+00  0.11802507713E+01  0.00000000000E+00 0. -1.
         11    1    3    3    0    0 -0.25655947695E+01  0.89523711369E+01 -0.14528339005E+01  0.94253886974E+01  0.51100000000E-03 0. -1.
        -11    1    3    3    0    0  0.53517179243E+01 -0.26094020853E+01 -0.39029318742E+02  0.39480850874E+02  0.51100000000E-03 0.  1.
         12    1    3    3    0    0 -0.35979784682E+01 -0.71819389962E+01  0.40308912158E+02  0.41101509658E+02  0.00000000000E+00 0. -1.
</event>
<event>
 7    1  0.4119305E-015  0.9000775E+02  0.7816164E-02  0.1186339E+00
        -11   -1    0    0    0    0  0.00000000000E+00  0.00000000000E+00  0.45593999997E+02  0.45594000000E+02  0.51100000000E-03 0.  1.
         11   -1    0    0    0    0 -0.00000000000E+00 -0.00000000000E+00 -0.45593999997E+02  0.45594000000E+02  0.51100000000E-03 0. -1.
    9900012    2    1    2    0    0 -0.14002066216E+00  0.11035314940E+01 -0.39446163095E+00  0.90007751076E+02  0.90000012590E+02 0.  0.
         12    1    1    2    0    0  0.14002066216E+00 -0.11035314940E+01  0.39446163095E+00  0.11802489239E+01  0.00000000000E+00 0. -1.
         11    1    3    3    0    0  0.15795382618E+01 -0.90087925161E+01 -0.48364298434E+01  0.10346223350E+02  0.51100000000E-03 0. -1.
        -11    1    3    3    0    0 -0.24155272728E+02 -0.25696609417E+02 -0.68398231128E+01  0.35924589303E+02  0.51100000000E-03 0.  1.
         12    1    3    3    0    0  0.22435713804E+02  0.35808933427E+02  0.11281791325E+02  0.43736938423E+02  0.00000000000E+00 0. -1.
</event>
<event>
 7    1  0.4119305E-015  0.9000760E+02  0.7816164E-02  0.1186339E+00
        -11   -1    0    0    0    0  0.00000000000E+00  0.00000000000E+00  0.45593999997E+02  0.45594000000E+02  0.51100000000E-03 0.  1.
         11   -1    0    0    0    0 -0.00000000000E+00 -0.00000000000E+00 -0.45593999997E+02  0.45594000000E+02  0.51100000000E-03 0. -1.
    9900012    2    1    2    0    0 -0.10906988411E+01  0.38636246964E+00 -0.23331872645E+00  0.90007602801E+02  0.89999862358E+02 0.  0.
         12    1    1    2    0    0  0.10906988411E+01 -0.38636246964E+00  0.23331872645E+00  0.11803971992E+01  0.00000000000E+00 0. -1.
         11    1    3    3    0    0 -0.76395306772E+01  0.74721786264E+01 -0.43162723934E+02  0.44465904017E+02  0.51100000000E-03 0. -1.
        -11    1    3    3    0    0  0.48166933633E+01  0.10054344626E+01  0.63242498822E+01  0.80129626387E+01  0.51100000000E-03 0.  1.
        -12    1    3    3    0    0  0.17321384728E+01 -0.80912506194E+01  0.36605155325E+02  0.37528736145E+02  0.00000000000E+00 0.  1.
</event>
<event>
 7    1  0.4119305E-015  0.9000780E+02  0.7816164E-02  0.1186339E+00
        -11   -1    0    0    0    0  0.00000000000E+00  0.00000000000E+00  0.45593999997E+02  0.45594000000E+02  0.51100000000E-03 0.  1.
         11   -1    0    0    0    0 -0.00000000000E+00 -0.00000000000E+00 -0.45593999997E+02  0.45594000000E+02  0.51100000000E-03 0. -1.
    9900012    2    1    2    0    0  0.81245856251E+00  0.63559879014E+00 -0.57341338638E+00  0.90007797623E+02  0.90000059752E+02 0.  0.
         12    1    1    2    0    0 -0.81245856251E+00 -0.63559879014E+00  0.57341338638E+00  0.11802023765E+01  0.00000000000E+00 0. -1.
         11    1    3    3    0    0  0.24439212066E+01 -0.64451182284E+01  0.60583486837E+01  0.91769215359E+01  0.51100000000E-03 0. -1.
        -11    1    3    3    0    0 -0.14831269870E+02  0.55530255976E+01  0.34309002536E+02  0.37787700572E+02  0.51100000000E-03 0.  1.
         12    1    3    3    0    0  0.13199807226E+02  0.15276914210E+01 -0.40940764606E+02  0.43043175515E+02  0.00000000000E+00 0. -1.
</event>
<event>
 7    1  0.4119305E-015  0.9000773E+02  0.7816164E-02  0.1186339E+00
        -11   -1    0    0    0    0  0.00000000000E+00  0.00000000000E+00  0.45593999997E+02  0.45594000000E+02  0.51100000000E-03 0.  1.
         11   -1    0    0    0    0 -0.00000000000E+00 -0.00000000000E+00 -0.45593999997E+02  0.45594000000E+02  0.51100000000E-03 0. -1.
    9900012    2    1    2    0    0  0.34863418396E+00  0.97982686416E+00  0.55805849745E+00  0.90007730639E+02  0.89999991883E+02 0.  0.
         12    1    1    2    0    0 -0.34863418396E+00 -0.97982686416E+00 -0.55805849745E+00  0.11802693610E+01  0.00000000000E+00 0. -1.
         11    1    3    3    0    0 -0.13736151930E+02  0.12793346783E+02 -0.34071687001E+02  0.38900275669E+02  0.51100000000E-03 0. -1.
        -11    1    3    3    0    0 -0.87847917004E+01  0.49111816551E+00  0.13615182419E+01  0.89032294397E+01  0.51100000000E-03 0.  1.
        -12    1    3    3    0    0  0.22869577815E+02 -0.12304638085E+02  0.33268227257E+02  0.42204225530E+02  0.00000000000E+00 0.  1.
</event>
<event>
 7    1  0.4119305E-015  0.9000775E+02  0.7816164E-02  0.1186339E+00
        -11   -1    0    0    0    0  0.00000000000E+00  0.00000000000E+00  0.45593999997E+02  0.45594000000E+02  0.51100000000E-03 0. -1.
         11   -1    0    0    0    0 -0.00000000000E+00 -0.00000000000E+00 -0.45593999997E+02  0.45594000000E+02  0.51100000000E-03 0.  1.
    9900012    2    1    2    0    0  0.99018955977E+00  0.48150173436E+00  0.42504506019E+00  0.90007753167E+02  0.90000014708E+02 0.  0.
         12    1    1    2    0    0 -0.99018955977E+00 -0.48150173436E+00 -0.42504506019E+00  0.11802468334E+01  0.00000000000E+00 0. -1.
         11    1    3    3    0    0  0.41348923297E+01 -0.26685092508E+02  0.26681621403E+02  0.37961828429E+02  0.51100000000E-03 0. -1.
        -11    1    3    3    0    0  0.99636469093E+01 -0.28230395090E+01 -0.44873927762E+00  0.10365576636E+02  0.51100000000E-03 0.  1.
        -12    1    3    3    0    0 -0.13108349679E+02  0.29989633752E+02 -0.25807837065E+02  0.41680348101E+02  0.00000000000E+00 0.  1.
</event>
<event>
 7    1  0.4119305E-015  0.9000769E+02  0.7816164E-02  0.1186339E+00
        -11   -1    0    0    0    0  0.00000000000E+00  0.00000000000E+00  0.45593999997E+02  0.45594000000E+02  0.51100000000E-03 0.  1.
         11   -1    0    0    0    0 -0.00000000000E+00 -0.00000000000E+00 -0.45593999997E+02  0.45594000000E+02  0.51100000000E-03 0. -1.
    9900012    2    1    2    0    0 -0.87911472024E+00  0.21512196484E+00  0.75763056359E+00  0.90007693166E+02  0.89999953916E+02 0.  0.
         12    1    1    2    0    0  0.87911472024E+00 -0.21512196484E+00 -0.75763056359E+00  0.11803068338E+01  0.00000000000E+00 0. -1.
         11    1    3    3    0    0  0.49246122018E+01  0.87191512856E+01  0.88423978367E+00  0.10052725239E+02  0.51100000000E-03 0. -1.
        -11    1    3    3    0    0 -0.40769016379E+01  0.67373625432E+01  0.38026799827E+02  0.38833628292E+02  0.51100000000E-03 0.  1.
         12    1    3    3    0    0 -0.17268252841E+01 -0.15241391864E+02 -0.38153409047E+02  0.41121339635E+02  0.00000000000E+00 0. -1.
</event>
<event>
 7    1  0.4119305E-015  0.9000775E+02  0.7816164E-02  0.1186339E+00
        -11   -1    0    0    0    0  0.00000000000E+00  0.00000000000E+00  0.45593999997E+02  0.45594000000E+02  0.51100000000E-03 0. -1.
         11   -1    0    0    0    0 -0.00000000000E+00 -0.00000000000E+00 -0.45593999997E+02  0.45594000000E+02  0.51100000000E-03 0.  1.
    9900012    2    1    2    0    0 -0.22521094736E+00 -0.10863873697E+01  0.40252271229E+00  0.90007753406E+02  0.90000014951E+02 0.  0.
         12    1    1    2    0    0  0.22521094736E+00  0.10863873697E+01 -0.40252271229E+00  0.11802465936E+01  0.00000000000E+00 0. -1.
         11    1    3    3    0    0  0.75733806370E+00  0.84304084687E+01 -0.43072494796E+01  0.94972494035E+01  0.51100000000E-03 0. -1.
        -11    1    3    3    0    0 -0.28231903135E+02 -0.22516411905E+02 -0.20193237147E+02  0.41373856316E+02  0.51100000000E-03 0.  1.
         12    1    3    3    0    0  0.27249354124E+02  0.12999616066E+02  0.24903009339E+02  0.39136647687E+02  0.00000000000E+00 0. -1.
</event>
<event>
 7    1  0.4119305E-015  0.9000773E+02  0.7816164E-02  0.1186339E+00
        -11   -1    0    0    0    0  0.00000000000E+00  0.00000000000E+00  0.45593999997E+02  0.45594000000E+02  0.51100000000E-03 0.  1.
         11   -1    0    0    0    0 -0.00000000000E+00 -0.00000000000E+00 -0.45593999997E+02  0.45594000000E+02  0.51100000000E-03 0. -1.
    9900012    2    1    2    0    0 -0.24399818860E-01  0.10553872363E+01 -0.52782702973E+00  0.90007729292E+02  0.89999990519E+02 0.  0.
         12    1    1    2    0    0  0.24399818860E-01 -0.10553872363E+01  0.52782702973E+00  0.11802707075E+01  0.00000000000E+00 0. -1.
         11    1    3    3    0    0  0.69126463311E+01 -0.12847744295E+02  0.56476883028E+01  0.15644347100E+02  0.51100000000E-03 0. -1.
        -11    1    3    3    0    0  0.27387443096E+02 -0.69895803655E+01  0.11435031090E+02  0.30490756129E+02  0.51100000000E-03 0.  1.
         12    1    3    3    0    0 -0.34324489246E+02  0.20892711897E+02 -0.17610546422E+02  0.43872626063E+02  0.00000000000E+00 0. -1.
</event>
<event>
 7    1  0.4119305E-015  0.9000794E+02  0.7816164E-02  0.1186339E+00
        -11   -1    0    0    0    0  0.00000000000E+00  0.00000000000E+00  0.45593999997E+02  0.45594000000E+02  0.51100000000E-03 0.  1.
         11   -1    0    0    0    0 -0.00000000000E+00 -0.00000000000E+00 -0.45593999997E+02  0.45594000000E+02  0.51100000000E-03 0. -1.
    9900012    2    1    2    0    0  0.64960476426E+00  0.98220531495E+00 -0.76376222823E-01  0.90007937731E+02  0.90000201709E+02 0.  0.
         12    1    1    2    0    0 -0.64960476426E+00 -0.98220531495E+00  0.76376222823E-01  0.11800622686E+01  0.00000000000E+00 0. -1.
         11    1    3    3    0    0 -0.50607162625E+01  0.27447457904E+01  0.67862028627E+01  0.88992712116E+01  0.51100000000E-03 0. -1.
        -11    1    3    3    0    0 -0.16064722326E+02 -0.30899216078E+02  0.15810286208E+02  0.38246594722E+02  0.51100000000E-03 0.  1.
         12    1    3    3    0    0  0.21775043353E+02  0.29136675602E+02 -0.22672865293E+02  0.42862071797E+02  0.00000000000E+00 0. -1.
</event>
<event>
 7    1  0.5011240E-015  0.9000775E+02  0.7816164E-02  0.1186339E+00
        -11   -1    0    0    0    0  0.00000000000E+00  0.00000000000E+00  0.45593999997E+02  0.45594000000E+02  0.51100000000E-03 0. -1.
         11   -1    0    0    0    0 -0.00000000000E+00 -0.00000000000E+00 -0.45593999997E+02  0.45594000000E+02  0.51100000000E-03 0.  1.
    9900012    2    1    2    0    0 -0.68774612368E+00  0.86636917921E+00  0.41158112179E+00  0.90007750321E+02  0.90000011825E+02 0.  0.
         12    1    1    2    0    0  0.68774612368E+00 -0.86636917921E+00 -0.41158112179E+00  0.11802496792E+01  0.00000000000E+00 0. -1.
         11    1    3    3    0    0 -0.34236787424E+02 -0.89063865919E+01 -0.98706372829E+01  0.36727521233E+02  0.51100000000E-03 0. -1.
        -11    1    3    3    0    0 -0.71583776379E+01  0.22042914940E+01 -0.51533157529E+01  0.90916409359E+01  0.51100000000E-03 0.  1.
        -12    1    3    3    0    0  0.40707418939E+02  0.75684642771E+01  0.15435534158E+02  0.44188588152E+02  0.00000000000E+00 0.  1.
</event>
<event>
 7    1  0.4119305E-015  0.9000774E+02  0.7816164E-02  0.1186339E+00
        -11   -1    0    0    0    0  0.00000000000E+00  0.00000000000E+00  0.45593999997E+02  0.45594000000E+02  0.51100000000E-03 0.  1.
         11   -1    0    0    0    0 -0.00000000000E+00 -0.00000000000E+00 -0.45593999997E+02  0.45594000000E+02  0.51100000000E-03 0. -1.
    9900012    2    1    2    0    0 -0.17763918378E+00  0.96208932245E+00  0.66018583627E+00  0.90007738638E+02  0.89999999988E+02 0.  0.
         12    1    1    2    0    0  0.17763918378E+00 -0.96208932245E+00 -0.66018583627E+00  0.11802613619E+01  0.00000000000E+00 0. -1.
         11    1    3    3    0    0 -0.86759932410E+01 -0.16488818861E+02  0.37655067627E+02  0.42012594830E+02  0.51100000000E-03 0.  1.
        -11    1    3    3    0    0 -0.66179156658E+01  0.77937028996E+01 -0.23243364067E+02  0.25392766412E+02  0.51100000000E-03 0. -1.
        -12    1    3    3    0    0  0.15116269723E+02  0.96572052836E+01 -0.13751517724E+02  0.22602377396E+02  0.00000000000E+00 0.  1.
</event>
<event>
 7    1  0.4119305E-015  0.9000778E+02  0.7816164E-02  0.1186339E+00
        -11   -1    0    0    0    0  0.00000000000E+00  0.00000000000E+00  0.45593999997E+02  0.45594000000E+02  0.51100000000E-03 0. -1.
         11   -1    0    0    0    0 -0.00000000000E+00 -0.00000000000E+00 -0.45593999997E+02  0.45594000000E+02  0.51100000000E-03 0.  1.
    9900012    2    1    2    0    0 -0.43795797432E+00  0.37240678479E+00 -0.10307398385E+01  0.90007780268E+02  0.90000042168E+02 0.  0.
         12    1    1    2    0    0  0.43795797432E+00 -0.37240678479E+00  0.10307398385E+01  0.11802197318E+01  0.00000000000E+00 0. -1.
         11    1    3    3    0    0 -0.29039404624E+02  0.21123742835E+02  0.45951730023E+01  0.36202419083E+02  0.51100000000E-03 0. -1.
        -11    1    3    3    0    0  0.24961001934E+01  0.11577339123E+02 -0.27161935815E+01  0.12150843805E+02  0.51100000000E-03 0.  1.
        -12    1    3    3    0    0  0.26105346456E+02 -0.32328675173E+02 -0.29097192593E+01  0.41654517380E+02  0.00000000000E+00 0.  1.
</event>
<event>
 7    1  0.4119305E-015  0.9000772E+02  0.7816164E-02  0.1186339E+00
        -11   -1    0    0    0    0  0.00000000000E+00  0.00000000000E+00  0.45593999997E+02  0.45594000000E+02  0.51100000000E-03 0.  1.
         11   -1    0    0    0    0 -0.00000000000E+00 -0.00000000000E+00 -0.45593999997E+02  0.45594000000E+02  0.51100000000E-03 0. -1.
    9900012    2    1    2    0    0  0.68575200724E+00 -0.15648873366E+00  0.94779309400E+00  0.90007721945E+02  0.89999983074E+02 0.  0.
         12    1    1    2    0    0 -0.68575200724E+00  0.15648873366E+00 -0.94779309400E+00  0.11802780555E+01  0.00000000000E+00 0. -1.
         11    1    3    3    0    0 -0.69017364236E+01  0.32980822379E+01  0.43982220266E+01  0.88235859697E+01  0.51100000000E-03 0. -1.
        -11    1    3    3    0    0 -0.27873137245E+02  0.21722709996E+02  0.79576528426E+01  0.36223088611E+02  0.51100000000E-03 0.  1.
         12    1    3    3    0    0  0.35460625676E+02 -0.25177280968E+02 -0.11408081775E+02  0.44961047364E+02  0.00000000000E+00 0. -1.
</event>
<event>
 7    1  0.4119305E-015  0.9000777E+02  0.7816164E-02  0.1186339E+00
        -11   -1    0    0    0    0  0.00000000000E+00  0.00000000000E+00  0.45593999997E+02  0.45594000000E+02  0.51100000000E-03 0.  1.
         11   -1    0    0    0    0 -0.00000000000E+00 -0.00000000000E+00 -0.45593999997E+02  0.45594000000E+02  0.51100000000E-03 0. -1.
    9900012    2    1    2    0    0  0.59988373817E+00  0.48700575837E+00 -0.89214250499E+00  0.90007765550E+02  0.90000027255E+02 0.  0.
         12    1    1    2    0    0 -0.59988373817E+00 -0.48700575837E+00  0.89214250499E+00  0.11802344501E+01  0.00000000000E+00 0. -1.
         11    1    3    3    0    0 -0.32083760346E+02  0.76302723862E+01 -0.16267881539E+02  0.36772716852E+02  0.51100000000E-03 0. -1.
        -11    1    3    3    0    0 -0.88766410974E+01 -0.15164350373E+01  0.21316656179E+01  0.92540980631E+01  0.51100000000E-03 0.  1.
        -12    1    3    3    0    0  0.41560285182E+02 -0.56268315906E+01  0.13244073416E+02  0.43980950635E+02  0.00000000000E+00 0.  1.
</event>
<event>
 7    1  0.4454405E-015  0.9000763E+02  0.7816164E-02  0.1186339E+00
        -11   -1    0    0    0    0  0.00000000000E+00  0.00000000000E+00  0.45593999997E+02  0.45594000000E+02  0.51100000000E-03 0.  1.
         11   -1    0    0    0    0 -0.00000000000E+00 -0.00000000000E+00 -0.45593999997E+02  0.45594000000E+02  0.51100000000E-03 0. -1.
    9900012    2    1    2    0    0  0.83454485695E+00 -0.34174487552E+00  0.76159539414E+00  0.90007626236E+02  0.89999886102E+02 0.  0.
         12    1    1    2    0    0 -0.83454485695E+00  0.34174487552E+00 -0.76159539414E+00  0.11803737639E+01  0.00000000000E+00 0. -1.
         11    1    3    3    0    0 -0.30161678696E+02  0.33962902772E+01 -0.18526025068E+02  0.35559460829E+02  0.51100000000E-03 0. -1.
        -11    1    3    3    0    0 -0.44874858272E+01 -0.20165487403E+01 -0.81778986353E+01  0.95436902832E+01  0.51100000000E-03 0.  1.
        -12    1    3    3    0    0  0.35483709380E+02 -0.17214864124E+01  0.27465519097E+02  0.44904475124E+02  0.00000000000E+00 0.  1.
</event>
<event>
 7    1  0.4119305E-015  0.9000768E+02  0.7816164E-02  0.1186339E+00
        -11   -1    0    0    0    0  0.00000000000E+00  0.00000000000E+00  0.45593999997E+02  0.45594000000E+02  0.51100000000E-03 0.  1.
         11   -1    0    0    0    0 -0.00000000000E+00 -0.00000000000E+00 -0.45593999997E+02  0.45594000000E+02  0.51100000000E-03 0. -1.
    9900012    2    1    2    0    0 -0.51650488730E+00  0.20229517134E+00  0.10418548883E+01  0.90007677060E+02  0.89999937597E+02 0.  0.
         12    1    1    2    0    0  0.51650488730E+00 -0.20229517134E+00 -0.10418548883E+01  0.11803229403E+01  0.00000000000E+00 0. -1.
         11    1    3    3    0    0 -0.22756849256E+02  0.22635918050E+01 -0.29288548900E+02  0.37159347853E+02  0.51100000000E-03 0. -1.
        -11    1    3    3    0    0  0.79688990970E+00  0.72011634544E+01 -0.61681969911E+01  0.95151691002E+01  0.51100000000E-03 0.  1.
        -12    1    3    3    0    0  0.21443454459E+02 -0.92624600880E+01  0.36498600779E+02  0.43333160107E+02  0.00000000000E+00 0.  1.
</event>
<event>
 7    1  0.4119305E-015  0.9000773E+02  0.7816164E-02  0.1186339E+00
        -11   -1    0    0    0    0  0.00000000000E+00  0.00000000000E+00  0.45593999997E+02  0.45594000000E+02  0.51100000000E-03 0. -1.
         11   -1    0    0    0    0 -0.00000000000E+00 -0.00000000000E+00 -0.45593999997E+02  0.45594000000E+02  0.51100000000E-03 0.  1.
    9900012    2    1    2    0    0  0.52578854700E+00  0.41785156660E+00  0.97056092147E+00  0.90007727985E+02  0.89999989194E+02 0.  0.
         12    1    1    2    0    0 -0.52578854700E+00 -0.41785156660E+00 -0.97056092147E+00  0.11802720153E+01  0.00000000000E+00 0. -1.
         11    1    3    3    0    0  0.31853449302E+01 -0.44602429869E+01  0.89563302752E+01  0.10500287714E+02  0.51100000000E-03 0. -1.
        -11    1    3    3    0    0 -0.24789224457E+02  0.32927316255E+02  0.49461523237E+01  0.41511181963E+02  0.51100000000E-03 0.  1.
         12    1    3    3    0    0  0.22129668073E+02 -0.28049221701E+02 -0.12931921677E+02  0.37996258307E+02  0.00000000000E+00 0. -1.
</event>
<event>
 7    1  0.4119305E-015  0.9000773E+02  0.7816164E-02  0.1186339E+00
        -11   -1    0    0    0    0  0.00000000000E+00  0.00000000000E+00  0.45593999997E+02  0.45594000000E+02  0.51100000000E-03 0.  1.
         11   -1    0    0    0    0 -0.00000000000E+00 -0.00000000000E+00 -0.45593999997E+02  0.45594000000E+02  0.51100000000E-03 0. -1.
    9900012    2    1    2    0    0 -0.11580449231E-02 -0.89507686559E+00 -0.76932820316E+00  0.90007733157E+02  0.89999994435E+02 0.  0.
         12    1    1    2    0    0  0.11580449231E-02  0.89507686559E+00  0.76932820316E+00  0.11802668429E+01  0.00000000000E+00 0. -1.
         11    1    3    3    0    0 -0.68198575980E+01 -0.18870214124E+01  0.75047385243E+01  0.10314669556E+02  0.51100000000E-03 0. -1.
        -11    1    3    3    0    0 -0.39606388009E+01  0.90174488691E+01  0.33966839407E+02  0.35365904815E+02  0.51100000000E-03 0.  1.
         12    1    3    3    0    0  0.10779338354E+02 -0.80255043224E+01 -0.42240906135E+02  0.44327158786E+02  0.00000000000E+00 0. -1.
</event>
<event>
 7    1  0.4119305E-015  0.9000772E+02  0.7816164E-02  0.1186339E+00
        -11   -1    0    0    0    0  0.00000000000E+00  0.00000000000E+00  0.45593999997E+02  0.45594000000E+02  0.51100000000E-03 0. -1.
         11   -1    0    0    0    0 -0.00000000000E+00 -0.00000000000E+00 -0.45593999997E+02  0.45594000000E+02  0.51100000000E-03 0.  1.
    9900012    2    1    2    0    0 -0.52068856205E+00 -0.97944144567E+00 -0.40327258310E+00  0.90007724227E+02  0.89999985387E+02 0.  0.
         12    1    1    2    0    0  0.52068856205E+00  0.97944144567E+00  0.40327258310E+00  0.11802757730E+01  0.00000000000E+00 0. -1.
         11    1    3    3    0    0 -0.95334411725E+01 -0.38334271267E+01 -0.56059235888E+01  0.11705043514E+02  0.51100000000E-03 0. -1.
        -11    1    3    3    0    0  0.19874884587E+02 -0.79545173508E+00 -0.32937948216E+02  0.38477944511E+02  0.51100000000E-03 0.  1.
         12    1    3    3    0    0 -0.10862131977E+02  0.36494374161E+01  0.38140599222E+02  0.39824736202E+02  0.00000000000E+00 0. -1.
</event>
<event>
 7    1  0.4119305E-015  0.9000762E+02  0.7816164E-02  0.1186339E+00
        -11   -1    0    0    0    0  0.00000000000E+00  0.00000000000E+00  0.45593999997E+02  0.45594000000E+02  0.51100000000E-03 0.  1.
         11   -1    0    0    0    0 -0.00000000000E+00 -0.00000000000E+00 -0.45593999997E+02  0.45594000000E+02  0.51100000000E-03 0. -1.
    9900012    2    1    2    0    0 -0.56153639007E+00  0.93096504702E+00 -0.45964330985E+00  0.90007622514E+02  0.89999882332E+02 0.  0.
         12    1    1    2    0    0  0.56153639007E+00 -0.93096504702E+00  0.45964330985E+00  0.11803774856E+01  0.00000000000E+00 0. -1.
         11    1    3    3    0    0 -0.42409033858E+01 -0.36305865171E+01  0.94609187206E+01  0.10985235695E+02  0.51100000000E-03 0. -1.
        -11    1    3    3    0    0 -0.35816123408E+02  0.12772228421E+02 -0.36862550930E+01  0.38203573023E+02  0.51100000000E-03 0.  1.
         12    1    3    3    0    0  0.39495490404E+02 -0.82106768573E+01 -0.62343069374E+01  0.40818813796E+02  0.00000000000E+00 0. -1.
</event>
<event>
 7    1  0.4119305E-015  0.9000769E+02  0.7816164E-02  0.1186339E+00
        -11   -1    0    0    0    0  0.00000000000E+00  0.00000000000E+00  0.45593999997E+02  0.45594000000E+02  0.51100000000E-03 0.  1.
         11   -1    0    0    0    0 -0.00000000000E+00 -0.00000000000E+00 -0.45593999997E+02  0.45594000000E+02  0.51100000000E-03 0. -1.
    9900012    2    1    2    0    0  0.60674891550E-01 -0.34229577968E+00  0.11279583483E+01  0.90007687381E+02  0.89999948054E+02 0.  0.
         12    1    1    2    0    0 -0.60674891550E-01  0.34229577968E+00 -0.11279583483E+01  0.11803126191E+01  0.00000000000E+00 0. -1.
         11    1    3    3    0    0 -0.31274519864E+02 -0.17625979798E+02 -0.83552889375E+01  0.36858942063E+02  0.51100000000E-03 0. -1.
        -11    1    3    3    0    0  0.38087796420E+01 -0.92256623920E+01 -0.62988751453E+01  0.11802350499E+02  0.51100000000E-03 0.  1.
        -12    1    3    3    0    0  0.27526415113E+02  0.26509346411E+02  0.15782122431E+02  0.41346394819E+02  0.00000000000E+00 0.  1.
</event>
<event>
 7    1  0.4119305E-015  0.9000769E+02  0.7816164E-02  0.1186339E+00
        -11   -1    0    0    0    0  0.00000000000E+00  0.00000000000E+00  0.45593999997E+02  0.45594000000E+02  0.51100000000E-03 0. -1.
         11   -1    0    0    0    0 -0.00000000000E+00 -0.00000000000E+00 -0.45593999997E+02  0.45594000000E+02  0.51100000000E-03 0.  1.
    9900012    2    1    2    0    0  0.82574266802E+00  0.78696669662E+00  0.30326216126E+00  0.90007688400E+02  0.89999949087E+02 0.  0.
         12    1    1    2    0    0 -0.82574266802E+00 -0.78696669662E+00 -0.30326216126E+00  0.11803116003E+01  0.00000000000E+00 0. -1.
         11    1    3    3    0    0 -0.23495103906E+01  0.28398009132E+02  0.32495600454E+02  0.43219569304E+02  0.51100000000E-03 0. -1.
        -11    1    3    3    0    0  0.61312102265E+01 -0.82346105493E+01 -0.15063550562E+01  0.10376398969E+02  0.51100000000E-03 0.  1.
        -12    1    3    3    0    0 -0.29559571679E+01 -0.19376431886E+02 -0.30685983236E+02  0.36411720127E+02  0.00000000000E+00 0.  1.
</event>
<event>
 7    1  0.4119305E-015  0.9000769E+02  0.7816164E-02  0.1186339E+00
        -11   -1    0    0    0    0  0.00000000000E+00  0.00000000000E+00  0.45593999997E+02  0.45594000000E+02  0.51100000000E-03 0.  1.
         11   -1    0    0    0    0 -0.00000000000E+00 -0.00000000000E+00 -0.45593999997E+02  0.45594000000E+02  0.51100000000E-03 0. -1.
    9900012    2    1    2    0    0  0.47612800916E+00 -0.55678969958E+00  0.92543259694E+00  0.90007687269E+02  0.89999947941E+02 0.  0.
         12    1    1    2    0    0 -0.47612800916E+00  0.55678969958E+00 -0.92543259694E+00  0.11803127307E+01  0.00000000000E+00 0. -1.
         11    1    3    3    0    0  0.37106480077E+02 -0.13946966131E+02 -0.12828415103E+02  0.41665056850E+02  0.51100000000E-03 0. -1.
        -11    1    3    3    0    0 -0.59190535331E+01  0.74660379130E+00 -0.69859609823E+01  0.91867438767E+01  0.51100000000E-03 0.  1.
        -12    1    3    3    0    0 -0.30711298535E+02  0.12643572641E+02  0.20739808682E+02  0.39155886543E+02  0.00000000000E+00 0.  1.
</event>
<event>
 7    1  0.4119305E-015  0.9000784E+02  0.7816164E-02  0.1186339E+00
        -11   -1    0    0    0    0  0.00000000000E+00  0.00000000000E+00  0.45593999997E+02  0.45594000000E+02  0.51100000000E-03 0.  1.
         11   -1    0    0    0    0 -0.00000000000E+00 -0.00000000000E+00 -0.45593999997E+02  0.45594000000E+02  0.51100000000E-03 0. -1.
    9900012    2    1    2    0    0  0.74051937280E+00 -0.91888896297E+00 -0.74005648674E-02  0.90007838725E+02  0.90000101396E+02 0.  0.
         12    1    1    2    0    0 -0.74051937280E+00  0.91888896297E+00  0.74005648674E-02  0.11801612755E+01  0.00000000000E+00 0. -1.
         11    1    3    3    0    0 -0.81660018198E+01 -0.43807053432E+01  0.26329603920E+01  0.96336205921E+01  0.51100000000E-03 0. -1.
        -11    1    3    3    0    0 -0.29563940279E+02  0.11649392244E+02  0.17402750605E+02  0.36229692703E+02  0.51100000000E-03 0.  1.
         12    1    3    3    0    0  0.38470461471E+02 -0.81875758638E+01 -0.20043111562E+02  0.44144525430E+02  0.00000000000E+00 0. -1.
</event>
<event>
 7    1  0.4119305E-015  0.9000770E+02  0.7816164E-02  0.1186339E+00
        -11   -1    0    0    0    0  0.00000000000E+00  0.00000000000E+00  0.45593999997E+02  0.45594000000E+02  0.51100000000E-03 0.  1.
         11   -1    0    0    0    0 -0.00000000000E+00 -0.00000000000E+00 -0.45593999997E+02  0.45594000000E+02  0.51100000000E-03 0. -1.
    9900012    2    1    2    0    0 -0.71126562838E-01  0.27169685144E+00  0.11463961722E+01  0.90007702431E+02  0.89999963303E+02 0.  0.
         12    1    1    2    0    0  0.71126562838E-01 -0.27169685144E+00 -0.11463961722E+01  0.11802975687E+01  0.00000000000E+00 0. -1.
         11    1    3    3    0    0 -0.79086414422E+01  0.59502678615E+01  0.29112360120E-01  0.98971281125E+01  0.51100000000E-03 0. -1.
        -11    1    3    3    0    0  0.73711307737E+01  0.34604843899E+02 -0.12592910582E+02  0.37555428200E+02  0.51100000000E-03 0.  1.
         12    1    3    3    0    0  0.46638410573E+00 -0.40283414909E+02  0.13710194394E+02  0.42555146118E+02  0.00000000000E+00 0. -1.
</event>
<event>
 7    1  0.4119305E-015  0.9000770E+02  0.7816164E-02  0.1186339E+00
        -11   -1    0    0    0    0  0.00000000000E+00  0.00000000000E+00  0.45593999997E+02  0.45594000000E+02  0.51100000000E-03 0.  1.
         11   -1    0    0    0    0 -0.00000000000E+00 -0.00000000000E+00 -0.45593999997E+02  0.45594000000E+02  0.51100000000E-03 0. -1.
    9900012    2    1    2    0    0 -0.11400374621E+01  0.30819100447E-02  0.30564664094E+00  0.90007697165E+02  0.89999957968E+02 0.  0.
         12    1    1    2    0    0  0.11400374621E+01 -0.30819100447E-02 -0.30564664094E+00  0.11803028350E+01  0.00000000000E+00 0. -1.
         11    1    3    3    0    0 -0.23249118326E+01 -0.38719303575E+01 -0.99170343736E+01  0.10897000998E+02  0.51100000000E-03 0. -1.
        -11    1    3    3    0    0 -0.28812452825E+02  0.27815331136E+02  0.61113937678E+01  0.40511717046E+02  0.51100000000E-03 0.  1.
         12    1    3    3    0    0  0.29997327195E+02 -0.23940318868E+02  0.41112872468E+01  0.38598979121E+02  0.00000000000E+00 0. -1.
</event>
<event>
 7    1  0.4119305E-015  0.9000755E+02  0.7816164E-02  0.1186339E+00
        -11   -1    0    0    0    0  0.00000000000E+00  0.00000000000E+00  0.45593999997E+02  0.45594000000E+02  0.51100000000E-03 0.  1.
         11   -1    0    0    0    0 -0.00000000000E+00 -0.00000000000E+00 -0.45593999997E+02  0.45594000000E+02  0.51100000000E-03 0. -1.
    9900012    2    1    2    0    0 -0.53035913882E+00  0.58706620946E+00  0.87608589220E+00  0.90007553457E+02  0.89999812362E+02 0.  0.
         12    1    1    2    0    0  0.53035913882E+00 -0.58706620946E+00 -0.87608589220E+00  0.11804465430E+01  0.00000000000E+00 0. -1.
         11    1    3    3    0    0  0.29835213673E+02  0.36913392164E+01 -0.23722797099E+02  0.38295392185E+02  0.51100000000E-03 0. -1.
        -11    1    3    3    0    0 -0.32255874777E+00  0.67026081146E+01 -0.50345177887E+01  0.83890028794E+01  0.51100000000E-03 0.  1.
        -12    1    3    3    0    0 -0.30043014064E+02 -0.98068811215E+01  0.29633400780E+02  0.43323158393E+02  0.00000000000E+00 0.  1.
</event>
<event>
 7    1  0.4119305E-015  0.9000776E+02  0.7816164E-02  0.1186339E+00
        -11   -1    0    0    0    0  0.00000000000E+00  0.00000000000E+00  0.45593999997E+02  0.45594000000E+02  0.51100000000E-03 0.  1.
         11   -1    0    0    0    0 -0.00000000000E+00 -0.00000000000E+00 -0.45593999997E+02  0.45594000000E+02  0.51100000000E-03 0. -1.
    9900012    2    1    2    0    0  0.28802045931E+00  0.11402252906E+01 -0.99448777796E-01  0.90007762923E+02  0.90000024594E+02 0.  0.
         12    1    1    2    0    0 -0.28802045931E+00 -0.11402252906E+01  0.99448777796E-01  0.11802370769E+01  0.00000000000E+00 0. -1.
         11    1    3    3    0    0 -0.69555819521E+01 -0.63108765109E+00  0.12709557788E+02  0.14502111961E+02  0.51100000000E-03 0. -1.
        -11    1    3    3    0    0 -0.21591653950E+02 -0.14163545380E+02 -0.28971640259E+02  0.38809296278E+02  0.51100000000E-03 0.  1.
         12    1    3    3    0    0  0.28835256362E+02  0.15934858322E+02  0.16162633693E+02  0.36696354684E+02  0.00000000000E+00 0. -1.
</event>
<event>
 7    1  0.4119305E-015  0.9000771E+02  0.7816164E-02  0.1186339E+00
        -11   -1    0    0    0    0  0.00000000000E+00  0.00000000000E+00  0.45593999997E+02  0.45594000000E+02  0.51100000000E-03 0.  1.
         11   -1    0    0    0    0 -0.00000000000E+00 -0.00000000000E+00 -0.45593999997E+02  0.45594000000E+02  0.51100000000E-03 0. -1.
    9900012    2    1    2    0    0  0.12259817978E+00 -0.11669031697E+01  0.12806031342E+00  0.90007706492E+02  0.89999967418E+02 0.  0.
         12    1    1    2    0    0 -0.12259817978E+00  0.11669031697E+01 -0.12806031342E+00  0.11802935080E+01  0.00000000000E+00 0. -1.
         11    1    3    3    0    0  0.16944649821E+02 -0.14222971822E+02  0.23014283263E+02  0.31922896476E+02  0.51100000000E-03 0. -1.
        -11    1    3    3    0    0  0.65712128173E+01  0.18138577783E+02  0.63387217852E+01  0.20306851947E+02  0.51100000000E-03 0.  1.
        -12    1    3    3    0    0 -0.23393264459E+02 -0.50825091305E+01 -0.29224944735E+02  0.37777958069E+02  0.00000000000E+00 0.  1.
</event>
<event>
 7    1  0.4279704E-015  0.9000770E+02  0.7816164E-02  0.1186339E+00
        -11   -1    0    0    0    0  0.00000000000E+00  0.00000000000E+00  0.45593999997E+02  0.45594000000E+02  0.51100000000E-03 0. -1.
         11   -1    0    0    0    0 -0.00000000000E+00 -0.00000000000E+00 -0.45593999997E+02  0.45594000000E+02  0.51100000000E-03 0.  1.
    9900012    2    1    2    0    0  0.46982166220E+00  0.52233163401E+00 -0.94844779978E+00  0.90007696666E+02  0.89999957462E+02 0.  0.
         12    1    1    2    0    0 -0.46982166220E+00 -0.52233163401E+00  0.94844779978E+00  0.11803033335E+01  0.00000000000E+00 0. -1.
         11    1    3    3    0    0 -0.24963575877E+02 -0.28593142958E+01  0.24423194918E+02  0.35040665648E+02  0.51100000000E-03 0. -1.
        -11    1    3    3    0    0 -0.42969346172E+01  0.39311077213E+01  0.82398632468E+01  0.10090223070E+02  0.51100000000E-03 0.  1.
        -12    1    3    3    0    0  0.29730332157E+02 -0.54946179150E+00 -0.33611505964E+02  0.44876807948E+02  0.00000000000E+00 0.  1.
</event>
<event>
 7    1  0.4119305E-015  0.9000776E+02  0.7816164E-02  0.1186339E+00
        -11   -1    0    0    0    0  0.00000000000E+00  0.00000000000E+00  0.45593999997E+02  0.45594000000E+02  0.51100000000E-03 0.  1.
         11   -1    0    0    0    0 -0.00000000000E+00 -0.00000000000E+00 -0.45593999997E+02  0.45594000000E+02  0.51100000000E-03 0. -1.
    9900012    2    1    2    0    0  0.63186061780E+00 -0.36238789916E-01 -0.99619028310E+00  0.90007764358E+02  0.90000026048E+02 0.  0.
         12    1    1    2    0    0 -0.63186061780E+00  0.36238789916E-01  0.99619028310E+00  0.11802356419E+01  0.00000000000E+00 0. -1.
         11    1    3    3    0    0  0.29642696442E+01  0.33036777556E+01 -0.98265450838E+01  0.10782493672E+02  0.51100000000E-03 0. -1.
        -11    1    3    3    0    0  0.72227263529E+01 -0.15496423899E+02 -0.31605754835E+02  0.35933698231E+02  0.51100000000E-03 0.  1.
         12    1    3    3    0    0 -0.95551353793E+01  0.12156507354E+02  0.40436109636E+02  0.43291572455E+02  0.00000000000E+00 0. -1.
</event>
<event>
 7    1  0.4119305E-015  0.9000754E+02  0.7816164E-02  0.1186339E+00
        -11   -1    0    0    0    0  0.00000000000E+00  0.00000000000E+00  0.45593999997E+02  0.45594000000E+02  0.51100000000E-03 0.  1.
         11   -1    0    0    0    0 -0.00000000000E+00 -0.00000000000E+00 -0.45593999997E+02  0.45594000000E+02  0.51100000000E-03 0. -1.
    9900012    2    1    2    0    0 -0.10639120714E+01  0.12837960540E-01 -0.51129530123E+00  0.90007535433E+02  0.89999794100E+02 0.  0.
         12    1    1    2    0    0  0.10639120714E+01 -0.12837960540E-01  0.51129530123E+00  0.11804645670E+01  0.00000000000E+00 0. -1.
         11    1    3    3    0    0 -0.40737207576E+02 -0.91231872660E+01 -0.78643319983E+01  0.42480587861E+02  0.51100000000E-03 0. -1.
        -11    1    3    3    0    0  0.33159786765E+01  0.69192594142E+01  0.80156888519E+01  0.11096086403E+02  0.51100000000E-03 0.  1.
        -12    1    3    3    0    0  0.36357316828E+02  0.22167658123E+01 -0.66265215483E+00  0.36430861169E+02  0.00000000000E+00 0.  1.
</event>
<event>
 7    1  0.4119305E-015  0.9000754E+02  0.7816164E-02  0.1186339E+00
        -11   -1    0    0    0    0  0.00000000000E+00  0.00000000000E+00  0.45593999997E+02  0.45594000000E+02  0.51100000000E-03 0.  1.
         11   -1    0    0    0    0 -0.00000000000E+00 -0.00000000000E+00 -0.45593999997E+02  0.45594000000E+02  0.51100000000E-03 0. -1.
    9900012    2    1    2    0    0 -0.80706568713E+00  0.15301648381E+00  0.84776668047E+00  0.90007543558E+02  0.89999802332E+02 0.  0.
         12    1    1    2    0    0  0.80706568713E+00 -0.15301648381E+00 -0.84776668047E+00  0.11804564423E+01  0.00000000000E+00 0. -1.
         11    1    3    3    0    0 -0.31623981764E+01  0.11254168524E+02  0.55480533659E+01  0.12939782371E+02  0.51100000000E-03 0. -1.
        -11    1    3    3    0    0  0.23655392389E+02  0.19152498334E+02  0.16297113576E+02  0.34525232696E+02  0.51100000000E-03 0.  1.
         12    1    3    3    0    0 -0.21300059900E+02 -0.30253650374E+02 -0.20997400261E+02  0.42542528491E+02  0.00000000000E+00 0. -1.
</event>
<event>
 7    1  0.4119305E-015  0.9000770E+02  0.7816164E-02  0.1186339E+00
        -11   -1    0    0    0    0  0.00000000000E+00  0.00000000000E+00  0.45593999997E+02  0.45594000000E+02  0.51100000000E-03 0.  1.
         11   -1    0    0    0    0 -0.00000000000E+00 -0.00000000000E+00 -0.45593999997E+02  0.45594000000E+02  0.51100000000E-03 0. -1.
    9900012    2    1    2    0    0  0.10643140739E+01 -0.44796998203E-01  0.50827295672E+00  0.90007698082E+02  0.89999958897E+02 0.  0.
         12    1    1    2    0    0 -0.10643140739E+01  0.44796998203E-01 -0.50827295672E+00  0.11803019179E+01  0.00000000000E+00 0. -1.
         11    1    3    3    0    0  0.19233239988E+02 -0.21579407321E+02  0.21113069800E+02  0.35795950293E+02  0.51100000000E-03 0.  1.
        -11    1    3    3    0    0  0.11082767564E+02 -0.34617906837E+01 -0.37122727364E+01  0.12189860571E+02  0.51100000000E-03 0. -1.
        -12    1    3    3    0    0 -0.29251693478E+02  0.24996401006E+02 -0.16892524107E+02  0.42021887217E+02  0.00000000000E+00 0.  1.
</event>
<event>
 7    1  0.4119305E-015  0.9000775E+02  0.7816164E-02  0.1186339E+00
        -11   -1    0    0    0    0  0.00000000000E+00  0.00000000000E+00  0.45593999997E+02  0.45594000000E+02  0.51100000000E-03 0.  1.
         11   -1    0    0    0    0 -0.00000000000E+00 -0.00000000000E+00 -0.45593999997E+02  0.45594000000E+02  0.51100000000E-03 0. -1.
    9900012    2    1    2    0    0 -0.36533030174E+00 -0.92624352388E+00  0.63370896602E+00  0.90007754115E+02  0.90000015670E+02 0.  0.
         12    1    1    2    0    0  0.36533030174E+00  0.92624352388E+00 -0.63370896602E+00  0.11802458848E+01  0.00000000000E+00 0. -1.
         11    1    3    3    0    0  0.63687385920E+01 -0.19595865692E+02 -0.31587855815E+02  0.37714074544E+02  0.51100000000E-03 0. -1.
        -11    1    3    3    0    0 -0.48535511264E+01 -0.68461504529E+01 -0.28666619462E+01  0.88681726154E+01  0.51100000000E-03 0.  1.
        -12    1    3    3    0    0 -0.18805177673E+01  0.25515772621E+02  0.35088226727E+02  0.43425506956E+02  0.00000000000E+00 0.  1.
</event>
<event>
 7    1  0.4119305E-015  0.9000773E+02  0.7816164E-02  0.1186339E+00
        -11   -1    0    0    0    0  0.00000000000E+00  0.00000000000E+00  0.45593999997E+02  0.45594000000E+02  0.51100000000E-03 0. -1.
         11   -1    0    0    0    0 -0.00000000000E+00 -0.00000000000E+00 -0.45593999997E+02  0.45594000000E+02  0.51100000000E-03 0.  1.
    9900012    2    1    2    0    0 -0.41330009413E+00 -0.94402997455E+00 -0.57535224153E+00  0.90007728945E+02  0.89999990167E+02 0.  0.
         12    1    1    2    0    0  0.41330009413E+00  0.94402997455E+00  0.57535224153E+00  0.11802710547E+01  0.00000000000E+00 0. -1.
         11    1    3    3    0    0  0.76708504738E+01  0.60201024511E+01 -0.96812734142E+00  0.97990229780E+01  0.51100000000E-03 0. -1.
        -11    1    3    3    0    0  0.12453006143E+02  0.32045273338E+02 -0.80800895322E+01  0.35316635633E+02  0.51100000000E-03 0.  1.
         12    1    3    3    0    0 -0.20537156711E+02 -0.39009405764E+02  0.84728646321E+01  0.44892070334E+02  0.00000000000E+00 0. -1.
</event>
<event>
 7    1  0.4119305E-015  0.9000781E+02  0.7816164E-02  0.1186339E+00
        -11   -1    0    0    0    0  0.00000000000E+00  0.00000000000E+00  0.45593999997E+02  0.45594000000E+02  0.51100000000E-03 0. -1.
         11   -1    0    0    0    0 -0.00000000000E+00 -0.00000000000E+00 -0.45593999997E+02  0.45594000000E+02  0.51100000000E-03 0.  1.
    9900012    2    1    2    0    0 -0.60833356978E+00  0.97560482347E-01 -0.10066084845E+01  0.90007810006E+02  0.90000072299E+02 0.  0.
         12    1    1    2    0    0  0.60833356978E+00 -0.97560482347E-01  0.10066084845E+01  0.11801899935E+01  0.00000000000E+00 0. -1.
         11    1    3    3    0    0  0.41610834532E+01 -0.66619749084E+01  0.61362274106E+00  0.78786457158E+01  0.51100000000E-03 0. -1.
        -11    1    3    3    0    0  0.75393427233E+01 -0.30122832115E+02 -0.22166728699E+02  0.38152202621E+02  0.51100000000E-03 0.  1.
         12    1    3    3    0    0 -0.12308759746E+02  0.36882367505E+02  0.20546497474E+02  0.43976961670E+02  0.00000000000E+00 0. -1.
</event>
<event>
 7    1  0.4119305E-015  0.9000754E+02  0.7816164E-02  0.1186339E+00
        -11   -1    0    0    0    0  0.00000000000E+00  0.00000000000E+00  0.45593999997E+02  0.45594000000E+02  0.51100000000E-03 0. -1.
         11   -1    0    0    0    0 -0.00000000000E+00 -0.00000000000E+00 -0.45593999997E+02  0.45594000000E+02  0.51100000000E-03 0.  1.
    9900012    2    1    2    0    0 -0.39557270651E+00 -0.36410799626E+00 -0.10509170672E+01  0.90007542851E+02  0.89999801616E+02 0.  0.
         12    1    1    2    0    0  0.39557270651E+00  0.36410799626E+00  0.10509170672E+01  0.11804571492E+01  0.00000000000E+00 0. -1.
         11    1    3    3    0    0  0.82172045322E+01 -0.30102790431E+01 -0.47705394788E-01  0.87513716814E+01  0.51100000000E-03 0. -1.
        -11    1    3    3    0    0 -0.68065549205E+01 -0.56686428765E+01 -0.40190863458E+02  0.41155415290E+02  0.51100000000E-03 0.  1.
         12    1    3    3    0    0 -0.18062223182E+01  0.83148139234E+01  0.39187651785E+02  0.40100755879E+02  0.00000000000E+00 0. -1.
</event>
<event>
 7    1  0.4119305E-015  0.9000778E+02  0.7816164E-02  0.1186339E+00
        -11   -1    0    0    0    0  0.00000000000E+00  0.00000000000E+00  0.45593999997E+02  0.45594000000E+02  0.51100000000E-03 0. -1.
         11   -1    0    0    0    0 -0.00000000000E+00 -0.00000000000E+00 -0.45593999997E+02  0.45594000000E+02  0.51100000000E-03 0.  1.
    9900012    2    1    2    0    0  0.88114120139E+00  0.56274443177E-01 -0.78315489211E+00  0.90007784674E+02  0.90000046632E+02 0.  0.
         12    1    1    2    0    0 -0.88114120139E+00 -0.56274443177E-01  0.78315489211E+00  0.11802153256E+01  0.00000000000E+00 0. -1.
         11    1    3    3    0    0  0.90651397630E+01  0.17772576980E+01  0.77221066786E+00  0.92699359989E+01  0.51100000000E-03 0. -1.
        -11    1    3    3    0    0 -0.84638460863E+01  0.20827194837E+02 -0.34281172250E+02  0.40995213214E+02  0.51100000000E-03 0.  1.
         12    1    3    3    0    0  0.27984752471E+00 -0.22548178092E+02  0.32725806690E+02  0.39742635462E+02  0.00000000000E+00 0. -1.
</event>
<event>
 7    1  0.4951142E-015  0.9000776E+02  0.7816164E-02  0.1186339E+00
        -11   -1    0    0    0    0  0.00000000000E+00  0.00000000000E+00  0.45593999997E+02  0.45594000000E+02  0.51100000000E-03 0. -1.
         11   -1    0    0    0    0 -0.00000000000E+00 -0.00000000000E+00 -0.45593999997E+02  0.45594000000E+02  0.51100000000E-03 0.  1.
    9900012    2    1    2    0    0  0.65816347975E+00 -0.68510556710E+00 -0.70029599867E+00  0.90007761342E+02  0.90000022992E+02 0.  0.
         12    1    1    2    0    0 -0.65816347975E+00  0.68510556710E+00  0.70029599867E+00  0.11802386580E+01  0.00000000000E+00 0. -1.
         11    1    3    3    0    0  0.21628562798E+02  0.29660414253E+02  0.43973495087E+01  0.36971226451E+02  0.51100000000E-03 0. -1.
        -11    1    3    3    0    0  0.94315209717E+01 -0.15432651797E+00  0.19015888024E+01  0.96225487657E+01  0.51100000000E-03 0.  1.
        -12    1    3    3    0    0 -0.30401920290E+02 -0.30191193302E+02 -0.69992343099E+01  0.43413986125E+02  0.00000000000E+00 0.  1.
</event>
<event>
 7    1  0.4119305E-015  0.9000771E+02  0.7816164E-02  0.1186339E+00
        -11   -1    0    0    0    0  0.00000000000E+00  0.00000000000E+00  0.45593999997E+02  0.45594000000E+02  0.51100000000E-03 0.  1.
         11   -1    0    0    0    0 -0.00000000000E+00 -0.00000000000E+00 -0.45593999997E+02  0.45594000000E+02  0.51100000000E-03 0. -1.
    9900012    2    1    2    0    0 -0.11414388487E+01 -0.18806616308E+00 -0.23414612899E+00  0.90007713621E+02  0.89999974641E+02 0.  0.
         12    1    1    2    0    0  0.11414388487E+01  0.18806616308E+00  0.23414612899E+00  0.11802863791E+01  0.00000000000E+00 0. -1.
         11    1    3    3    0    0  0.11096982339E+02 -0.34825548595E+02  0.19592289437E+02  0.41470708429E+02  0.51100000000E-03 0. -1.
        -11    1    3    3    0    0 -0.14635803677E+02  0.79321326755E+01 -0.12268235683E+02  0.20679339571E+02  0.51100000000E-03 0.  1.
        -12    1    3    3    0    0  0.23973824885E+01  0.26705349756E+02 -0.75581998832E+01  0.27857665621E+02  0.00000000000E+00 0.  1.
</event>
<event>
 7    1  0.4119305E-015  0.9000810E+02  0.7816164E-02  0.1186338E+00
        -11   -1    0    0    0    0  0.00000000000E+00  0.00000000000E+00  0.45593999997E+02  0.45594000000E+02  0.51100000000E-03 0.  1.
         11   -1    0    0    0    0 -0.00000000000E+00 -0.00000000000E+00 -0.45593999997E+02  0.45594000000E+02  0.51100000000E-03 0. -1.
    9900012    2    1    2    0    0  0.11644613623E+01 -0.18984298417E+00 -0.12342652532E-01  0.90008100443E+02  0.90000366568E+02 0.  0.
         12    1    1    2    0    0 -0.11644613623E+01  0.18984298417E+00  0.12342652532E-01  0.11798995568E+01  0.00000000000E+00 0. -1.
         11    1    3    3    0    0  0.20869113394E+02  0.36149622535E+01 -0.11039828061E+01  0.21208645035E+02  0.51100000000E-03 0. -1.
        -11    1    3    3    0    0 -0.76494249305E+01  0.72232718297E+01  0.32083553763E+02  0.33764534352E+02  0.51100000000E-03 0.  1.
         12    1    3    3    0    0 -0.12055227101E+02 -0.11028077067E+02 -0.30991913609E+02  0.35034921056E+02  0.00000000000E+00 0. -1.
</event>
<event>
 7    1  0.4119305E-015  0.9000770E+02  0.7816164E-02  0.1186339E+00
        -11   -1    0    0    0    0  0.00000000000E+00  0.00000000000E+00  0.45593999997E+02  0.45594000000E+02  0.51100000000E-03 0. -1.
         11   -1    0    0    0    0 -0.00000000000E+00 -0.00000000000E+00 -0.45593999997E+02  0.45594000000E+02  0.51100000000E-03 0.  1.
    9900012    2    1    2    0    0  0.29608930775E+00  0.85410931081E+00 -0.75891193366E+00  0.90007695414E+02  0.89999956193E+02 0.  0.
         12    1    1    2    0    0 -0.29608930775E+00 -0.85410931081E+00  0.75891193366E+00  0.11803045861E+01  0.00000000000E+00 0. -1.
         11    1    3    3    0    0 -0.16967272860E+02  0.14272633920E+02 -0.20128058146E+02  0.29945536434E+02  0.51100000000E-03 0. -1.
        -11    1    3    3    0    0 -0.13123056379E+02 -0.20115099870E+02  0.15786526024E+02  0.28741020436E+02  0.51100000000E-03 0.  1.
         12    1    3    3    0    0  0.30386418547E+02  0.66965752605E+01  0.35826201882E+01  0.31321138544E+02  0.00000000000E+00 0. -1.
</event>
<event>
 7    1  0.4119305E-015  0.9000793E+02  0.7816164E-02  0.1186339E+00
        -11   -1    0    0    0    0  0.00000000000E+00  0.00000000000E+00  0.45593999997E+02  0.45594000000E+02  0.51100000000E-03 0. -1.
         11   -1    0    0    0    0 -0.00000000000E+00 -0.00000000000E+00 -0.45593999997E+02  0.45594000000E+02  0.51100000000E-03 0.  1.
    9900012    2    1    2    0    0  0.98963960991E+00 -0.38144456804E+00 -0.51737378064E+00  0.90007931297E+02  0.90000195189E+02 0.  0.
         12    1    1    2    0    0 -0.98963960991E+00  0.38144456804E+00  0.51737378064E+00  0.11800687035E+01  0.00000000000E+00 0. -1.
         11    1    3    3    0    0  0.30577762666E+02 -0.16170509069E+02  0.21495920197E+02  0.40725416126E+02  0.51100000000E-03 0. -1.
        -11    1    3    3    0    0 -0.30151493083E+01 -0.70196717699E+01  0.49093233468E+00  0.76555817498E+01  0.51100000000E-03 0.  1.
        -12    1    3    3    0    0 -0.26572973748E+02  0.22808736271E+02 -0.22504226312E+02  0.41626933421E+02  0.00000000000E+00 0.  1.
</event>
<event>
 7    1  0.4119305E-015  0.9000776E+02  0.7816164E-02  0.1186339E+00
        -11   -1    0    0    0    0  0.00000000000E+00  0.00000000000E+00  0.45593999997E+02  0.45594000000E+02  0.51100000000E-03 0. -1.
         11   -1    0    0    0    0 -0.00000000000E+00 -0.00000000000E+00 -0.45593999997E+02  0.45594000000E+02  0.51100000000E-03 0.  1.
    9900012    2    1    2    0    0 -0.10872191646E+01  0.17719400824E+00 -0.42371188260E+00  0.90007756386E+02  0.90000017971E+02 0.  0.
         12    1    1    2    0    0  0.10872191646E+01 -0.17719400824E+00  0.42371188260E+00  0.11802436138E+01  0.00000000000E+00 0. -1.
         11    1    3    3    0    0  0.14780840244E+00  0.16638216560E+01  0.10441986730E+02  0.10574745243E+02  0.51100000000E-03 0. -1.
        -11    1    3    3    0    0 -0.16703185584E+01  0.32615020986E+02 -0.26364903287E+02  0.41971867764E+02  0.51100000000E-03 0.  1.
         12    1    3    3    0    0  0.43529099136E+00 -0.34101648633E+02  0.15499204674E+02  0.37461143379E+02  0.00000000000E+00 0. -1.
</event>
<event>
 7    1  0.4119305E-015  0.9000732E+02  0.7816164E-02  0.1186340E+00
        -11   -1    0    0    0    0  0.00000000000E+00  0.00000000000E+00  0.45593999997E+02  0.45594000000E+02  0.51100000000E-03 0. -1.
         11   -1    0    0    0    0 -0.00000000000E+00 -0.00000000000E+00 -0.45593999997E+02  0.45594000000E+02  0.51100000000E-03 0.  1.
    9900012    2    1    2    0    0  0.95578030239E+00  0.27133609310E-01  0.69264373120E+00  0.90007319028E+02  0.89999574838E+02 0.  0.
         12    1    1    2    0    0 -0.95578030239E+00 -0.27133609310E-01 -0.69264373120E+00  0.11806809720E+01  0.00000000000E+00 0. -1.
         11    1    3    3    0    0  0.20565660334E+01 -0.42248947078E+01 -0.79136866514E+01  0.92035664728E+01  0.51100000000E-03 0. -1.
        -11    1    3    3    0    0  0.16896360351E+02  0.26042721442E+02 -0.22827367140E+02  0.38533089988E+02  0.51100000000E-03 0.  1.
         12    1    3    3    0    0 -0.17997146082E+02 -0.21790693125E+02  0.31433697522E+02  0.42270662567E+02  0.00000000000E+00 0. -1.
</event>
<event>
 7    1  0.4119305E-015  0.9000683E+02  0.7816164E-02  0.1186341E+00
        -11   -1    0    0    0    0  0.00000000000E+00  0.00000000000E+00  0.45593999997E+02  0.45594000000E+02  0.51100000000E-03 0.  1.
         11   -1    0    0    0    0 -0.00000000000E+00 -0.00000000000E+00 -0.45593999997E+02  0.45594000000E+02  0.51100000000E-03 0. -1.
    9900012    2    1    2    0    0 -0.10591768465E+01 -0.51296052145E+00 -0.10085443726E+00  0.90006832905E+02  0.89999082295E+02 0.  0.
         12    1    1    2    0    0  0.10591768465E+01  0.51296052145E+00  0.10085443726E+00  0.11811670950E+01  0.00000000000E+00 0. -1.
         11    1    3    3    0    0 -0.17233522775E+02  0.16606972169E+01  0.35472692121E-01  0.17313390224E+02  0.51100000000E-03 0. -1.
        -11    1    3    3    0    0 -0.29508798589E+01 -0.25309447931E+02  0.23364183541E+02  0.34571099481E+02  0.51100000000E-03 0.  1.
         12    1    3    3    0    0  0.19125225788E+02  0.23135790193E+02 -0.23500510671E+02  0.38122343200E+02  0.00000000000E+00 0. -1.
</event>
<event>
 7    1  0.4119305E-015  0.9000772E+02  0.7816164E-02  0.1186339E+00
        -11   -1    0    0    0    0  0.00000000000E+00  0.00000000000E+00  0.45593999997E+02  0.45594000000E+02  0.51100000000E-03 0.  1.
         11   -1    0    0    0    0 -0.00000000000E+00 -0.00000000000E+00 -0.45593999997E+02  0.45594000000E+02  0.51100000000E-03 0. -1.
    9900012    2    1    2    0    0 -0.56070171255E-01 -0.58099900973E+00  0.10258449569E+01  0.90007719699E+02  0.89999980799E+02 0.  0.
         12    1    1    2    0    0  0.56070171255E-01  0.58099900973E+00 -0.10258449569E+01  0.11802803010E+01  0.00000000000E+00 0. -1.
         11    1    3    3    0    0 -0.58610316958E+01 -0.61563419118E+01  0.36788304911E+01  0.92620749467E+01  0.51100000000E-03 0. -1.
        -11    1    3    3    0    0 -0.33212381023E+02 -0.14851636346E+02 -0.45414167158E+01  0.36664121719E+02  0.51100000000E-03 0.  1.
         12    1    3    3    0    0  0.39017342547E+02  0.20426979248E+02  0.18884311815E+01  0.44081523034E+02  0.00000000000E+00 0. -1.
</event>
<event>
 7    1  0.4119305E-015  0.9000773E+02  0.7816164E-02  0.1186339E+00
        -11   -1    0    0    0    0  0.00000000000E+00  0.00000000000E+00  0.45593999997E+02  0.45594000000E+02  0.51100000000E-03 0. -1.
         11   -1    0    0    0    0 -0.00000000000E+00 -0.00000000000E+00 -0.45593999997E+02  0.45594000000E+02  0.51100000000E-03 0.  1.
    9900012    2    1    2    0    0  0.10729922217E+01  0.47890870871E+00 -0.11117661515E+00  0.90007734734E+02  0.89999996032E+02 0.  0.
         12    1    1    2    0    0 -0.10729922217E+01 -0.47890870871E+00  0.11117661515E+00  0.11802652663E+01  0.00000000000E+00 0. -1.
         11    1    3    3    0    0  0.68973957719E+01  0.22617013860E+01 -0.52346509700E+01  0.89493537550E+01  0.51100000000E-03 0. -1.
        -11    1    3    3    0    0  0.21984473263E+02 -0.26867286886E+02 -0.15818892975E+02  0.38149777777E+02  0.51100000000E-03 0.  1.
         12    1    3    3    0    0 -0.27808876813E+02  0.25084494209E+02  0.20942367329E+02  0.42908603201E+02  0.00000000000E+00 0. -1.
</event>
<event>
 7    1  0.4119305E-015  0.9000726E+02  0.7816164E-02  0.1186340E+00
        -11   -1    0    0    0    0  0.00000000000E+00  0.00000000000E+00  0.45593999997E+02  0.45594000000E+02  0.51100000000E-03 0. -1.
         11   -1    0    0    0    0 -0.00000000000E+00 -0.00000000000E+00 -0.45593999997E+02  0.45594000000E+02  0.51100000000E-03 0.  1.
    9900012    2    1    2    0    0  0.89790139862E+00 -0.76488464413E+00  0.53578417596E-01  0.90007260364E+02  0.89999515400E+02 0.  0.
         12    1    1    2    0    0 -0.89790139862E+00  0.76488464413E+00 -0.53578417596E-01  0.11807396357E+01  0.00000000000E+00 0. -1.
         11    1    3    3    0    0 -0.20818556059E+01  0.67967682342E+01  0.72559799902E+01  0.10157727456E+02  0.51100000000E-03 0. -1.
        -11    1    3    3    0    0 -0.15787171018E+02  0.94331382288E+01 -0.36655349187E+02  0.41010163251E+02  0.51100000000E-03 0.  1.
         12    1    3    3    0    0  0.18766928022E+02 -0.16994791107E+02  0.29452947615E+02  0.38839369657E+02  0.00000000000E+00 0. -1.
</event>
<event>
 7    1  0.8675120E-015  0.9000773E+02  0.7816164E-02  0.1186339E+00
        -11   -1    0    0    0    0  0.00000000000E+00  0.00000000000E+00  0.45593999997E+02  0.45594000000E+02  0.51100000000E-03 0. -1.
         11   -1    0    0    0    0 -0.00000000000E+00 -0.00000000000E+00 -0.45593999997E+02  0.45594000000E+02  0.51100000000E-03 0.  1.
    9900012    2    1    2    0    0 -0.26388780405E+00 -0.19300543508E+00 -0.11340810293E+01  0.90007734076E+02  0.89999995365E+02 0.  0.
         12    1    1    2    0    0  0.26388780405E+00  0.19300543508E+00  0.11340810293E+01  0.11802659243E+01  0.00000000000E+00 0. -1.
         11    1    3    3    0    0  0.46116553950E+01 -0.23141005877E+02  0.30261723912E+02  0.38373759952E+02  0.51100000000E-03 0. -1.
        -11    1    3    3    0    0  0.13485887459E+00 -0.86357734450E+01 -0.39705289431E+01  0.95057808863E+01  0.51100000000E-03 0.  1.
        -12    1    3    3    0    0 -0.50104020736E+01  0.31583773887E+02 -0.27425275998E+02  0.42128193237E+02  0.00000000000E+00 0.  1.
</event>
<event>
 7    1  0.4119305E-015  0.9000769E+02  0.7816164E-02  0.1186339E+00
        -11   -1    0    0    0    0  0.00000000000E+00  0.00000000000E+00  0.45593999997E+02  0.45594000000E+02  0.51100000000E-03 0.  1.
         11   -1    0    0    0    0 -0.00000000000E+00 -0.00000000000E+00 -0.45593999997E+02  0.45594000000E+02  0.51100000000E-03 0. -1.
    9900012    2    1    2    0    0 -0.96266719227E+00  0.49947118488E+00  0.46575019654E+00  0.90007693754E+02  0.89999954512E+02 0.  0.
         12    1    1    2    0    0  0.96266719227E+00 -0.49947118488E+00 -0.46575019654E+00  0.11803062455E+01  0.00000000000E+00 0. -1.
         11    1    3    3    0    0 -0.16449047132E+02 -0.35902095895E+02 -0.25459962506E+01  0.39572891458E+02  0.51100000000E-03 0. -1.
        -11    1    3    3    0    0 -0.94231825248E+01  0.72145741475E+01  0.21019960423E+01  0.12052586305E+02  0.51100000000E-03 0.  1.
        -12    1    3    3    0    0  0.24909562464E+02  0.29186992932E+02  0.90975040484E+00  0.38382215991E+02  0.00000000000E+00 0.  1.
</event>
<event>
 7    1  0.4119305E-015  0.9000773E+02  0.7816164E-02  0.1186339E+00
        -11   -1    0    0    0    0  0.00000000000E+00  0.00000000000E+00  0.45593999997E+02  0.45594000000E+02  0.51100000000E-03 0.  1.
         11   -1    0    0    0    0 -0.00000000000E+00 -0.00000000000E+00 -0.45593999997E+02  0.45594000000E+02  0.51100000000E-03 0. -1.
    9900012    2    1    2    0    0 -0.39017885314E+00 -0.10088003001E+01  0.47234368390E+00  0.90007734717E+02  0.89999996015E+02 0.  0.
         12    1    1    2    0    0  0.39017885314E+00  0.10088003001E+01 -0.47234368390E+00  0.11802652832E+01  0.00000000000E+00 0. -1.
         11    1    3    3    0    0 -0.89856090850E+01 -0.44524472217E+00 -0.29268585319E+01  0.94607565564E+01  0.51100000000E-03 0. -1.
        -11    1    3    3    0    0 -0.11906511395E+02 -0.12271472099E+02  0.36257100223E+02  0.40086548341E+02  0.51100000000E-03 0.  1.
         12    1    3    3    0    0  0.20501941627E+02  0.11707916521E+02 -0.32857898007E+02  0.40460429819E+02  0.00000000000E+00 0. -1.
</event>
<event>
 7    1  0.4119305E-015  0.9000769E+02  0.7816164E-02  0.1186339E+00
        -11   -1    0    0    0    0  0.00000000000E+00  0.00000000000E+00  0.45593999997E+02  0.45594000000E+02  0.51100000000E-03 0.  1.
         11   -1    0    0    0    0 -0.00000000000E+00 -0.00000000000E+00 -0.45593999997E+02  0.45594000000E+02  0.51100000000E-03 0. -1.
    9900012    2    1    2    0    0 -0.46325346416E+00  0.54780500498E+00 -0.93724428288E+00  0.90007694556E+02  0.89999955324E+02 0.  0.
         12    1    1    2    0    0  0.46325346416E+00 -0.54780500498E+00  0.93724428288E+00  0.11803054441E+01  0.00000000000E+00 0. -1.
         11    1    3    3    0    0  0.30128146939E+02  0.13529622960E+02 -0.24550379464E+02  0.41151878056E+02  0.51100000000E-03 0. -1.
        -11    1    3    3    0    0 -0.34652465014E+01 -0.58883940328E+00 -0.59195610160E+01  0.68844657048E+01  0.51100000000E-03 0.  1.
        -12    1    3    3    0    0 -0.27126153902E+02 -0.12392978552E+02  0.29532696197E+02  0.41971350795E+02  0.00000000000E+00 0.  1.
</event>
<event>
 7    1  0.4119305E-015  0.9000782E+02  0.7816164E-02  0.1186339E+00
        -11   -1    0    0    0    0  0.00000000000E+00  0.00000000000E+00  0.45593999997E+02  0.45594000000E+02  0.51100000000E-03 0. -1.
         11   -1    0    0    0    0 -0.00000000000E+00 -0.00000000000E+00 -0.45593999997E+02  0.45594000000E+02  0.51100000000E-03 0.  1.
    9900012    2    1    2    0    0  0.44553328797E+00  0.89755961126E+00 -0.62346484228E+00  0.90007821380E+02  0.90000083822E+02 0.  0.
         12    1    1    2    0    0 -0.44553328797E+00 -0.89755961126E+00  0.62346484228E+00  0.11801786204E+01  0.00000000000E+00 0. -1.
         11    1    3    3    0    0 -0.24205752919E+01  0.82848704908E+01  0.14652365607E+01  0.87547234242E+01  0.51100000000E-03 0. -1.
        -11    1    3    3    0    0 -0.28006221153E+02  0.24134233854E+02 -0.32790813474E+01  0.37115522921E+02  0.51100000000E-03 0.  1.
         12    1    3    3    0    0  0.30872329732E+02 -0.31521544734E+02  0.11903799444E+01  0.44137575034E+02  0.00000000000E+00 0. -1.
</event>
<event>
 7    1  0.4119305E-015  0.9000768E+02  0.7816164E-02  0.1186339E+00
        -11   -1    0    0    0    0  0.00000000000E+00  0.00000000000E+00  0.45593999997E+02  0.45594000000E+02  0.51100000000E-03 0. -1.
         11   -1    0    0    0    0 -0.00000000000E+00 -0.00000000000E+00 -0.45593999997E+02  0.45594000000E+02  0.51100000000E-03 0.  1.
    9900012    2    1    2    0    0 -0.83401540444E+00 -0.76535825733E-01 -0.83170042223E+00  0.90007675884E+02  0.89999936405E+02 0.  0.
         12    1    1    2    0    0  0.83401540444E+00  0.76535825733E-01  0.83170042223E+00  0.11803241164E+01  0.00000000000E+00 0. -1.
         11    1    3    3    0    0 -0.25898929747E+00  0.98568577319E+01  0.37082585503E+00  0.98672302030E+01  0.51100000000E-03 0. -1.
        -11    1    3    3    0    0 -0.13300189649E+02  0.20085270708E+02 -0.28713319633E+02  0.37480233040E+02  0.51100000000E-03 0.  1.
         12    1    3    3    0    0  0.12725163542E+02 -0.30018664266E+02  0.27510793356E+02  0.42660212641E+02  0.00000000000E+00 0. -1.
</event>
<event>
 7    1  0.4119305E-015  0.9000773E+02  0.7816164E-02  0.1186339E+00
        -11   -1    0    0    0    0  0.00000000000E+00  0.00000000000E+00  0.45593999997E+02  0.45594000000E+02  0.51100000000E-03 0. -1.
         11   -1    0    0    0    0 -0.00000000000E+00 -0.00000000000E+00 -0.45593999997E+02  0.45594000000E+02  0.51100000000E-03 0.  1.
    9900012    2    1    2    0    0 -0.53856144928E+00 -0.48402950587E+00 -0.93204847642E+00  0.90007725727E+02  0.89999986907E+02 0.  0.
         12    1    1    2    0    0  0.53856144928E+00  0.48402950587E+00  0.93204847642E+00  0.11802742730E+01  0.00000000000E+00 0. -1.
         11    1    3    3    0    0  0.74447014591E+01 -0.87710504660E+01 -0.76362109313E+01  0.13808208564E+02  0.51100000000E-03 0. -1.
        -11    1    3    3    0    0 -0.24662590782E+02 -0.26708564689E+02  0.87028779519E+01  0.37380889459E+02  0.51100000000E-03 0.  1.
         12    1    3    3    0    0  0.16679327873E+02  0.34995585649E+02 -0.19987154970E+01  0.38818627705E+02  0.00000000000E+00 0. -1.
</event>
<event>
 7    1  0.4119305E-015  0.9000776E+02  0.7816164E-02  0.1186339E+00
        -11   -1    0    0    0    0  0.00000000000E+00  0.00000000000E+00  0.45593999997E+02  0.45594000000E+02  0.51100000000E-03 0.  1.
         11   -1    0    0    0    0 -0.00000000000E+00 -0.00000000000E+00 -0.45593999997E+02  0.45594000000E+02  0.51100000000E-03 0. -1.
    9900012    2    1    2    0    0 -0.39595750098E+00  0.11081776885E+01 -0.90203883413E-01  0.90007755588E+02  0.90000017162E+02 0.  0.
         12    1    1    2    0    0  0.39595750098E+00 -0.11081776885E+01  0.90203883413E-01  0.11802444122E+01  0.00000000000E+00 0. -1.
         11    1    3    3    0    0 -0.26503240580E+01 -0.88562234097E+01 -0.73581292533E+01  0.11815201101E+02  0.51100000000E-03 0. -1.
        -11    1    3    3    0    0 -0.14522077339E+02 -0.30252119608E+02  0.84367831955E+01  0.34601456357E+02  0.51100000000E-03 0.  1.
         12    1    3    3    0    0  0.16776443896E+02  0.40216520707E+02 -0.11688578256E+01  0.43591098130E+02  0.00000000000E+00 0. -1.
</event>
<event>
 7    1  0.4119305E-015  0.9000777E+02  0.7816164E-02  0.1186339E+00
        -11   -1    0    0    0    0  0.00000000000E+00  0.00000000000E+00  0.45593999997E+02  0.45594000000E+02  0.51100000000E-03 0. -1.
         11   -1    0    0    0    0 -0.00000000000E+00 -0.00000000000E+00 -0.45593999997E+02  0.45594000000E+02  0.51100000000E-03 0.  1.
    9900012    2    1    2    0    0  0.72948912955E+00 -0.89645033073E+00 -0.23911528744E+00  0.90007765402E+02  0.90000027105E+02 0.  0.
         12    1    1    2    0    0 -0.72948912955E+00  0.89645033073E+00  0.23911528744E+00  0.11802345980E+01  0.00000000000E+00 0. -1.
         11    1    3    3    0    0  0.15518872325E+02 -0.39181536317E+01 -0.41002115380E+02  0.44015460829E+02  0.51100000000E-03 0. -1.
        -11    1    3    3    0    0 -0.15927977274E+01  0.65643757116E+01  0.78527834369E+01  0.10358293346E+02  0.51100000000E-03 0.  1.
        -12    1    3    3    0    0 -0.13196585468E+02 -0.35426724106E+01  0.32910216655E+02  0.35634011227E+02  0.00000000000E+00 0.  1.
</event>
<event>
 7    1  0.4119305E-015  0.9000764E+02  0.7816164E-02  0.1186339E+00
        -11   -1    0    0    0    0  0.00000000000E+00  0.00000000000E+00  0.45593999997E+02  0.45594000000E+02  0.51100000000E-03 0. -1.
         11   -1    0    0    0    0 -0.00000000000E+00 -0.00000000000E+00 -0.45593999997E+02  0.45594000000E+02  0.51100000000E-03 0.  1.
    9900012    2    1    2    0    0 -0.16138648204E+00 -0.11373117321E+01 -0.27154449158E+00  0.90007635656E+02  0.89999895647E+02 0.  0.
         12    1    1    2    0    0  0.16138648204E+00  0.11373117321E+01  0.27154449158E+00  0.11803643435E+01  0.00000000000E+00 0. -1.
         11    1    3    3    0    0 -0.32627822590E+02  0.77750329737E+01  0.15295461980E+02  0.36864306614E+02  0.51100000000E-03 0. -1.
        -11    1    3    3    0    0  0.19140348046E+02  0.14299367368E+02 -0.52726815115E+01  0.24466834716E+02  0.51100000000E-03 0.  1.
        -12    1    3    3    0    0  0.13326088063E+02 -0.23211712074E+02 -0.10294324960E+02  0.28676494326E+02  0.00000000000E+00 0.  1.
</event>
<event>
 7    1  0.4119305E-015  0.9000771E+02  0.7816164E-02  0.1186339E+00
        -11   -1    0    0    0    0  0.00000000000E+00  0.00000000000E+00  0.45593999997E+02  0.45594000000E+02  0.51100000000E-03 0. -1.
         11   -1    0    0    0    0 -0.00000000000E+00 -0.00000000000E+00 -0.45593999997E+02  0.45594000000E+02  0.51100000000E-03 0.  1.
    9900012    2    1    2    0    0 -0.86752359225E+00 -0.55963102965E+00 -0.57209993267E+00  0.90007710881E+02  0.89999971864E+02 0.  0.
         12    1    1    2    0    0  0.86752359225E+00  0.55963102965E+00  0.57209993267E+00  0.11802891194E+01  0.00000000000E+00 0. -1.
         11    1    3    3    0    0  0.23210709956E+02  0.12259952526E+01  0.31091367026E+02  0.38818980214E+02  0.51100000000E-03 0. -1.
        -11    1    3    3    0    0 -0.52705061722E+01  0.28766052402E+01  0.62150210041E+01  0.86417347426E+01  0.51100000000E-03 0.  1.
        -12    1    3    3    0    0 -0.18807727376E+02 -0.46622315224E+01 -0.37878487963E+02  0.42546995924E+02  0.00000000000E+00 0.  1.
</event>
<event>
 7    1  0.4119305E-015  0.9000767E+02  0.7816164E-02  0.1186339E+00
        -11   -1    0    0    0    0  0.00000000000E+00  0.00000000000E+00  0.45593999997E+02  0.45594000000E+02  0.51100000000E-03 0. -1.
         11   -1    0    0    0    0 -0.00000000000E+00 -0.00000000000E+00 -0.45593999997E+02  0.45594000000E+02  0.51100000000E-03 0.  1.
    9900012    2    1    2    0    0  0.17032033032E+00  0.63627558473E+00 -0.97945395036E+00  0.90007667134E+02  0.89999927540E+02 0.  0.
         12    1    1    2    0    0 -0.17032033032E+00 -0.63627558473E+00  0.97945395036E+00  0.11803328664E+01  0.00000000000E+00 0. -1.
         11    1    3    3    0    0  0.10224559696E+02 -0.30999357669E+02 -0.20838151869E+02  0.38726352403E+02  0.51100000000E-03 0. -1.
        -11    1    3    3    0    0 -0.90049164274E+01 -0.28455625706E+01 -0.29873425133E+01  0.99050472871E+01  0.51100000000E-03 0.  1.
        -12    1    3    3    0    0 -0.10493229387E+01  0.34481195824E+02  0.22846040432E+02  0.41376267443E+02  0.00000000000E+00 0.  1.
</event>
<event>
 7    1  0.4119305E-015  0.9000776E+02  0.7816164E-02  0.1186339E+00
        -11   -1    0    0    0    0  0.00000000000E+00  0.00000000000E+00  0.45593999997E+02  0.45594000000E+02  0.51100000000E-03 0. -1.
         11   -1    0    0    0    0 -0.00000000000E+00 -0.00000000000E+00 -0.45593999997E+02  0.45594000000E+02  0.51100000000E-03 0.  1.
    9900012    2    1    2    0    0  0.42016148867E+00 -0.14125243191E+00 -0.10938314135E+01  0.90007764817E+02  0.90000026513E+02 0.  0.
         12    1    1    2    0    0 -0.42016148867E+00  0.14125243191E+00  0.10938314135E+01  0.11802351830E+01  0.00000000000E+00 0. -1.
         11    1    3    3    0    0  0.27864256545E+02 -0.68695210457E+01  0.24162950617E-01  0.28698566102E+02  0.51100000000E-03 0. -1.
        -11    1    3    3    0    0  0.16177007519E+02 -0.78844698446E+00  0.41863782943E+01  0.16728508135E+02  0.51100000000E-03 0.  1.
        -12    1    3    3    0    0 -0.43621102576E+02  0.75167155983E+01 -0.53043726584E+01  0.44580690580E+02  0.00000000000E+00 0.  1.
</event>
<event>
 7    1  0.4119305E-015  0.9000777E+02  0.7816164E-02  0.1186339E+00
        -11   -1    0    0    0    0  0.00000000000E+00  0.00000000000E+00  0.45593999997E+02  0.45594000000E+02  0.51100000000E-03 0.  1.
         11   -1    0    0    0    0 -0.00000000000E+00 -0.00000000000E+00 -0.45593999997E+02  0.45594000000E+02  0.51100000000E-03 0. -1.
    9900012    2    1    2    0    0 -0.10998902385E+01 -0.37301284320E+00  0.20986727528E+00  0.90007770619E+02  0.90000032391E+02 0.  0.
         12    1    1    2    0    0  0.10998902385E+01  0.37301284320E+00 -0.20986727528E+00  0.11802293808E+01  0.00000000000E+00 0. -1.
         11    1    3    3    0    0 -0.18162227512E+02 -0.35004295885E+02 -0.95687301709E+01  0.40579894479E+02  0.51100000000E-03 0. -1.
        -11    1    3    3    0    0  0.33655274962E+01 -0.39317866938E+01  0.65917159009E+01  0.83807183888E+01  0.51100000000E-03 0.  1.
        -12    1    3    3    0    0  0.13696809777E+02  0.38563069735E+02  0.31868815452E+01  0.41047157751E+02  0.00000000000E+00 0.  1.
</event>
<event>
 7    1  0.4119305E-015  0.9000774E+02  0.7816164E-02  0.1186339E+00
        -11   -1    0    0    0    0  0.00000000000E+00  0.00000000000E+00  0.45593999997E+02  0.45594000000E+02  0.51100000000E-03 0.  1.
         11   -1    0    0    0    0 -0.00000000000E+00 -0.00000000000E+00 -0.45593999997E+02  0.45594000000E+02  0.51100000000E-03 0. -1.
    9900012    2    1    2    0    0 -0.11786825640E+01 -0.55596867049E-01  0.24905780667E-01  0.90007744140E+02  0.90000005562E+02 0.  0.
         12    1    1    2    0    0  0.11786825640E+01  0.55596867049E-01 -0.24905780667E-01  0.11802558605E+01  0.00000000000E+00 0. -1.
         11    1    3    3    0    0  0.27122862833E+02  0.26354598779E+02  0.50966661396E+01  0.38160065135E+02  0.51100000000E-03 0. -1.
        -11    1    3    3    0    0  0.36108449288E+00  0.11886097757E+01 -0.11478251758E+02  0.11545277774E+02  0.51100000000E-03 0.  1.
        -12    1    3    3    0    0 -0.28662629890E+02 -0.27598805422E+02  0.64064913986E+01  0.40302401231E+02  0.00000000000E+00 0.  1.
</event>
<event>
 7    1  0.4119305E-015  0.9000770E+02  0.7816164E-02  0.1186339E+00
        -11   -1    0    0    0    0  0.00000000000E+00  0.00000000000E+00  0.45593999997E+02  0.45594000000E+02  0.51100000000E-03 0.  1.
         11   -1    0    0    0    0 -0.00000000000E+00 -0.00000000000E+00 -0.45593999997E+02  0.45594000000E+02  0.51100000000E-03 0. -1.
    9900012    2    1    2    0    0  0.66094688888E-01  0.11758823274E+01  0.77652722396E-01  0.90007704401E+02  0.89999965299E+02 0.  0.
         12    1    1    2    0    0 -0.66094688888E-01 -0.11758823274E+01 -0.77652722396E-01  0.11802955990E+01  0.00000000000E+00 0. -1.
         11    1    3    3    0    0 -0.30743512575E+02 -0.16647842326E+02 -0.11851731498E+02  0.36915819906E+02  0.51100000000E-03 0. -1.
        -11    1    3    3    0    0 -0.73065058590E+01 -0.10260418009E+01  0.71969533341E+01  0.10306984389E+02  0.51100000000E-03 0.  1.
        -12    1    3    3    0    0  0.38116113123E+02  0.18849766454E+02  0.47324308860E+01  0.42784900106E+02  0.00000000000E+00 0.  1.
</event>
<event>
 7    1  0.4119305E-015  0.9000772E+02  0.7816164E-02  0.1186339E+00
        -11   -1    0    0    0    0  0.00000000000E+00  0.00000000000E+00  0.45593999997E+02  0.45594000000E+02  0.51100000000E-03 0.  1.
         11   -1    0    0    0    0 -0.00000000000E+00 -0.00000000000E+00 -0.45593999997E+02  0.45594000000E+02  0.51100000000E-03 0. -1.
    9900012    2    1    2    0    0  0.26426163046E+00 -0.66457652813E+00  0.93891858495E+00  0.90007718559E+02  0.89999979644E+02 0.  0.
         12    1    1    2    0    0 -0.26426163046E+00  0.66457652813E+00 -0.93891858495E+00  0.11802814411E+01  0.00000000000E+00 0. -1.
         11    1    3    3    0    0 -0.21669015741E+02  0.24740075230E+02  0.12301955055E+02  0.35113468413E+02  0.51100000000E-03 0. -1.
        -11    1    3    3    0    0  0.95957527132E+01  0.56552420869E+01  0.10214948143E+02  0.15113087011E+02  0.51100000000E-03 0.  1.
        -12    1    3    3    0    0  0.12337524658E+02 -0.31059893845E+02 -0.21577984613E+02  0.39781163134E+02  0.00000000000E+00 0.  1.
</event>
<event>
 7    1  0.4119305E-015  0.9000773E+02  0.7816164E-02  0.1186339E+00
        -11   -1    0    0    0    0  0.00000000000E+00  0.00000000000E+00  0.45593999997E+02  0.45594000000E+02  0.51100000000E-03 0. -1.
         11   -1    0    0    0    0 -0.00000000000E+00 -0.00000000000E+00 -0.45593999997E+02  0.45594000000E+02  0.51100000000E-03 0.  1.
    9900012    2    1    2    0    0  0.11174449541E+01  0.30016348719E+00 -0.23293378228E+00  0.90007729060E+02  0.89999990284E+02 0.  0.
         12    1    1    2    0    0 -0.11174449541E+01 -0.30016348719E+00  0.23293378228E+00  0.11802709398E+01  0.00000000000E+00 0. -1.
         11    1    3    3    0    0  0.52497947419E+01  0.12130577950E+02 -0.12719421267E+02  0.18343798512E+02  0.51100000000E-03 0. -1.
        -11    1    3    3    0    0 -0.51186087345E+01  0.14020493992E+02 -0.23200365874E+02  0.27586797278E+02  0.51100000000E-03 0.  1.
         12    1    3    3    0    0  0.98625894668E+00 -0.25850908455E+02  0.35686853358E+02  0.44077133269E+02  0.00000000000E+00 0. -1.
</event>
<event>
 7    1  0.4119305E-015  0.9000767E+02  0.7816164E-02  0.1186339E+00
        -11   -1    0    0    0    0  0.00000000000E+00  0.00000000000E+00  0.45593999997E+02  0.45594000000E+02  0.51100000000E-03 0.  1.
         11   -1    0    0    0    0 -0.00000000000E+00 -0.00000000000E+00 -0.45593999997E+02  0.45594000000E+02  0.51100000000E-03 0. -1.
    9900012    2    1    2    0    0  0.95347254622E+00  0.23144771620E+00  0.65612483310E+00  0.90007670496E+02  0.89999930946E+02 0.  0.
         12    1    1    2    0    0 -0.95347254622E+00 -0.23144771620E+00 -0.65612483310E+00  0.11803295041E+01  0.00000000000E+00 0. -1.
         11    1    3    3    0    0  0.19989548909E+02  0.28836876953E+01 -0.10861391353E+02  0.22931801994E+02  0.51100000000E-03 0. -1.
        -11    1    3    3    0    0  0.12368197737E+02 -0.24521118986E+02  0.14337666638E+01  0.27501150498E+02  0.51100000000E-03 0.  1.
         12    1    3    3    0    0 -0.31404274099E+02  0.21868879007E+02  0.10083749522E+02  0.39574718005E+02  0.00000000000E+00 0. -1.
</event>
<event>
 7    1  0.4119305E-015  0.9000783E+02  0.7816164E-02  0.1186339E+00
        -11   -1    0    0    0    0  0.00000000000E+00  0.00000000000E+00  0.45593999997E+02  0.45594000000E+02  0.51100000000E-03 0.  1.
         11   -1    0    0    0    0 -0.00000000000E+00 -0.00000000000E+00 -0.45593999997E+02  0.45594000000E+02  0.51100000000E-03 0. -1.
    9900012    2    1    2    0    0 -0.65425473249E+00  0.90682646285E+00 -0.37738940067E+00  0.90007827873E+02  0.90000090401E+02 0.  0.
         12    1    1    2    0    0  0.65425473249E+00 -0.90682646285E+00  0.37738940067E+00  0.11801721266E+01  0.00000000000E+00 0. -1.
         11    1    3    3    0    0 -0.25115183853E+02  0.16564677928E+02 -0.26976845011E+02  0.40409295735E+02  0.51100000000E-03 0. -1.
        -11    1    3    3    0    0 -0.32869547380E+01  0.51603265285E+01  0.84955297410E+01  0.10469339386E+02  0.51100000000E-03 0.  1.
        -12    1    3    3    0    0  0.27747883858E+02 -0.20818177993E+02  0.18103925869E+02  0.39129192753E+02  0.00000000000E+00 0.  1.
</event>
<event>
 7    1  0.4119305E-015  0.9000772E+02  0.7816164E-02  0.1186339E+00
        -11   -1    0    0    0    0  0.00000000000E+00  0.00000000000E+00  0.45593999997E+02  0.45594000000E+02  0.51100000000E-03 0. -1.
         11   -1    0    0    0    0 -0.00000000000E+00 -0.00000000000E+00 -0.45593999997E+02  0.45594000000E+02  0.51100000000E-03 0.  1.
    9900012    2    1    2    0    0  0.18011722980E+00 -0.10200159621E+01  0.56585279013E+00  0.90007718610E+02  0.89999979696E+02 0.  0.
         12    1    1    2    0    0 -0.18011722980E+00  0.10200159621E+01 -0.56585279013E+00  0.11802813900E+01  0.00000000000E+00 0. -1.
         11    1    3    3    0    0 -0.40243404605E+01 -0.15150609045E+01 -0.42072902764E+01  0.60159801710E+01  0.51100000000E-03 0. -1.
        -11    1    3    3    0    0  0.98619810309E+01 -0.37678174156E+02 -0.13596453356E+02  0.41252478976E+02  0.51100000000E-03 0.  1.
         12    1    3    3    0    0 -0.56575233406E+01  0.38173219098E+02  0.18369596423E+02  0.42739259463E+02  0.00000000000E+00 0. -1.
</event>
<event>
 7    1  0.4119305E-015  0.9000776E+02  0.7816164E-02  0.1186339E+00
        -11   -1    0    0    0    0  0.00000000000E+00  0.00000000000E+00  0.45593999997E+02  0.45594000000E+02  0.51100000000E-03 0. -1.
         11   -1    0    0    0    0 -0.00000000000E+00 -0.00000000000E+00 -0.45593999997E+02  0.45594000000E+02  0.51100000000E-03 0.  1.
    9900012    2    1    2    0    0 -0.80626268117E+00 -0.57101949382E+00 -0.64564320454E+00  0.90007755144E+02  0.90000016712E+02 0.  0.
         12    1    1    2    0    0  0.80626268117E+00  0.57101949382E+00  0.64564320454E+00  0.11802448563E+01  0.00000000000E+00 0. -1.
         11    1    3    3    0    0 -0.25654031314E+01 -0.52663504673E+01 -0.72653513932E+01  0.93327954868E+01  0.51100000000E-03 0. -1.
        -11    1    3    3    0    0 -0.24340466508E+02  0.28418832287E+02 -0.13845605520E+02  0.39897232120E+02  0.51100000000E-03 0.  1.
         12    1    3    3    0    0  0.26099606958E+02 -0.23723501313E+02  0.20465313708E+02  0.40777727537E+02  0.00000000000E+00 0. -1.
</event>
<event>
 7    1  0.4119305E-015  0.9000775E+02  0.7816164E-02  0.1186339E+00
        -11   -1    0    0    0    0  0.00000000000E+00  0.00000000000E+00  0.45593999997E+02  0.45594000000E+02  0.51100000000E-03 0.  1.
         11   -1    0    0    0    0 -0.00000000000E+00 -0.00000000000E+00 -0.45593999997E+02  0.45594000000E+02  0.51100000000E-03 0. -1.
    9900012    2    1    2    0    0 -0.82855480043E+00  0.70346104265E+00  0.46003686990E+00  0.90007748155E+02  0.90000009631E+02 0.  0.
         12    1    1    2    0    0  0.82855480043E+00 -0.70346104265E+00 -0.46003686990E+00  0.11802518450E+01  0.00000000000E+00 0. -1.
         11    1    3    3    0    0 -0.38284924674E+00 -0.37481942543E+01  0.91790156426E+01  0.99221903903E+01  0.51100000000E-03 0. -1.
        -11    1    3    3    0    0  0.24090602766E+02  0.29873113101E+02  0.10605482341E+02  0.39815025856E+02  0.51100000000E-03 0.  1.
         12    1    3    3    0    0 -0.24536308320E+02 -0.25421457804E+02 -0.19324461113E+02  0.40270531908E+02  0.00000000000E+00 0. -1.
</event>
<event>
 7    1  0.4119305E-015  0.9000771E+02  0.7816164E-02  0.1186339E+00
        -11   -1    0    0    0    0  0.00000000000E+00  0.00000000000E+00  0.45593999997E+02  0.45594000000E+02  0.51100000000E-03 0.  1.
         11   -1    0    0    0    0 -0.00000000000E+00 -0.00000000000E+00 -0.45593999997E+02  0.45594000000E+02  0.51100000000E-03 0. -1.
    9900012    2    1    2    0    0  0.65030457283E-01 -0.10032059114E+01  0.61840649726E+00  0.90007712892E+02  0.89999973902E+02 0.  0.
         12    1    1    2    0    0 -0.65030457283E-01  0.10032059114E+01 -0.61840649726E+00  0.11802871079E+01  0.00000000000E+00 0. -1.
         11    1    3    3    0    0 -0.59056678921E+01  0.49191302257E+01  0.33520304104E+01  0.83851573368E+01  0.51100000000E-03 0. -1.
        -11    1    3    3    0    0 -0.12176130645E+02  0.15063586615E+02  0.31855270814E+02  0.37281739204E+02  0.51100000000E-03 0.  1.
         12    1    3    3    0    0  0.18146828994E+02 -0.20985922752E+02 -0.34588894727E+02  0.44340816352E+02  0.00000000000E+00 0. -1.
</event>
<event>
 7    1  0.4119305E-015  0.9000781E+02  0.7816164E-02  0.1186339E+00
        -11   -1    0    0    0    0  0.00000000000E+00  0.00000000000E+00  0.45593999997E+02  0.45594000000E+02  0.51100000000E-03 0. -1.
         11   -1    0    0    0    0 -0.00000000000E+00 -0.00000000000E+00 -0.45593999997E+02  0.45594000000E+02  0.51100000000E-03 0.  1.
    9900012    2    1    2    0    0 -0.15134028301E+00  0.11628233795E+01  0.13338423939E+00  0.90007807876E+02  0.90000070140E+02 0.  0.
         12    1    1    2    0    0  0.15134028301E+00 -0.11628233795E+01 -0.13338423939E+00  0.11801921236E+01  0.00000000000E+00 0. -1.
         11    1    3    3    0    0  0.57710898066E+01 -0.17947495964E+01  0.75218095423E+01  0.96490529443E+01  0.51100000000E-03 0. -1.
        -11    1    3    3    0    0 -0.34790636715E+02  0.23876458811E+02  0.52786125378E+01  0.42524551015E+02  0.51100000000E-03 0.  1.
         12    1    3    3    0    0  0.28868206626E+02 -0.20918885835E+02 -0.12667037841E+02  0.37834203917E+02  0.00000000000E+00 0. -1.
</event>
<event>
 7    1  0.4119305E-015  0.9000761E+02  0.7816164E-02  0.1186339E+00
        -11   -1    0    0    0    0  0.00000000000E+00  0.00000000000E+00  0.45593999997E+02  0.45594000000E+02  0.51100000000E-03 0.  1.
         11   -1    0    0    0    0 -0.00000000000E+00 -0.00000000000E+00 -0.45593999997E+02  0.45594000000E+02  0.51100000000E-03 0. -1.
    9900012    2    1    2    0    0 -0.60744994857E+00  0.93105953476E+00  0.39681666789E+00  0.90007605674E+02  0.89999865269E+02 0.  0.
         12    1    1    2    0    0  0.60744994857E+00 -0.93105953476E+00 -0.39681666789E+00  0.11803943262E+01  0.00000000000E+00 0. -1.
         11    1    3    3    0    0 -0.34890399411E+02  0.69041733405E+01 -0.16372997912E+02  0.39154599237E+02  0.51100000000E-03 0. -1.
        -11    1    3    3    0    0  0.69454783986E+00 -0.87604400235E+01 -0.55821366347E+01  0.10410953644E+02  0.51100000000E-03 0.  1.
        -12    1    3    3    0    0  0.33588401622E+02  0.27873262178E+01  0.22351951215E+02  0.40442052793E+02  0.00000000000E+00 0.  1.
</event>
<event>
 7    1  0.4119305E-015  0.9000784E+02  0.7816164E-02  0.1186339E+00
        -11   -1    0    0    0    0  0.00000000000E+00  0.00000000000E+00  0.45593999997E+02  0.45594000000E+02  0.51100000000E-03 0. -1.
         11   -1    0    0    0    0 -0.00000000000E+00 -0.00000000000E+00 -0.45593999997E+02  0.45594000000E+02  0.51100000000E-03 0.  1.
    9900012    2    1    2    0    0  0.35309846775E+00  0.11185085178E+01 -0.13054678664E+00  0.90007838021E+02  0.90000100683E+02 0.  0.
         12    1    1    2    0    0 -0.35309846775E+00 -0.11185085178E+01  0.13054678664E+00  0.11801619786E+01  0.00000000000E+00 0. -1.
         11    1    3    3    0    0  0.58729448575E+01 -0.42034963499E+02  0.57535759867E+01  0.42831451931E+02  0.51100000000E-03 0. -1.
        -11    1    3    3    0    0  0.54114207075E+01  0.95613262347E+01  0.14956433037E+01  0.11087803326E+02  0.51100000000E-03 0.  1.
        -12    1    3    3    0    0 -0.10931267097E+02  0.33592145782E+02 -0.73797660770E+01  0.36088582764E+02  0.00000000000E+00 0.  1.
</event>
<event>
 7    1  0.4119305E-015  0.9000775E+02  0.7816164E-02  0.1186339E+00
        -11   -1    0    0    0    0  0.00000000000E+00  0.00000000000E+00  0.45593999997E+02  0.45594000000E+02  0.51100000000E-03 0.  1.
         11   -1    0    0    0    0 -0.00000000000E+00 -0.00000000000E+00 -0.45593999997E+02  0.45594000000E+02  0.51100000000E-03 0. -1.
    9900012    2    1    2    0    0 -0.65902871163E-01  0.65473059002E+00  0.97978877890E+00  0.90007745203E+02  0.90000006640E+02 0.  0.
         12    1    1    2    0    0  0.65902871163E-01 -0.65473059002E+00 -0.97978877890E+00  0.11802547967E+01  0.00000000000E+00 0. -1.
         11    1    3    3    0    0  0.30586453079E+02  0.71572657187E+01 -0.25276718621E+02  0.40319599068E+02  0.51100000000E-03 0. -1.
        -11    1    3    3    0    0 -0.18557293880E+01  0.85184706957E+01  0.14918624763E+01  0.88449832371E+01  0.51100000000E-03 0.  1.
        -12    1    3    3    0    0 -0.28796626562E+02 -0.15021005824E+02  0.24764644924E+02  0.40843162898E+02  0.00000000000E+00 0.  1.
</event>
<event>
 7    1  0.4119305E-015  0.9000773E+02  0.7816164E-02  0.1186339E+00
        -11   -1    0    0    0    0  0.00000000000E+00  0.00000000000E+00  0.45593999997E+02  0.45594000000E+02  0.51100000000E-03 0. -1.
         11   -1    0    0    0    0 -0.00000000000E+00 -0.00000000000E+00 -0.45593999997E+02  0.45594000000E+02  0.51100000000E-03 0.  1.
    9900012    2    1    2    0    0  0.79243536419E+00  0.69366588664E+00 -0.53282415613E+00  0.90007734034E+02  0.89999995323E+02 0.  0.
         12    1    1    2    0    0 -0.79243536419E+00 -0.69366588664E+00  0.53282415613E+00  0.11802659658E+01  0.00000000000E+00 0. -1.
         11    1    3    3    0    0  0.60389005308E+01  0.37177763730E+00 -0.80048376163E+01  0.10034139911E+02  0.51100000000E-03 0. -1.
        -11    1    3    3    0    0 -0.24429247224E+01  0.11621694290E+02 -0.34463362083E+02  0.36452091650E+02  0.51100000000E-03 0.  1.
         12    1    3    3    0    0 -0.28035404442E+01 -0.11299806040E+02  0.41935375543E+02  0.43521502473E+02  0.00000000000E+00 0. -1.
</event>
<event>
 7    1  0.4119305E-015  0.9000770E+02  0.7816164E-02  0.1186339E+00
        -11   -1    0    0    0    0  0.00000000000E+00  0.00000000000E+00  0.45593999997E+02  0.45594000000E+02  0.51100000000E-03 0.  1.
         11   -1    0    0    0    0 -0.00000000000E+00 -0.00000000000E+00 -0.45593999997E+02  0.45594000000E+02  0.51100000000E-03 0. -1.
    9900012    2    1    2    0    0  0.10599860974E+01 -0.45451659871E+00  0.25090556383E+00  0.90007699417E+02  0.89999960249E+02 0.  0.
         12    1    1    2    0    0 -0.10599860974E+01  0.45451659871E+00 -0.25090556383E+00  0.11803005834E+01  0.00000000000E+00 0. -1.
         11    1    3    3    0    0 -0.26514000085E+02 -0.24195273560E+02 -0.25312244523E+02  0.43921671031E+02  0.51100000000E-03 0. -1.
        -11    1    3    3    0    0  0.10332837047E+02  0.21123127903E+01  0.88613802071E+01  0.13775102403E+02  0.51100000000E-03 0.  1.
        -12    1    3    3    0    0  0.17241149135E+02  0.21628444171E+02  0.16701769880E+02  0.32310925983E+02  0.00000000000E+00 0.  1.
</event>
<event>
 7    1  0.4119305E-015  0.9000785E+02  0.7816164E-02  0.1186339E+00
        -11   -1    0    0    0    0  0.00000000000E+00  0.00000000000E+00  0.45593999997E+02  0.45594000000E+02  0.51100000000E-03 0.  1.
         11   -1    0    0    0    0 -0.00000000000E+00 -0.00000000000E+00 -0.45593999997E+02  0.45594000000E+02  0.51100000000E-03 0. -1.
    9900012    2    1    2    0    0 -0.46575439332E+00 -0.67490165183E+00  0.84872737900E+00  0.90007848502E+02  0.90000111302E+02 0.  0.
         12    1    1    2    0    0  0.46575439332E+00  0.67490165183E+00 -0.84872737900E+00  0.11801514981E+01  0.00000000000E+00 0. -1.
         11    1    3    3    0    0 -0.49407792271E+01  0.56346880268E+00 -0.90946112681E+01  0.10365363035E+02  0.51100000000E-03 0. -1.
        -11    1    3    3    0    0 -0.21026342629E+02 -0.32269795005E+02  0.85482271271E+01  0.39452743141E+02  0.51100000000E-03 0.  1.
         12    1    3    3    0    0  0.25501367463E+02  0.31031424551E+02  0.13951115200E+01  0.40189742327E+02  0.00000000000E+00 0. -1.
</event>
<event>
 7    1  0.4119305E-015  0.9000773E+02  0.7816164E-02  0.1186339E+00
        -11   -1    0    0    0    0  0.00000000000E+00  0.00000000000E+00  0.45593999997E+02  0.45594000000E+02  0.51100000000E-03 0.  1.
         11   -1    0    0    0    0 -0.00000000000E+00 -0.00000000000E+00 -0.45593999997E+02  0.45594000000E+02  0.51100000000E-03 0. -1.
    9900012    2    1    2    0    0  0.53697967248E+00  0.67588990763E+00  0.80489645304E+00  0.90007731964E+02  0.89999993226E+02 0.  0.
         12    1    1    2    0    0 -0.53697967248E+00 -0.67588990763E+00 -0.80489645304E+00  0.11802680357E+01  0.00000000000E+00 0. -1.
         11    1    3    3    0    0  0.84151612650E+01 -0.34488319526E+02 -0.97034568256E+01  0.36802393910E+02  0.51100000000E-03 0. -1.
        -11    1    3    3    0    0  0.81463638447E+01 -0.32596528087E+01 -0.32537298865E+01  0.93581696265E+01  0.51100000000E-03 0.  1.
        -12    1    3    3    0    0 -0.16024545437E+02  0.38423862243E+02  0.13762083165E+02  0.43847168428E+02  0.00000000000E+00 0.  1.
</event>
<event>
 7    1  0.9173527E-015  0.9000776E+02  0.7816164E-02  0.1186339E+00
        -11   -1    0    0    0    0  0.00000000000E+00  0.00000000000E+00  0.45593999997E+02  0.45594000000E+02  0.51100000000E-03 0. -1.
         11   -1    0    0    0    0 -0.00000000000E+00 -0.00000000000E+00 -0.45593999997E+02  0.45594000000E+02  0.51100000000E-03 0.  1.
    9900012    2    1    2    0    0 -0.33681518532E+00  0.35477555264E+00 -0.10740785962E+01  0.90007764857E+02  0.90000026553E+02 0.  0.
         12    1    1    2    0    0  0.33681518532E+00 -0.35477555264E+00  0.10740785962E+01  0.11802351429E+01  0.00000000000E+00 0. -1.
         11    1    3    3    0    0  0.14836333594E+02 -0.14707516950E+02  0.29216217754E+02  0.35916782003E+02  0.51100000000E-03 0. -1.
        -11    1    3    3    0    0  0.84042713014E+01 -0.55019869810E+01  0.68107899378E+00  0.10068143111E+02  0.51100000000E-03 0.  1.
        -12    1    3    3    0    0 -0.23577420081E+02  0.20564279484E+02 -0.30971375344E+02  0.44022839743E+02  0.00000000000E+00 0.  1.
</event>
<event>
 7    1  0.4119305E-015  0.9000770E+02  0.7816164E-02  0.1186339E+00
        -11   -1    0    0    0    0  0.00000000000E+00  0.00000000000E+00  0.45593999997E+02  0.45594000000E+02  0.51100000000E-03 0.  1.
         11   -1    0    0    0    0 -0.00000000000E+00 -0.00000000000E+00 -0.45593999997E+02  0.45594000000E+02  0.51100000000E-03 0. -1.
    9900012    2    1    2    0    0 -0.95680364241E+00 -0.52074848702E+00  0.45437478109E+00  0.90007699768E+02  0.89999960605E+02 0.  0.
         12    1    1    2    0    0  0.95680364241E+00  0.52074848702E+00 -0.45437478109E+00  0.11803002324E+01  0.00000000000E+00 0. -1.
         11    1    3    3    0    0 -0.39754841563E+02 -0.11617572315E+02 -0.64576229139E+01  0.41917971183E+02  0.51100000000E-03 0. -1.
        -11    1    3    3    0    0 -0.19466667150E+01  0.56487797838E+01 -0.14322466825E+01  0.61440666635E+01  0.51100000000E-03 0.  1.
        -12    1    3    3    0    0  0.40744704635E+02  0.54480440445E+01  0.83442443775E+01  0.41945661921E+02  0.00000000000E+00 0.  1.
</event>
<event>
 7    1  0.4119305E-015  0.9000781E+02  0.7816164E-02  0.1186339E+00
        -11   -1    0    0    0    0  0.00000000000E+00  0.00000000000E+00  0.45593999997E+02  0.45594000000E+02  0.51100000000E-03 0.  1.
         11   -1    0    0    0    0 -0.00000000000E+00 -0.00000000000E+00 -0.45593999997E+02  0.45594000000E+02  0.51100000000E-03 0. -1.
    9900012    2    1    2    0    0  0.93844833299E+00 -0.68527374052E+00  0.20629062673E+00  0.90007813067E+02  0.90000075400E+02 0.  0.
         12    1    1    2    0    0 -0.93844833299E+00  0.68527374052E+00 -0.20629062673E+00  0.11801869326E+01  0.00000000000E+00 0. -1.
         11    1    3    3    0    0 -0.50611968170E+01 -0.35037068460E+02 -0.18734780982E+02  0.40052514255E+02  0.51100000000E-03 0. -1.
        -11    1    3    3    0    0  0.69469816827E-01  0.69119156762E+01 -0.83247675956E+01  0.10820404805E+02  0.51100000000E-03 0.  1.
        -12    1    3    3    0    0  0.59301753331E+01  0.27439879043E+02  0.27265839205E+02  0.39134894007E+02  0.00000000000E+00 0.  1.
</event>
<event>
 7    1  0.4119305E-015  0.9000771E+02  0.7816164E-02  0.1186339E+00
        -11   -1    0    0    0    0  0.00000000000E+00  0.00000000000E+00  0.45593999997E+02  0.45594000000E+02  0.51100000000E-03 0.  1.
         11   -1    0    0    0    0 -0.00000000000E+00 -0.00000000000E+00 -0.45593999997E+02  0.45594000000E+02  0.51100000000E-03 0. -1.
    9900012    2    1    2    0    0  0.45432954141E+00 -0.21313674496E+00  0.10682869381E+01  0.90007712075E+02  0.89999973074E+02 0.  0.
         12    1    1    2    0    0 -0.45432954141E+00  0.21313674496E+00 -0.10682869381E+01  0.11802879252E+01  0.00000000000E+00 0. -1.
         11    1    3    3    0    0  0.17744636705E+02  0.28983087090E+02  0.12214071047E+02  0.36111978634E+02  0.51100000000E-03 0. -1.
        -11    1    3    3    0    0  0.10656481853E+02 -0.80516327747E+01  0.62786788694E+01  0.14758428250E+02  0.51100000000E-03 0.  1.
        -12    1    3    3    0    0 -0.27946789017E+02 -0.21144591060E+02 -0.17424462978E+02  0.39137305190E+02  0.00000000000E+00 0.  1.
</event>
<event>
 7    1  0.4119305E-015  0.9000758E+02  0.7816164E-02  0.1186339E+00
        -11   -1    0    0    0    0  0.00000000000E+00  0.00000000000E+00  0.45593999997E+02  0.45594000000E+02  0.51100000000E-03 0.  1.
         11   -1    0    0    0    0 -0.00000000000E+00 -0.00000000000E+00 -0.45593999997E+02  0.45594000000E+02  0.51100000000E-03 0. -1.
    9900012    2    1    2    0    0  0.98681409364E-01  0.48958176044E+00  0.10695650303E+01  0.90007577332E+02  0.89999836553E+02 0.  0.
         12    1    1    2    0    0 -0.98681409364E-01 -0.48958176044E+00 -0.10695650303E+01  0.11804226679E+01  0.00000000000E+00 0. -1.
         11    1    3    3    0    0  0.27182288471E+02 -0.34698881102E+02 -0.10954431347E+00  0.44078352469E+02  0.51100000000E-03 0. -1.
        -11    1    3    3    0    0 -0.61422551002E+01  0.56285501327E+01  0.46435908525E+01  0.95378619501E+01  0.51100000000E-03 0.  1.
        -12    1    3    3    0    0 -0.20941351961E+02  0.29559912729E+02 -0.34644815087E+01  0.36391362913E+02  0.00000000000E+00 0.  1.
</event>
<event>
 7    1  0.4119305E-015  0.9000778E+02  0.7816164E-02  0.1186339E+00
        -11   -1    0    0    0    0  0.00000000000E+00  0.00000000000E+00  0.45593999997E+02  0.45594000000E+02  0.51100000000E-03 0.  1.
         11   -1    0    0    0    0 -0.00000000000E+00 -0.00000000000E+00 -0.45593999997E+02  0.45594000000E+02  0.51100000000E-03 0. -1.
    9900012    2    1    2    0    0 -0.60103196247E-01 -0.24730106308E+00  0.11524560257E+01  0.90007777520E+02  0.90000039384E+02 0.  0.
         12    1    1    2    0    0  0.60103196247E-01  0.24730106308E+00 -0.11524560257E+01  0.11802224795E+01  0.00000000000E+00 0. -1.
         11    1    3    3    0    0  0.40915555079E+00  0.40418129677E+01  0.83500945247E+01  0.92858892500E+01  0.51100000000E-03 0. -1.
        -11    1    3    3    0    0  0.36203340016E+02  0.39254938151E+00  0.13153028712E+02  0.38520618997E+02  0.51100000000E-03 0.  1.
         12    1    3    3    0    0 -0.36672598763E+02 -0.46816634123E+01 -0.20350667211E+02  0.42201269274E+02  0.00000000000E+00 0. -1.
</event>
<event>
 7    1  0.4119305E-015  0.9000773E+02  0.7816164E-02  0.1186339E+00
        -11   -1    0    0    0    0  0.00000000000E+00  0.00000000000E+00  0.45593999997E+02  0.45594000000E+02  0.51100000000E-03 0.  1.
         11   -1    0    0    0    0 -0.00000000000E+00 -0.00000000000E+00 -0.45593999997E+02  0.45594000000E+02  0.51100000000E-03 0. -1.
    9900012    2    1    2    0    0 -0.41932816484E+00 -0.60591412850E+00  0.92198781508E+00  0.90007733262E+02  0.89999994541E+02 0.  0.
         12    1    1    2    0    0  0.41932816484E+00  0.60591412850E+00 -0.92198781508E+00  0.11802667377E+01  0.00000000000E+00 0. -1.
         11    1    3    3    0    0 -0.22541761572E+02  0.36983368403E+02 -0.10219887776E+01  0.43323723461E+02  0.51100000000E-03 0. -1.
        -11    1    3    3    0    0  0.35596788274E+01 -0.55699837942E+01  0.66482857025E+01  0.93752725755E+01  0.51100000000E-03 0.  1.
        -12    1    3    3    0    0  0.18562754580E+02 -0.32019298737E+02 -0.47043091098E+01  0.37308737226E+02  0.00000000000E+00 0.  1.
</event>
<event>
 7    1  0.4119305E-015  0.9000782E+02  0.7816164E-02  0.1186339E+00
        -11   -1    0    0    0    0  0.00000000000E+00  0.00000000000E+00  0.45593999997E+02  0.45594000000E+02  0.51100000000E-03 0. -1.
         11   -1    0    0    0    0 -0.00000000000E+00 -0.00000000000E+00 -0.45593999997E+02  0.45594000000E+02  0.51100000000E-03 0.  1.
    9900012    2    1    2    0    0 -0.80575818028E+00  0.82639558663E+00 -0.24628198957E+00  0.90007817502E+02  0.90000079893E+02 0.  0.
         12    1    1    2    0    0  0.80575818028E+00 -0.82639558663E+00  0.24628198957E+00  0.11801824982E+01  0.00000000000E+00 0. -1.
         11    1    3    3    0    0  0.98180248100E+01  0.11903835083E+01 -0.84298745810E+01  0.12995130233E+02  0.51100000000E-03 0. -1.
        -11    1    3    3    0    0  0.13929515584E+02  0.15485516062E+02 -0.25167750592E+02  0.32668766157E+02  0.51100000000E-03 0.  1.
         12    1    3    3    0    0 -0.24553298574E+02 -0.15849503984E+02  0.33351343183E+02  0.44343921111E+02  0.00000000000E+00 0. -1.
</event>
<event>
 7    1  0.4119305E-015  0.9000760E+02  0.7816164E-02  0.1186339E+00
        -11   -1    0    0    0    0  0.00000000000E+00  0.00000000000E+00  0.45593999997E+02  0.45594000000E+02  0.51100000000E-03 0.  1.
         11   -1    0    0    0    0 -0.00000000000E+00 -0.00000000000E+00 -0.45593999997E+02  0.45594000000E+02  0.51100000000E-03 0. -1.
    9900012    2    1    2    0    0 -0.10077772790E+01  0.51451123254E+00 -0.33615104557E+00  0.90007604144E+02  0.89999863718E+02 0.  0.
         12    1    1    2    0    0  0.10077772790E+01 -0.51451123254E+00  0.33615104557E+00  0.11803958564E+01  0.00000000000E+00 0. -1.
         11    1    3    3    0    0  0.66827478772E+00 -0.91919023298E+01  0.23945980929E+01  0.95221720170E+01  0.51100000000E-03 0. -1.
        -11    1    3    3    0    0 -0.18550733473E+02 -0.30685583918E+02  0.44252695118E+01  0.36129181880E+02  0.51100000000E-03 0.  1.
         12    1    3    3    0    0  0.16874681407E+02  0.40391997480E+02 -0.71560186502E+01  0.44356250247E+02  0.00000000000E+00 0. -1.
</event>
<event>
 7    1  0.4119305E-015  0.9000851E+02  0.7816164E-02  0.1186337E+00
        -11   -1    0    0    0    0  0.00000000000E+00  0.00000000000E+00  0.45593999997E+02  0.45594000000E+02  0.51100000000E-03 0. -1.
         11   -1    0    0    0    0 -0.00000000000E+00 -0.00000000000E+00 -0.45593999997E+02  0.45594000000E+02  0.51100000000E-03 0.  1.
    9900012    2    1    2    0    0  0.72641268360E+00  0.49152269007E+00 -0.78861703525E+00  0.90008514193E+02  0.90000785776E+02 0.  0.
         12    1    1    2    0    0 -0.72641268360E+00 -0.49152269007E+00  0.78861703525E+00  0.11794858075E+01  0.00000000000E+00 0. -1.
         11    1    3    3    0    0  0.22850518962E+02  0.16955419198E+02  0.79286120537E+01  0.29538032202E+02  0.51100000000E-03 0.  1.
        -11    1    3    3    0    0  0.87134046990E+01 -0.18099019932E+02 -0.19270556014E+02  0.27836168437E+02  0.51100000000E-03 0. -1.
         12    1    3    3    0    0 -0.30837510978E+02  0.16351234241E+01  0.10553326925E+02  0.32634313553E+02  0.00000000000E+00 0. -1.
</event>
<event>
 7    1  0.4119305E-015  0.9000774E+02  0.7816164E-02  0.1186339E+00
        -11   -1    0    0    0    0  0.00000000000E+00  0.00000000000E+00  0.45593999997E+02  0.45594000000E+02  0.51100000000E-03 0. -1.
         11   -1    0    0    0    0 -0.00000000000E+00 -0.00000000000E+00 -0.45593999997E+02  0.45594000000E+02  0.51100000000E-03 0.  1.
    9900012    2    1    2    0    0  0.59867074792E+00 -0.68043114739E-01 -0.10148805803E+01  0.90007737689E+02  0.89999999027E+02 0.  0.
         12    1    1    2    0    0 -0.59867074792E+00  0.68043114739E-01  0.10148805803E+01  0.11802623108E+01  0.00000000000E+00 0. -1.
         11    1    3    3    0    0 -0.11402654580E+01 -0.99064350157E+01  0.32011069362E+01  0.10473048549E+02  0.51100000000E-03 0. -1.
        -11    1    3    3    0    0  0.23798299374E+02 -0.24251977127E+02 -0.15564789056E+02  0.37373521459E+02  0.51100000000E-03 0.  1.
         12    1    3    3    0    0 -0.22059363168E+02  0.34090369028E+02  0.11348801539E+02  0.42161167681E+02  0.00000000000E+00 0. -1.
</event>
<event>
 7    1  0.4119305E-015  0.9000795E+02  0.7816164E-02  0.1186339E+00
        -11   -1    0    0    0    0  0.00000000000E+00  0.00000000000E+00  0.45593999997E+02  0.45594000000E+02  0.51100000000E-03 0.  1.
         11   -1    0    0    0    0 -0.00000000000E+00 -0.00000000000E+00 -0.45593999997E+02  0.45594000000E+02  0.51100000000E-03 0. -1.
    9900012    2    1    2    0    0 -0.55847044799E+00  0.59219522835E+00  0.85436246489E+00  0.90007949301E+02  0.90000213432E+02 0.  0.
         12    1    1    2    0    0  0.55847044799E+00 -0.59219522835E+00 -0.85436246489E+00  0.11800506986E+01  0.00000000000E+00 0. -1.
         11    1    3    3    0    0  0.55076085823E+01  0.53764225026E+01 -0.38505666673E+01  0.86061916747E+01  0.51100000000E-03 0. -1.
        -11    1    3    3    0    0  0.31285038082E+02  0.17919659838E+02  0.98890630529E+01  0.37385309746E+02  0.51100000000E-03 0.  1.
         12    1    3    3    0    0 -0.37351117112E+02 -0.22703887112E+02 -0.51841339207E+01  0.44016447881E+02  0.00000000000E+00 0. -1.
</event>
<event>
 7    1  0.4119305E-015  0.9000837E+02  0.7816164E-02  0.1186338E+00
        -11   -1    0    0    0    0  0.00000000000E+00  0.00000000000E+00  0.45593999997E+02  0.45594000000E+02  0.51100000000E-03 0. -1.
         11   -1    0    0    0    0 -0.00000000000E+00 -0.00000000000E+00 -0.45593999997E+02  0.45594000000E+02  0.51100000000E-03 0.  1.
    9900012    2    1    2    0    0 -0.35217666888E+00 -0.11251081437E+01 -0.40489394953E-01  0.90008366102E+02  0.90000635733E+02 0.  0.
         12    1    1    2    0    0  0.35217666888E+00  0.11251081437E+01  0.40489394953E-01  0.11796338976E+01  0.00000000000E+00 0. -1.
         11    1    3    3    0    0 -0.13949139722E+02  0.19070625261E+01 -0.11612663346E+01  0.14126709674E+02  0.51100000000E-03 0. -1.
        -11    1    3    3    0    0 -0.38717236023E+01  0.13760530358E+02 -0.31881184415E+02  0.34939266726E+02  0.51100000000E-03 0.  1.
        -12    1    3    3    0    0  0.17468686655E+02 -0.16792701028E+02  0.33001961355E+02  0.40942389702E+02  0.00000000000E+00 0.  1.
</event>
<event>
 7    1  0.4119305E-015  0.9000782E+02  0.7816164E-02  0.1186339E+00
        -11   -1    0    0    0    0  0.00000000000E+00  0.00000000000E+00  0.45593999997E+02  0.45594000000E+02  0.51100000000E-03 0. -1.
         11   -1    0    0    0    0 -0.00000000000E+00 -0.00000000000E+00 -0.45593999997E+02  0.45594000000E+02  0.51100000000E-03 0.  1.
    9900012    2    1    2    0    0  0.44241510127E+00 -0.66248498251E+00 -0.87074506047E+00  0.90007824405E+02  0.90000086887E+02 0.  0.
         12    1    1    2    0    0 -0.44241510127E+00  0.66248498251E+00  0.87074506047E+00  0.11801755947E+01  0.00000000000E+00 0. -1.
         11    1    3    3    0    0 -0.43322113548E+01  0.76055527976E+01  0.36478736075E+01  0.94825877637E+01  0.51100000000E-03 0. -1.
        -11    1    3    3    0    0  0.13365902455E+02 -0.20015099752E+00 -0.40507286293E+02  0.42655921651E+02  0.51100000000E-03 0.  1.
         12    1    3    3    0    0 -0.85912759993E+01 -0.80678867826E+01  0.35988667625E+02  0.37869314990E+02  0.00000000000E+00 0. -1.
</event>
<event>
 7    1  0.4119305E-015  0.9000783E+02  0.7816164E-02  0.1186339E+00
        -11   -1    0    0    0    0  0.00000000000E+00  0.00000000000E+00  0.45593999997E+02  0.45594000000E+02  0.51100000000E-03 0.  1.
         11   -1    0    0    0    0 -0.00000000000E+00 -0.00000000000E+00 -0.45593999997E+02  0.45594000000E+02  0.51100000000E-03 0. -1.
    9900012    2    1    2    0    0 -0.77326994192E+00  0.15581950472E+00  0.87782943184E+00  0.90007826016E+02  0.90000088519E+02 0.  0.
         12    1    1    2    0    0  0.77326994192E+00 -0.15581950472E+00 -0.87782943184E+00  0.11801739840E+01  0.00000000000E+00 0. -1.
         11    1    3    3    0    0  0.65480156016E+01  0.19639763181E+01 -0.23693384336E+01  0.72351555734E+01  0.51100000000E-03 0. -1.
        -11    1    3    3    0    0  0.34099350001E+02  0.14274111178E+02 -0.58256711396E+01  0.37422645081E+02  0.51100000000E-03 0.  1.
         12    1    3    3    0    0 -0.41420635545E+02 -0.16082267991E+02  0.90728390051E+01  0.45350025361E+02  0.00000000000E+00 0. -1.
</event>
<event>
 7    1  0.4119305E-015  0.9000756E+02  0.7816164E-02  0.1186339E+00
        -11   -1    0    0    0    0  0.00000000000E+00  0.00000000000E+00  0.45593999997E+02  0.45594000000E+02  0.51100000000E-03 0. -1.
         11   -1    0    0    0    0 -0.00000000000E+00 -0.00000000000E+00 -0.45593999997E+02  0.45594000000E+02  0.51100000000E-03 0.  1.
    9900012    2    1    2    0    0 -0.82720248423E+00  0.55144284858E+00  0.63646352456E+00  0.90007559835E+02  0.89999818825E+02 0.  0.
         12    1    1    2    0    0  0.82720248423E+00 -0.55144284858E+00 -0.63646352456E+00  0.11804401650E+01  0.00000000000E+00 0. -1.
         11    1    3    3    0    0  0.31017922552E+02  0.28947382228E+02 -0.86629592423E+00  0.42435986217E+02  0.51100000000E-03 0. -1.
        -11    1    3    3    0    0  0.12988707201E+01 -0.85524360860E+01  0.22346717102E+01  0.89344829770E+01  0.51100000000E-03 0.  1.
        -12    1    3    3    0    0 -0.33143995757E+02 -0.19843503293E+02 -0.73191226137E+00  0.38637090641E+02  0.00000000000E+00 0.  1.
</event>
<event>
 7    1  0.4119305E-015  0.9000777E+02  0.7816164E-02  0.1186339E+00
        -11   -1    0    0    0    0  0.00000000000E+00  0.00000000000E+00  0.45593999997E+02  0.45594000000E+02  0.51100000000E-03 0. -1.
         11   -1    0    0    0    0 -0.00000000000E+00 -0.00000000000E+00 -0.45593999997E+02  0.45594000000E+02  0.51100000000E-03 0.  1.
    9900012    2    1    2    0    0 -0.81087563145E+00  0.78358491087E+00 -0.34843449077E+00  0.90007774938E+02  0.90000036767E+02 0.  0.
         12    1    1    2    0    0  0.81087563145E+00 -0.78358491087E+00  0.34843449077E+00  0.11802250618E+01  0.00000000000E+00 0. -1.
         11    1    3    3    0    0 -0.94561498400E+00  0.44920353701E+01  0.99354077998E+01  0.10944628722E+02  0.51100000000E-03 0. -1.
        -11    1    3    3    0    0 -0.37910638559E+02 -0.72460725022E+01  0.27424465294E+01  0.38694225614E+02  0.51100000000E-03 0.  1.
         12    1    3    3    0    0  0.38045377911E+02  0.35376220430E+01 -0.13026288820E+02  0.40368920602E+02  0.00000000000E+00 0. -1.
</event>
<event>
 7    1  0.4119305E-015  0.9000780E+02  0.7816164E-02  0.1186339E+00
        -11   -1    0    0    0    0  0.00000000000E+00  0.00000000000E+00  0.45593999997E+02  0.45594000000E+02  0.51100000000E-03 0.  1.
         11   -1    0    0    0    0 -0.00000000000E+00 -0.00000000000E+00 -0.45593999997E+02  0.45594000000E+02  0.51100000000E-03 0. -1.
    9900012    2    1    2    0    0  0.86801096721E+00  0.76481348326E+00 -0.23343320907E+00  0.90007799269E+02  0.90000061419E+02 0.  0.
         12    1    1    2    0    0 -0.86801096721E+00 -0.76481348326E+00  0.23343320907E+00  0.11802007314E+01  0.00000000000E+00 0. -1.
         11    1    3    3    0    0 -0.10215593903E+02 -0.21526461707E+01 -0.21687431998E+01  0.10662818186E+02  0.51100000000E-03 0. -1.
        -11    1    3    3    0    0 -0.11355737252E+02 -0.31623253389E+02  0.14036739757E+02  0.36414461231E+02  0.51100000000E-03 0.  1.
         12    1    3    3    0    0  0.22439342122E+02  0.34540713043E+02 -0.12101429767E+02  0.42930519852E+02  0.00000000000E+00 0. -1.
</event>
<event>
 7    1  0.4119305E-015  0.9000770E+02  0.7816164E-02  0.1186339E+00
        -11   -1    0    0    0    0  0.00000000000E+00  0.00000000000E+00  0.45593999997E+02  0.45594000000E+02  0.51100000000E-03 0.  1.
         11   -1    0    0    0    0 -0.00000000000E+00 -0.00000000000E+00 -0.45593999997E+02  0.45594000000E+02  0.51100000000E-03 0. -1.
    9900012    2    1    2    0    0  0.66944271414E+00  0.70297112969E+00  0.67141388973E+00  0.90007695561E+02  0.89999956343E+02 0.  0.
         12    1    1    2    0    0 -0.66944271414E+00 -0.70297112969E+00 -0.67141388973E+00  0.11803044387E+01  0.00000000000E+00 0. -1.
         11    1    3    3    0    0  0.20679307513E+00  0.75569765539E+01  0.74207383394E+01  0.10593300514E+02  0.51100000000E-03 0. -1.
        -11    1    3    3    0    0 -0.19997369613E+01  0.14644499615E+01  0.35852586129E+02  0.35938162084E+02  0.51100000000E-03 0.  1.
         12    1    3    3    0    0  0.24623866003E+01 -0.83184553858E+01 -0.42601910578E+02  0.43476232963E+02  0.00000000000E+00 0. -1.
</event>
<event>
 7    1  0.4119305E-015  0.9000802E+02  0.7816164E-02  0.1186338E+00
        -11   -1    0    0    0    0  0.00000000000E+00  0.00000000000E+00  0.45593999997E+02  0.45594000000E+02  0.51100000000E-03 0.  1.
         11   -1    0    0    0    0 -0.00000000000E+00 -0.00000000000E+00 -0.45593999997E+02  0.45594000000E+02  0.51100000000E-03 0. -1.
    9900012    2    1    2    0    0  0.32853334880E+00 -0.11405199328E+00  0.11275704065E+01  0.90008018203E+02  0.90000283243E+02 0.  0.
         12    1    1    2    0    0 -0.32853334880E+00  0.11405199328E+00 -0.11275704065E+01  0.11799817965E+01  0.00000000000E+00 0. -1.
         11    1    3    3    0    0 -0.64872761343E+01 -0.77491262973E+00  0.95152713757E+01  0.11542340787E+02  0.51100000000E-03 0. -1.
        -11    1    3    3    0    0 -0.30243561129E+02  0.13327667626E+02  0.10911274384E+02  0.34804534519E+02  0.51100000000E-03 0.  1.
         12    1    3    3    0    0  0.37059370612E+02 -0.12666806990E+02 -0.19298975353E+02  0.43661142898E+02  0.00000000000E+00 0. -1.
</event>
<event>
 7    1  0.4119305E-015  0.9000770E+02  0.7816164E-02  0.1186339E+00
        -11   -1    0    0    0    0  0.00000000000E+00  0.00000000000E+00  0.45593999997E+02  0.45594000000E+02  0.51100000000E-03 0. -1.
         11   -1    0    0    0    0 -0.00000000000E+00 -0.00000000000E+00 -0.45593999997E+02  0.45594000000E+02  0.51100000000E-03 0.  1.
    9900012    2    1    2    0    0 -0.85413124650E+00  0.34910383376E-02 -0.81458847312E+00  0.90007700566E+02  0.89999961413E+02 0.  0.
         12    1    1    2    0    0  0.85413124650E+00 -0.34910383376E-02  0.81458847312E+00  0.11802994341E+01  0.00000000000E+00 0. -1.
         11    1    3    3    0    0  0.27181182008E+01  0.41372932660E+01 -0.96002208013E+01  0.10801370368E+02  0.51100000000E-03 0. -1.
        -11    1    3    3    0    0  0.32375705788E+01 -0.25761675002E+02 -0.26605055935E+02  0.37174921166E+02  0.51100000000E-03 0.  1.
         12    1    3    3    0    0 -0.68098200262E+01  0.21627872774E+02  0.35390688263E+02  0.42031409032E+02  0.00000000000E+00 0. -1.
</event>
<event>
 7    1  0.4119305E-015  0.9000780E+02  0.7816164E-02  0.1186339E+00
        -11   -1    0    0    0    0  0.00000000000E+00  0.00000000000E+00  0.45593999997E+02  0.45594000000E+02  0.51100000000E-03 0.  1.
         11   -1    0    0    0    0 -0.00000000000E+00 -0.00000000000E+00 -0.45593999997E+02  0.45594000000E+02  0.51100000000E-03 0. -1.
    9900012    2    1    2    0    0  0.58428461406E+00  0.99803346509E+00  0.23540984952E+00  0.90007797854E+02  0.90000059986E+02 0.  0.
         12    1    1    2    0    0 -0.58428461406E+00 -0.99803346509E+00 -0.23540984952E+00  0.11802021458E+01  0.00000000000E+00 0. -1.
         11    1    3    3    0    0  0.18307695728E+02  0.15324006496E+02 -0.29071056007E+02  0.37618123233E+02  0.51100000000E-03 0. -1.
        -11    1    3    3    0    0 -0.31941423023E+01  0.49494570312E+01 -0.67755789532E+01  0.89782036267E+01  0.51100000000E-03 0.  1.
        -12    1    3    3    0    0 -0.14529268812E+02 -0.19275430062E+02  0.36082044809E+02  0.43411470995E+02  0.00000000000E+00 0.  1.
</event>
<event>
 7    1  0.4119305E-015  0.9000783E+02  0.7816164E-02  0.1186339E+00
        -11   -1    0    0    0    0  0.00000000000E+00  0.00000000000E+00  0.45593999997E+02  0.45594000000E+02  0.51100000000E-03 0. -1.
         11   -1    0    0    0    0 -0.00000000000E+00 -0.00000000000E+00 -0.45593999997E+02  0.45594000000E+02  0.51100000000E-03 0.  1.
    9900012    2    1    2    0    0 -0.79790628013E+00  0.70463685410E+00 -0.50954722417E+00  0.90007828020E+02  0.90000090550E+02 0.  0.
         12    1    1    2    0    0  0.79790628013E+00 -0.70463685410E+00  0.50954722417E+00  0.11801719797E+01  0.00000000000E+00 0. -1.
         11    1    3    3    0    0 -0.13409968117E+01  0.87244177060E+01  0.61513653105E+00  0.88482840128E+01  0.51100000000E-03 0. -1.
        -11    1    3    3    0    0  0.17500192399E+01  0.17531978191E+02 -0.34719598012E+02  0.38934346187E+02  0.51100000000E-03 0.  1.
         12    1    3    3    0    0 -0.12069287083E+01 -0.25551759043E+02  0.33594914257E+02  0.42225197821E+02  0.00000000000E+00 0. -1.
</event>
<event>
 7    1  0.4119305E-015  0.9000794E+02  0.7816164E-02  0.1186339E+00
        -11   -1    0    0    0    0  0.00000000000E+00  0.00000000000E+00  0.45593999997E+02  0.45594000000E+02  0.51100000000E-03 0. -1.
         11   -1    0    0    0    0 -0.00000000000E+00 -0.00000000000E+00 -0.45593999997E+02  0.45594000000E+02  0.51100000000E-03 0.  1.
    9900012    2    1    2    0    0 -0.82541060279E+00 -0.45249114103E+00  0.71167658681E+00  0.90007943027E+02  0.90000207074E+02 0.  0.
         12    1    1    2    0    0  0.82541060279E+00  0.45249114103E+00 -0.71167658681E+00  0.11800569733E+01  0.00000000000E+00 0. -1.
         11    1    3    3    0    0 -0.21747065707E+01  0.96689735170E+01 -0.13166788229E+01  0.99976017586E+01  0.51100000000E-03 0. -1.
        -11    1    3    3    0    0 -0.25525279861E+02  0.20069741027E+02 -0.15467732223E+02  0.35966444879E+02  0.51100000000E-03 0.  1.
         12    1    3    3    0    0  0.26874575829E+02 -0.30191205685E+02  0.17496087632E+02  0.44043896389E+02  0.00000000000E+00 0. -1.
</event>
<event>
 7    1  0.4119305E-015  0.9000775E+02  0.7816164E-02  0.1186339E+00
        -11   -1    0    0    0    0  0.00000000000E+00  0.00000000000E+00  0.45593999997E+02  0.45594000000E+02  0.51100000000E-03 0.  1.
         11   -1    0    0    0    0 -0.00000000000E+00 -0.00000000000E+00 -0.45593999997E+02  0.45594000000E+02  0.51100000000E-03 0. -1.
    9900012    2    1    2    0    0  0.71602076562E+00 -0.88276211419E+00  0.31785763886E+00  0.90007750804E+02  0.90000012314E+02 0.  0.
         12    1    1    2    0    0 -0.71602076562E+00  0.88276211419E+00 -0.31785763886E+00  0.11802491964E+01  0.00000000000E+00 0. -1.
         11    1    3    3    0    0  0.13142146241E+02  0.23133260711E+02  0.80335513787E+01  0.27792115914E+02  0.51100000000E-03 0. -1.
        -11    1    3    3    0    0  0.91095943886E+01  0.60079312302E+01  0.15219362277E+02  0.18727224460E+02  0.51100000000E-03 0.  1.
        -12    1    3    3    0    0 -0.21535719864E+02 -0.30023954056E+02 -0.22935056017E+02  0.43488410430E+02  0.00000000000E+00 0.  1.
</event>
<event>
 7    1  0.4119305E-015  0.9000771E+02  0.7816164E-02  0.1186339E+00
        -11   -1    0    0    0    0  0.00000000000E+00  0.00000000000E+00  0.45593999997E+02  0.45594000000E+02  0.51100000000E-03 0.  1.
         11   -1    0    0    0    0 -0.00000000000E+00 -0.00000000000E+00 -0.45593999997E+02  0.45594000000E+02  0.51100000000E-03 0. -1.
    9900012    2    1    2    0    0  0.34832046035E+00 -0.99566238727E+00  0.52953269088E+00  0.90007713762E+02  0.89999974784E+02 0.  0.
         12    1    1    2    0    0 -0.34832046035E+00  0.99566238727E+00 -0.52953269088E+00  0.11802862378E+01  0.00000000000E+00 0. -1.
         11    1    3    3    0    0  0.31822362181E+02  0.24724441456E+02  0.80456329544E+01  0.41093709373E+02  0.51100000000E-03 0. -1.
        -11    1    3    3    0    0  0.20340674910E+01 -0.77467450666E+01  0.43072744972E+01  0.90940696908E+01  0.51100000000E-03 0.  1.
        -12    1    3    3    0    0 -0.33508109212E+02 -0.17973358777E+02 -0.11823374761E+02  0.39819934699E+02  0.00000000000E+00 0.  1.
</event>
<event>
 7    1  0.4119305E-015  0.9000776E+02  0.7816164E-02  0.1186339E+00
        -11   -1    0    0    0    0  0.00000000000E+00  0.00000000000E+00  0.45593999997E+02  0.45594000000E+02  0.51100000000E-03 0. -1.
         11   -1    0    0    0    0 -0.00000000000E+00 -0.00000000000E+00 -0.45593999997E+02  0.45594000000E+02  0.51100000000E-03 0.  1.
    9900012    2    1    2    0    0 -0.24659235462E+00  0.31782730893E+00 -0.11095644475E+01  0.90007764748E+02  0.90000026442E+02 0.  0.
         12    1    1    2    0    0  0.24659235462E+00 -0.31782730893E+00  0.11095644475E+01  0.11802352523E+01  0.00000000000E+00 0. -1.
         11    1    3    3    0    0 -0.75490776505E+01 -0.30359911020E+02  0.15966211257E+02  0.35123107390E+02  0.51100000000E-03 0. -1.
        -11    1    3    3    0    0  0.27279867751E+01 -0.63658688374E+01  0.74897490044E+01  0.10201104759E+02  0.51100000000E-03 0.  1.
        -12    1    3    3    0    0  0.45744985208E+01  0.37043607167E+02 -0.24565524709E+02  0.44683552599E+02  0.00000000000E+00 0.  1.
</event>
<event>
 7    1  0.4119305E-015  0.9000836E+02  0.7816164E-02  0.1186338E+00
        -11   -1    0    0    0    0  0.00000000000E+00  0.00000000000E+00  0.45593999997E+02  0.45594000000E+02  0.51100000000E-03 0. -1.
         11   -1    0    0    0    0 -0.00000000000E+00 -0.00000000000E+00 -0.45593999997E+02  0.45594000000E+02  0.51100000000E-03 0.  1.
    9900012    2    1    2    0    0 -0.19290869861E-01  0.11255437980E+01  0.35260097738E+00  0.90008360891E+02  0.90000630452E+02 0.  0.
         12    1    1    2    0    0  0.19290869861E-01 -0.11255437980E+01 -0.35260097738E+00  0.11796391093E+01  0.00000000000E+00 0. -1.
         11    1    3    3    0    0 -0.40897704508E+01  0.40127305242E+01  0.90465297773E+01  0.10708311252E+02  0.51100000000E-03 0. -1.
        -11    1    3    3    0    0 -0.10494673750E+02  0.34173370236E+02 -0.15390832569E+02  0.38920883055E+02  0.51100000000E-03 0.  1.
         12    1    3    3    0    0  0.14565153331E+02 -0.37060556962E+02  0.66969037690E+01  0.40379166583E+02  0.00000000000E+00 0. -1.
</event>
<event>
 7    1  0.4119305E-015  0.9000799E+02  0.7816164E-02  0.1186339E+00
        -11   -1    0    0    0    0  0.00000000000E+00  0.00000000000E+00  0.45593999997E+02  0.45594000000E+02  0.51100000000E-03 0.  1.
         11   -1    0    0    0    0 -0.00000000000E+00 -0.00000000000E+00 -0.45593999997E+02  0.45594000000E+02  0.51100000000E-03 0. -1.
    9900012    2    1    2    0    0  0.42595591914E+00 -0.10208702897E+01  0.41085173761E+00  0.90007994176E+02  0.90000258899E+02 0.  0.
         12    1    1    2    0    0 -0.42595591914E+00  0.10208702897E+01 -0.41085173761E+00  0.11800058236E+01  0.00000000000E+00 0. -1.
         11    1    3    3    0    0  0.46839316513E+01 -0.39965540872E+01  0.75095634852E+01  0.97110866686E+01  0.51100000000E-03 0. -1.
        -11    1    3    3    0    0  0.13081756912E+02 -0.33219606844E+02  0.93753621697E+01  0.36913033726E+02  0.51100000000E-03 0.  1.
         12    1    3    3    0    0 -0.17339732645E+02  0.36195290642E+02 -0.16474073917E+02  0.43383873781E+02  0.00000000000E+00 0. -1.
</event>
<event>
 7    1  0.4119305E-015  0.9000797E+02  0.7816164E-02  0.1186339E+00
        -11   -1    0    0    0    0  0.00000000000E+00  0.00000000000E+00  0.45593999997E+02  0.45594000000E+02  0.51100000000E-03 0.  1.
         11   -1    0    0    0    0 -0.00000000000E+00 -0.00000000000E+00 -0.45593999997E+02  0.45594000000E+02  0.51100000000E-03 0. -1.
    9900012    2    1    2    0    0 -0.10350879661E+01 -0.55500001786E+00  0.11416246550E+00  0.90007972379E+02  0.90000236814E+02 0.  0.
         12    1    1    2    0    0  0.10350879661E+01  0.55500001786E+00 -0.11416246550E+00  0.11800276208E+01  0.00000000000E+00 0. -1.
         11    1    3    3    0    0  0.12674059320E+02 -0.12781341091E+02 -0.13359270374E+02  0.22415721378E+02  0.51100000000E-03 0. -1.
        -11    1    3    3    0    0 -0.55014447372E+01 -0.26282634710E+02  0.48983966386E+01  0.27295367215E+02  0.51100000000E-03 0.  1.
         12    1    3    3    0    0 -0.82077025490E+01  0.38508975783E+02  0.85750362005E+01  0.40296883786E+02  0.00000000000E+00 0. -1.
</event>
<event>
 7    1  0.4119305E-015  0.9000772E+02  0.7816164E-02  0.1186339E+00
        -11   -1    0    0    0    0  0.00000000000E+00  0.00000000000E+00  0.45593999997E+02  0.45594000000E+02  0.51100000000E-03 0.  1.
         11   -1    0    0    0    0 -0.00000000000E+00 -0.00000000000E+00 -0.45593999997E+02  0.45594000000E+02  0.51100000000E-03 0. -1.
    9900012    2    1    2    0    0  0.90452957157E+00  0.23853546356E+00 -0.71970752542E+00  0.90007723831E+02  0.89999984985E+02 0.  0.
         12    1    1    2    0    0 -0.90452957157E+00 -0.23853546356E+00  0.71970752542E+00  0.11802761691E+01  0.00000000000E+00 0. -1.
         11    1    3    3    0    0 -0.49808864513E+01  0.69571094267E+01 -0.92402554042E+01  0.12593368160E+02  0.51100000000E-03 0. -1.
        -11    1    3    3    0    0 -0.22015964735E+02 -0.31702013281E+02 -0.15631312216E+01  0.38628535162E+02  0.51100000000E-03 0.  1.
         12    1    3    3    0    0  0.27901380758E+02  0.24983439318E+02  0.10083679100E+02  0.38785820509E+02  0.00000000000E+00 0. -1.
</event>
<event>
 7    1  0.4119305E-015  0.9000774E+02  0.7816164E-02  0.1186339E+00
        -11   -1    0    0    0    0  0.00000000000E+00  0.00000000000E+00  0.45593999997E+02  0.45594000000E+02  0.51100000000E-03 0.  1.
         11   -1    0    0    0    0 -0.00000000000E+00 -0.00000000000E+00 -0.45593999997E+02  0.45594000000E+02  0.51100000000E-03 0. -1.
    9900012    2    1    2    0    0  0.86187494006E+00 -0.13420556530E+00  0.79509188018E+00  0.90007741281E+02  0.90000002666E+02 0.  0.
         12    1    1    2    0    0 -0.86187494006E+00  0.13420556530E+00 -0.79509188018E+00  0.11802587191E+01  0.00000000000E+00 0. -1.
         11    1    3    3    0    0  0.80879949928E+01 -0.21922803945E+02 -0.25615558670E+02  0.34672494027E+02  0.51100000000E-03 0. -1.
        -11    1    3    3    0    0 -0.14051788483E+01 -0.10903620194E+02 -0.25369220214E+01  0.11282705107E+02  0.51100000000E-03 0.  1.
        -12    1    3    3    0    0 -0.58209412045E+01  0.32692218574E+02  0.28947572572E+02  0.44052542147E+02  0.00000000000E+00 0.  1.
</event>
<event>
 7    1  0.4119305E-015  0.9000773E+02  0.7816164E-02  0.1186339E+00
        -11   -1    0    0    0    0  0.00000000000E+00  0.00000000000E+00  0.45593999997E+02  0.45594000000E+02  0.51100000000E-03 0.  1.
         11   -1    0    0    0    0 -0.00000000000E+00 -0.00000000000E+00 -0.45593999997E+02  0.45594000000E+02  0.51100000000E-03 0. -1.
    9900012    2    1    2    0    0  0.67619429155E+00 -0.23631185628E+00  0.93805594109E+00  0.90007732674E+02  0.89999993945E+02 0.  0.
         12    1    1    2    0    0 -0.67619429155E+00  0.23631185628E+00 -0.93805594109E+00  0.11802673265E+01  0.00000000000E+00 0. -1.
         11    1    3    3    0    0 -0.17561344044E+01  0.73016105819E+01 -0.39259387355E+01  0.84741088235E+01  0.51100000000E-03 0. -1.
        -11    1    3    3    0    0 -0.38108998968E+02 -0.12039484188E+02 -0.26642696165E+01  0.40054254639E+02  0.51100000000E-03 0.  1.
         12    1    3    3    0    0  0.40541327663E+02  0.45015617493E+01  0.75282642931E+01  0.41479369211E+02  0.00000000000E+00 0. -1.
</event>
<event>
 7    1  0.4119305E-015  0.9000769E+02  0.7816164E-02  0.1186339E+00
        -11   -1    0    0    0    0  0.00000000000E+00  0.00000000000E+00  0.45593999997E+02  0.45594000000E+02  0.51100000000E-03 0.  1.
         11   -1    0    0    0    0 -0.00000000000E+00 -0.00000000000E+00 -0.45593999997E+02  0.45594000000E+02  0.51100000000E-03 0. -1.
    9900012    2    1    2    0    0 -0.43039522787E+00  0.72718559376E+00  0.82407463970E+00  0.90007687350E+02  0.89999948023E+02 0.  0.
         12    1    1    2    0    0  0.43039522787E+00 -0.72718559376E+00 -0.82407463970E+00  0.11803126500E+01  0.00000000000E+00 0. -1.
         11    1    3    3    0    0 -0.22012877620E+01  0.10246782951E+01 -0.36800412540E+01  0.44088929803E+01  0.51100000000E-03 0. -1.
        -11    1    3    3    0    0 -0.21248611315E+02 -0.23143703348E+01 -0.34312154611E+02  0.40425038617E+02  0.51100000000E-03 0.  1.
         12    1    3    3    0    0  0.23019503849E+02  0.20168776334E+01  0.38816270505E+02  0.45173755752E+02  0.00000000000E+00 0. -1.
</event>
<event>
 7    1  0.4119305E-015  0.9000778E+02  0.7816164E-02  0.1186339E+00
        -11   -1    0    0    0    0  0.00000000000E+00  0.00000000000E+00  0.45593999997E+02  0.45594000000E+02  0.51100000000E-03 0.  1.
         11   -1    0    0    0    0 -0.00000000000E+00 -0.00000000000E+00 -0.45593999997E+02  0.45594000000E+02  0.51100000000E-03 0. -1.
    9900012    2    1    2    0    0  0.13010980337E+00  0.49467041098E+00  0.10636266115E+01  0.90007775892E+02  0.90000037734E+02 0.  0.
         12    1    1    2    0    0 -0.13010980337E+00 -0.49467041098E+00 -0.10636266115E+01  0.11802241081E+01  0.00000000000E+00 0. -1.
         11    1    3    3    0    0  0.88871285664E+01 -0.52331447360E+00 -0.50301148152E+01  0.10225310142E+02  0.51100000000E-03 0. -1.
        -11    1    3    3    0    0  0.14400321663E+02 -0.16608779070E+02  0.33327807443E+02  0.39924473139E+02  0.51100000000E-03 0.  1.
         12    1    3    3    0    0 -0.23157340426E+02  0.17626763955E+02 -0.27234066016E+02  0.39857992610E+02  0.00000000000E+00 0. -1.
</event>
<event>
 7    1  0.4119305E-015  0.9000773E+02  0.7816164E-02  0.1186339E+00
        -11   -1    0    0    0    0  0.00000000000E+00  0.00000000000E+00  0.45593999997E+02  0.45594000000E+02  0.51100000000E-03 0. -1.
         11   -1    0    0    0    0 -0.00000000000E+00 -0.00000000000E+00 -0.45593999997E+02  0.45594000000E+02  0.51100000000E-03 0.  1.
    9900012    2    1    2    0    0 -0.28599057083E+00 -0.50540617676E+00 -0.10275266749E+01  0.90007730083E+02  0.89999991320E+02 0.  0.
         12    1    1    2    0    0  0.28599057083E+00  0.50540617676E+00  0.10275266749E+01  0.11802699173E+01  0.00000000000E+00 0. -1.
         11    1    3    3    0    0  0.43391019943E+01 -0.92112187470E+01  0.28599233287E+01  0.10576082386E+02  0.51100000000E-03 0. -1.
        -11    1    3    3    0    0  0.36040958177E+02 -0.49624988712E+01 -0.32418882284E+01  0.36525154358E+02  0.51100000000E-03 0.  1.
         12    1    3    3    0    0 -0.40666050742E+02  0.13668311441E+02 -0.64556177516E+00  0.42906493339E+02  0.00000000000E+00 0. -1.
</event>
<event>
 7    1  0.4119305E-015  0.9000775E+02  0.7816164E-02  0.1186339E+00
        -11   -1    0    0    0    0  0.00000000000E+00  0.00000000000E+00  0.45593999997E+02  0.45594000000E+02  0.51100000000E-03 0.  1.
         11   -1    0    0    0    0 -0.00000000000E+00 -0.00000000000E+00 -0.45593999997E+02  0.45594000000E+02  0.51100000000E-03 0. -1.
    9900012    2    1    2    0    0 -0.10322115710E+01  0.37757116526E-01  0.57105780552E+00  0.90007748610E+02  0.90000010091E+02 0.  0.
         12    1    1    2    0    0  0.10322115710E+01 -0.37757116526E-01 -0.57105780552E+00  0.11802513903E+01  0.00000000000E+00 0. -1.
         11    1    3    3    0    0 -0.10836545836E+02  0.23045969645E+02  0.76824824947E+01  0.26600150001E+02  0.51100000000E-03 0. -1.
        -11    1    3    3    0    0  0.12809397717E+02  0.17834214533E+02 -0.41624219049E+01  0.22348727800E+02  0.51100000000E-03 0.  1.
        -12    1    3    3    0    0 -0.30050634517E+01 -0.40842427062E+02 -0.29490027842E+01  0.41058870809E+02  0.00000000000E+00 0.  1.
</event>
<event>
 7    1  0.4119305E-015  0.9000775E+02  0.7816164E-02  0.1186339E+00
        -11   -1    0    0    0    0  0.00000000000E+00  0.00000000000E+00  0.45593999997E+02  0.45594000000E+02  0.51100000000E-03 0.  1.
         11   -1    0    0    0    0 -0.00000000000E+00 -0.00000000000E+00 -0.45593999997E+02  0.45594000000E+02  0.51100000000E-03 0. -1.
    9900012    2    1    2    0    0  0.15092363224E+00  0.76302388364E+00  0.88769113481E+00  0.90007754712E+02  0.90000016274E+02 0.  0.
         12    1    1    2    0    0 -0.15092363224E+00 -0.76302388364E+00 -0.88769113481E+00  0.11802452883E+01  0.00000000000E+00 0. -1.
         11    1    3    3    0    0 -0.67703249028E+01 -0.92521052427E+00 -0.68210039440E+01  0.96550198792E+01  0.51100000000E-03 0. -1.
        -11    1    3    3    0    0 -0.36367731555E+02 -0.20200576578E+01  0.56221658567E+01  0.36855139134E+02  0.51100000000E-03 0.  1.
         12    1    3    3    0    0  0.43288980090E+02  0.37082920657E+01  0.20865292221E+01  0.43497595698E+02  0.00000000000E+00 0. -1.
</event>
<event>
 7    1  0.4119305E-015  0.9000694E+02  0.7816164E-02  0.1186341E+00
        -11   -1    0    0    0    0  0.00000000000E+00  0.00000000000E+00  0.45593999997E+02  0.45594000000E+02  0.51100000000E-03 0.  1.
         11   -1    0    0    0    0 -0.00000000000E+00 -0.00000000000E+00 -0.45593999997E+02  0.45594000000E+02  0.51100000000E-03 0. -1.
    9900012    2    1    2    0    0  0.37581576348E+00  0.10215927546E+01  0.45827043553E+00  0.90006940714E+02  0.89999191528E+02 0.  0.
         12    1    1    2    0    0 -0.37581576348E+00 -0.10215927546E+01 -0.45827043553E+00  0.11810592857E+01  0.00000000000E+00 0. -1.
         11    1    3    3    0    0 -0.44856793931E+01  0.14030638796E+02 -0.37153167341E+02  0.39966711003E+02  0.51100000000E-03 0. -1.
        -11    1    3    3    0    0  0.53289192848E+01  0.73586974722E+01  0.24618952346E+01  0.94132214273E+01  0.51100000000E-03 0.  1.
        -12    1    3    3    0    0 -0.46742412818E+00 -0.20367743514E+02  0.35149542542E+02  0.40627008284E+02  0.00000000000E+00 0.  1.
</event>
<event>
 7    1  0.4119305E-015  0.9000774E+02  0.7816164E-02  0.1186339E+00
        -11   -1    0    0    0    0  0.00000000000E+00  0.00000000000E+00  0.45593999997E+02  0.45594000000E+02  0.51100000000E-03 0.  1.
         11   -1    0    0    0    0 -0.00000000000E+00 -0.00000000000E+00 -0.45593999997E+02  0.45594000000E+02  0.51100000000E-03 0. -1.
    9900012    2    1    2    0    0  0.93698174518E+00 -0.41328270043E+00 -0.58674455207E+00  0.90007743015E+02  0.90000004423E+02 0.  0.
         12    1    1    2    0    0 -0.93698174518E+00  0.41328270043E+00  0.58674455207E+00  0.11802569850E+01  0.00000000000E+00 0. -1.
         11    1    3    3    0    0  0.21467066690E+00  0.52522748441E+01  0.94304580548E+01  0.10796574175E+02  0.51100000000E-03 0. -1.
        -11    1    3    3    0    0 -0.23521720695E+02  0.21564308284E+02  0.14730560144E+02  0.35146552300E+02  0.51100000000E-03 0.  1.
         12    1    3    3    0    0  0.24244031773E+02 -0.27229865828E+02 -0.24747762750E+02  0.44064616540E+02  0.00000000000E+00 0. -1.
</event>
<event>
 7    1  0.4119305E-015  0.9000787E+02  0.7816164E-02  0.1186339E+00
        -11   -1    0    0    0    0  0.00000000000E+00  0.00000000000E+00  0.45593999997E+02  0.45594000000E+02  0.51100000000E-03 0.  1.
         11   -1    0    0    0    0 -0.00000000000E+00 -0.00000000000E+00 -0.45593999997E+02  0.45594000000E+02  0.51100000000E-03 0. -1.
    9900012    2    1    2    0    0  0.27564236474E+00  0.45541622020E+00 -0.10532398595E+01  0.90007874223E+02  0.90000137363E+02 0.  0.
         12    1    1    2    0    0 -0.27564236474E+00 -0.45541622020E+00  0.10532398595E+01  0.11801257766E+01  0.00000000000E+00 0. -1.
         11    1    3    3    0    0  0.73495299284E+01 -0.98285430097E+01  0.84213818720E+00  0.12301424505E+02  0.51100000000E-03 0. -1.
        -11    1    3    3    0    0 -0.29639768229E+02 -0.22097558562E+02 -0.78397222668E+01  0.37792581290E+02  0.51100000000E-03 0.  1.
         12    1    3    3    0    0  0.22565880665E+02  0.32381517792E+02  0.59443442201E+01  0.39913868429E+02  0.00000000000E+00 0. -1.
</event>
<event>
 7    1  0.4119305E-015  0.9000773E+02  0.7816164E-02  0.1186339E+00
        -11   -1    0    0    0    0  0.00000000000E+00  0.00000000000E+00  0.45593999997E+02  0.45594000000E+02  0.51100000000E-03 0. -1.
         11   -1    0    0    0    0 -0.00000000000E+00 -0.00000000000E+00 -0.45593999997E+02  0.45594000000E+02  0.51100000000E-03 0.  1.
    9900012    2    1    2    0    0 -0.14260056832E+00  0.68579500627E-01 -0.11696199054E+01  0.90007725120E+02  0.89999986291E+02 0.  0.
         12    1    1    2    0    0  0.14260056832E+00 -0.68579500627E-01  0.11696199054E+01  0.11802748803E+01  0.00000000000E+00 0. -1.
         11    1    3    3    0    0 -0.17087329239E+00  0.25569924047E+01  0.92948482201E+01  0.96416602064E+01  0.51100000000E-03 0. -1.
        -11    1    3    3    0    0  0.36856229513E+02 -0.16329788795E+02 -0.63397875744E+01  0.40807310163E+02  0.51100000000E-03 0.  1.
         12    1    3    3    0    0 -0.36827956788E+02  0.13841375891E+02 -0.41246805511E+01  0.39558754751E+02  0.00000000000E+00 0. -1.
</event>
<event>
 7    1  0.4119305E-015  0.9000776E+02  0.7816164E-02  0.1186339E+00
        -11   -1    0    0    0    0  0.00000000000E+00  0.00000000000E+00  0.45593999997E+02  0.45594000000E+02  0.51100000000E-03 0.  1.
         11   -1    0    0    0    0 -0.00000000000E+00 -0.00000000000E+00 -0.45593999997E+02  0.45594000000E+02  0.51100000000E-03 0. -1.
    9900012    2    1    2    0    0  0.63551779829E+00  0.16934759232E+00  0.98000045659E+00  0.90007761730E+02  0.90000023385E+02 0.  0.
         12    1    1    2    0    0 -0.63551779829E+00 -0.16934759232E+00 -0.98000045659E+00  0.11802382700E+01  0.00000000000E+00 0. -1.
         11    1    3    3    0    0 -0.10675437201E+02 -0.29715165200E+01 -0.40418027487E+02  0.41909567118E+02  0.51100000000E-03 0. -1.
        -11    1    3    3    0    0 -0.49587972348E+01 -0.39816188123E+01  0.75326441924E+01  0.98581786945E+01  0.51100000000E-03 0.  1.
        -12    1    3    3    0    0  0.16269752234E+02  0.71224829246E+01  0.33865383751E+02  0.38240015917E+02  0.00000000000E+00 0.  1.
</event>
<event>
 7    1  0.4119305E-015  0.9000773E+02  0.7816164E-02  0.1186339E+00
        -11   -1    0    0    0    0  0.00000000000E+00  0.00000000000E+00  0.45593999997E+02  0.45594000000E+02  0.51100000000E-03 0.  1.
         11   -1    0    0    0    0 -0.00000000000E+00 -0.00000000000E+00 -0.45593999997E+02  0.45594000000E+02  0.51100000000E-03 0. -1.
    9900012    2    1    2    0    0 -0.62519241085E+00  0.88878513219E+00  0.46068224592E+00  0.90007731940E+02  0.89999993202E+02 0.  0.
         12    1    1    2    0    0  0.62519241085E+00 -0.88878513219E+00 -0.46068224592E+00  0.11802680600E+01  0.00000000000E+00 0. -1.
         11    1    3    3    0    0  0.50154602634E+01  0.73645517141E+01 -0.54069123715E+01  0.10422387695E+02  0.51100000000E-03 0. -1.
        -11    1    3    3    0    0  0.34393974345E+02  0.91714220795E+01 -0.29098054743E+01  0.35714526770E+02  0.51100000000E-03 0.  1.
         12    1    3    3    0    0 -0.40034627020E+02 -0.15647188661E+02  0.87774000917E+01  0.43870817476E+02  0.00000000000E+00 0. -1.
</event>
<event>
 7    1  0.4119305E-015  0.9000775E+02  0.7816164E-02  0.1186339E+00
        -11   -1    0    0    0    0  0.00000000000E+00  0.00000000000E+00  0.45593999997E+02  0.45594000000E+02  0.51100000000E-03 0.  1.
         11   -1    0    0    0    0 -0.00000000000E+00 -0.00000000000E+00 -0.45593999997E+02  0.45594000000E+02  0.51100000000E-03 0. -1.
    9900012    2    1    2    0    0 -0.46229126384E-01 -0.46858213963E+00  0.10822622754E+01  0.90007746643E+02  0.90000008099E+02 0.  0.
         12    1    1    2    0    0  0.46229126384E-01  0.46858213963E+00 -0.10822622754E+01  0.11802533569E+01  0.00000000000E+00 0. -1.
         11    1    3    3    0    0  0.34101636147E+02 -0.15124316782E+02  0.62572163946E+01  0.37826172200E+02  0.51100000000E-03 0. -1.
        -11    1    3    3    0    0  0.34559778155E+01  0.11291304096E+02 -0.80920756071E+01  0.14314992796E+02  0.51100000000E-03 0.  1.
        -12    1    3    3    0    0 -0.37603843088E+02  0.33644305465E+01  0.29171214878E+01  0.37866581648E+02  0.00000000000E+00 0.  1.
</event>
<event>
 7    1  0.4119305E-015  0.9000764E+02  0.7816164E-02  0.1186339E+00
        -11   -1    0    0    0    0  0.00000000000E+00  0.00000000000E+00  0.45593999997E+02  0.45594000000E+02  0.51100000000E-03 0. -1.
         11   -1    0    0    0    0 -0.00000000000E+00 -0.00000000000E+00 -0.45593999997E+02  0.45594000000E+02  0.51100000000E-03 0.  1.
    9900012    2    1    2    0    0  0.41217330766E+00 -0.10855059745E+01 -0.21222942555E+00  0.90007639299E+02  0.89999899337E+02 0.  0.
         12    1    1    2    0    0 -0.41217330766E+00  0.10855059745E+01  0.21222942555E+00  0.11803607014E+01  0.00000000000E+00 0. -1.
         11    1    3    3    0    0  0.79159583726E+01  0.24291640475E+02  0.26431234249E+02  0.36760798932E+02  0.51100000000E-03 0. -1.
        -11    1    3    3    0    0 -0.47742755709E+01  0.18136122004E+01  0.77728981902E+01  0.93005829374E+01  0.51100000000E-03 0.  1.
        -12    1    3    3    0    0 -0.27295094940E+01 -0.27190758650E+02 -0.34416361864E+02  0.43946257429E+02  0.00000000000E+00 0.  1.
</event>
<event>
 7    1  0.4119305E-015  0.9000782E+02  0.7816164E-02  0.1186339E+00
        -11   -1    0    0    0    0  0.00000000000E+00  0.00000000000E+00  0.45593999997E+02  0.45594000000E+02  0.51100000000E-03 0.  1.
         11   -1    0    0    0    0 -0.00000000000E+00 -0.00000000000E+00 -0.45593999997E+02  0.45594000000E+02  0.51100000000E-03 0. -1.
    9900012    2    1    2    0    0  0.62355928564E+00  0.34873451429E+00  0.93934872273E+00  0.90007822909E+02  0.90000085371E+02 0.  0.
         12    1    1    2    0    0 -0.62355928564E+00 -0.34873451429E+00 -0.93934872273E+00  0.11801770914E+01  0.00000000000E+00 0. -1.
         11    1    3    3    0    0 -0.11531826840E+02 -0.48104113846E+01  0.17659824297E+01  0.12619103857E+02  0.51100000000E-03 0. -1.
        -11    1    3    3    0    0  0.20051932045E+02  0.29290203624E+02  0.23221713950E+02  0.42417496462E+02  0.51100000000E-03 0.  1.
         12    1    3    3    0    0 -0.78965459198E+01 -0.24131057725E+02 -0.24048347657E+02  0.34971222590E+02  0.00000000000E+00 0. -1.
</event>
<event>
 7    1  0.4119305E-015  0.9000792E+02  0.7816164E-02  0.1186339E+00
        -11   -1    0    0    0    0  0.00000000000E+00  0.00000000000E+00  0.45593999997E+02  0.45594000000E+02  0.51100000000E-03 0.  1.
         11   -1    0    0    0    0 -0.00000000000E+00 -0.00000000000E+00 -0.45593999997E+02  0.45594000000E+02  0.51100000000E-03 0. -1.
    9900012    2    1    2    0    0 -0.41112950247E+00  0.54600806039E+00  0.96199616296E+00  0.90007919966E+02  0.90000183709E+02 0.  0.
         12    1    1    2    0    0  0.41112950247E+00 -0.54600806039E+00 -0.96199616296E+00  0.11800800343E+01  0.00000000000E+00 0. -1.
         11    1    3    3    0    0  0.67283390782E+01 -0.32096034984E+01  0.93692206455E+01  0.11973069662E+02  0.51100000000E-03 0. -1.
        -11    1    3    3    0    0  0.18519514010E+02  0.16581395607E+02  0.24139992026E+02  0.34650458796E+02  0.51100000000E-03 0.  1.
         12    1    3    3    0    0 -0.25658982591E+02 -0.12825784048E+02 -0.32547216509E+02  0.43384391508E+02  0.00000000000E+00 0. -1.
</event>
<event>
 7    1  0.4119305E-015  0.9000775E+02  0.7816164E-02  0.1186339E+00
        -11   -1    0    0    0    0  0.00000000000E+00  0.00000000000E+00  0.45593999997E+02  0.45594000000E+02  0.51100000000E-03 0.  1.
         11   -1    0    0    0    0 -0.00000000000E+00 -0.00000000000E+00 -0.45593999997E+02  0.45594000000E+02  0.51100000000E-03 0. -1.
    9900012    2    1    2    0    0 -0.88282652686E+00 -0.11143126867E+00  0.77535792887E+00  0.90007754465E+02  0.90000016024E+02 0.  0.
         12    1    1    2    0    0  0.88282652686E+00  0.11143126867E+00 -0.77535792887E+00  0.11802455346E+01  0.00000000000E+00 0. -1.
         11    1    3    3    0    0 -0.39261793527E+00  0.29738180960E+02 -0.31000575858E+02  0.42959856371E+02  0.51100000000E-03 0. -1.
        -11    1    3    3    0    0 -0.67272218620E+01 -0.51241010482E+01  0.40424592857E+01  0.93730146096E+01  0.51100000000E-03 0.  1.
        -12    1    3    3    0    0  0.62370132704E+01 -0.24725511181E+02  0.27733474501E+02  0.37674883485E+02  0.00000000000E+00 0.  1.
</event>
<event>
 7    1  0.5442032E-015  0.9000782E+02  0.7816164E-02  0.1186339E+00
        -11   -1    0    0    0    0  0.00000000000E+00  0.00000000000E+00  0.45593999997E+02  0.45594000000E+02  0.51100000000E-03 0. -1.
         11   -1    0    0    0    0 -0.00000000000E+00 -0.00000000000E+00 -0.45593999997E+02  0.45594000000E+02  0.51100000000E-03 0.  1.
    9900012    2    1    2    0    0 -0.43234073412E-02 -0.88549875799E-01 -0.11768429012E+01  0.90007822477E+02  0.90000084933E+02 0.  0.
         12    1    1    2    0    0  0.43234073412E-02  0.88549875799E-01  0.11768429012E+01  0.11801775233E+01  0.00000000000E+00 0. -1.
         11    1    3    3    0    0  0.45086599389E+01  0.14523055598E+02  0.36262883646E+02  0.39322307778E+02  0.51100000000E-03 0. -1.
        -11    1    3    3    0    0 -0.98763279318E+01 -0.31580238723E-02  0.28148971338E+00  0.98803390685E+01  0.51100000000E-03 0.  1.
        -12    1    3    3    0    0  0.53633445856E+01 -0.14608447450E+02 -0.37721216261E+02  0.40805175631E+02  0.00000000000E+00 0.  1.
</event>
<event>
 7    1  0.4119305E-015  0.9000774E+02  0.7816164E-02  0.1186339E+00
        -11   -1    0    0    0    0  0.00000000000E+00  0.00000000000E+00  0.45593999997E+02  0.45594000000E+02  0.51100000000E-03 0.  1.
         11   -1    0    0    0    0 -0.00000000000E+00 -0.00000000000E+00 -0.45593999997E+02  0.45594000000E+02  0.51100000000E-03 0. -1.
    9900012    2    1    2    0    0 -0.11023430164E+01  0.29338191886E+00 -0.30295134909E+00  0.90007740454E+02  0.90000001828E+02 0.  0.
         12    1    1    2    0    0  0.11023430164E+01 -0.29338191886E+00  0.30295134909E+00  0.11802595460E+01  0.00000000000E+00 0. -1.
         11    1    3    3    0    0 -0.26371770865E+01  0.30145908561E+00  0.92279057725E+01  0.96020740349E+01  0.51100000000E-03 0. -1.
        -11    1    3    3    0    0 -0.29674151235E+02  0.98450914596E+01  0.19340694724E+02  0.36763345196E+02  0.51100000000E-03 0.  1.
         12    1    3    3    0    0  0.31208985305E+02 -0.98531686263E+01 -0.28871551846E+02  0.43642321223E+02  0.00000000000E+00 0. -1.
</event>
<event>
 7    1  0.4119305E-015  0.9000777E+02  0.7816164E-02  0.1186339E+00
        -11   -1    0    0    0    0  0.00000000000E+00  0.00000000000E+00  0.45593999997E+02  0.45594000000E+02  0.51100000000E-03 0.  1.
         11   -1    0    0    0    0 -0.00000000000E+00 -0.00000000000E+00 -0.45593999997E+02  0.45594000000E+02  0.51100000000E-03 0. -1.
    9900012    2    1    2    0    0 -0.78974547729E+00 -0.79525263865E+00 -0.36989678298E+00  0.90007767689E+02  0.90000029422E+02 0.  0.
         12    1    1    2    0    0  0.78974547729E+00  0.79525263865E+00  0.36989678298E+00  0.11802323111E+01  0.00000000000E+00 0. -1.
         11    1    3    3    0    0 -0.26100998341E+02 -0.23340839654E+02 -0.99029156355E+01  0.36388523582E+02  0.51100000000E-03 0. -1.
        -11    1    3    3    0    0 -0.24428110946E+01 -0.97918006536E+01  0.28265099982E+01  0.10480259783E+02  0.51100000000E-03 0.  1.
        -12    1    3    3    0    0  0.27754063958E+02  0.32337387669E+02  0.67065088543E+01  0.43138984324E+02  0.00000000000E+00 0.  1.
</event>
<event>
 7    1  0.4119305E-015  0.9000774E+02  0.7816164E-02  0.1186339E+00
        -11   -1    0    0    0    0  0.00000000000E+00  0.00000000000E+00  0.45593999997E+02  0.45594000000E+02  0.51100000000E-03 0. -1.
         11   -1    0    0    0    0 -0.00000000000E+00 -0.00000000000E+00 -0.45593999997E+02  0.45594000000E+02  0.51100000000E-03 0.  1.
    9900012    2    1    2    0    0  0.57019708687E+00 -0.78259070204E+00 -0.67485969402E+00  0.90007742176E+02  0.90000003573E+02 0.  0.
         12    1    1    2    0    0 -0.57019708687E+00  0.78259070204E+00  0.67485969402E+00  0.11802578241E+01  0.00000000000E+00 0. -1.
         11    1    3    3    0    0  0.32103714220E+01 -0.84447454784E+01  0.16045594113E+00  0.90358152500E+01  0.51100000000E-03 0. -1.
        -11    1    3    3    0    0 -0.12008454663E+02 -0.35008279056E+02 -0.36775508180E+01  0.37192834877E+02  0.51100000000E-03 0.  1.
         12    1    3    3    0    0  0.93682803283E+01  0.42670433833E+02  0.28422351828E+01  0.43779092049E+02  0.00000000000E+00 0. -1.
</event>
<event>
 7    1  0.4119305E-015  0.9000778E+02  0.7816164E-02  0.1186339E+00
        -11   -1    0    0    0    0  0.00000000000E+00  0.00000000000E+00  0.45593999997E+02  0.45594000000E+02  0.51100000000E-03 0.  1.
         11   -1    0    0    0    0 -0.00000000000E+00 -0.00000000000E+00 -0.45593999997E+02  0.45594000000E+02  0.51100000000E-03 0. -1.
    9900012    2    1    2    0    0  0.65945480442E+00 -0.60439074592E+00  0.76989550684E+00  0.90007784806E+02  0.90000046765E+02 0.  0.
         12    1    1    2    0    0 -0.65945480442E+00  0.60439074592E+00 -0.76989550684E+00  0.11802151941E+01  0.00000000000E+00 0. -1.
         11    1    3    3    0    0 -0.13488351119E+01 -0.13339446929E+02 -0.22988145322E+02  0.26612309673E+02  0.51100000000E-03 0. -1.
        -11    1    3    3    0    0  0.59336752982E+01 -0.18206814594E+02 -0.62205669255E+01  0.20134350085E+02  0.51100000000E-03 0.  1.
        -12    1    3    3    0    0 -0.39253853820E+01  0.30941870777E+02  0.29978607754E+02  0.43261125048E+02  0.00000000000E+00 0.  1.
</event>
<event>
 7    1  0.4119305E-015  0.9000786E+02  0.7816164E-02  0.1186339E+00
        -11   -1    0    0    0    0  0.00000000000E+00  0.00000000000E+00  0.45593999997E+02  0.45594000000E+02  0.51100000000E-03 0. -1.
         11   -1    0    0    0    0 -0.00000000000E+00 -0.00000000000E+00 -0.45593999997E+02  0.45594000000E+02  0.51100000000E-03 0.  1.
    9900012    2    1    2    0    0 -0.57096253144E+00  0.84641774479E+00 -0.59186757648E+00  0.90007860839E+02  0.90000123802E+02 0.  0.
         12    1    1    2    0    0  0.57096253144E+00 -0.84641774479E+00  0.59186757648E+00  0.11801391609E+01  0.00000000000E+00 0. -1.
         11    1    3    3    0    0  0.10917410866E+02  0.45184946307E+01  0.94864425786E+00  0.11853547146E+02  0.51100000000E-03 0. -1.
        -11    1    3    3    0    0  0.20893510725E+02  0.22591956313E+02 -0.15144510938E+02  0.34297106180E+02  0.51100000000E-03 0.  1.
         12    1    3    3    0    0 -0.32381884123E+02 -0.26264033199E+02  0.13603999104E+02  0.43857207513E+02  0.00000000000E+00 0. -1.
</event>
<event>
 7    1  0.4119305E-015  0.9000764E+02  0.7816164E-02  0.1186339E+00
        -11   -1    0    0    0    0  0.00000000000E+00  0.00000000000E+00  0.45593999997E+02  0.45594000000E+02  0.51100000000E-03 0.  1.
         11   -1    0    0    0    0 -0.00000000000E+00 -0.00000000000E+00 -0.45593999997E+02  0.45594000000E+02  0.51100000000E-03 0. -1.
    9900012    2    1    2    0    0 -0.58369942921E+00 -0.52978086759E+00  0.87856982174E+00  0.90007636614E+02  0.89999896617E+02 0.  0.
         12    1    1    2    0    0  0.58369942921E+00  0.52978086759E+00 -0.87856982174E+00  0.11803633860E+01  0.00000000000E+00 0. -1.
         11    1    3    3    0    0 -0.13218004180E+02 -0.25922117147E+02  0.28655323969E+02  0.40838699587E+02  0.51100000000E-03 0. -1.
        -11    1    3    3    0    0 -0.49337484016E+00 -0.50033475551E+01 -0.10905996097E+02  0.12009065601E+02  0.51100000000E-03 0.  1.
        -12    1    3    3    0    0  0.13127679591E+02  0.30395683835E+02 -0.16870758050E+02  0.37159871426E+02  0.00000000000E+00 0.  1.
</event>
<event>
 7    1  0.4119305E-015  0.9000776E+02  0.7816164E-02  0.1186339E+00
        -11   -1    0    0    0    0  0.00000000000E+00  0.00000000000E+00  0.45593999997E+02  0.45594000000E+02  0.51100000000E-03 0.  1.
         11   -1    0    0    0    0 -0.00000000000E+00 -0.00000000000E+00 -0.45593999997E+02  0.45594000000E+02  0.51100000000E-03 0. -1.
    9900012    2    1    2    0    0  0.76425312653E+00 -0.84177835489E+00 -0.31668593505E+00  0.90007761201E+02  0.90000022849E+02 0.  0.
         12    1    1    2    0    0 -0.76425312653E+00  0.84177835489E+00  0.31668593505E+00  0.11802387986E+01  0.00000000000E+00 0. -1.
         11    1    3    3    0    0  0.69708716406E+01 -0.74457354639E+01  0.33420289399E+00  0.10205083041E+02  0.51100000000E-03 0. -1.
        -11    1    3    3    0    0  0.18428424258E+02 -0.18455542551E+02  0.25131083766E+02  0.36218575939E+02  0.51100000000E-03 0.  1.
         12    1    3    3    0    0 -0.24635042772E+02  0.25059499660E+02 -0.25781972595E+02  0.43584102222E+02  0.00000000000E+00 0. -1.
</event>
<event>
 7    1  0.4119305E-015  0.9000763E+02  0.7816164E-02  0.1186339E+00
        -11   -1    0    0    0    0  0.00000000000E+00  0.00000000000E+00  0.45593999997E+02  0.45594000000E+02  0.51100000000E-03 0. -1.
         11   -1    0    0    0    0 -0.00000000000E+00 -0.00000000000E+00 -0.45593999997E+02  0.45594000000E+02  0.51100000000E-03 0.  1.
    9900012    2    1    2    0    0 -0.26128941093E-01 -0.44393106757E+00  0.10933914649E+01  0.90007634629E+02  0.89999894606E+02 0.  0.
         12    1    1    2    0    0  0.26128941093E-01  0.44393106757E+00 -0.10933914649E+01  0.11803653713E+01  0.00000000000E+00 0. -1.
         11    1    3    3    0    0 -0.66963256386E+01 -0.32897762692E+02  0.17088364593E+02  0.37671153048E+02  0.51100000000E-03 0. -1.
        -11    1    3    3    0    0  0.12890665327E+01 -0.84604113894E+01 -0.24007308071E+01  0.88884060479E+01  0.51100000000E-03 0.  1.
        -12    1    3    3    0    0  0.53811301648E+01  0.40914243014E+02 -0.13594242321E+02  0.43448075533E+02  0.00000000000E+00 0.  1.
</event>
<event>
 7    1  0.4119305E-015  0.9000774E+02  0.7816164E-02  0.1186339E+00
        -11   -1    0    0    0    0  0.00000000000E+00  0.00000000000E+00  0.45593999997E+02  0.45594000000E+02  0.51100000000E-03 0.  1.
         11   -1    0    0    0    0 -0.00000000000E+00 -0.00000000000E+00 -0.45593999997E+02  0.45594000000E+02  0.51100000000E-03 0. -1.
    9900012    2    1    2    0    0 -0.10166051235E+01  0.15882200373E+00  0.57819704474E+00  0.90007736373E+02  0.89999997693E+02 0.  0.
         12    1    1    2    0    0  0.10166051235E+01 -0.15882200373E+00 -0.57819704474E+00  0.11802636267E+01  0.00000000000E+00 0. -1.
         11    1    3    3    0    0 -0.26163390165E+01  0.56483959189E+01 -0.60668061590E+01  0.86922806868E+01  0.51100000000E-03 0. -1.
        -11    1    3    3    0    0 -0.32221265957E+02 -0.22549208157E+02 -0.89790806216E+01  0.40339814792E+02  0.51100000000E-03 0.  1.
         12    1    3    3    0    0  0.33820999850E+02  0.17059634242E+02  0.15624083825E+02  0.40975640894E+02  0.00000000000E+00 0. -1.
</event>
<event>
 7    1  0.4119305E-015  0.9000786E+02  0.7816164E-02  0.1186339E+00
        -11   -1    0    0    0    0  0.00000000000E+00  0.00000000000E+00  0.45593999997E+02  0.45594000000E+02  0.51100000000E-03 0. -1.
         11   -1    0    0    0    0 -0.00000000000E+00 -0.00000000000E+00 -0.45593999997E+02  0.45594000000E+02  0.51100000000E-03 0.  1.
    9900012    2    1    2    0    0 -0.25566136140E+00  0.94067682804E+00 -0.66519839497E+00  0.90007862495E+02  0.90000125480E+02 0.  0.
         12    1    1    2    0    0  0.25566136140E+00 -0.94067682804E+00  0.66519839497E+00  0.11801375052E+01  0.00000000000E+00 0. -1.
         11    1    3    3    0    0 -0.29239647405E+02 -0.18303147536E+02  0.15208067184E+02  0.37699436306E+02  0.51100000000E-03 0. -1.
        -11    1    3    3    0    0  0.30929691427E+01 -0.96703953464E+01  0.54267499789E+00  0.10167472680E+02  0.51100000000E-03 0.  1.
        -12    1    3    3    0    0  0.25891016901E+02  0.28914219710E+02 -0.16415940577E+02  0.42140953509E+02  0.00000000000E+00 0.  1.
</event>
<event>
 7    1  0.4119305E-015  0.9000771E+02  0.7816164E-02  0.1186339E+00
        -11   -1    0    0    0    0  0.00000000000E+00  0.00000000000E+00  0.45593999997E+02  0.45594000000E+02  0.51100000000E-03 0.  1.
         11   -1    0    0    0    0 -0.00000000000E+00 -0.00000000000E+00 -0.45593999997E+02  0.45594000000E+02  0.51100000000E-03 0. -1.
    9900012    2    1    2    0    0 -0.39373203538E+00  0.23011866628E+00  0.10886233412E+01  0.90007711775E+02  0.89999972770E+02 0.  0.
         12    1    1    2    0    0  0.39373203538E+00 -0.23011866628E+00 -0.10886233412E+01  0.11802882255E+01  0.00000000000E+00 0. -1.
         11    1    3    3    0    0  0.20245473531E+01  0.12307836318E+02  0.18549673611E+01  0.12610413594E+02  0.51100000000E-03 0. -1.
        -11    1    3    3    0    0  0.28931180103E+02 -0.70626032130E+01  0.23091301088E+02  0.37684237189E+02  0.51100000000E-03 0.  1.
         12    1    3    3    0    0 -0.31349459492E+02 -0.50151144392E+01 -0.23857645108E+02  0.39713060992E+02  0.00000000000E+00 0. -1.
</event>
<event>
 7    1  0.4119305E-015  0.9000773E+02  0.7816164E-02  0.1186339E+00
        -11   -1    0    0    0    0  0.00000000000E+00  0.00000000000E+00  0.45593999997E+02  0.45594000000E+02  0.51100000000E-03 0.  1.
         11   -1    0    0    0    0 -0.00000000000E+00 -0.00000000000E+00 -0.45593999997E+02  0.45594000000E+02  0.51100000000E-03 0. -1.
    9900012    2    1    2    0    0 -0.43867178661E+00 -0.47353878192E+00 -0.98811155316E+00  0.90007730388E+02  0.89999991630E+02 0.  0.
         12    1    1    2    0    0  0.43867178661E+00  0.47353878192E+00  0.98811155316E+00  0.11802696115E+01  0.00000000000E+00 0. -1.
         11    1    3    3    0    0  0.97124681791E+01 -0.11629135206E+02 -0.37865165804E+02  0.40784060678E+02  0.51100000000E-03 0. -1.
        -11    1    3    3    0    0 -0.71861536505E+01 -0.63499340563E+01  0.15886205770E+01  0.97204003213E+01  0.51100000000E-03 0.  1.
        -12    1    3    3    0    0 -0.29649863152E+01  0.17505530481E+02  0.35288433674E+02  0.39503269389E+02  0.00000000000E+00 0.  1.
</event>
<event>
 7    1  0.4119305E-015  0.9000772E+02  0.7816164E-02  0.1186339E+00
        -11   -1    0    0    0    0  0.00000000000E+00  0.00000000000E+00  0.45593999997E+02  0.45594000000E+02  0.51100000000E-03 0. -1.
         11   -1    0    0    0    0 -0.00000000000E+00 -0.00000000000E+00 -0.45593999997E+02  0.45594000000E+02  0.51100000000E-03 0.  1.
    9900012    2    1    2    0    0  0.77229319610E+00 -0.87773364552E+00 -0.16188954027E+00  0.90007719797E+02  0.89999980899E+02 0.  0.
         12    1    1    2    0    0 -0.77229319610E+00  0.87773364552E+00  0.16188954027E+00  0.11802802025E+01  0.00000000000E+00 0. -1.
         11    1    3    3    0    0  0.41580211628E+01 -0.42303917883E+00 -0.71476404865E+01  0.82799074223E+01  0.51100000000E-03 0. -1.
        -11    1    3    3    0    0 -0.11454431845E+02 -0.34106662718E+02 -0.16828391911E+02  0.39719808977E+02  0.51100000000E-03 0.  1.
         12    1    3    3    0    0  0.80687038782E+01  0.33651968251E+02  0.23814142857E+02  0.42008003398E+02  0.00000000000E+00 0. -1.
</event>
<event>
 7    1  0.4119305E-015  0.9000776E+02  0.7816164E-02  0.1186339E+00
        -11   -1    0    0    0    0  0.00000000000E+00  0.00000000000E+00  0.45593999997E+02  0.45594000000E+02  0.51100000000E-03 0.  1.
         11   -1    0    0    0    0 -0.00000000000E+00 -0.00000000000E+00 -0.45593999997E+02  0.45594000000E+02  0.51100000000E-03 0. -1.
    9900012    2    1    2    0    0 -0.10604324853E+01  0.19780426957E+00  0.47886908053E+00  0.90007763083E+02  0.90000024755E+02 0.  0.
         12    1    1    2    0    0  0.10604324853E+01 -0.19780426957E+00 -0.47886908053E+00  0.11802369174E+01  0.00000000000E+00 0. -1.
         11    1    3    3    0    0 -0.17416873191E+02 -0.42819005938E+01 -0.29184561959E+02  0.34255230278E+02  0.51100000000E-03 0. -1.
        -11    1    3    3    0    0 -0.93600146444E+01 -0.10558816100E+01 -0.61994369524E+01  0.11276425804E+02  0.51100000000E-03 0.  1.
        -12    1    3    3    0    0  0.25716455350E+02  0.55355864734E+01  0.35862867991E+02  0.44476107001E+02  0.00000000000E+00 0.  1.
</event>
<event>
 7    1  0.4119305E-015  0.9000773E+02  0.7816164E-02  0.1186339E+00
        -11   -1    0    0    0    0  0.00000000000E+00  0.00000000000E+00  0.45593999997E+02  0.45594000000E+02  0.51100000000E-03 0. -1.
         11   -1    0    0    0    0 -0.00000000000E+00 -0.00000000000E+00 -0.45593999997E+02  0.45594000000E+02  0.51100000000E-03 0.  1.
    9900012    2    1    2    0    0 -0.76360747126E-01 -0.10296939316E+01 -0.57177374800E+00  0.90007734871E+02  0.89999996171E+02 0.  0.
         12    1    1    2    0    0  0.76360747126E-01  0.10296939316E+01  0.57177374800E+00  0.11802651293E+01  0.00000000000E+00 0. -1.
         11    1    3    3    0    0 -0.20417764854E+01 -0.10199628436E+02 -0.22189437624E+01  0.10636022900E+02  0.51100000000E-03 0. -1.
        -11    1    3    3    0    0 -0.36765004093E+02 -0.67230786643E+01 -0.13598726656E+01  0.37399392597E+02  0.51100000000E-03 0.  1.
         12    1    3    3    0    0  0.38730419832E+02  0.15893013169E+02  0.30070426800E+01  0.41972319374E+02  0.00000000000E+00 0. -1.
</event>
<event>
 7    1  0.4119305E-015  0.9000778E+02  0.7816164E-02  0.1186339E+00
        -11   -1    0    0    0    0  0.00000000000E+00  0.00000000000E+00  0.45593999997E+02  0.45594000000E+02  0.51100000000E-03 0.  1.
         11   -1    0    0    0    0 -0.00000000000E+00 -0.00000000000E+00 -0.45593999997E+02  0.45594000000E+02  0.51100000000E-03 0. -1.
    9900012    2    1    2    0    0 -0.49383794594E+00 -0.53460557789E+00  0.92911186459E+00  0.90007776336E+02  0.90000038183E+02 0.  0.
         12    1    1    2    0    0  0.49383794594E+00  0.53460557789E+00 -0.92911186459E+00  0.11802236643E+01  0.00000000000E+00 0. -1.
         11    1    3    3    0    0  0.34369780697E+02  0.17577870450E+02  0.13623440635E+02  0.40937287278E+02  0.51100000000E-03 0. -1.
        -11    1    3    3    0    0 -0.65184037146E+01  0.66737853991E+01  0.17084839087E-01  0.93289490669E+01  0.51100000000E-03 0.  1.
        -12    1    3    3    0    0 -0.28345214929E+02 -0.24786261427E+02 -0.12711413609E+02  0.39741539990E+02  0.00000000000E+00 0.  1.
</event>
<event>
 7    1  0.4119305E-015  0.9000749E+02  0.7816164E-02  0.1186340E+00
        -11   -1    0    0    0    0  0.00000000000E+00  0.00000000000E+00  0.45593999997E+02  0.45594000000E+02  0.51100000000E-03 0.  1.
         11   -1    0    0    0    0 -0.00000000000E+00 -0.00000000000E+00 -0.45593999997E+02  0.45594000000E+02  0.51100000000E-03 0. -1.
    9900012    2    1    2    0    0  0.31482931543E+00 -0.11211405128E+01 -0.19374605741E+00  0.90007486941E+02  0.89999744968E+02 0.  0.
         12    1    1    2    0    0 -0.31482931543E+00  0.11211405128E+01  0.19374605741E+00  0.11805130588E+01  0.00000000000E+00 0. -1.
         11    1    3    3    0    0 -0.23758524546E+02  0.41802868729E+01  0.11348220287E+02  0.26659414676E+02  0.51100000000E-03 0.  1.
        -11    1    3    3    0    0 -0.18795077309E+02 -0.47369937906E+01 -0.26446052154E+01  0.19562412382E+02  0.51100000000E-03 0. -1.
         12    1    3    3    0    0  0.42868431170E+02 -0.56443359508E+00 -0.88973611285E+01  0.43785659882E+02  0.00000000000E+00 0. -1.
</event>
<event>
 7    1  0.4119305E-015  0.9000781E+02  0.7816164E-02  0.1186339E+00
        -11   -1    0    0    0    0  0.00000000000E+00  0.00000000000E+00  0.45593999997E+02  0.45594000000E+02  0.51100000000E-03 0.  1.
         11   -1    0    0    0    0 -0.00000000000E+00 -0.00000000000E+00 -0.45593999997E+02  0.45594000000E+02  0.51100000000E-03 0. -1.
    9900012    2    1    2    0    0  0.11728593151E+01  0.67268753846E-01  0.11283234135E+00  0.90007807136E+02  0.90000069391E+02 0.  0.
         12    1    1    2    0    0 -0.11728593151E+01 -0.67268753846E-01 -0.11283234135E+00  0.11801928637E+01  0.00000000000E+00 0. -1.
         11    1    3    3    0    0  0.57768578586E+01  0.14999323912E+02 -0.63439331898E+01  0.17279967972E+02  0.51100000000E-03 0. -1.
        -11    1    3    3    0    0  0.26862228791E+02  0.93347290034E+01  0.14898759879E+02  0.32104354026E+02  0.51100000000E-03 0.  1.
         12    1    3    3    0    0 -0.31466227335E+02 -0.24266784162E+02 -0.84419943476E+01  0.40623485139E+02  0.00000000000E+00 0. -1.
</event>
<event>
 7    1  0.4119305E-015  0.9000771E+02  0.7816164E-02  0.1186339E+00
        -11   -1    0    0    0    0  0.00000000000E+00  0.00000000000E+00  0.45593999997E+02  0.45594000000E+02  0.51100000000E-03 0. -1.
         11   -1    0    0    0    0 -0.00000000000E+00 -0.00000000000E+00 -0.45593999997E+02  0.45594000000E+02  0.51100000000E-03 0.  1.
    9900012    2    1    2    0    0 -0.39537363582E-01  0.10460274086E+01 -0.54529987136E+00  0.90007708302E+02  0.89999969252E+02 0.  0.
         12    1    1    2    0    0  0.39537363582E-01 -0.10460274086E+01  0.54529987136E+00  0.11802916980E+01  0.00000000000E+00 0. -1.
         11    1    3    3    0    0 -0.15213525513E+02 -0.83812984572E+01  0.19578818561E+02  0.26173033047E+02  0.51100000000E-03 0. -1.
        -11    1    3    3    0    0 -0.74410937215E+01  0.28843132405E+02 -0.43245478850E+01  0.30099798627E+02  0.51100000000E-03 0.  1.
        -12    1    3    3    0    0  0.22615081871E+02 -0.19415806540E+02 -0.15799570547E+02  0.33734876628E+02  0.00000000000E+00 0.  1.
</event>
<event>
 7    1  0.4119305E-015  0.9000772E+02  0.7816164E-02  0.1186339E+00
        -11   -1    0    0    0    0  0.00000000000E+00  0.00000000000E+00  0.45593999997E+02  0.45594000000E+02  0.51100000000E-03 0.  1.
         11   -1    0    0    0    0 -0.00000000000E+00 -0.00000000000E+00 -0.45593999997E+02  0.45594000000E+02  0.51100000000E-03 0. -1.
    9900012    2    1    2    0    0  0.48427126966E+00  0.93826412224E+00  0.52744000825E+00  0.90007724105E+02  0.89999985263E+02 0.  0.
         12    1    1    2    0    0 -0.48427126966E+00 -0.93826412224E+00 -0.52744000825E+00  0.11802758949E+01  0.00000000000E+00 0. -1.
         11    1    3    3    0    0  0.17009451182E+01 -0.78028097206E+01  0.72507017649E+01  0.10786553211E+02  0.51100000000E-03 0. -1.
        -11    1    3    3    0    0 -0.37187828093E+02  0.50409409018E+01  0.10781790029E+02  0.39046032320E+02  0.51100000000E-03 0.  1.
         12    1    3    3    0    0  0.35971154244E+02  0.37001329410E+01 -0.17505051786E+02  0.40175138574E+02  0.00000000000E+00 0. -1.
</event>
<event>
 7    1  0.4119305E-015  0.9000752E+02  0.7816164E-02  0.1186339E+00
        -11   -1    0    0    0    0  0.00000000000E+00  0.00000000000E+00  0.45593999997E+02  0.45594000000E+02  0.51100000000E-03 0.  1.
         11   -1    0    0    0    0 -0.00000000000E+00 -0.00000000000E+00 -0.45593999997E+02  0.45594000000E+02  0.51100000000E-03 0. -1.
    9900012    2    1    2    0    0  0.37962646516E+00  0.91860772324E+00  0.63684984895E+00  0.90007519533E+02  0.89999777991E+02 0.  0.
         12    1    1    2    0    0 -0.37962646516E+00 -0.91860772324E+00 -0.63684984895E+00  0.11804804667E+01  0.00000000000E+00 0. -1.
         11    1    3    3    0    0  0.33024666712E+01  0.22267470681E+00 -0.84035161062E+01  0.90318853706E+01  0.51100000000E-03 0. -1.
        -11    1    3    3    0    0  0.15625813423E+02 -0.35669590971E+02 -0.92881989344E+00  0.38953157405E+02  0.51100000000E-03 0.  1.
         12    1    3    3    0    0 -0.18548653629E+02  0.36365523987E+02  0.99691858486E+01  0.42022476757E+02  0.00000000000E+00 0. -1.
</event>
<event>
 7    1  0.4119305E-015  0.9000777E+02  0.7816164E-02  0.1186339E+00
        -11   -1    0    0    0    0  0.00000000000E+00  0.00000000000E+00  0.45593999997E+02  0.45594000000E+02  0.51100000000E-03 0.  1.
         11   -1    0    0    0    0 -0.00000000000E+00 -0.00000000000E+00 -0.45593999997E+02  0.45594000000E+02  0.51100000000E-03 0. -1.
    9900012    2    1    2    0    0  0.93864336080E+00  0.70445381995E+00 -0.12503573075E+00  0.90007771006E+02  0.90000032784E+02 0.  0.
         12    1    1    2    0    0 -0.93864336080E+00 -0.70445381995E+00  0.12503573075E+00  0.11802289935E+01  0.00000000000E+00 0. -1.
         11    1    3    3    0    0 -0.82269628628E+01 -0.15168297226E+02 -0.57726251133E+01  0.18195696184E+02  0.51100000000E-03 0. -1.
        -11    1    3    3    0    0 -0.77985158236E+01  0.81633776553E+01  0.35149595520E+02  0.36918175054E+02  0.51100000000E-03 0.  1.
         12    1    3    3    0    0  0.16964122047E+02  0.77093733904E+01 -0.29502006138E+02  0.34893899768E+02  0.00000000000E+00 0. -1.
</event>
<event>
 7    1  0.4119305E-015  0.9000779E+02  0.7816164E-02  0.1186339E+00
        -11   -1    0    0    0    0  0.00000000000E+00  0.00000000000E+00  0.45593999997E+02  0.45594000000E+02  0.51100000000E-03 0. -1.
         11   -1    0    0    0    0 -0.00000000000E+00 -0.00000000000E+00 -0.45593999997E+02  0.45594000000E+02  0.51100000000E-03 0.  1.
    9900012    2    1    2    0    0  0.64986403315E-01  0.81088374824E+00 -0.85506854105E+00  0.90007789046E+02  0.90000051062E+02 0.  0.
         12    1    1    2    0    0 -0.64986403315E-01 -0.81088374824E+00  0.85506854105E+00  0.11802109539E+01  0.00000000000E+00 0. -1.
         11    1    3    3    0    0  0.29197725438E+02 -0.47941799513E+01 -0.24213209751E+02  0.38233112074E+02  0.51100000000E-03 0. -1.
        -11    1    3    3    0    0 -0.14660448001E+02  0.45648241108E+01 -0.79331849613E+01  0.17282991021E+02  0.51100000000E-03 0.  1.
         12    1    3    3    0    0 -0.14472291034E+02  0.10402395888E+01  0.31291326171E+02  0.34491685951E+02  0.00000000000E+00 0. -1.
</event>
<event>
 7    1  0.4119305E-015  0.9000773E+02  0.7816164E-02  0.1186339E+00
        -11   -1    0    0    0    0  0.00000000000E+00  0.00000000000E+00  0.45593999997E+02  0.45594000000E+02  0.51100000000E-03 0. -1.
         11   -1    0    0    0    0 -0.00000000000E+00 -0.00000000000E+00 -0.45593999997E+02  0.45594000000E+02  0.51100000000E-03 0.  1.
    9900012    2    1    2    0    0 -0.10883751457E+01 -0.45627417892E+00 -0.17185151491E-01  0.90007728034E+02  0.89999989244E+02 0.  0.
         12    1    1    2    0    0  0.10883751457E+01  0.45627417892E+00  0.17185151491E-01  0.11802719660E+01  0.00000000000E+00 0. -1.
         11    1    3    3    0    0 -0.36795771892E+01  0.95127047765E+01 -0.24269861226E+01  0.10484326509E+02  0.51100000000E-03 0. -1.
        -11    1    3    3    0    0  0.28462052270E+01 -0.75814329992E+01 -0.38095644513E+02  0.38946850215E+02  0.51100000000E-03 0.  1.
         12    1    3    3    0    0 -0.25500318354E+00 -0.23875459562E+01  0.40505445484E+02  0.40576551310E+02  0.00000000000E+00 0. -1.
</event>
<event>
 7    1  0.4119305E-015  0.9000785E+02  0.7816164E-02  0.1186339E+00
        -11   -1    0    0    0    0  0.00000000000E+00  0.00000000000E+00  0.45593999997E+02  0.45594000000E+02  0.51100000000E-03 0. -1.
         11   -1    0    0    0    0 -0.00000000000E+00 -0.00000000000E+00 -0.45593999997E+02  0.45594000000E+02  0.51100000000E-03 0.  1.
    9900012    2    1    2    0    0 -0.11966104890E+00 -0.11558993237E+01  0.20574248037E+00  0.90007850865E+02  0.90000113696E+02 0.  0.
         12    1    1    2    0    0  0.11966104890E+00  0.11558993237E+01 -0.20574248037E+00  0.11801491352E+01  0.00000000000E+00 0. -1.
         11    1    3    3    0    0  0.22109086740E+02 -0.16009990926E+02  0.21565825152E+02  0.34788163801E+02  0.51100000000E-03 0. -1.
        -11    1    3    3    0    0  0.99412817446E+01  0.15303736531E+01  0.52964287222E+01  0.11367641959E+02  0.51100000000E-03 0.  1.
        -12    1    3    3    0    0 -0.32170029533E+02  0.13323717949E+02 -0.26656511394E+02  0.43852045104E+02  0.00000000000E+00 0.  1.
</event>
<event>
 7    1  0.4119305E-015  0.9000783E+02  0.7816164E-02  0.1186339E+00
        -11   -1    0    0    0    0  0.00000000000E+00  0.00000000000E+00  0.45593999997E+02  0.45594000000E+02  0.51100000000E-03 0.  1.
         11   -1    0    0    0    0 -0.00000000000E+00 -0.00000000000E+00 -0.45593999997E+02  0.45594000000E+02  0.51100000000E-03 0. -1.
    9900012    2    1    2    0    0  0.75653369651E+00  0.89752722457E+00  0.12205778324E+00  0.90007832022E+02  0.90000094605E+02 0.  0.
         12    1    1    2    0    0 -0.75653369651E+00 -0.89752722457E+00 -0.12205778324E+00  0.11801679776E+01  0.00000000000E+00 0. -1.
         11    1    3    3    0    0  0.24578896282E+00  0.21176566280E+02 -0.35115371894E+02  0.41007276369E+02  0.51100000000E-03 0. -1.
        -11    1    3    3    0    0  0.84892892775E+01 -0.37497256131E+01  0.12390469102E-01  0.92805510825E+01  0.51100000000E-03 0.  1.
        -12    1    3    3    0    0 -0.79785445438E+01 -0.16529313443E+02  0.35225039208E+02  0.39720004571E+02  0.00000000000E+00 0.  1.
</event>
<event>
 7    1  0.4119305E-015  0.9000843E+02  0.7816164E-02  0.1186338E+00
        -11   -1    0    0    0    0  0.00000000000E+00  0.00000000000E+00  0.45593999997E+02  0.45594000000E+02  0.51100000000E-03 0.  1.
         11   -1    0    0    0    0 -0.00000000000E+00 -0.00000000000E+00 -0.45593999997E+02  0.45594000000E+02  0.51100000000E-03 0. -1.
    9900012    2    1    2    0    0  0.59946434975E-01  0.11731414848E+01  0.10742645029E+00  0.90008425941E+02  0.90000696361E+02 0.  0.
         12    1    1    2    0    0 -0.59946434975E-01 -0.11731414848E+01 -0.10742645029E+00  0.11795740590E+01  0.00000000000E+00 0. -1.
         11    1    3    3    0    0  0.46730878210E+01  0.78232410204E+01  0.14096560589E+01  0.92210617778E+01  0.51100000000E-03 0. -1.
        -11    1    3    3    0    0  0.26333277981E+02  0.15613390371E+02  0.20525405600E+02  0.36857994566E+02  0.51100000000E-03 0.  1.
         12    1    3    3    0    0 -0.30946419367E+02 -0.22263489907E+02 -0.21827635208E+02  0.43929369598E+02  0.00000000000E+00 0. -1.
</event>
<event>
 7    1  0.4119305E-015  0.9000772E+02  0.7816164E-02  0.1186339E+00
        -11   -1    0    0    0    0  0.00000000000E+00  0.00000000000E+00  0.45593999997E+02  0.45594000000E+02  0.51100000000E-03 0.  1.
         11   -1    0    0    0    0 -0.00000000000E+00 -0.00000000000E+00 -0.45593999997E+02  0.45594000000E+02  0.51100000000E-03 0. -1.
    9900012    2    1    2    0    0  0.90737192759E+00  0.65670012207E+00 -0.37214257950E+00  0.90007716574E+02  0.89999977633E+02 0.  0.
         12    1    1    2    0    0 -0.90737192759E+00 -0.65670012207E+00  0.37214257950E+00  0.11802834256E+01  0.00000000000E+00 0. -1.
         11    1    3    3    0    0  0.10165581074E+02  0.18439802754E+01  0.64192065659E+00  0.10351394313E+02  0.51100000000E-03 0. -1.
        -11    1    3    3    0    0 -0.33321012440E+01 -0.13698422663E+02  0.36789239834E+02  0.39397942205E+02  0.51100000000E-03 0.  1.
         12    1    3    3    0    0 -0.59261079023E+01  0.12511142510E+02 -0.37803303070E+02  0.40258380057E+02  0.00000000000E+00 0. -1.
</event>
<event>
 7    1  0.4119305E-015  0.9000775E+02  0.7816164E-02  0.1186339E+00
        -11   -1    0    0    0    0  0.00000000000E+00  0.00000000000E+00  0.45593999997E+02  0.45594000000E+02  0.51100000000E-03 0.  1.
         11   -1    0    0    0    0 -0.00000000000E+00 -0.00000000000E+00 -0.45593999997E+02  0.45594000000E+02  0.51100000000E-03 0. -1.
    9900012    2    1    2    0    0  0.11647734210E+01  0.18417267381E+00 -0.48718196097E-01  0.90007749959E+02  0.90000011459E+02 0.  0.
         12    1    1    2    0    0 -0.11647734210E+01 -0.18417267381E+00  0.48718196097E-01  0.11802500407E+01  0.00000000000E+00 0. -1.
         11    1    3    3    0    0  0.59183349966E+01 -0.23093487554E+02  0.12703400505E+02  0.27013186432E+02  0.51100000000E-03 0. -1.
        -11    1    3    3    0    0  0.13704240593E+02  0.41290831039E+01  0.17569485852E+02  0.22661473272E+02  0.51100000000E-03 0.  1.
         12    1    3    3    0    0 -0.18457802169E+02  0.19148577124E+02 -0.30321604553E+02  0.40333090255E+02  0.00000000000E+00 0. -1.
</event>
<event>
 7    1  0.4119305E-015  0.9000776E+02  0.7816164E-02  0.1186339E+00
        -11   -1    0    0    0    0  0.00000000000E+00  0.00000000000E+00  0.45593999997E+02  0.45594000000E+02  0.51100000000E-03 0.  1.
         11   -1    0    0    0    0 -0.00000000000E+00 -0.00000000000E+00 -0.45593999997E+02  0.45594000000E+02  0.51100000000E-03 0. -1.
    9900012    2    1    2    0    0  0.45309554110E+00 -0.61523670180E+00  0.89953576073E+00  0.90007755808E+02  0.90000017384E+02 0.  0.
         12    1    1    2    0    0 -0.45309554110E+00  0.61523670180E+00 -0.89953576073E+00  0.11802441923E+01  0.00000000000E+00 0. -1.
         11    1    3    3    0    0  0.35574871394E+02  0.93774552262E+01 -0.15171073563E+02  0.39795346644E+02  0.51100000000E-03 0. -1.
        -11    1    3    3    0    0  0.43346056846E+01 -0.66805339810E+01  0.31237366700E+01  0.85543013599E+01  0.51100000000E-03 0.  1.
        -12    1    3    3    0    0 -0.39456381537E+02 -0.33121579470E+01  0.12946872654E+02  0.41658107804E+02  0.00000000000E+00 0.  1.
</event>
<event>
 7    1  0.4119305E-015  0.9000780E+02  0.7816164E-02  0.1186339E+00
        -11   -1    0    0    0    0  0.00000000000E+00  0.00000000000E+00  0.45593999997E+02  0.45594000000E+02  0.51100000000E-03 0. -1.
         11   -1    0    0    0    0 -0.00000000000E+00 -0.00000000000E+00 -0.45593999997E+02  0.45594000000E+02  0.51100000000E-03 0.  1.
    9900012    2    1    2    0    0 -0.10424783417E+01  0.89528068391E-01  0.54598508276E+00  0.90007798289E+02  0.90000060426E+02 0.  0.
         12    1    1    2    0    0  0.10424783417E+01 -0.89528068391E-01 -0.54598508276E+00  0.11802017109E+01  0.00000000000E+00 0. -1.
         11    1    3    3    0    0 -0.30090931714E+01  0.48541630866E+01 -0.68394790862E+01  0.89104441762E+01  0.51100000000E-03 0. -1.
        -11    1    3    3    0    0  0.52928461049E+01  0.30386972989E+02 -0.19698034358E+02  0.36597744536E+02  0.51100000000E-03 0.  1.
         12    1    3    3    0    0 -0.33262312752E+01 -0.35151608007E+02  0.27083498527E+02  0.44499609576E+02  0.00000000000E+00 0. -1.
</event>
<event>
 7    1  0.4119305E-015  0.9000780E+02  0.7816164E-02  0.1186339E+00
        -11   -1    0    0    0    0  0.00000000000E+00  0.00000000000E+00  0.45593999997E+02  0.45594000000E+02  0.51100000000E-03 0. -1.
         11   -1    0    0    0    0 -0.00000000000E+00 -0.00000000000E+00 -0.45593999997E+02  0.45594000000E+02  0.51100000000E-03 0.  1.
    9900012    2    1    2    0    0  0.10438796059E+01 -0.95311270898E-02 -0.55054742383E+00  0.90007797500E+02  0.90000059627E+02 0.  0.
         12    1    1    2    0    0 -0.10438796059E+01  0.95311270898E-02  0.55054742383E+00  0.11802024996E+01  0.00000000000E+00 0. -1.
         11    1    3    3    0    0  0.30984372833E+02 -0.26899306623E+02  0.13332944287E+02  0.43143614362E+02  0.51100000000E-03 0. -1.
        -11    1    3    3    0    0 -0.88254467101E+01  0.12306520808E+01  0.32401377891E+01  0.94816405400E+01  0.51100000000E-03 0.  1.
        -12    1    3    3    0    0 -0.21115046516E+02  0.25659123415E+02 -0.17123629500E+02  0.37382542598E+02  0.00000000000E+00 0.  1.
</event>
<event>
 7    1  0.4119305E-015  0.9000769E+02  0.7816164E-02  0.1186339E+00
        -11   -1    0    0    0    0  0.00000000000E+00  0.00000000000E+00  0.45593999997E+02  0.45594000000E+02  0.51100000000E-03 0.  1.
         11   -1    0    0    0    0 -0.00000000000E+00 -0.00000000000E+00 -0.45593999997E+02  0.45594000000E+02  0.51100000000E-03 0. -1.
    9900012    2    1    2    0    0 -0.59224945609E+00  0.53774557397E+00 -0.86787589921E+00  0.90007687204E+02  0.89999947875E+02 0.  0.
         12    1    1    2    0    0  0.59224945609E+00 -0.53774557397E+00  0.86787589921E+00  0.11803127962E+01  0.00000000000E+00 0. -1.
         11    1    3    3    0    0  0.15706331879E+02 -0.31759312677E+02  0.13990378153E+02  0.38092958456E+02  0.51100000000E-03 0. -1.
        -11    1    3    3    0    0 -0.25592646078E+01 -0.64679913967E+01  0.23355605741E+01  0.73375466946E+01  0.51100000000E-03 0.  1.
        -12    1    3    3    0    0 -0.13739316728E+02  0.38765049648E+02 -0.17193814626E+02  0.44577182053E+02  0.00000000000E+00 0.  1.
</event>
<event>
 7    1  0.4119305E-015  0.9000782E+02  0.7816164E-02  0.1186339E+00
        -11   -1    0    0    0    0  0.00000000000E+00  0.00000000000E+00  0.45593999997E+02  0.45594000000E+02  0.51100000000E-03 0.  1.
         11   -1    0    0    0    0 -0.00000000000E+00 -0.00000000000E+00 -0.45593999997E+02  0.45594000000E+02  0.51100000000E-03 0. -1.
    9900012    2    1    2    0    0  0.10139656675E+01  0.49505632257E+00 -0.34587490965E+00  0.90007815019E+02  0.90000077377E+02 0.  0.
         12    1    1    2    0    0 -0.10139656675E+01 -0.49505632257E+00  0.34587490965E+00  0.11801849815E+01  0.00000000000E+00 0. -1.
         11    1    3    3    0    0  0.52627027657E+01 -0.37625606075E+01 -0.74078210914E+01  0.98350758161E+01  0.51100000000E-03 0. -1.
        -11    1    3    3    0    0  0.37176154255E+02  0.79630641139E+01  0.65486150940E+01  0.38579284534E+02  0.51100000000E-03 0.  1.
         12    1    3    3    0    0 -0.41424891353E+02 -0.37054471839E+01  0.51333108779E+00  0.41593454668E+02  0.00000000000E+00 0. -1.
</event>
<event>
 7    1  0.4119305E-015  0.9000776E+02  0.7816164E-02  0.1186339E+00
        -11   -1    0    0    0    0  0.00000000000E+00  0.00000000000E+00  0.45593999997E+02  0.45594000000E+02  0.51100000000E-03 0. -1.
         11   -1    0    0    0    0 -0.00000000000E+00 -0.00000000000E+00 -0.45593999997E+02  0.45594000000E+02  0.51100000000E-03 0.  1.
    9900012    2    1    2    0    0  0.11731680147E+01  0.11512848442E+00 -0.58268426509E-01  0.90007757242E+02  0.90000018837E+02 0.  0.
         12    1    1    2    0    0 -0.11731680147E+01 -0.11512848442E+00  0.58268426509E-01  0.11802427581E+01  0.00000000000E+00 0. -1.
         11    1    3    3    0    0  0.29770275792E+01 -0.18424491070E+02 -0.31773813826E+01  0.18931991895E+02  0.51100000000E-03 0. -1.
        -11    1    3    3    0    0 -0.76118514663E+01 -0.25478947668E+02  0.18882166046E+01  0.26658627482E+02  0.51100000000E-03 0.  1.
         12    1    3    3    0    0  0.58079919018E+01  0.44018567223E+02  0.12308963515E+01  0.44417137865E+02  0.00000000000E+00 0. -1.
</event>
<event>
 7    1  0.4119305E-015  0.9000765E+02  0.7816164E-02  0.1186339E+00
        -11   -1    0    0    0    0  0.00000000000E+00  0.00000000000E+00  0.45593999997E+02  0.45594000000E+02  0.51100000000E-03 0. -1.
         11   -1    0    0    0    0 -0.00000000000E+00 -0.00000000000E+00 -0.45593999997E+02  0.45594000000E+02  0.51100000000E-03 0.  1.
    9900012    2    1    2    0    0  0.33214327272E+00 -0.94558964515E+00  0.62351544657E+00  0.90007648170E+02  0.89999908326E+02 0.  0.
         12    1    1    2    0    0 -0.33214327272E+00  0.94558964515E+00 -0.62351544657E+00  0.11803518301E+01  0.00000000000E+00 0. -1.
         11    1    3    3    0    0 -0.43599959843E+01  0.11827636978E+01 -0.50137001639E+01  0.67487542956E+01  0.51100000000E-03 0. -1.
        -11    1    3    3    0    0  0.42300687491E+02 -0.11002856073E+02 -0.24630084965E+01  0.43777590330E+02  0.51100000000E-03 0.  1.
         12    1    3    3    0    0 -0.37608548234E+02  0.88745027301E+01  0.81002241070E+01  0.39481303544E+02  0.00000000000E+00 0. -1.
</event>
<event>
 7    1  0.4119305E-015  0.9000777E+02  0.7816164E-02  0.1186339E+00
        -11   -1    0    0    0    0  0.00000000000E+00  0.00000000000E+00  0.45593999997E+02  0.45594000000E+02  0.51100000000E-03 0. -1.
         11   -1    0    0    0    0 -0.00000000000E+00 -0.00000000000E+00 -0.45593999997E+02  0.45594000000E+02  0.51100000000E-03 0.  1.
    9900012    2    1    2    0    0  0.20863345264E+00 -0.11224154180E+01  0.29933649949E+00  0.90007768401E+02  0.90000030144E+02 0.  0.
         12    1    1    2    0    0 -0.20863345264E+00  0.11224154180E+01 -0.29933649949E+00  0.11802315993E+01  0.00000000000E+00 0. -1.
         11    1    3    3    0    0 -0.26404480260E+02  0.36827715085E+01 -0.22799150623E+02  0.35079347958E+02  0.51100000000E-03 0. -1.
        -11    1    3    3    0    0 -0.72677107782E+01 -0.34430733312E+01 -0.61693795980E+01  0.10135858070E+02  0.51100000000E-03 0.  1.
        -12    1    3    3    0    0  0.33880824491E+02 -0.13621135953E+01  0.29267866720E+02  0.44792562373E+02  0.00000000000E+00 0.  1.
</event>
<event>
 7    1  0.4119305E-015  0.9000778E+02  0.7816164E-02  0.1186339E+00
        -11   -1    0    0    0    0  0.00000000000E+00  0.00000000000E+00  0.45593999997E+02  0.45594000000E+02  0.51100000000E-03 0.  1.
         11   -1    0    0    0    0 -0.00000000000E+00 -0.00000000000E+00 -0.45593999997E+02  0.45594000000E+02  0.51100000000E-03 0. -1.
    9900012    2    1    2    0    0 -0.10274731092E+00  0.10950421939E+01  0.42808044437E+00  0.90007776596E+02  0.90000038447E+02 0.  0.
         12    1    1    2    0    0  0.10274731092E+00 -0.10950421939E+01 -0.42808044437E+00  0.11802234039E+01  0.00000000000E+00 0. -1.
         11    1    3    3    0    0  0.43094028592E+01  0.60126681219E+00  0.79963280170E+01  0.91035013483E+01  0.51100000000E-03 0. -1.
        -11    1    3    3    0    0 -0.20448929498E+02  0.56826954716E+01  0.31712834896E+02  0.38159607477E+02  0.51100000000E-03 0.  1.
         12    1    3    3    0    0  0.16036779328E+02 -0.51889200899E+01 -0.39281082468E+02  0.42744667770E+02  0.00000000000E+00 0. -1.
</event>
<event>
 7    1  0.4119305E-015  0.9000753E+02  0.7816164E-02  0.1186339E+00
        -11   -1    0    0    0    0  0.00000000000E+00  0.00000000000E+00  0.45593999997E+02  0.45594000000E+02  0.51100000000E-03 0.  1.
         11   -1    0    0    0    0 -0.00000000000E+00 -0.00000000000E+00 -0.45593999997E+02  0.45594000000E+02  0.51100000000E-03 0. -1.
    9900012    2    1    2    0    0  0.14039119730E+00 -0.98083901873E-01  0.11679814707E+01  0.90007529392E+02  0.89999787980E+02 0.  0.
         12    1    1    2    0    0 -0.14039119730E+00  0.98083901873E-01 -0.11679814707E+01  0.11804706078E+01  0.00000000000E+00 0. -1.
         11    1    3    3    0    0 -0.30585891741E+01 -0.78149364142E+01 -0.16044899112E+01  0.85441551384E+01  0.51100000000E-03 0. -1.
        -11    1    3    3    0    0  0.18094867265E+02 -0.66180267168E+01  0.36862899032E+02  0.41594420590E+02  0.51100000000E-03 0.  1.
         12    1    3    3    0    0 -0.14895886894E+02  0.14334879229E+02 -0.34090427650E+02  0.39868953663E+02  0.00000000000E+00 0. -1.
</event>
<event>
 7    1  0.4119305E-015  0.9000770E+02  0.7816164E-02  0.1186339E+00
        -11   -1    0    0    0    0  0.00000000000E+00  0.00000000000E+00  0.45593999997E+02  0.45594000000E+02  0.51100000000E-03 0.  1.
         11   -1    0    0    0    0 -0.00000000000E+00 -0.00000000000E+00 -0.45593999997E+02  0.45594000000E+02  0.51100000000E-03 0. -1.
    9900012    2    1    2    0    0 -0.70730939215E+00  0.50539378824E+00  0.79836941851E+00  0.90007702078E+02  0.89999962945E+02 0.  0.
         12    1    1    2    0    0  0.70730939215E+00 -0.50539378824E+00 -0.79836941851E+00  0.11802979225E+01  0.00000000000E+00 0. -1.
         11    1    3    3    0    0  0.91631352080E+01  0.62239201334E+00 -0.16646596425E+01  0.93338904346E+01  0.51100000000E-03 0. -1.
        -11    1    3    3    0    0 -0.44478953694E+02 -0.33135799359E+01 -0.57204756176E+01  0.44967554696E+02  0.51100000000E-03 0.  1.
         12    1    3    3    0    0  0.34608509094E+02  0.31965817108E+01  0.81835046787E+01  0.35706256947E+02  0.00000000000E+00 0. -1.
</event>
<event>
 7    1  0.4119305E-015  0.9000828E+02  0.7816164E-02  0.1186338E+00
        -11   -1    0    0    0    0  0.00000000000E+00  0.00000000000E+00  0.45593999997E+02  0.45594000000E+02  0.51100000000E-03 0.  1.
         11   -1    0    0    0    0 -0.00000000000E+00 -0.00000000000E+00 -0.45593999997E+02  0.45594000000E+02  0.51100000000E-03 0. -1.
    9900012    2    1    2    0    0  0.88802749705E+00  0.70885888752E+00  0.31726766828E+00  0.90008282860E+02  0.90000551392E+02 0.  0.
         12    1    1    2    0    0 -0.88802749705E+00 -0.70885888752E+00 -0.31726766828E+00  0.11797171404E+01  0.00000000000E+00 0. -1.
         11    1    3    3    0    0 -0.15199365484E+01 -0.87250413883E+01 -0.32249060305E+01  0.94253155653E+01  0.51100000000E-03 0. -1.
        -11    1    3    3    0    0 -0.25259534208E+02 -0.37102709465E+00  0.31273129852E+02  0.40201870361E+02  0.51100000000E-03 0.  1.
         12    1    3    3    0    0  0.27667498254E+02  0.98049273704E+01 -0.27730956154E+02  0.40381096933E+02  0.00000000000E+00 0. -1.
</event>
<event>
 7    1  0.4119305E-015  0.9000813E+02  0.7816164E-02  0.1186338E+00
        -11   -1    0    0    0    0  0.00000000000E+00  0.00000000000E+00  0.45593999997E+02  0.45594000000E+02  0.51100000000E-03 0. -1.
         11   -1    0    0    0    0 -0.00000000000E+00 -0.00000000000E+00 -0.45593999997E+02  0.45594000000E+02  0.51100000000E-03 0.  1.
    9900012    2    1    2    0    0 -0.50438950874E+00  0.98918134159E+00 -0.39899039910E+00  0.90008134821E+02  0.90000401399E+02 0.  0.
         12    1    1    2    0    0  0.50438950874E+00 -0.98918134159E+00  0.39899039910E+00  0.11798651794E+01  0.00000000000E+00 0. -1.
         11    1    3    3    0    0 -0.21213618352E+01 -0.87871365738E+01  0.87408962769E+00  0.90817387180E+01  0.51100000000E-03 0. -1.
        -11    1    3    3    0    0  0.36357946126E+02  0.23310223655E+02  0.35370117002E+01  0.43333326960E+02  0.51100000000E-03 0.  1.
         12    1    3    3    0    0 -0.34740973800E+02 -0.13533905740E+02 -0.48100917269E+01  0.37593069143E+02  0.00000000000E+00 0. -1.
</event>
<event>
 7    1  0.4119305E-015  0.9000777E+02  0.7816164E-02  0.1186339E+00
        -11   -1    0    0    0    0  0.00000000000E+00  0.00000000000E+00  0.45593999997E+02  0.45594000000E+02  0.51100000000E-03 0. -1.
         11   -1    0    0    0    0 -0.00000000000E+00 -0.00000000000E+00 -0.45593999997E+02  0.45594000000E+02  0.51100000000E-03 0.  1.
    9900012    2    1    2    0    0 -0.10316028087E+01 -0.24243909477E+00 -0.51958736325E+00  0.90007766083E+02  0.90000027796E+02 0.  0.
         12    1    1    2    0    0  0.10316028087E+01  0.24243909477E+00  0.51958736325E+00  0.11802339165E+01  0.00000000000E+00 0. -1.
         11    1    3    3    0    0 -0.15057278266E+00  0.73068310547E+00  0.23755919914E+02  0.23767631376E+02  0.51100000000E-03 0. -1.
        -11    1    3    3    0    0 -0.16055362479E+02  0.20983508424E+02  0.47104456220E+01  0.26837857372E+02  0.51100000000E-03 0.  1.
        -12    1    3    3    0    0  0.15174332453E+02 -0.21956630624E+02 -0.28985952900E+02  0.39402277336E+02  0.00000000000E+00 0.  1.
</event>
<event>
 7    1  0.4119305E-015  0.9000769E+02  0.7816164E-02  0.1186339E+00
        -11   -1    0    0    0    0  0.00000000000E+00  0.00000000000E+00  0.45593999997E+02  0.45594000000E+02  0.51100000000E-03 0. -1.
         11   -1    0    0    0    0 -0.00000000000E+00 -0.00000000000E+00 -0.45593999997E+02  0.45594000000E+02  0.51100000000E-03 0.  1.
    9900012    2    1    2    0    0 -0.43482416549E+00  0.35891185103E+00 -0.10369387241E+01  0.90007690003E+02  0.89999950711E+02 0.  0.
         12    1    1    2    0    0  0.43482416549E+00 -0.35891185103E+00  0.10369387241E+01  0.11803099971E+01  0.00000000000E+00 0. -1.
         11    1    3    3    0    0  0.46420067016E+01  0.64779258894E+01 -0.13105506211E+01  0.80764653926E+01  0.51100000000E-03 0. -1.
        -11    1    3    3    0    0  0.68915459062E+01  0.15585523637E+02 -0.34937142240E+02  0.38871658830E+02  0.51100000000E-03 0.  1.
         12    1    3    3    0    0 -0.11968376773E+02 -0.21704537675E+02  0.35210754137E+02  0.43059565780E+02  0.00000000000E+00 0. -1.
</event>
<event>
 7    1  0.4119305E-015  0.9000767E+02  0.7816164E-02  0.1186339E+00
        -11   -1    0    0    0    0  0.00000000000E+00  0.00000000000E+00  0.45593999997E+02  0.45594000000E+02  0.51100000000E-03 0. -1.
         11   -1    0    0    0    0 -0.00000000000E+00 -0.00000000000E+00 -0.45593999997E+02  0.45594000000E+02  0.51100000000E-03 0.  1.
    9900012    2    1    2    0    0 -0.41372731009E+00 -0.80851041999E+00 -0.75386341473E+00  0.90007674013E+02  0.89999934510E+02 0.  0.
         12    1    1    2    0    0  0.41372731009E+00  0.80851041999E+00  0.75386341473E+00  0.11803259865E+01  0.00000000000E+00 0. -1.
         11    1    3    3    0    0  0.42813484422E+01 -0.15169519274E+02  0.23668092691E+01  0.15938821972E+02  0.51100000000E-03 0. -1.
        -11    1    3    3    0    0  0.10241840156E+02 -0.21649818175E+02  0.17785088642E+02  0.29831515132E+02  0.51100000000E-03 0.  1.
         12    1    3    3    0    0 -0.14936915909E+02  0.36010827029E+02 -0.20905761326E+02  0.44237336909E+02  0.00000000000E+00 0. -1.
</event>
<event>
 7    1  0.4119305E-015  0.9000775E+02  0.7816164E-02  0.1186339E+00
        -11   -1    0    0    0    0  0.00000000000E+00  0.00000000000E+00  0.45593999997E+02  0.45594000000E+02  0.51100000000E-03 0. -1.
         11   -1    0    0    0    0 -0.00000000000E+00 -0.00000000000E+00 -0.45593999997E+02  0.45594000000E+02  0.51100000000E-03 0.  1.
    9900012    2    1    2    0    0 -0.10010386553E+01  0.33863815345E+00 -0.52559077157E+00  0.90007745855E+02  0.90000007300E+02 0.  0.
         12    1    1    2    0    0  0.10010386553E+01 -0.33863815345E+00  0.52559077157E+00  0.11802541453E+01  0.00000000000E+00 0. -1.
         11    1    3    3    0    0 -0.16115212271E+02 -0.14225213655E+02  0.33819678177E+02  0.40072776324E+02  0.51100000000E-03 0. -1.
        -11    1    3    3    0    0 -0.18945871206E+01 -0.67816439933E+01 -0.14461809744E+01  0.71882957147E+01  0.51100000000E-03 0.  1.
        -12    1    3    3    0    0  0.17008760736E+02  0.21345495802E+02 -0.32899087974E+02  0.42746673816E+02  0.00000000000E+00 0.  1.
</event>
<event>
 7    1  0.4119305E-015  0.9000759E+02  0.7816164E-02  0.1186339E+00
        -11   -1    0    0    0    0  0.00000000000E+00  0.00000000000E+00  0.45593999997E+02  0.45594000000E+02  0.51100000000E-03 0.  1.
         11   -1    0    0    0    0 -0.00000000000E+00 -0.00000000000E+00 -0.45593999997E+02  0.45594000000E+02  0.51100000000E-03 0. -1.
    9900012    2    1    2    0    0  0.76739293567E+00  0.88298370531E+00  0.15753875566E+00  0.90007588800E+02  0.89999848172E+02 0.  0.
         12    1    1    2    0    0 -0.76739293567E+00 -0.88298370531E+00 -0.15753875566E+00  0.11804112000E+01  0.00000000000E+00 0. -1.
         11    1    3    3    0    0 -0.29080927282E+02 -0.18670294572E+02  0.17356186929E+02  0.38671920769E+02  0.51100000000E-03 0. -1.
        -11    1    3    3    0    0 -0.22980220126E+01  0.48211257821E+01  0.67651968948E+01  0.86192835122E+01  0.51100000000E-03 0.  1.
        -12    1    3    3    0    0  0.32146342230E+02  0.14732152495E+02 -0.23963845068E+02  0.42716384519E+02  0.00000000000E+00 0.  1.
</event>
<event>
 7    1  0.4119305E-015  0.9000780E+02  0.7816164E-02  0.1186339E+00
        -11   -1    0    0    0    0  0.00000000000E+00  0.00000000000E+00  0.45593999997E+02  0.45594000000E+02  0.51100000000E-03 0.  1.
         11   -1    0    0    0    0 -0.00000000000E+00 -0.00000000000E+00 -0.45593999997E+02  0.45594000000E+02  0.51100000000E-03 0. -1.
    9900012    2    1    2    0    0  0.25391097504E+00 -0.49214437886E+00  0.10422055108E+01  0.90007801203E+02  0.90000063379E+02 0.  0.
         12    1    1    2    0    0 -0.25391097504E+00  0.49214437886E+00 -0.10422055108E+01  0.11801987967E+01  0.00000000000E+00 0. -1.
         11    1    3    3    0    0 -0.48804628759E+01  0.34981706552E+02 -0.16864815159E+02  0.39140269567E+02  0.51100000000E-03 0. -1.
        -11    1    3    3    0    0 -0.62249589962E+01 -0.67760717519E+01 -0.67103024884E+01  0.11388302009E+02  0.51100000000E-03 0.  1.
        -12    1    3    3    0    0  0.11359332847E+02 -0.28697779179E+02  0.24617323159E+02  0.39479229628E+02  0.00000000000E+00 0.  1.
</event>
<event>
 7    1  0.4119305E-015  0.9000774E+02  0.7816164E-02  0.1186339E+00
        -11   -1    0    0    0    0  0.00000000000E+00  0.00000000000E+00  0.45593999997E+02  0.45594000000E+02  0.51100000000E-03 0. -1.
         11   -1    0    0    0    0 -0.00000000000E+00 -0.00000000000E+00 -0.45593999997E+02  0.45594000000E+02  0.51100000000E-03 0.  1.
    9900012    2    1    2    0    0  0.68524954513E+00 -0.96733733074E-01 -0.95607982471E+00  0.90007740289E+02  0.90000001661E+02 0.  0.
         12    1    1    2    0    0 -0.68524954513E+00  0.96733733074E-01  0.95607982471E+00  0.11802597110E+01  0.00000000000E+00 0. -1.
         11    1    3    3    0    0 -0.25925282599E+02  0.29441428376E+02 -0.15546373402E+02  0.42197247646E+02  0.51100000000E-03 0. -1.
        -11    1    3    3    0    0  0.68676889063E-01 -0.27584783268E+01 -0.47059409749E+01  0.54552543400E+01  0.51100000000E-03 0.  1.
        -12    1    3    3    0    0  0.26541855255E+02 -0.26779683782E+02  0.19296234552E+02  0.42355238303E+02  0.00000000000E+00 0.  1.
</event>
<event>
 7    1  0.4119305E-015  0.9000772E+02  0.7816164E-02  0.1186339E+00
        -11   -1    0    0    0    0  0.00000000000E+00  0.00000000000E+00  0.45593999997E+02  0.45594000000E+02  0.51100000000E-03 0.  1.
         11   -1    0    0    0    0 -0.00000000000E+00 -0.00000000000E+00 -0.45593999997E+02  0.45594000000E+02  0.51100000000E-03 0. -1.
    9900012    2    1    2    0    0  0.11616127781E+01  0.93950495199E-01  0.18679509612E+00  0.90007718953E+02  0.89999980043E+02 0.  0.
         12    1    1    2    0    0 -0.11616127781E+01 -0.93950495199E-01 -0.18679509612E+00  0.11802810470E+01  0.00000000000E+00 0. -1.
         11    1    3    3    0    0  0.79287773643E+01 -0.60970163903E+01  0.28386139690E+01  0.10396963445E+02  0.51100000000E-03 0. -1.
        -11    1    3    3    0    0 -0.22280112707E+02 -0.30789981000E+02 -0.88744341959E+01  0.39027963497E+02  0.51100000000E-03 0.  1.
         12    1    3    3    0    0  0.15512948121E+02  0.36980947885E+02  0.62226153230E+01  0.40582792010E+02  0.00000000000E+00 0. -1.
</event>
<event>
 7    1  0.4119305E-015  0.9000777E+02  0.7816164E-02  0.1186339E+00
        -11   -1    0    0    0    0  0.00000000000E+00  0.00000000000E+00  0.45593999997E+02  0.45594000000E+02  0.51100000000E-03 0.  1.
         11   -1    0    0    0    0 -0.00000000000E+00 -0.00000000000E+00 -0.45593999997E+02  0.45594000000E+02  0.51100000000E-03 0. -1.
    9900012    2    1    2    0    0  0.10964275960E+01  0.27258018277E+00  0.34131062929E+00  0.90007768508E+02  0.90000030252E+02 0.  0.
         12    1    1    2    0    0 -0.10964275960E+01 -0.27258018277E+00 -0.34131062929E+00  0.11802314921E+01  0.00000000000E+00 0. -1.
         11    1    3    3    0    0  0.45404927665E+01 -0.41676355882E+02 -0.69122543898E+01  0.42488986516E+02  0.51100000000E-03 0. -1.
        -11    1    3    3    0    0 -0.42406341090E+01  0.46720241895E+01 -0.52338656324E+01  0.81978129640E+01  0.51100000000E-03 0.  1.
        -12    1    3    3    0    0  0.79656893848E+00  0.37276911875E+02  0.12487430651E+02  0.39320969028E+02  0.00000000000E+00 0.  1.
</event>
<event>
 7    1  0.4119305E-015  0.9000763E+02  0.7816164E-02  0.1186339E+00
        -11   -1    0    0    0    0  0.00000000000E+00  0.00000000000E+00  0.45593999997E+02  0.45594000000E+02  0.51100000000E-03 0.  1.
         11   -1    0    0    0    0 -0.00000000000E+00 -0.00000000000E+00 -0.45593999997E+02  0.45594000000E+02  0.51100000000E-03 0. -1.
    9900012    2    1    2    0    0  0.27254587878E+00  0.77151907739E+00  0.85073820798E+00  0.90007627838E+02  0.89999887725E+02 0.  0.
         12    1    1    2    0    0 -0.27254587878E+00 -0.77151907739E+00 -0.85073820798E+00  0.11803721622E+01  0.00000000000E+00 0. -1.
         11    1    3    3    0    0  0.35683391360E+02 -0.57814997745E+01  0.87685332027E+01  0.37197007049E+02  0.51100000000E-03 0. -1.
        -11    1    3    3    0    0  0.53209773600E+01 -0.72192538173E+01 -0.33415738553E+01  0.95706082271E+01  0.51100000000E-03 0.  1.
        -12    1    3    3    0    0 -0.40731822841E+02  0.13772272669E+02 -0.45762211395E+01  0.43240012562E+02  0.00000000000E+00 0.  1.
</event>
<event>
 7    1  0.4119305E-015  0.9000772E+02  0.7816164E-02  0.1186339E+00
        -11   -1    0    0    0    0  0.00000000000E+00  0.00000000000E+00  0.45593999997E+02  0.45594000000E+02  0.51100000000E-03 0.  1.
         11   -1    0    0    0    0 -0.00000000000E+00 -0.00000000000E+00 -0.45593999997E+02  0.45594000000E+02  0.51100000000E-03 0. -1.
    9900012    2    1    2    0    0 -0.45288901776E+00 -0.65021106688E+00  0.87474375851E+00  0.90007720568E+02  0.89999981680E+02 0.  0.
         12    1    1    2    0    0  0.45288901776E+00  0.65021106688E+00 -0.87474375851E+00  0.11802794317E+01  0.00000000000E+00 0. -1.
         11    1    3    3    0    0 -0.13104541802E+02  0.10070004483E+02  0.16237863595E+02  0.23168992652E+02  0.51100000000E-03 0. -1.
        -11    1    3    3    0    0 -0.20264409450E+02 -0.82832753619E+01  0.11089428493E+02  0.24540463843E+02  0.51100000000E-03 0.  1.
         12    1    3    3    0    0  0.32916062234E+02 -0.24369401877E+01 -0.26452548330E+02  0.42298264073E+02  0.00000000000E+00 0. -1.
</event>
<event>
 7    1  0.4119305E-015  0.9000785E+02  0.7816164E-02  0.1186339E+00
        -11   -1    0    0    0    0  0.00000000000E+00  0.00000000000E+00  0.45593999997E+02  0.45594000000E+02  0.51100000000E-03 0.  1.
         11   -1    0    0    0    0 -0.00000000000E+00 -0.00000000000E+00 -0.45593999997E+02  0.45594000000E+02  0.51100000000E-03 0. -1.
    9900012    2    1    2    0    0  0.61549971277E+00  0.84379977073E+00  0.54946199695E+00  0.90007853214E+02  0.90000116077E+02 0.  0.
         12    1    1    2    0    0 -0.61549971277E+00 -0.84379977073E+00 -0.54946199695E+00  0.11801467856E+01  0.00000000000E+00 0. -1.
         11    1    3    3    0    0  0.28561032379E+02  0.30861571942E+01 -0.24128623583E+02  0.37515962110E+02  0.51100000000E-03 0. -1.
        -11    1    3    3    0    0  0.91525807050E+01 -0.63806944133E+00  0.55349737681E+01  0.10715073544E+02  0.51100000000E-03 0.  1.
        -12    1    3    3    0    0 -0.37098113371E+02 -0.16042879821E+01  0.19143111812E+02  0.41776817560E+02  0.00000000000E+00 0.  1.
</event>
<event>
 7    1  0.4119305E-015  0.9000774E+02  0.7816164E-02  0.1186339E+00
        -11   -1    0    0    0    0  0.00000000000E+00  0.00000000000E+00  0.45593999997E+02  0.45594000000E+02  0.51100000000E-03 0.  1.
         11   -1    0    0    0    0 -0.00000000000E+00 -0.00000000000E+00 -0.45593999997E+02  0.45594000000E+02  0.51100000000E-03 0. -1.
    9900012    2    1    2    0    0 -0.95223931452E+00 -0.51687480725E+00 -0.46806657033E+00  0.90007743421E+02  0.90000004834E+02 0.  0.
         12    1    1    2    0    0  0.95223931452E+00  0.51687480725E+00  0.46806657033E+00  0.11802565792E+01  0.00000000000E+00 0. -1.
         11    1    3    3    0    0 -0.20517563477E+02  0.52666171877E+01  0.15280987731E+01  0.21237767155E+02  0.51100000000E-03 0. -1.
        -11    1    3    3    0    0  0.36005577666E+02  0.13494509583E+02  0.11406100004E+02  0.40107387468E+02  0.51100000000E-03 0.  1.
         12    1    3    3    0    0 -0.16440253504E+02 -0.19278001578E+02 -0.13402265347E+02  0.28662588797E+02  0.00000000000E+00 0. -1.
</event>
<event>
 7    1  0.4119305E-015  0.9000777E+02  0.7816164E-02  0.1186339E+00
        -11   -1    0    0    0    0  0.00000000000E+00  0.00000000000E+00  0.45593999997E+02  0.45594000000E+02  0.51100000000E-03 0.  1.
         11   -1    0    0    0    0 -0.00000000000E+00 -0.00000000000E+00 -0.45593999997E+02  0.45594000000E+02  0.51100000000E-03 0. -1.
    9900012    2    1    2    0    0  0.10517556735E+00  0.61225669344E+00  0.10035057430E+01  0.90007769542E+02  0.90000031300E+02 0.  0.
         12    1    1    2    0    0 -0.10517556735E+00 -0.61225669344E+00 -0.10035057430E+01  0.11802304584E+01  0.00000000000E+00 0. -1.
         11    1    3    3    0    0  0.13540788315E+01  0.12733223922E+02 -0.29473504836E+01  0.13139840032E+02  0.51100000000E-03 0. -1.
        -11    1    3    3    0    0 -0.26280201422E+02 -0.24915687494E+02  0.23008794646E+02  0.42905070812E+02  0.51100000000E-03 0.  1.
         12    1    3    3    0    0  0.25031298158E+02  0.12794720265E+02 -0.19057938420E+02  0.33962858698E+02  0.00000000000E+00 0. -1.
</event>
<event>
 7    1  0.4119305E-015  0.9000768E+02  0.7816164E-02  0.1186339E+00
        -11   -1    0    0    0    0  0.00000000000E+00  0.00000000000E+00  0.45593999997E+02  0.45594000000E+02  0.51100000000E-03 0. -1.
         11   -1    0    0    0    0 -0.00000000000E+00 -0.00000000000E+00 -0.45593999997E+02  0.45594000000E+02  0.51100000000E-03 0.  1.
    9900012    2    1    2    0    0  0.66222043884E+00  0.17757151696E+00  0.96076989613E+00  0.90007683794E+02  0.89999944420E+02 0.  0.
         12    1    1    2    0    0 -0.66222043884E+00 -0.17757151696E+00 -0.96076989613E+00  0.11803162062E+01  0.00000000000E+00 0. -1.
         11    1    3    3    0    0 -0.85977297253E+01 -0.18307938849E+02  0.33102392622E+02  0.38792653671E+02  0.51100000000E-03 0. -1.
        -11    1    3    3    0    0 -0.93881144628E+01 -0.49457998314E+00  0.11285294185E+00  0.94018103881E+01  0.51100000000E-03 0.  1.
        -12    1    3    3    0    0  0.18648064627E+02  0.18980090349E+02 -0.32254475667E+02  0.41813219734E+02  0.00000000000E+00 0.  1.
</event>
<event>
 7    1  0.4119305E-015  0.9000775E+02  0.7816164E-02  0.1186339E+00
        -11   -1    0    0    0    0  0.00000000000E+00  0.00000000000E+00  0.45593999997E+02  0.45594000000E+02  0.51100000000E-03 0.  1.
         11   -1    0    0    0    0 -0.00000000000E+00 -0.00000000000E+00 -0.45593999997E+02  0.45594000000E+02  0.51100000000E-03 0. -1.
    9900012    2    1    2    0    0 -0.23973600916E+00 -0.89178049358E+00  0.73501477782E+00  0.90007748956E+02  0.90000010442E+02 0.  0.
         12    1    1    2    0    0  0.23973600916E+00  0.89178049358E+00 -0.73501477782E+00  0.11802510438E+01  0.00000000000E+00 0. -1.
         11    1    3    3    0    0 -0.29619077715E+02  0.25851186614E+02 -0.18130068469E+02  0.43292874668E+02  0.51100000000E-03 0. -1.
        -11    1    3    3    0    0  0.77630522002E+00 -0.88619149927E+01  0.53160385192E+01  0.10363225991E+02  0.51100000000E-03 0.  1.
        -12    1    3    3    0    0  0.28603036486E+02 -0.17881052115E+02  0.13549044727E+02  0.36351648298E+02  0.00000000000E+00 0.  1.
</event>
<event>
 7    1  0.4119305E-015  0.9000776E+02  0.7816164E-02  0.1186339E+00
        -11   -1    0    0    0    0  0.00000000000E+00  0.00000000000E+00  0.45593999997E+02  0.45594000000E+02  0.51100000000E-03 0.  1.
         11   -1    0    0    0    0 -0.00000000000E+00 -0.00000000000E+00 -0.45593999997E+02  0.45594000000E+02  0.51100000000E-03 0. -1.
    9900012    2    1    2    0    0 -0.90383350051E-01 -0.29929450570E+00  0.11380743194E+01  0.90007762944E+02  0.90000024615E+02 0.  0.
         12    1    1    2    0    0  0.90383350051E-01  0.29929450570E+00 -0.11380743194E+01  0.11802370556E+01  0.00000000000E+00 0. -1.
         11    1    3    3    0    0 -0.19662832864E+02 -0.24627212292E+02 -0.17309796467E+02  0.35954911145E+02  0.51100000000E-03 0. -1.
        -11    1    3    3    0    0 -0.70841679932E+01 -0.65248069345E+01  0.93111948730E+00  0.96760283923E+01  0.51100000000E-03 0.  1.
        -12    1    3    3    0    0  0.26656617507E+02  0.30852724720E+02  0.17516751299E+02  0.44376823407E+02  0.00000000000E+00 0.  1.
</event>
<event>
 7    1  0.4743454E-015  0.9000775E+02  0.7816164E-02  0.1186339E+00
        -11   -1    0    0    0    0  0.00000000000E+00  0.00000000000E+00  0.45593999997E+02  0.45594000000E+02  0.51100000000E-03 0. -1.
         11   -1    0    0    0    0 -0.00000000000E+00 -0.00000000000E+00 -0.45593999997E+02  0.45594000000E+02  0.51100000000E-03 0.  1.
    9900012    2    1    2    0    0 -0.40280358853E+00  0.97482260669E+00 -0.52958233883E+00  0.90007751171E+02  0.90000012686E+02 0.  0.
         12    1    1    2    0    0  0.40280358853E+00 -0.97482260669E+00  0.52958233883E+00  0.11802488293E+01  0.00000000000E+00 0. -1.
         11    1    3    3    0    0 -0.30999772645E+02 -0.42441262846E+01  0.23007760019E+02  0.38837553132E+02  0.51100000000E-03 0. -1.
        -11    1    3    3    0    0 -0.28006547229E+01 -0.83300968613E+01 -0.14717986432E+01  0.89106886435E+01  0.51100000000E-03 0.  1.
        -12    1    3    3    0    0  0.33397623779E+02  0.13549045753E+02 -0.22065543715E+02  0.42259509395E+02  0.00000000000E+00 0.  1.
</event>
<event>
 7    1  0.4119305E-015  0.9000754E+02  0.7816164E-02  0.1186339E+00
        -11   -1    0    0    0    0  0.00000000000E+00  0.00000000000E+00  0.45593999997E+02  0.45594000000E+02  0.51100000000E-03 0.  1.
         11   -1    0    0    0    0 -0.00000000000E+00 -0.00000000000E+00 -0.45593999997E+02  0.45594000000E+02  0.51100000000E-03 0. -1.
    9900012    2    1    2    0    0 -0.53946997584E+00 -0.95289228541E+00 -0.44097083219E+00  0.90007539566E+02  0.89999798288E+02 0.  0.
         12    1    1    2    0    0  0.53946997584E+00  0.95289228541E+00  0.44097083219E+00  0.11804604344E+01  0.00000000000E+00 0. -1.
         11    1    3    3    0    0 -0.17100024097E+01  0.67284793403E+01 -0.69165127399E+01  0.97997291400E+01  0.51100000000E-03 0. -1.
        -11    1    3    3    0    0 -0.20227659510E+02 -0.29468369574E+02 -0.18964004989E+02  0.40462037765E+02  0.51100000000E-03 0.  1.
         12    1    3    3    0    0  0.21398191944E+02  0.21786997949E+02  0.25439546897E+02  0.39745772661E+02  0.00000000000E+00 0. -1.
</event>
<event>
 7    1  0.4119305E-015  0.9000778E+02  0.7816164E-02  0.1186339E+00
        -11   -1    0    0    0    0  0.00000000000E+00  0.00000000000E+00  0.45593999997E+02  0.45594000000E+02  0.51100000000E-03 0.  1.
         11   -1    0    0    0    0 -0.00000000000E+00 -0.00000000000E+00 -0.45593999997E+02  0.45594000000E+02  0.51100000000E-03 0. -1.
    9900012    2    1    2    0    0 -0.75131153609E+00  0.90962672851E+00  0.31927745416E-01  0.90007784261E+02  0.90000046213E+02 0.  0.
         12    1    1    2    0    0  0.75131153609E+00 -0.90962672851E+00 -0.31927745416E-01  0.11802157389E+01  0.00000000000E+00 0. -1.
         11    1    3    3    0    0  0.80517035935E+01  0.36491794778E+01 -0.14079481786E+02  0.16624627792E+02  0.51100000000E-03 0. -1.
        -11    1    3    3    0    0 -0.10865207393E+02  0.24266386364E+02 -0.17442984106E+02  0.31798866861E+02  0.51100000000E-03 0.  1.
         12    1    3    3    0    0  0.20621922636E+01 -0.27005939114E+02  0.31554393637E+02  0.41584289607E+02  0.00000000000E+00 0. -1.
</event>
<event>
 7    1  0.4119305E-015  0.9000764E+02  0.7816164E-02  0.1186339E+00
        -11   -1    0    0    0    0  0.00000000000E+00  0.00000000000E+00  0.45593999997E+02  0.45594000000E+02  0.51100000000E-03 0. -1.
         11   -1    0    0    0    0 -0.00000000000E+00 -0.00000000000E+00 -0.45593999997E+02  0.45594000000E+02  0.51100000000E-03 0.  1.
    9900012    2    1    2    0    0 -0.99696664864E+00  0.20555681024E+00 -0.59753516158E+00  0.90007642270E+02  0.89999902348E+02 0.  0.
         12    1    1    2    0    0  0.99696664864E+00 -0.20555681024E+00  0.59753516158E+00  0.11803577297E+01  0.00000000000E+00 0. -1.
         11    1    3    3    0    0  0.22002947431E+00 -0.57681670702E+01 -0.93372684250E+01  0.10977465382E+02  0.51100000000E-03 0. -1.
        -11    1    3    3    0    0  0.84539270787E+01  0.11200626317E+02 -0.33003876758E+02  0.35863334957E+02  0.51100000000E-03 0.  1.
         12    1    3    3    0    0 -0.96709232016E+01 -0.52269024363E+01  0.41743610021E+02  0.43166841931E+02  0.00000000000E+00 0. -1.
</event>
<event>
 7    1  0.4119305E-015  0.9000714E+02  0.7816164E-02  0.1186340E+00
        -11   -1    0    0    0    0  0.00000000000E+00  0.00000000000E+00  0.45593999997E+02  0.45594000000E+02  0.51100000000E-03 0. -1.
         11   -1    0    0    0    0 -0.00000000000E+00 -0.00000000000E+00 -0.45593999997E+02  0.45594000000E+02  0.51100000000E-03 0.  1.
    9900012    2    1    2    0    0  0.10077958922E+01  0.61545719368E+00 -0.94569766125E-03  0.90007135481E+02  0.89999388867E+02 0.  0.
         12    1    1    2    0    0 -0.10077958922E+01 -0.61545719368E+00  0.94569766124E-03  0.11808645189E+01  0.00000000000E+00 0. -1.
         11    1    3    3    0    0 -0.23900285911E+02  0.33697210964E+02  0.61647563262E+01  0.41769964259E+02  0.51100000000E-03 0. -1.
        -11    1    3    3    0    0 -0.10985483227E+01 -0.46751919791E+01  0.61496439738E+01  0.78027142537E+01  0.51100000000E-03 0.  1.
        -12    1    3    3    0    0  0.26006630126E+02 -0.28406561791E+02 -0.12315345998E+02  0.40434456969E+02  0.00000000000E+00 0.  1.
</event>
<event>
 7    1  0.4119305E-015  0.9000769E+02  0.7816164E-02  0.1186339E+00
        -11   -1    0    0    0    0  0.00000000000E+00  0.00000000000E+00  0.45593999997E+02  0.45594000000E+02  0.51100000000E-03 0.  1.
         11   -1    0    0    0    0 -0.00000000000E+00 -0.00000000000E+00 -0.45593999997E+02  0.45594000000E+02  0.51100000000E-03 0. -1.
    9900012    2    1    2    0    0  0.14924381411E+00  0.11467063609E+01  0.23646497548E+00  0.90007692888E+02  0.89999953634E+02 0.  0.
         12    1    1    2    0    0 -0.14924381411E+00 -0.11467063609E+01 -0.23646497548E+00  0.11803071120E+01  0.00000000000E+00 0. -1.
         11    1    3    3    0    0  0.12997596462E+02  0.22212178949E+02 -0.27224572792E+02  0.37463258954E+02  0.51100000000E-03 0. -1.
        -11    1    3    3    0    0 -0.27459979506E+01  0.10508850652E+02  0.27718302138E+01  0.11209794367E+02  0.51100000000E-03 0.  1.
        -12    1    3    3    0    0 -0.10102354697E+02 -0.31574323240E+02  0.24689207554E+02  0.41334639567E+02  0.00000000000E+00 0.  1.
</event>
<event>
 7    1  0.4119305E-015  0.9000749E+02  0.7816164E-02  0.1186340E+00
        -11   -1    0    0    0    0  0.00000000000E+00  0.00000000000E+00  0.45593999997E+02  0.45594000000E+02  0.51100000000E-03 0.  1.
         11   -1    0    0    0    0 -0.00000000000E+00 -0.00000000000E+00 -0.45593999997E+02  0.45594000000E+02  0.51100000000E-03 0. -1.
    9900012    2    1    2    0    0  0.58702116221E+00  0.10211781411E+01 -0.78819969969E-01  0.90007486879E+02  0.89999744906E+02 0.  0.
         12    1    1    2    0    0 -0.58702116221E+00 -0.10211781411E+01  0.78819969969E-01  0.11805131209E+01  0.00000000000E+00 0. -1.
         11    1    3    3    0    0  0.16973989868E+02 -0.25225690929E+02 -0.14015583914E+02  0.33479671557E+02  0.51100000000E-03 0. -1.
        -11    1    3    3    0    0  0.42186672305E+01 -0.94584669464E+01 -0.45940983927E+01  0.11329849535E+02  0.51100000000E-03 0.  1.
        -12    1    3    3    0    0 -0.20605635936E+02  0.35705336016E+02  0.18530862337E+02  0.45197965787E+02  0.00000000000E+00 0.  1.
</event>
<event>
 7    1  0.4119305E-015  0.9000794E+02  0.7816164E-02  0.1186339E+00
        -11   -1    0    0    0    0  0.00000000000E+00  0.00000000000E+00  0.45593999997E+02  0.45594000000E+02  0.51100000000E-03 0.  1.
         11   -1    0    0    0    0 -0.00000000000E+00 -0.00000000000E+00 -0.45593999997E+02  0.45594000000E+02  0.51100000000E-03 0. -1.
    9900012    2    1    2    0    0  0.13311249187E+00  0.55801115716E+00  0.10312363422E+01  0.90007939078E+02  0.90000203073E+02 0.  0.
         12    1    1    2    0    0 -0.13311249187E+00 -0.55801115716E+00 -0.10312363422E+01  0.11800609223E+01  0.00000000000E+00 0. -1.
         11    1    3    3    0    0 -0.20023055216E+02  0.31770742446E+02  0.10679669869E+02  0.39043029654E+02  0.51100000000E-03 0. -1.
        -11    1    3    3    0    0 -0.10064727820E+01  0.44787205639E+01 -0.82576493707E+01  0.94477880343E+01  0.51100000000E-03 0.  1.
        -12    1    3    3    0    0  0.21162640490E+02 -0.35691451853E+02 -0.13907841558E+01  0.41517121389E+02  0.00000000000E+00 0.  1.
</event>
<event>
 7    1  0.4119305E-015  0.9000763E+02  0.7816164E-02  0.1186339E+00
        -11   -1    0    0    0    0  0.00000000000E+00  0.00000000000E+00  0.45593999997E+02  0.45594000000E+02  0.51100000000E-03 0.  1.
         11   -1    0    0    0    0 -0.00000000000E+00 -0.00000000000E+00 -0.45593999997E+02  0.45594000000E+02  0.51100000000E-03 0. -1.
    9900012    2    1    2    0    0 -0.51902954895E+00  0.87196564381E+00  0.60295526976E+00  0.90007631069E+02  0.89999890999E+02 0.  0.
         12    1    1    2    0    0  0.51902954895E+00 -0.87196564381E+00 -0.60295526976E+00  0.11803689313E+01  0.00000000000E+00 0. -1.
         11    1    3    3    0    0  0.38008941520E+01  0.60521900669E+01 -0.53945401176E+01  0.89541534665E+01  0.51100000000E-03 0. -1.
        -11    1    3    3    0    0  0.81647534068E+01 -0.39861565387E+02  0.14553298378E+02  0.43213494273E+02  0.51100000000E-03 0.  1.
         12    1    3    3    0    0 -0.12484677108E+02  0.34681340964E+02 -0.85558029909E+01  0.37839983329E+02  0.00000000000E+00 0. -1.
</event>
<event>
 7    1  0.4119305E-015  0.9000780E+02  0.7816164E-02  0.1186339E+00
        -11   -1    0    0    0    0  0.00000000000E+00  0.00000000000E+00  0.45593999997E+02  0.45594000000E+02  0.51100000000E-03 0.  1.
         11   -1    0    0    0    0 -0.00000000000E+00 -0.00000000000E+00 -0.45593999997E+02  0.45594000000E+02  0.51100000000E-03 0. -1.
    9900012    2    1    2    0    0 -0.76134712318E+00 -0.82908115270E+00  0.35473767187E+00  0.90007803484E+02  0.90000065690E+02 0.  0.
         12    1    1    2    0    0  0.76134712318E+00  0.82908115270E+00 -0.35473767187E+00  0.11801965157E+01  0.00000000000E+00 0. -1.
         11    1    3    3    0    0 -0.10877445052E+01  0.78057994659E+01 -0.36279317083E+01  0.86761501919E+01  0.51100000000E-03 0. -1.
        -11    1    3    3    0    0  0.39179539408E+02 -0.68228776795E+01 -0.81343962000E+01  0.40592565450E+02  0.51100000000E-03 0.  1.
         12    1    3    3    0    0 -0.38853142026E+02 -0.18120029392E+01  0.12117065580E+02  0.40739087842E+02  0.00000000000E+00 0. -1.
</event>
<event>
 7    1  0.4119305E-015  0.9000854E+02  0.7816164E-02  0.1186337E+00
        -11   -1    0    0    0    0  0.00000000000E+00  0.00000000000E+00  0.45593999997E+02  0.45594000000E+02  0.51100000000E-03 0.  1.
         11   -1    0    0    0    0 -0.00000000000E+00 -0.00000000000E+00 -0.45593999997E+02  0.45594000000E+02  0.51100000000E-03 0. -1.
    9900012    2    1    2    0    0 -0.11090736659E+01 -0.40131857960E+00 -0.37868820312E-02  0.90008544473E+02  0.90000816457E+02 0.  0.
         12    1    1    2    0    0  0.11090736659E+01  0.40131857960E+00  0.37868820312E-02  0.11794555265E+01  0.00000000000E+00 0. -1.
         11    1    3    3    0    0  0.25895059025E+01  0.94064850543E+01  0.26966537581E+01  0.10122225232E+02  0.51100000000E-03 0. -1.
        -11    1    3    3    0    0  0.53190102998E+01 -0.15685024986E+02  0.36047932908E+02  0.39670711445E+02  0.51100000000E-03 0.  1.
         12    1    3    3    0    0 -0.90175898681E+01  0.58772213522E+01 -0.38748373548E+02  0.40215607796E+02  0.00000000000E+00 0. -1.
</event>
<event>
 7    1  0.4119305E-015  0.9000772E+02  0.7816164E-02  0.1186339E+00
        -11   -1    0    0    0    0  0.00000000000E+00  0.00000000000E+00  0.45593999997E+02  0.45594000000E+02  0.51100000000E-03 0. -1.
         11   -1    0    0    0    0 -0.00000000000E+00 -0.00000000000E+00 -0.45593999997E+02  0.45594000000E+02  0.51100000000E-03 0.  1.
    9900012    2    1    2    0    0 -0.92018159837E+00  0.13124253084E+00  0.72739961828E+00  0.90007716568E+02  0.89999977626E+02 0.  0.
         12    1    1    2    0    0  0.92018159837E+00 -0.13124253084E+00 -0.72739961828E+00  0.11802834323E+01  0.00000000000E+00 0. -1.
         11    1    3    3    0    0 -0.27055733529E+02  0.30951141467E+02 -0.41659218399E+01  0.41319980396E+02  0.51100000000E-03 0. -1.
        -11    1    3    3    0    0  0.22525082165E+01  0.12038276251E+01 -0.66342201447E+01  0.71088586571E+01  0.51100000000E-03 0.  1.
        -12    1    3    3    0    0  0.23883043714E+02 -0.32023726561E+02  0.11527541603E+02  0.41578877514E+02  0.00000000000E+00 0.  1.
</event>
<event>
 7    1  0.4119305E-015  0.9000781E+02  0.7816164E-02  0.1186339E+00
        -11   -1    0    0    0    0  0.00000000000E+00  0.00000000000E+00  0.45593999997E+02  0.45594000000E+02  0.51100000000E-03 0. -1.
         11   -1    0    0    0    0 -0.00000000000E+00 -0.00000000000E+00 -0.45593999997E+02  0.45594000000E+02  0.51100000000E-03 0.  1.
    9900012    2    1    2    0    0  0.27896904824E+00  0.52432652304E+00 -0.10198549271E+01  0.90007810988E+02  0.90000073293E+02 0.  0.
         12    1    1    2    0    0 -0.27896904824E+00 -0.52432652304E+00  0.10198549271E+01  0.11801890124E+01  0.00000000000E+00 0. -1.
         11    1    3    3    0    0 -0.12018051236E+00  0.18369192106E+01 -0.94039932950E+01  0.95824738818E+01  0.51100000000E-03 0. -1.
        -11    1    3    3    0    0 -0.19518064554E+02 -0.13855095826E+02 -0.28159378136E+02  0.36957666343E+02  0.51100000000E-03 0.  1.
         12    1    3    3    0    0  0.19917214115E+02  0.12542503139E+02  0.36543516504E+02  0.43467670763E+02  0.00000000000E+00 0. -1.
</event>
<event>
 7    1  0.4119305E-015  0.9000774E+02  0.7816164E-02  0.1186339E+00
        -11   -1    0    0    0    0  0.00000000000E+00  0.00000000000E+00  0.45593999997E+02  0.45594000000E+02  0.51100000000E-03 0.  1.
         11   -1    0    0    0    0 -0.00000000000E+00 -0.00000000000E+00 -0.45593999997E+02  0.45594000000E+02  0.51100000000E-03 0. -1.
    9900012    2    1    2    0    0 -0.52036687771E+00 -0.74601692508E+00  0.75212601815E+00  0.90007738806E+02  0.90000000158E+02 0.  0.
         12    1    1    2    0    0  0.52036687771E+00  0.74601692508E+00 -0.75212601815E+00  0.11802611944E+01  0.00000000000E+00 0. -1.
         11    1    3    3    0    0 -0.10601537689E+02  0.16052508181E+02 -0.18552232820E+02  0.26725661135E+02  0.51100000000E-03 0. -1.
        -11    1    3    3    0    0 -0.10901171387E+02 -0.77355858497E+01 -0.16233666950E+02  0.21028712964E+02  0.51100000000E-03 0.  1.
        -12    1    3    3    0    0  0.20982342198E+02 -0.90629392564E+01  0.35538025788E+02  0.42253364706E+02  0.00000000000E+00 0.  1.
</event>
<event>
 7    1  0.4119305E-015  0.9000783E+02  0.7816164E-02  0.1186339E+00
        -11   -1    0    0    0    0  0.00000000000E+00  0.00000000000E+00  0.45593999997E+02  0.45594000000E+02  0.51100000000E-03 0.  1.
         11   -1    0    0    0    0 -0.00000000000E+00 -0.00000000000E+00 -0.45593999997E+02  0.45594000000E+02  0.51100000000E-03 0. -1.
    9900012    2    1    2    0    0  0.66509617626E+00  0.46507444924E+00  0.85683128963E+00  0.90007827544E+02  0.90000090068E+02 0.  0.
         12    1    1    2    0    0 -0.66509617626E+00 -0.46507444924E+00 -0.85683128963E+00  0.11801724560E+01  0.00000000000E+00 0. -1.
         11    1    3    3    0    0  0.32073612175E+02 -0.82407291315E+01  0.19605804607E+02  0.38483941964E+02  0.51100000000E-03 0. -1.
        -11    1    3    3    0    0 -0.33782954513E+00 -0.39886981552E+01  0.77748194596E+01  0.87448075831E+01  0.51100000000E-03 0.  1.
        -12    1    3    3    0    0 -0.31070686453E+02  0.12694501736E+02 -0.26523792777E+02  0.42779077997E+02  0.00000000000E+00 0.  1.
</event>
<event>
 7    1  0.4119305E-015  0.9000775E+02  0.7816164E-02  0.1186339E+00
        -11   -1    0    0    0    0  0.00000000000E+00  0.00000000000E+00  0.45593999997E+02  0.45594000000E+02  0.51100000000E-03 0.  1.
         11   -1    0    0    0    0 -0.00000000000E+00 -0.00000000000E+00 -0.45593999997E+02  0.45594000000E+02  0.51100000000E-03 0. -1.
    9900012    2    1    2    0    0 -0.77421936773E+00 -0.29935638104E+00  0.83902511034E+00  0.90007748752E+02  0.90000010236E+02 0.  0.
         12    1    1    2    0    0  0.77421936773E+00  0.29935638104E+00 -0.83902511034E+00  0.11802512478E+01  0.00000000000E+00 0. -1.
         11    1    3    3    0    0  0.10755455608E+02  0.24406746553E+02 -0.10080584827E+02  0.28512932037E+02  0.51100000000E-03 0. -1.
        -11    1    3    3    0    0 -0.88524705570E+01  0.63954729532E+01  0.24976151339E+02  0.27259428556E+02  0.51100000000E-03 0.  1.
        -12    1    3    3    0    0 -0.26772044184E+01 -0.31101575888E+02 -0.14056541401E+02  0.34235388158E+02  0.00000000000E+00 0.  1.
</event>
<event>
 7    1  0.4119305E-015  0.9000783E+02  0.7816164E-02  0.1186339E+00
        -11   -1    0    0    0    0  0.00000000000E+00  0.00000000000E+00  0.45593999997E+02  0.45594000000E+02  0.51100000000E-03 0. -1.
         11   -1    0    0    0    0 -0.00000000000E+00 -0.00000000000E+00 -0.45593999997E+02  0.45594000000E+02  0.51100000000E-03 0.  1.
    9900012    2    1    2    0    0  0.16681144529E+00  0.11662834838E+01 -0.69062574947E-01  0.90007825071E+02  0.90000087562E+02 0.  0.
         12    1    1    2    0    0 -0.16681144529E+00 -0.11662834838E+01  0.69062574947E-01  0.11801749286E+01  0.00000000000E+00 0. -1.
         11    1    3    3    0    0  0.12727977985E+01 -0.91481906154E+01  0.32106183723E+01  0.97784189092E+01  0.51100000000E-03 0. -1.
        -11    1    3    3    0    0  0.56350645527E+01 -0.19424830746E+02 -0.32315465611E+02  0.38123054966E+02  0.51100000000E-03 0.  1.
         12    1    3    3    0    0 -0.67410509059E+01  0.29739304845E+02  0.29035784664E+02  0.42106351196E+02  0.00000000000E+00 0. -1.
</event>
<event>
 7    1  0.4119305E-015  0.9000749E+02  0.7816164E-02  0.1186340E+00
        -11   -1    0    0    0    0  0.00000000000E+00  0.00000000000E+00  0.45593999997E+02  0.45594000000E+02  0.51100000000E-03 0. -1.
         11   -1    0    0    0    0 -0.00000000000E+00 -0.00000000000E+00 -0.45593999997E+02  0.45594000000E+02  0.51100000000E-03 0.  1.
    9900012    2    1    2    0    0 -0.11710578185E+01 -0.97553772405E-01  0.11274922538E+00  0.90007489288E+02  0.89999747346E+02 0.  0.
         12    1    1    2    0    0  0.11710578185E+01  0.97553772405E-01 -0.11274922538E+00  0.11805107118E+01  0.00000000000E+00 0. -1.
         11    1    3    3    0    0 -0.11543979767E+01  0.81707938407E+01  0.39053541891E+02  0.39915831961E+02  0.51100000000E-03 0. -1.
        -11    1    3    3    0    0  0.39799619818E+01 -0.13560302285E+02 -0.42281580076E+01  0.14751244552E+02  0.51100000000E-03 0.  1.
        -12    1    3    3    0    0 -0.39966218236E+01  0.52919546719E+01 -0.34712634658E+02  0.35340412775E+02  0.00000000000E+00 0.  1.
</event>
<event>
 7    1  0.4119305E-015  0.9000788E+02  0.7816164E-02  0.1186339E+00
        -11   -1    0    0    0    0  0.00000000000E+00  0.00000000000E+00  0.45593999997E+02  0.45594000000E+02  0.51100000000E-03 0. -1.
         11   -1    0    0    0    0 -0.00000000000E+00 -0.00000000000E+00 -0.45593999997E+02  0.45594000000E+02  0.51100000000E-03 0.  1.
    9900012    2    1    2    0    0 -0.85062154401E+00  0.78382467427E+00 -0.23397407465E+00  0.90007880515E+02  0.90000143738E+02 0.  0.
         12    1    1    2    0    0  0.85062154401E+00 -0.78382467427E+00  0.23397407465E+00  0.11801194849E+01  0.00000000000E+00 0. -1.
         11    1    3    3    0    0  0.30913952387E+01 -0.89609289729E+01  0.28013138152E+00  0.94833246508E+01  0.51100000000E-03 0. -1.
        -11    1    3    3    0    0 -0.12807765012E+02 -0.25021968771E+02  0.24089763542E+02  0.37019649830E+02  0.51100000000E-03 0.  1.
         12    1    3    3    0    0  0.88657482293E+01  0.34766722418E+02 -0.24603868998E+02  0.43504906034E+02  0.00000000000E+00 0. -1.
</event>
<event>
 7    1  0.4119305E-015  0.9000775E+02  0.7816164E-02  0.1186339E+00
        -11   -1    0    0    0    0  0.00000000000E+00  0.00000000000E+00  0.45593999997E+02  0.45594000000E+02  0.51100000000E-03 0.  1.
         11   -1    0    0    0    0 -0.00000000000E+00 -0.00000000000E+00 -0.45593999997E+02  0.45594000000E+02  0.51100000000E-03 0. -1.
    9900012    2    1    2    0    0  0.44290179500E+00  0.83209127981E+00  0.71025545073E+00  0.90007745492E+02  0.90000006933E+02 0.  0.
         12    1    1    2    0    0 -0.44290179500E+00 -0.83209127981E+00 -0.71025545073E+00  0.11802545078E+01  0.00000000000E+00 0. -1.
         11    1    3    3    0    0 -0.31558943689E+02 -0.20610439912E+02  0.79378300898E+01  0.38519687264E+02  0.51100000000E-03 0. -1.
        -11    1    3    3    0    0 -0.28391018537E+01 -0.14709999836E+01 -0.92012359318E+01  0.97410001141E+01  0.51100000000E-03 0.  1.
        -12    1    3    3    0    0  0.34840947337E+02  0.22913531176E+02  0.19736612928E+01  0.41747058114E+02  0.00000000000E+00 0.  1.
</event>
<event>
 7    1  0.4119305E-015  0.9000778E+02  0.7816164E-02  0.1186339E+00
        -11   -1    0    0    0    0  0.00000000000E+00  0.00000000000E+00  0.45593999997E+02  0.45594000000E+02  0.51100000000E-03 0.  1.
         11   -1    0    0    0    0 -0.00000000000E+00 -0.00000000000E+00 -0.45593999997E+02  0.45594000000E+02  0.51100000000E-03 0. -1.
    9900012    2    1    2    0    0 -0.85840924778E+00 -0.50285766688E+00  0.63496462569E+00  0.90007782924E+02  0.90000044859E+02 0.  0.
         12    1    1    2    0    0  0.85840924778E+00  0.50285766688E+00 -0.63496462569E+00  0.11802170757E+01  0.00000000000E+00 0. -1.
         11    1    3    3    0    0  0.26779589653E+02 -0.18685807169E+02 -0.16970777652E+02  0.36800993274E+02  0.51100000000E-03 0. -1.
        -11    1    3    3    0    0  0.50809699962E+01  0.11216148005E+01 -0.70978999238E+01  0.88008215214E+01  0.51100000000E-03 0.  1.
        -12    1    3    3    0    0 -0.32718968897E+02  0.17061334701E+02  0.24703642202E+02  0.44405968129E+02  0.00000000000E+00 0.  1.
</event>
<event>
 7    1  0.4119305E-015  0.9000777E+02  0.7816164E-02  0.1186339E+00
        -11   -1    0    0    0    0  0.00000000000E+00  0.00000000000E+00  0.45593999997E+02  0.45594000000E+02  0.51100000000E-03 0.  1.
         11   -1    0    0    0    0 -0.00000000000E+00 -0.00000000000E+00 -0.45593999997E+02  0.45594000000E+02  0.51100000000E-03 0. -1.
    9900012    2    1    2    0    0 -0.52012819053E+00  0.90223075026E+00 -0.55533644898E+00  0.90007766026E+02  0.90000027738E+02 0.  0.
         12    1    1    2    0    0  0.52012819053E+00 -0.90223075026E+00  0.55533644898E+00  0.11802339738E+01  0.00000000000E+00 0. -1.
         11    1    3    3    0    0  0.23189417072E+02 -0.20711113365E+02 -0.21820415659E+02  0.37984599784E+02  0.51100000000E-03 0. -1.
        -11    1    3    3    0    0  0.85811402644E+01 -0.51373909938E-01  0.43003628715E+01  0.95985274185E+01  0.51100000000E-03 0.  1.
        -12    1    3    3    0    0 -0.32290685527E+02  0.21664718025E+02  0.16964716338E+02  0.42424638824E+02  0.00000000000E+00 0.  1.
</event>
<event>
 7    1  0.4119305E-015  0.9000772E+02  0.7816164E-02  0.1186339E+00
        -11   -1    0    0    0    0  0.00000000000E+00  0.00000000000E+00  0.45593999997E+02  0.45594000000E+02  0.51100000000E-03 0.  1.
         11   -1    0    0    0    0 -0.00000000000E+00 -0.00000000000E+00 -0.45593999997E+02  0.45594000000E+02  0.51100000000E-03 0. -1.
    9900012    2    1    2    0    0  0.11844250534E-01  0.68741087510E+00  0.95936878445E+00  0.90007719329E+02  0.89999980424E+02 0.  0.
         12    1    1    2    0    0 -0.11844250534E-01 -0.68741087510E+00 -0.95936878445E+00  0.11802806709E+01  0.00000000000E+00 0. -1.
         11    1    3    3    0    0 -0.14160612093E+02 -0.44387158783E+01  0.19912024014E+01  0.14972976349E+02  0.51100000000E-03 0. -1.
        -11    1    3    3    0    0  0.87356886790E+01  0.26614262099E+02 -0.28350889532E+02  0.39854788185E+02  0.51100000000E-03 0.  1.
         12    1    3    3    0    0  0.54367676645E+01 -0.21488135345E+02  0.27319055915E+02  0.35179954795E+02  0.00000000000E+00 0. -1.
</event>
<event>
 7    1  0.4119305E-015  0.9000776E+02  0.7816164E-02  0.1186339E+00
        -11   -1    0    0    0    0  0.00000000000E+00  0.00000000000E+00  0.45593999997E+02  0.45594000000E+02  0.51100000000E-03 0.  1.
         11   -1    0    0    0    0 -0.00000000000E+00 -0.00000000000E+00 -0.45593999997E+02  0.45594000000E+02  0.51100000000E-03 0. -1.
    9900012    2    1    2    0    0 -0.11102343104E+01 -0.27633303259E+00 -0.28978818752E+00  0.90007763853E+02  0.90000025536E+02 0.  0.
         12    1    1    2    0    0  0.11102343104E+01  0.27633303259E+00  0.28978818752E+00  0.11802361470E+01  0.00000000000E+00 0. -1.
         11    1    3    3    0    0  0.55990049206E+01  0.22844972064E+02 -0.33546805616E+02  0.40971084584E+02  0.51100000000E-03 0. -1.
        -11    1    3    3    0    0 -0.67141359056E+01 -0.53501903170E+01 -0.26397941168E+01  0.89817966258E+01  0.51100000000E-03 0.  1.
        -12    1    3    3    0    0  0.48966745479E-02 -0.17771114779E+02  0.35896811545E+02  0.40054882643E+02  0.00000000000E+00 0.  1.
</event>
<event>
 7    1  0.4119305E-015  0.9000774E+02  0.7816164E-02  0.1186339E+00
        -11   -1    0    0    0    0  0.00000000000E+00  0.00000000000E+00  0.45593999997E+02  0.45594000000E+02  0.51100000000E-03 0. -1.
         11   -1    0    0    0    0 -0.00000000000E+00 -0.00000000000E+00 -0.45593999997E+02  0.45594000000E+02  0.51100000000E-03 0.  1.
    9900012    2    1    2    0    0  0.92857628290E+00  0.63673995859E+00  0.35401034558E+00  0.90007739430E+02  0.90000000791E+02 0.  0.
         12    1    1    2    0    0 -0.92857628290E+00 -0.63673995859E+00 -0.35401034558E+00  0.11802605699E+01  0.00000000000E+00 0. -1.
         11    1    3    3    0    0 -0.10652043645E+02  0.24125931014E+01  0.19015361937E+01  0.11086139068E+02  0.51100000000E-03 0. -1.
        -11    1    3    3    0    0 -0.20599099419E+02  0.19200431144E+01 -0.29571617552E+02  0.36090026702E+02  0.51100000000E-03 0.  1.
         12    1    3    3    0    0  0.32179719347E+02 -0.36958962572E+01  0.28024091704E+02  0.42831573660E+02  0.00000000000E+00 0. -1.
</event>
<event>
 7    1  0.4119305E-015  0.9000774E+02  0.7816164E-02  0.1186339E+00
        -11   -1    0    0    0    0  0.00000000000E+00  0.00000000000E+00  0.45593999997E+02  0.45594000000E+02  0.51100000000E-03 0. -1.
         11   -1    0    0    0    0 -0.00000000000E+00 -0.00000000000E+00 -0.45593999997E+02  0.45594000000E+02  0.51100000000E-03 0.  1.
    9900012    2    1    2    0    0 -0.89354611864E+00 -0.62678471643E+00 -0.44913583836E+00  0.90007742931E+02  0.90000004338E+02 0.  0.
         12    1    1    2    0    0  0.89354611864E+00  0.62678471643E+00  0.44913583836E+00  0.11802570687E+01  0.00000000000E+00 0. -1.
         11    1    3    3    0    0 -0.24705907542E+01  0.35471862589E+01  0.11149076777E+02  0.11957769954E+02  0.51100000000E-03 0. -1.
        -11    1    3    3    0    0  0.33762156371E+02 -0.17898855263E+02 -0.18389170040E+02  0.42407709176E+02  0.51100000000E-03 0.  1.
         12    1    3    3    0    0 -0.32185111736E+02  0.13724884287E+02  0.67909574244E+01  0.35642263801E+02  0.00000000000E+00 0. -1.
</event>
<event>
 7    1  0.4119305E-015  0.9000776E+02  0.7816164E-02  0.1186339E+00
        -11   -1    0    0    0    0  0.00000000000E+00  0.00000000000E+00  0.45593999997E+02  0.45594000000E+02  0.51100000000E-03 0.  1.
         11   -1    0    0    0    0 -0.00000000000E+00 -0.00000000000E+00 -0.45593999997E+02  0.45594000000E+02  0.51100000000E-03 0. -1.
    9900012    2    1    2    0    0 -0.59598911991E+00  0.76580623188E+00  0.67179507219E+00  0.90007758146E+02  0.90000019753E+02 0.  0.
         12    1    1    2    0    0  0.59598911991E+00 -0.76580623188E+00 -0.67179507219E+00  0.11802418544E+01  0.00000000000E+00 0. -1.
         11    1    3    3    0    0  0.76719577556E+01  0.66838723658E+01  0.29738591357E+01  0.10600798273E+02  0.51100000000E-03 0. -1.
        -11    1    3    3    0    0 -0.96341477132E+01  0.28884945237E+02 -0.23650445282E+02  0.38555160819E+02  0.51100000000E-03 0.  1.
         12    1    3    3    0    0  0.13662008376E+01 -0.34803011371E+02  0.21348381218E+02  0.40851799053E+02  0.00000000000E+00 0. -1.
</event>
<event>
 7    1  0.4119305E-015  0.9000765E+02  0.7816164E-02  0.1186339E+00
        -11   -1    0    0    0    0  0.00000000000E+00  0.00000000000E+00  0.45593999997E+02  0.45594000000E+02  0.51100000000E-03 0. -1.
         11   -1    0    0    0    0 -0.00000000000E+00 -0.00000000000E+00 -0.45593999997E+02  0.45594000000E+02  0.51100000000E-03 0.  1.
    9900012    2    1    2    0    0  0.68505851321E+00  0.95923044178E+00  0.61722901083E-01  0.90007645001E+02  0.89999905115E+02 0.  0.
         12    1    1    2    0    0 -0.68505851321E+00 -0.95923044178E+00 -0.61722901083E-01  0.11803549989E+01  0.00000000000E+00 0. -1.
         11    1    3    3    0    0 -0.78805898504E+01 -0.28411349269E+01  0.20489513167E+01  0.86240330369E+01  0.51100000000E-03 0. -1.
        -11    1    3    3    0    0 -0.19065228062E+02 -0.23786680868E+02 -0.21918074604E+02  0.37545853332E+02  0.51100000000E-03 0.  1.
         12    1    3    3    0    0  0.27630876426E+02  0.27587046237E+02  0.19930846189E+02  0.43837758632E+02  0.00000000000E+00 0. -1.
</event>
<event>
 7    1  0.4119305E-015  0.9000770E+02  0.7816164E-02  0.1186339E+00
        -11   -1    0    0    0    0  0.00000000000E+00  0.00000000000E+00  0.45593999997E+02  0.45594000000E+02  0.51100000000E-03 0. -1.
         11   -1    0    0    0    0 -0.00000000000E+00 -0.00000000000E+00 -0.45593999997E+02  0.45594000000E+02  0.51100000000E-03 0.  1.
    9900012    2    1    2    0    0  0.79440986401E+00 -0.55532906472E+00  0.67351789458E+00  0.90007701836E+02  0.89999962700E+02 0.  0.
         12    1    1    2    0    0 -0.79440986401E+00  0.55532906472E+00 -0.67351789458E+00  0.11802981642E+01  0.00000000000E+00 0. -1.
         11    1    3    3    0    0 -0.40371883238E+01 -0.69749292569E+01 -0.40948536080E+01  0.90397098423E+01  0.51100000000E-03 0. -1.
        -11    1    3    3    0    0 -0.28871643794E+02 -0.22234454768E+02 -0.29039294581E+00  0.36442106450E+02  0.51100000000E-03 0.  1.
         12    1    3    3    0    0  0.33703241981E+02  0.28654054960E+02  0.50587644483E+01  0.44525885544E+02  0.00000000000E+00 0. -1.
</event>
<event>
 7    1  0.4119305E-015  0.9000775E+02  0.7816164E-02  0.1186339E+00
        -11   -1    0    0    0    0  0.00000000000E+00  0.00000000000E+00  0.45593999997E+02  0.45594000000E+02  0.51100000000E-03 0.  1.
         11   -1    0    0    0    0 -0.00000000000E+00 -0.00000000000E+00 -0.45593999997E+02  0.45594000000E+02  0.51100000000E-03 0. -1.
    9900012    2    1    2    0    0 -0.72183115717E+00 -0.92944261023E+00  0.89886227672E-01  0.90007752857E+02  0.90000014394E+02 0.  0.
         12    1    1    2    0    0  0.72183115717E+00  0.92944261023E+00 -0.89886227672E-01  0.11802471432E+01  0.00000000000E+00 0. -1.
         11    1    3    3    0    0  0.21098924911E+02  0.31964687137E+02  0.13110854473E+02  0.40482099272E+02  0.51100000000E-03 0. -1.
        -11    1    3    3    0    0 -0.30949449320E+01 -0.59538369110E+01  0.80905642069E+01  0.10511141115E+02  0.51100000000E-03 0.  1.
        -12    1    3    3    0    0 -0.18725811136E+02 -0.26940292836E+02 -0.21111532452E+02  0.39014512470E+02  0.00000000000E+00 0.  1.
</event>
<event>
 7    1  0.4119305E-015  0.9000746E+02  0.7816164E-02  0.1186340E+00
        -11   -1    0    0    0    0  0.00000000000E+00  0.00000000000E+00  0.45593999997E+02  0.45594000000E+02  0.51100000000E-03 0. -1.
         11   -1    0    0    0    0 -0.00000000000E+00 -0.00000000000E+00 -0.45593999997E+02  0.45594000000E+02  0.51100000000E-03 0.  1.
    9900012    2    1    2    0    0 -0.66287669545E+00 -0.90583311547E+00 -0.36568493264E+00  0.90007464267E+02  0.89999721995E+02 0.  0.
         12    1    1    2    0    0  0.66287669545E+00  0.90583311547E+00  0.36568493264E+00  0.11805357328E+01  0.00000000000E+00 0. -1.
         11    1    3    3    0    0  0.23741381996E+02 -0.17236945286E+02  0.20144479126E+02  0.35588840124E+02  0.51100000000E-03 0. -1.
        -11    1    3    3    0    0  0.10566239156E+02  0.33934552207E+01  0.13762995199E+01  0.11182805947E+02  0.51100000000E-03 0.  1.
        -12    1    3    3    0    0 -0.34970497847E+02  0.12937656949E+02 -0.21886463579E+02  0.43235818195E+02  0.00000000000E+00 0.  1.
</event>
<event>
 7    1  0.4119305E-015  0.9000770E+02  0.7816164E-02  0.1186339E+00
        -11   -1    0    0    0    0  0.00000000000E+00  0.00000000000E+00  0.45593999997E+02  0.45594000000E+02  0.51100000000E-03 0.  1.
         11   -1    0    0    0    0 -0.00000000000E+00 -0.00000000000E+00 -0.45593999997E+02  0.45594000000E+02  0.51100000000E-03 0. -1.
    9900012    2    1    2    0    0 -0.11432839836E+01  0.22911788027E+00  0.18305251930E+00  0.90007702794E+02  0.89999963671E+02 0.  0.
         12    1    1    2    0    0  0.11432839836E+01 -0.22911788027E+00 -0.18305251930E+00  0.11802972063E+01  0.00000000000E+00 0. -1.
         11    1    3    3    0    0  0.15199613882E+02 -0.16762524204E+01  0.54704602496E+01  0.16240813402E+02  0.51100000000E-03 0. -1.
        -11    1    3    3    0    0 -0.30862595561E+02  0.48359939946E+00  0.25279276712E+02  0.39897061352E+02  0.51100000000E-03 0.  1.
         12    1    3    3    0    0  0.14519697695E+02  0.14217709012E+01 -0.30566684443E+02  0.33869828040E+02  0.00000000000E+00 0. -1.
</event>
<event>
 7    1  0.4119305E-015  0.9000777E+02  0.7816164E-02  0.1186339E+00
        -11   -1    0    0    0    0  0.00000000000E+00  0.00000000000E+00  0.45593999997E+02  0.45594000000E+02  0.51100000000E-03 0.  1.
         11   -1    0    0    0    0 -0.00000000000E+00 -0.00000000000E+00 -0.45593999997E+02  0.45594000000E+02  0.51100000000E-03 0. -1.
    9900012    2    1    2    0    0  0.94988738513E+00  0.13505276080E+00  0.68733352816E+00  0.90007765840E+02  0.90000027549E+02 0.  0.
         12    1    1    2    0    0 -0.94988738513E+00 -0.13505276080E+00 -0.68733352816E+00  0.11802341596E+01  0.00000000000E+00 0. -1.
         11    1    3    3    0    0 -0.35115487208E+01  0.25419947339E+01  0.83132179194E+01  0.93756228637E+01  0.51100000000E-03 0. -1.
        -11    1    3    3    0    0  0.29321468385E+02 -0.79681987078E+01  0.24923558089E+02  0.39299165983E+02  0.51100000000E-03 0.  1.
         12    1    3    3    0    0 -0.24860032279E+02  0.55612567347E+01 -0.32549442480E+02  0.41332976994E+02  0.00000000000E+00 0. -1.
</event>
<event>
 7    1  0.4193278E-015  0.9000770E+02  0.7816164E-02  0.1186339E+00
        -11   -1    0    0    0    0  0.00000000000E+00  0.00000000000E+00  0.45593999997E+02  0.45594000000E+02  0.51100000000E-03 0.  1.
         11   -1    0    0    0    0 -0.00000000000E+00 -0.00000000000E+00 -0.45593999997E+02  0.45594000000E+02  0.51100000000E-03 0. -1.
    9900012    2    1    2    0    0 -0.24426875691E+00  0.17637203412E+00  0.11411947467E+01  0.90007703525E+02  0.89999964411E+02 0.  0.
         12    1    1    2    0    0  0.24426875691E+00 -0.17637203412E+00 -0.11411947467E+01  0.11802964755E+01  0.00000000000E+00 0. -1.
         11    1    3    3    0    0 -0.10642157495E+02  0.32770226877E+02 -0.12988815255E+02  0.36821903912E+02  0.51100000000E-03 0. -1.
        -11    1    3    3    0    0  0.15453739925E+01  0.41713312888E+01 -0.81568891411E+01  0.92910185781E+01  0.51100000000E-03 0.  1.
        -12    1    3    3    0    0  0.88525147453E+01 -0.36765186132E+02  0.22286899143E+02  0.43894781034E+02  0.00000000000E+00 0.  1.
</event>
<event>
 7    1  0.4119305E-015  0.9000872E+02  0.7816164E-02  0.1186337E+00
        -11   -1    0    0    0    0  0.00000000000E+00  0.00000000000E+00  0.45593999997E+02  0.45594000000E+02  0.51100000000E-03 0. -1.
         11   -1    0    0    0    0 -0.00000000000E+00 -0.00000000000E+00 -0.45593999997E+02  0.45594000000E+02  0.51100000000E-03 0.  1.
    9900012    2    1    2    0    0  0.98171440826E+00 -0.64661046408E+00 -0.93982833944E-01  0.90008720116E+02  0.90000994416E+02 0.  0.
         12    1    1    2    0    0 -0.98171440826E+00  0.64661046408E+00  0.93982833944E-01  0.11792798840E+01  0.00000000000E+00 0. -1.
         11    1    3    3    0    0  0.15975270396E+02  0.79916932022E+01 -0.14736342247E+02  0.23156774549E+02  0.51100000000E-03 0. -1.
        -11    1    3    3    0    0 -0.37513051559E+02  0.45252028316E+00 -0.17426352711E+01  0.37556232370E+02  0.51100000000E-03 0.  1.
         12    1    3    3    0    0  0.22519495572E+02 -0.90908239494E+01  0.16384994684E+02  0.29295713196E+02  0.00000000000E+00 0. -1.
</event>
<event>
 7    1  0.4119305E-015  0.9000778E+02  0.7816164E-02  0.1186339E+00
        -11   -1    0    0    0    0  0.00000000000E+00  0.00000000000E+00  0.45593999997E+02  0.45594000000E+02  0.51100000000E-03 0.  1.
         11   -1    0    0    0    0 -0.00000000000E+00 -0.00000000000E+00 -0.45593999997E+02  0.45594000000E+02  0.51100000000E-03 0. -1.
    9900012    2    1    2    0    0  0.63753221851E+00  0.72828243621E+00 -0.67533473259E+00  0.90007779835E+02  0.90000041729E+02 0.  0.
         12    1    1    2    0    0 -0.63753221851E+00 -0.72828243621E+00  0.67533473259E+00  0.11802201649E+01  0.00000000000E+00 0. -1.
         11    1    3    3    0    0  0.20051173546E+02 -0.19043236350E+02 -0.25599539355E+02  0.37683296388E+02  0.51100000000E-03 0. -1.
        -11    1    3    3    0    0 -0.16918907225E+01 -0.63079016356E+01 -0.54778401562E+01  0.85240160898E+01  0.51100000000E-03 0.  1.
        -12    1    3    3    0    0 -0.17721750605E+02  0.26079420421E+02  0.30402044778E+02  0.43800467357E+02  0.00000000000E+00 0.  1.
</event>
<event>
 7    1  0.4119305E-015  0.9000784E+02  0.7816164E-02  0.1186339E+00
        -11   -1    0    0    0    0  0.00000000000E+00  0.00000000000E+00  0.45593999997E+02  0.45594000000E+02  0.51100000000E-03 0. -1.
         11   -1    0    0    0    0 -0.00000000000E+00 -0.00000000000E+00 -0.45593999997E+02  0.45594000000E+02  0.51100000000E-03 0.  1.
    9900012    2    1    2    0    0  0.51667956647E+00  0.91080188809E+00 -0.54429009910E+00  0.90007843415E+02  0.90000106148E+02 0.  0.
         12    1    1    2    0    0 -0.51667956647E+00 -0.91080188809E+00  0.54429009910E+00  0.11801565853E+01  0.00000000000E+00 0. -1.
         11    1    3    3    0    0  0.52924476636E+01  0.52814045282E+01 -0.68538878314E+01  0.10142929297E+02  0.51100000000E-03 0. -1.
        -11    1    3    3    0    0 -0.30644732979E+02 -0.30222510281E+02  0.37218504273E+01  0.43201295790E+02  0.51100000000E-03 0.  1.
         12    1    3    3    0    0  0.25868964882E+02  0.25851907641E+02  0.25877473050E+01  0.36663618328E+02  0.00000000000E+00 0. -1.
</event>
<event>
 7    1  0.4119305E-015  0.9000782E+02  0.7816164E-02  0.1186339E+00
        -11   -1    0    0    0    0  0.00000000000E+00  0.00000000000E+00  0.45593999997E+02  0.45594000000E+02  0.51100000000E-03 0.  1.
         11   -1    0    0    0    0 -0.00000000000E+00 -0.00000000000E+00 -0.45593999997E+02  0.45594000000E+02  0.51100000000E-03 0. -1.
    9900012    2    1    2    0    0  0.10802579755E+01  0.32823976967E+00  0.34369310651E+00  0.90007820526E+02  0.90000082957E+02 0.  0.
         12    1    1    2    0    0 -0.10802579755E+01 -0.32823976967E+00 -0.34369310651E+00  0.11801794742E+01  0.00000000000E+00 0. -1.
         11    1    3    3    0    0  0.29087707721E+02  0.84424064657E+01 -0.16706006987E+02  0.34589877668E+02  0.51100000000E-03 0. -1.
        -11    1    3    3    0    0 -0.10695137332E+02 -0.28839596090E+01 -0.14982654856E+02  0.18632850892E+02  0.51100000000E-03 0.  1.
        -12    1    3    3    0    0 -0.17312312413E+02 -0.52302070871E+01  0.32032354950E+02  0.36785091965E+02  0.00000000000E+00 0.  1.
</event>
<event>
 7    1  0.4119305E-015  0.9000772E+02  0.7816164E-02  0.1186339E+00
        -11   -1    0    0    0    0  0.00000000000E+00  0.00000000000E+00  0.45593999997E+02  0.45594000000E+02  0.51100000000E-03 0.  1.
         11   -1    0    0    0    0 -0.00000000000E+00 -0.00000000000E+00 -0.45593999997E+02  0.45594000000E+02  0.51100000000E-03 0. -1.
    9900012    2    1    2    0    0 -0.10192584741E-01 -0.11684303095E+01 -0.16651821712E+00  0.90007719697E+02  0.89999980797E+02 0.  0.
         12    1    1    2    0    0  0.10192584741E-01  0.11684303095E+01  0.16651821712E+00  0.11802803030E+01  0.00000000000E+00 0. -1.
         11    1    3    3    0    0  0.47342138574E+01  0.18515581831E+02 -0.38582780590E+02  0.43056596588E+02  0.51100000000E-03 0. -1.
        -11    1    3    3    0    0  0.11127540355E+01 -0.10375240335E+02  0.46225891857E+01  0.11412807042E+02  0.51100000000E-03 0.  1.
        -12    1    3    3    0    0 -0.58571604777E+01 -0.93087718057E+01  0.33793673187E+02  0.35538316067E+02  0.00000000000E+00 0.  1.
</event>
<event>
 7    1  0.4119305E-015  0.9000776E+02  0.7816164E-02  0.1186339E+00
        -11   -1    0    0    0    0  0.00000000000E+00  0.00000000000E+00  0.45593999997E+02  0.45594000000E+02  0.51100000000E-03 0.  1.
         11   -1    0    0    0    0 -0.00000000000E+00 -0.00000000000E+00 -0.45593999997E+02  0.45594000000E+02  0.51100000000E-03 0. -1.
    9900012    2    1    2    0    0 -0.81488296582E+00 -0.40219231763E+00  0.75311281546E+00  0.90007757728E+02  0.90000019330E+02 0.  0.
         12    1    1    2    0    0  0.81488296582E+00  0.40219231763E+00 -0.75311281546E+00  0.11802422722E+01  0.00000000000E+00 0. -1.
         11    1    3    3    0    0 -0.95085637898E+01  0.15136346401E+01  0.10973640763E+01  0.96906183160E+01  0.51100000000E-03 0. -1.
        -11    1    3    3    0    0 -0.16060986708E+02  0.32491769491E+02  0.79986060592E+01  0.37116681935E+02  0.51100000000E-03 0.  1.
         12    1    3    3    0    0  0.24754667532E+02 -0.34407596449E+02 -0.83428573201E+01  0.43200457477E+02  0.00000000000E+00 0. -1.
</event>
<event>
 7    1  0.4119305E-015  0.9000788E+02  0.7816164E-02  0.1186339E+00
        -11   -1    0    0    0    0  0.00000000000E+00  0.00000000000E+00  0.45593999997E+02  0.45594000000E+02  0.51100000000E-03 0.  1.
         11   -1    0    0    0    0 -0.00000000000E+00 -0.00000000000E+00 -0.45593999997E+02  0.45594000000E+02  0.51100000000E-03 0. -1.
    9900012    2    1    2    0    0 -0.38679261923E+00 -0.10880708037E+01 -0.24327833366E+00  0.90007876722E+02  0.90000139894E+02 0.  0.
         12    1    1    2    0    0  0.38679261923E+00  0.10880708037E+01  0.24327833366E+00  0.11801232782E+01  0.00000000000E+00 0. -1.
         11    1    3    3    0    0 -0.62570915429E+01  0.57793085090E+01 -0.48230889790E+01  0.97884518172E+01  0.51100000000E-03 0. -1.
        -11    1    3    3    0    0 -0.24262614848E+02  0.17007686860E+02  0.23076727991E+02  0.37556241380E+02  0.51100000000E-03 0.  1.
         12    1    3    3    0    0  0.30132913771E+02 -0.23875066173E+02 -0.18496917346E+02  0.42663183524E+02  0.00000000000E+00 0. -1.
</event>
<event>
 7    1  0.4119305E-015  0.9000767E+02  0.7816164E-02  0.1186339E+00
        -11   -1    0    0    0    0  0.00000000000E+00  0.00000000000E+00  0.45593999997E+02  0.45594000000E+02  0.51100000000E-03 0.  1.
         11   -1    0    0    0    0 -0.00000000000E+00 -0.00000000000E+00 -0.45593999997E+02  0.45594000000E+02  0.51100000000E-03 0. -1.
    9900012    2    1    2    0    0  0.80284091552E+00  0.16736219254E+00  0.84888699240E+00  0.90007672603E+02  0.89999933081E+02 0.  0.
         12    1    1    2    0    0 -0.80284091552E+00 -0.16736219254E+00 -0.84888699240E+00  0.11803273974E+01  0.00000000000E+00 0. -1.
         11    1    3    3    0    0 -0.73329586669E+01 -0.49207513294E+01  0.19650239937E+01  0.90469550686E+01  0.51100000000E-03 0. -1.
        -11    1    3    3    0    0 -0.35331695040E+02  0.67825477235E+01  0.71535626154E+01  0.36681127114E+02  0.51100000000E-03 0.  1.
         12    1    3    3    0    0  0.43467494622E+02 -0.16944342015E+01 -0.82696996167E+01  0.44279590420E+02  0.00000000000E+00 0. -1.
</event>
<event>
 7    1  0.4119305E-015  0.9000785E+02  0.7816164E-02  0.1186339E+00
        -11   -1    0    0    0    0  0.00000000000E+00  0.00000000000E+00  0.45593999997E+02  0.45594000000E+02  0.51100000000E-03 0.  1.
         11   -1    0    0    0    0 -0.00000000000E+00 -0.00000000000E+00 -0.45593999997E+02  0.45594000000E+02  0.51100000000E-03 0. -1.
    9900012    2    1    2    0    0 -0.58226480371E+00 -0.10260096343E+01 -0.32163815077E-01  0.90007846373E+02  0.90000109145E+02 0.  0.
         12    1    1    2    0    0  0.58226480371E+00  0.10260096343E+01  0.32163815077E-01  0.11801536266E+01  0.00000000000E+00 0. -1.
         11    1    3    3    0    0  0.23858605841E+01  0.87152934318E+01 -0.48795642548E+01  0.10269314383E+02  0.51100000000E-03 0. -1.
        -11    1    3    3    0    0 -0.26447233692E+01  0.30522632751E+02  0.20143424911E+02  0.36665832040E+02  0.51100000000E-03 0.  1.
         12    1    3    3    0    0 -0.32340201857E+00 -0.40263935817E+02 -0.15296024471E+02  0.43072699950E+02  0.00000000000E+00 0. -1.
</event>
<event>
 7    1  0.4119305E-015  0.9000788E+02  0.7816164E-02  0.1186339E+00
        -11   -1    0    0    0    0  0.00000000000E+00  0.00000000000E+00  0.45593999997E+02  0.45594000000E+02  0.51100000000E-03 0. -1.
         11   -1    0    0    0    0 -0.00000000000E+00 -0.00000000000E+00 -0.45593999997E+02  0.45594000000E+02  0.51100000000E-03 0.  1.
    9900012    2    1    2    0    0  0.10773926571E+01  0.55769569775E-01 -0.47832229858E+00  0.90007882462E+02  0.90000145710E+02 0.  0.
         12    1    1    2    0    0 -0.10773926571E+01 -0.55769569775E-01  0.47832229858E+00  0.11801175381E+01  0.00000000000E+00 0. -1.
         11    1    3    3    0    0  0.88362750225E+01 -0.34304757502E+01  0.17523320203E+00  0.94804339079E+01  0.51100000000E-03 0. -1.
        -11    1    3    3    0    0  0.13176222552E+01 -0.36890286917E+02 -0.96980489294E+01  0.38166497750E+02  0.51100000000E-03 0.  1.
         12    1    3    3    0    0 -0.90765046206E+01  0.40376532237E+02  0.90444934288E+01  0.42360950804E+02  0.00000000000E+00 0. -1.
</event>
<event>
 7    1  0.4119305E-015  0.9000817E+02  0.7816164E-02  0.1186338E+00
        -11   -1    0    0    0    0  0.00000000000E+00  0.00000000000E+00  0.45593999997E+02  0.45594000000E+02  0.51100000000E-03 0.  1.
         11   -1    0    0    0    0 -0.00000000000E+00 -0.00000000000E+00 -0.45593999997E+02  0.45594000000E+02  0.51100000000E-03 0. -1.
    9900012    2    1    2    0    0 -0.47602521639E-01  0.49778580829E+00  0.10686164222E+01  0.90008170449E+02  0.90000437498E+02 0.  0.
         12    1    1    2    0    0  0.47602521639E-01 -0.49778580829E+00 -0.10686164222E+01  0.11798295507E+01  0.00000000000E+00 0. -1.
         11    1    3    3    0    0 -0.18589964607E+01 -0.96549337131E+01  0.12825803859E+01  0.99155748978E+01  0.51100000000E-03 0. -1.
        -11    1    3    3    0    0 -0.20574350794E+02  0.33170627545E+02  0.18211984064E+02  0.43072854632E+02  0.51100000000E-03 0.  1.
         12    1    3    3    0    0  0.22385744733E+02 -0.23017908024E+02 -0.18425948027E+02  0.37019740920E+02  0.00000000000E+00 0. -1.
</event>
<event>
 7    1  0.4119305E-015  0.9000775E+02  0.7816164E-02  0.1186339E+00
        -11   -1    0    0    0    0  0.00000000000E+00  0.00000000000E+00  0.45593999997E+02  0.45594000000E+02  0.51100000000E-03 0. -1.
         11   -1    0    0    0    0 -0.00000000000E+00 -0.00000000000E+00 -0.45593999997E+02  0.45594000000E+02  0.51100000000E-03 0.  1.
    9900012    2    1    2    0    0  0.11765073897E+01 -0.52562477378E-01  0.77833779655E-01  0.90007749794E+02  0.90000011291E+02 0.  0.
         12    1    1    2    0    0 -0.11765073897E+01  0.52562477378E-01 -0.77833779655E-01  0.11802502063E+01  0.00000000000E+00 0. -1.
         11    1    3    3    0    0  0.25867166722E+02  0.13720168297E+02  0.25434061001E+02  0.38784594771E+02  0.51100000000E-03 0. -1.
        -11    1    3    3    0    0 -0.60599862049E+01  0.40188952122E+01  0.68442038711E+01  0.99858939721E+01  0.51100000000E-03 0.  1.
        -12    1    3    3    0    0 -0.18630673127E+02 -0.17791625987E+02 -0.32200431092E+02  0.41237261050E+02  0.00000000000E+00 0.  1.
</event>
<event>
 7    1  0.4119305E-015  0.9000778E+02  0.7816164E-02  0.1186339E+00
        -11   -1    0    0    0    0  0.00000000000E+00  0.00000000000E+00  0.45593999997E+02  0.45594000000E+02  0.51100000000E-03 0.  1.
         11   -1    0    0    0    0 -0.00000000000E+00 -0.00000000000E+00 -0.45593999997E+02  0.45594000000E+02  0.51100000000E-03 0. -1.
    9900012    2    1    2    0    0 -0.92491285786E-01  0.11369080625E+01  0.30298713043E+00  0.90007781469E+02  0.90000043384E+02 0.  0.
         12    1    1    2    0    0  0.92491285786E-01 -0.11369080625E+01 -0.30298713043E+00  0.11802185313E+01  0.00000000000E+00 0. -1.
         11    1    3    3    0    0 -0.20717675247E+01 -0.17914326018E+02 -0.28332973075E+02  0.33585304240E+02  0.51100000000E-03 0. -1.
        -11    1    3    3    0    0 -0.40763742759E+01 -0.92692135523E+01 -0.56072185679E+01  0.11574802264E+02  0.51100000000E-03 0.  1.
        -12    1    3    3    0    0  0.60556505148E+01  0.28320447633E+02  0.34243178773E+02  0.44847674965E+02  0.00000000000E+00 0.  1.
</event>
<event>
 7    1  0.4119305E-015  0.9000775E+02  0.7816164E-02  0.1186339E+00
        -11   -1    0    0    0    0  0.00000000000E+00  0.00000000000E+00  0.45593999997E+02  0.45594000000E+02  0.51100000000E-03 0. -1.
         11   -1    0    0    0    0 -0.00000000000E+00 -0.00000000000E+00 -0.45593999997E+02  0.45594000000E+02  0.51100000000E-03 0.  1.
    9900012    2    1    2    0    0 -0.43750596369E+00 -0.31415208630E+00 -0.10501808011E+01  0.90007753112E+02  0.90000014653E+02 0.  0.
         12    1    1    2    0    0  0.43750596369E+00  0.31415208630E+00  0.10501808011E+01  0.11802468879E+01  0.00000000000E+00 0. -1.
         11    1    3    3    0    0  0.59612358612E+01  0.64351076162E+01  0.24523995178E+02  0.26045600066E+02  0.51100000000E-03 0. -1.
        -11    1    3    3    0    0 -0.15979443608E+02  0.20163708213E+02 -0.16292834266E+00  0.25728278077E+02  0.51100000000E-03 0.  1.
         12    1    3    3    0    0  0.95807017835E+01 -0.26912967915E+02 -0.25411247637E+02  0.38233874969E+02  0.00000000000E+00 0. -1.
</event>
<event>
 7    1  0.4119305E-015  0.9000779E+02  0.7816164E-02  0.1186339E+00
        -11   -1    0    0    0    0  0.00000000000E+00  0.00000000000E+00  0.45593999997E+02  0.45594000000E+02  0.51100000000E-03 0.  1.
         11   -1    0    0    0    0 -0.00000000000E+00 -0.00000000000E+00 -0.45593999997E+02  0.45594000000E+02  0.51100000000E-03 0. -1.
    9900012    2    1    2    0    0 -0.11762166973E+01 -0.90392109847E-01 -0.35302486712E-01  0.90007787003E+02  0.90000048991E+02 0.  0.
         12    1    1    2    0    0  0.11762166973E+01  0.90392109847E-01  0.35302486712E-01  0.11802129969E+01  0.00000000000E+00 0. -1.
         11    1    3    3    0    0  0.26519169718E+02 -0.22295514340E+02 -0.10493737093E+02  0.36200481221E+02  0.51100000000E-03 0. -1.
        -11    1    3    3    0    0  0.64536522108E+01 -0.52834856084E+01  0.47521527585E+01  0.95993647255E+01  0.51100000000E-03 0.  1.
        -12    1    3    3    0    0 -0.34149038626E+02  0.27488607838E+02  0.57062818479E+01  0.44207941057E+02  0.00000000000E+00 0.  1.
</event>
<event>
 7    1  0.5458852E-015  0.9000772E+02  0.7816164E-02  0.1186339E+00
        -11   -1    0    0    0    0  0.00000000000E+00  0.00000000000E+00  0.45593999997E+02  0.45594000000E+02  0.51100000000E-03 0. -1.
         11   -1    0    0    0    0 -0.00000000000E+00 -0.00000000000E+00 -0.45593999997E+02  0.45594000000E+02  0.51100000000E-03 0.  1.
    9900012    2    1    2    0    0 -0.63229150369E+00 -0.52824075170E+00 -0.84511958991E+00  0.90007721237E+02  0.89999982357E+02 0.  0.
         12    1    1    2    0    0  0.63229150369E+00  0.52824075170E+00  0.84511958991E+00  0.11802787631E+01  0.00000000000E+00 0. -1.
         11    1    3    3    0    0 -0.27220006409E+02 -0.23875386904E+02  0.91740937663E+01  0.37351396834E+02  0.51100000000E-03 0. -1.
        -11    1    3    3    0    0 -0.16328339074E+01 -0.87202766450E+01 -0.30088797985E+01  0.93681764094E+01  0.51100000000E-03 0.  1.
        -12    1    3    3    0    0  0.28220548813E+02  0.32067422797E+02 -0.70103335577E+01  0.43288147994E+02  0.00000000000E+00 0.  1.
</event>
<event>
 7    1  0.4119305E-015  0.9000764E+02  0.7816164E-02  0.1186339E+00
        -11   -1    0    0    0    0  0.00000000000E+00  0.00000000000E+00  0.45593999997E+02  0.45594000000E+02  0.51100000000E-03 0.  1.
         11   -1    0    0    0    0 -0.00000000000E+00 -0.00000000000E+00 -0.45593999997E+02  0.45594000000E+02  0.51100000000E-03 0. -1.
    9900012    2    1    2    0    0  0.12647524790E-01  0.88081419351E+00  0.78565659681E+00  0.90007639931E+02  0.89999899978E+02 0.  0.
         12    1    1    2    0    0 -0.12647524790E-01 -0.88081419351E+00 -0.78565659681E+00  0.11803600686E+01  0.00000000000E+00 0. -1.
         11    1    3    3    0    0  0.46355885372E+01  0.61830879876E+01  0.55849837263E+01  0.95347418231E+01  0.51100000000E-03 0. -1.
        -11    1    3    3    0    0 -0.21626920956E+02  0.53606592113E+01  0.31742422056E+02  0.38781976941E+02  0.51100000000E-03 0.  1.
         12    1    3    3    0    0  0.17003979944E+02 -0.10662933005E+02 -0.36541749186E+02  0.41690921167E+02  0.00000000000E+00 0. -1.
</event>
<event>
 7    1  0.4119305E-015  0.9000771E+02  0.7816164E-02  0.1186339E+00
        -11   -1    0    0    0    0  0.00000000000E+00  0.00000000000E+00  0.45593999997E+02  0.45594000000E+02  0.51100000000E-03 0.  1.
         11   -1    0    0    0    0 -0.00000000000E+00 -0.00000000000E+00 -0.45593999997E+02  0.45594000000E+02  0.51100000000E-03 0. -1.
    9900012    2    1    2    0    0 -0.43985615595E+00 -0.62209660133E-01  0.10934985642E+01  0.90007710803E+02  0.89999971785E+02 0.  0.
         12    1    1    2    0    0  0.43985615595E+00  0.62209660133E-01 -0.10934985642E+01  0.11802891975E+01  0.00000000000E+00 0. -1.
         11    1    3    3    0    0  0.63349117000E+01 -0.47877758052E+01 -0.48961682094E+01  0.93287923551E+01  0.51100000000E-03 0. -1.
        -11    1    3    3    0    0  0.33305396210E+02  0.14639468635E+02  0.13325044469E+02  0.38744293373E+02  0.51100000000E-03 0.  1.
         12    1    3    3    0    0 -0.40080164066E+02 -0.99139024899E+01 -0.73353776950E+01  0.41934625074E+02  0.00000000000E+00 0. -1.
</event>
<event>
 7    1  0.4794192E-015  0.9000782E+02  0.7816164E-02  0.1186339E+00
        -11   -1    0    0    0    0  0.00000000000E+00  0.00000000000E+00  0.45593999997E+02  0.45594000000E+02  0.51100000000E-03 0. -1.
         11   -1    0    0    0    0 -0.00000000000E+00 -0.00000000000E+00 -0.45593999997E+02  0.45594000000E+02  0.51100000000E-03 0.  1.
    9900012    2    1    2    0    0 -0.10865325634E+01  0.18602242952E+00 -0.42151015203E+00  0.90007818589E+02  0.90000080994E+02 0.  0.
         12    1    1    2    0    0  0.10865325634E+01 -0.18602242952E+00  0.42151015203E+00  0.11801814114E+01  0.00000000000E+00 0. -1.
         11    1    3    3    0    0 -0.26023349415E+02 -0.20785150770E+02 -0.16692857778E+02  0.37254378379E+02  0.51100000000E-03 0. -1.
        -11    1    3    3    0    0 -0.37407777560E+01 -0.83455095577E+01  0.36175321070E+01  0.98350133098E+01  0.51100000000E-03 0.  1.
        -12    1    3    3    0    0  0.28677594608E+02  0.29316682757E+02  0.12653815519E+02  0.42918426900E+02  0.00000000000E+00 0.  1.
</event>
<event>
 7    1  0.4119305E-015  0.9000779E+02  0.7816164E-02  0.1186339E+00
        -11   -1    0    0    0    0  0.00000000000E+00  0.00000000000E+00  0.45593999997E+02  0.45594000000E+02  0.51100000000E-03 0. -1.
         11   -1    0    0    0    0 -0.00000000000E+00 -0.00000000000E+00 -0.45593999997E+02  0.45594000000E+02  0.51100000000E-03 0.  1.
    9900012    2    1    2    0    0  0.11285786394E+01  0.21085692418E+00 -0.27338531036E+00  0.90007792427E+02  0.90000054487E+02 0.  0.
         12    1    1    2    0    0 -0.11285786394E+01 -0.21085692418E+00  0.27338531036E+00  0.11802075731E+01  0.00000000000E+00 0. -1.
         11    1    3    3    0    0 -0.61690121759E+01  0.41693803581E+01  0.61101840591E+01  0.96319672599E+01  0.51100000000E-03 0. -1.
        -11    1    3    3    0    0 -0.25328224281E+02  0.14597524808E+02  0.19179702151E+02  0.34963804865E+02  0.51100000000E-03 0.  1.
         12    1    3    3    0    0  0.32625815097E+02 -0.18556048242E+02 -0.25563271521E+02  0.45412020302E+02  0.00000000000E+00 0. -1.
</event>
<event>
 7    1  0.4119305E-015  0.9000773E+02  0.7816164E-02  0.1186339E+00
        -11   -1    0    0    0    0  0.00000000000E+00  0.00000000000E+00  0.45593999997E+02  0.45594000000E+02  0.51100000000E-03 0.  1.
         11   -1    0    0    0    0 -0.00000000000E+00 -0.00000000000E+00 -0.45593999997E+02  0.45594000000E+02  0.51100000000E-03 0. -1.
    9900012    2    1    2    0    0  0.11494882410E+01  0.90351810596E-01 -0.25209457986E+00  0.90007729547E+02  0.89999990777E+02 0.  0.
         12    1    1    2    0    0 -0.11494882410E+01 -0.90351810596E-01  0.25209457986E+00  0.11802704534E+01  0.00000000000E+00 0. -1.
         11    1    3    3    0    0  0.22252732525E+01  0.50496053814E-01  0.82729825735E+01  0.85671834241E+01  0.51100000000E-03 0. -1.
        -11    1    3    3    0    0 -0.36699974287E+02 -0.15641188014E+02  0.50632967162E+01  0.40214075261E+02  0.51100000000E-03 0.  1.
         12    1    3    3    0    0  0.35624189276E+02  0.15681043771E+02 -0.13588373870E+02  0.41226470862E+02  0.00000000000E+00 0. -1.
</event>
<event>
 7    1  0.4119305E-015  0.9000772E+02  0.7816164E-02  0.1186339E+00
        -11   -1    0    0    0    0  0.00000000000E+00  0.00000000000E+00  0.45593999997E+02  0.45594000000E+02  0.51100000000E-03 0. -1.
         11   -1    0    0    0    0 -0.00000000000E+00 -0.00000000000E+00 -0.45593999997E+02  0.45594000000E+02  0.51100000000E-03 0.  1.
    9900012    2    1    2    0    0 -0.49980528498E+00  0.10176341348E+01 -0.32812708562E+00  0.90007723787E+02  0.89999984941E+02 0.  0.
         12    1    1    2    0    0  0.49980528498E+00 -0.10176341348E+01  0.32812708562E+00  0.11802762132E+01  0.00000000000E+00 0. -1.
         11    1    3    3    0    0 -0.17349591251E+02 -0.10332981696E+02  0.18897564866E+02  0.27656767443E+02  0.51100000000E-03 0. -1.
        -11    1    3    3    0    0 -0.68037055871E+01  0.20008742146E+02  0.10325617065E+02  0.23521448510E+02  0.51100000000E-03 0.  1.
        -12    1    3    3    0    0  0.23653491553E+02 -0.86581263158E+01 -0.29551309017E+02  0.38829507833E+02  0.00000000000E+00 0.  1.
</event>
<event>
 7    1  0.4119305E-015  0.9000794E+02  0.7816164E-02  0.1186339E+00
        -11   -1    0    0    0    0  0.00000000000E+00  0.00000000000E+00  0.45593999997E+02  0.45594000000E+02  0.51100000000E-03 0.  1.
         11   -1    0    0    0    0 -0.00000000000E+00 -0.00000000000E+00 -0.45593999997E+02  0.45594000000E+02  0.51100000000E-03 0. -1.
    9900012    2    1    2    0    0 -0.58580540162E+00  0.89101092925E+00 -0.50543902779E+00  0.90007941927E+02  0.90000205960E+02 0.  0.
         12    1    1    2    0    0  0.58580540162E+00 -0.89101092925E+00  0.50543902779E+00  0.11800580729E+01  0.00000000000E+00 0. -1.
         11    1    3    3    0    0 -0.30728765789E+02 -0.67306370966E+01  0.24361237268E+02  0.39787289479E+02  0.51100000000E-03 0. -1.
        -11    1    3    3    0    0  0.32281139907E+01  0.70178678332E+01  0.56169211664E+01  0.95509681453E+01  0.51100000000E-03 0.  1.
        -12    1    3    3    0    0  0.26914846396E+02  0.60378019262E+00 -0.30483597462E+02  0.40669684303E+02  0.00000000000E+00 0.  1.
</event>
<event>
 7    1  0.4119305E-015  0.9000778E+02  0.7816164E-02  0.1186339E+00
        -11   -1    0    0    0    0  0.00000000000E+00  0.00000000000E+00  0.45593999997E+02  0.45594000000E+02  0.51100000000E-03 0.  1.
         11   -1    0    0    0    0 -0.00000000000E+00 -0.00000000000E+00 -0.45593999997E+02  0.45594000000E+02  0.51100000000E-03 0. -1.
    9900012    2    1    2    0    0  0.35282903663E+00 -0.96732167445E+00  0.57681215584E+00  0.90007783150E+02  0.90000045087E+02 0.  0.
         12    1    1    2    0    0 -0.35282903663E+00  0.96732167445E+00 -0.57681215584E+00  0.11802168504E+01  0.00000000000E+00 0. -1.
         11    1    3    3    0    0 -0.32181483719E+02  0.20611374798E+02  0.16636317674E+00  0.38216545400E+02  0.51100000000E-03 0. -1.
        -11    1    3    3    0    0 -0.30155983405E+01  0.59709780099E+00  0.85700167644E+01  0.91046991569E+01  0.51100000000E-03 0.  1.
        -12    1    3    3    0    0  0.35549911096E+02 -0.22175794273E+02 -0.81595677853E+01  0.42686538592E+02  0.00000000000E+00 0.  1.
</event>
<event>
 7    1  0.4119305E-015  0.9000787E+02  0.7816164E-02  0.1186339E+00
        -11   -1    0    0    0    0  0.00000000000E+00  0.00000000000E+00  0.45593999997E+02  0.45594000000E+02  0.51100000000E-03 0.  1.
         11   -1    0    0    0    0 -0.00000000000E+00 -0.00000000000E+00 -0.45593999997E+02  0.45594000000E+02  0.51100000000E-03 0. -1.
    9900012    2    1    2    0    0 -0.39549591792E+00 -0.85495958543E-01  0.11085983858E+01  0.90007865702E+02  0.90000128729E+02 0.  0.
         12    1    1    2    0    0  0.39549591792E+00  0.85495958543E-01 -0.11085983858E+01  0.11801342978E+01  0.00000000000E+00 0. -1.
         11    1    3    3    0    0 -0.16679532953E+02  0.40267593310E+02  0.93744845876E+01  0.44582136019E+02  0.51100000000E-03 0. -1.
        -11    1    3    3    0    0  0.81902456531E+01 -0.90517456290E+01 -0.73421118362E+00  0.12229198220E+02  0.51100000000E-03 0.  1.
        -12    1    3    3    0    0  0.80937913817E+01 -0.31301343639E+02 -0.75316750182E+01  0.33196531463E+02  0.00000000000E+00 0.  1.
</event>
<event>
 7    1  0.4119305E-015  0.9000793E+02  0.7816164E-02  0.1186339E+00
        -11   -1    0    0    0    0  0.00000000000E+00  0.00000000000E+00  0.45593999997E+02  0.45594000000E+02  0.51100000000E-03 0. -1.
         11   -1    0    0    0    0 -0.00000000000E+00 -0.00000000000E+00 -0.45593999997E+02  0.45594000000E+02  0.51100000000E-03 0.  1.
    9900012    2    1    2    0    0 -0.75712176982E+00  0.40169651255E+00 -0.81115191674E+00  0.90007931826E+02  0.90000195726E+02 0.  0.
         12    1    1    2    0    0  0.75712176982E+00 -0.40169651255E+00  0.81115191674E+00  0.11800681737E+01  0.00000000000E+00 0. -1.
         11    1    3    3    0    0  0.23787533933E+00 -0.40163524536E+02  0.14597576942E+02  0.42734699492E+02  0.51100000000E-03 0. -1.
        -11    1    3    3    0    0  0.17848562561E+01  0.67666350579E+01 -0.11052750728E+02  0.13081909676E+02  0.51100000000E-03 0.  1.
        -12    1    3    3    0    0 -0.27798533653E+01  0.33798585990E+02 -0.43559781311E+01  0.34191322659E+02  0.00000000000E+00 0.  1.
</event>
<event>
 7    1  0.4119305E-015  0.9000779E+02  0.7816164E-02  0.1186339E+00
        -11   -1    0    0    0    0  0.00000000000E+00  0.00000000000E+00  0.45593999997E+02  0.45594000000E+02  0.51100000000E-03 0.  1.
         11   -1    0    0    0    0 -0.00000000000E+00 -0.00000000000E+00 -0.45593999997E+02  0.45594000000E+02  0.51100000000E-03 0. -1.
    9900012    2    1    2    0    0  0.46414453047E+00  0.59652941506E+00  0.90643364209E+00  0.90007788394E+02  0.90000050400E+02 0.  0.
         12    1    1    2    0    0 -0.46414453047E+00 -0.59652941506E+00 -0.90643364209E+00  0.11802116063E+01  0.00000000000E+00 0. -1.
         11    1    3    3    0    0 -0.20932694938E+01  0.64924354506E+01  0.12374095231E+01  0.69328693802E+01  0.51100000000E-03 0. -1.
        -11    1    3    3    0    0  0.41027901487E+02  0.59615225433E+01  0.73142013155E+01  0.42099002276E+02  0.51100000000E-03 0.  1.
         12    1    3    3    0    0 -0.38470487463E+02 -0.11857428579E+02 -0.76451771965E+01  0.40975916738E+02  0.00000000000E+00 0. -1.
</event>
<event>
 7    1  0.4119305E-015  0.9000773E+02  0.7816164E-02  0.1186339E+00
        -11   -1    0    0    0    0  0.00000000000E+00  0.00000000000E+00  0.45593999997E+02  0.45594000000E+02  0.51100000000E-03 0. -1.
         11   -1    0    0    0    0 -0.00000000000E+00 -0.00000000000E+00 -0.45593999997E+02  0.45594000000E+02  0.51100000000E-03 0.  1.
    9900012    2    1    2    0    0 -0.48445651109E+00 -0.10391779297E+01 -0.28010010411E+00  0.90007726748E+02  0.89999987941E+02 0.  0.
         12    1    1    2    0    0  0.48445651109E+00  0.10391779297E+01  0.28010010411E+00  0.11802732519E+01  0.00000000000E+00 0. -1.
         11    1    3    3    0    0 -0.43455032528E+01 -0.36464108987E+02  0.11433061804E+02  0.38460753310E+02  0.51100000000E-03 0. -1.
        -11    1    3    3    0    0  0.79714895466E+01 -0.43259127444E+01 -0.66892646249E+01  0.11269624135E+02  0.51100000000E-03 0.  1.
        -12    1    3    3    0    0 -0.41104428049E+01  0.39750843801E+02 -0.50238972832E+01  0.40277349303E+02  0.00000000000E+00 0.  1.
</event>
