<event>
 7    1  0.1338132E-011  0.5930191E+02  0.7816164E-02  0.1266605E+00
        -11   -1    0    0    0    0  0.00000000000E+00  0.00000000000E+00  0.45593999997E+02  0.45594000000E+02  0.51100000000E-03 0. -1.
         11   -1    0    0    0    0 -0.00000000000E+00 -0.00000000000E+00 -0.45593999997E+02  0.45594000000E+02  0.51100000000E-03 0.  1.
    9900012    2    1    2    0    0  0.22755135626E+02 -0.12666384572E+02  0.18398072958E+02  0.59301912374E+02  0.49999942272E+02 0.  0.
        -12    1    1    2    0    0 -0.22755135626E+02  0.12666384572E+02 -0.18398072958E+02  0.31886087626E+02  0.00000000000E+00 0.  1.
         11    1    3    3    0    0  0.21960583018E+02 -0.13163672841E+02 -0.10378092776E+01  0.25624725121E+02  0.51100000000E-03 0. -1.
        -11    1    3    3    0    0  0.51450370626E+01  0.11534965128E+02  0.23047756484E+01  0.12838957042E+02  0.51100000000E-03 0.  1.
        -12    1    3    3    0    0 -0.43504844548E+01 -0.11037676860E+02  0.17131106587E+02  0.20838230212E+02  0.00000000000E+00 0.  1.
</event>
<event>
 7    1  0.1338132E-011  0.5930195E+02  0.7816164E-02  0.1266605E+00
        -11   -1    0    0    0    0  0.00000000000E+00  0.00000000000E+00  0.45593999997E+02  0.45594000000E+02  0.51100000000E-03 0.  1.
         11   -1    0    0    0    0 -0.00000000000E+00 -0.00000000000E+00 -0.45593999997E+02  0.45594000000E+02  0.51100000000E-03 0. -1.
    9900012    2    1    2    0    0  0.17808943821E+02 -0.10327183680E+02 -0.24349758039E+02  0.59301954159E+02  0.50000018477E+02 0.  0.
        -12    1    1    2    0    0 -0.17808943821E+02  0.10327183680E+02  0.24349758039E+02  0.31886045841E+02  0.00000000000E+00 0.  1.
         11    1    3    3    0    0  0.12026786002E+02  0.43132946263E+01  0.11312189432E+02  0.17064985265E+02  0.51100000000E-03 0. -1.
        -11    1    3    3    0    0 -0.32783784337E+01 -0.11692363845E+01 -0.51090970369E+00  0.35179408556E+01  0.51100000000E-03 0.  1.
        -12    1    3    3    0    0  0.90605362525E+01 -0.13471241922E+02 -0.35151037768E+02  0.38719028039E+02  0.00000000000E+00 0.  1.
</event>
<event>
 7    1  0.1338132E-011  0.5930195E+02  0.7816164E-02  0.1266605E+00
        -11   -1    0    0    0    0  0.00000000000E+00  0.00000000000E+00  0.45593999997E+02  0.45594000000E+02  0.51100000000E-03 0.  1.
         11   -1    0    0    0    0 -0.00000000000E+00 -0.00000000000E+00 -0.45593999997E+02  0.45594000000E+02  0.51100000000E-03 0. -1.
    9900012    2    1    2    0    0 -0.11326552521E+02  0.19118401674E+02 -0.22867360859E+02  0.59301948705E+02  0.50000008529E+02 0.  0.
        -12    1    1    2    0    0  0.11326552521E+02 -0.19118401674E+02  0.22867360859E+02  0.31886051295E+02  0.00000000000E+00 0.  1.
         11    1    3    3    0    0 -0.32394118012E+01 -0.57568188844E+01 -0.43799796801E+01  0.79258422104E+01  0.51100000000E-03 0. -1.
        -11    1    3    3    0    0 -0.11345279992E+01 -0.43585412371E+01  0.93728363196E+01  0.10398754562E+02  0.51100000000E-03 0.  1.
         12    1    3    3    0    0 -0.69526127205E+01  0.29233761796E+02 -0.27860217498E+02  0.40977351933E+02  0.00000000000E+00 0. -1.
</event>
<event>
 7    1  0.1338132E-011  0.5930195E+02  0.7816164E-02  0.1266605E+00
        -11   -1    0    0    0    0  0.00000000000E+00  0.00000000000E+00  0.45593999997E+02  0.45594000000E+02  0.51100000000E-03 0.  1.
         11   -1    0    0    0    0 -0.00000000000E+00 -0.00000000000E+00 -0.45593999997E+02  0.45594000000E+02  0.51100000000E-03 0. -1.
    9900012    2    1    2    0    0 -0.17216291979E+02  0.22744038204E+02  0.14248800337E+02  0.59301948278E+02  0.50000007752E+02 0.  0.
        -12    1    1    2    0    0  0.17216291979E+02 -0.22744038204E+02 -0.14248800337E+02  0.31886051722E+02  0.00000000000E+00 0.  1.
         11    1    3    3    0    0 -0.18131625702E+02  0.61478821252E+01  0.85991190748E+01  0.20988024070E+02  0.51100000000E-03 0. -1.
        -11    1    3    3    0    0  0.52164931442E+01 -0.57628442856E+01 -0.84906378789E+01  0.11511433744E+02  0.51100000000E-03 0.  1.
         12    1    3    3    0    0 -0.43011594211E+01  0.22359000365E+02  0.14140319142E+02  0.26802490464E+02  0.00000000000E+00 0. -1.
</event>
<event>
 7    1  0.1338132E-011  0.5930193E+02  0.7816164E-02  0.1266605E+00
        -11   -1    0    0    0    0  0.00000000000E+00  0.00000000000E+00  0.45593999997E+02  0.45594000000E+02  0.51100000000E-03 0. -1.
         11   -1    0    0    0    0 -0.00000000000E+00 -0.00000000000E+00 -0.45593999997E+02  0.45594000000E+02  0.51100000000E-03 0.  1.
    9900012    2    1    2    0    0  0.23695553383E+02 -0.20726444849E+02 -0.50652364435E+01  0.59301931155E+02  0.49999976523E+02 0.  0.
        -12    1    1    2    0    0 -0.23695553383E+02  0.20726444849E+02  0.50652364435E+01  0.31886068845E+02  0.00000000000E+00 0.  1.
         11    1    3    3    0    0  0.16047924527E+02 -0.24992653594E+02 -0.76521760693E+01  0.30671231051E+02  0.51100000000E-03 0. -1.
        -11    1    3    3    0    0 -0.47703563155E+01 -0.33540315017E+01  0.10529730629E+02  0.12036654605E+02  0.51100000000E-03 0.  1.
        -12    1    3    3    0    0  0.12417985171E+02  0.76202402468E+01 -0.79427910031E+01  0.16594045500E+02  0.00000000000E+00 0.  1.
</event>
<event>
 7    1  0.1338132E-011  0.5930195E+02  0.7816164E-02  0.1266605E+00
        -11   -1    0    0    0    0  0.00000000000E+00  0.00000000000E+00  0.45593999997E+02  0.45594000000E+02  0.51100000000E-03 0.  1.
         11   -1    0    0    0    0 -0.00000000000E+00 -0.00000000000E+00 -0.45593999997E+02  0.45594000000E+02  0.51100000000E-03 0. -1.
    9900012    2    1    2    0    0  0.83682388698E+01 -0.23735946443E+02 -0.19577984263E+02  0.59301952219E+02  0.50000014938E+02 0.  0.
        -12    1    1    2    0    0 -0.83682388698E+01  0.23735946443E+02  0.19577984263E+02  0.31886047781E+02  0.00000000000E+00 0.  1.
         11    1    3    3    0    0  0.84763092724E+01 -0.16570394746E+02 -0.14361425589E+02  0.23509069444E+02  0.51100000000E-03 0. -1.
        -11    1    3    3    0    0  0.17138069255E+02 -0.27110958907E+01 -0.46862231894E+01  0.17972872524E+02  0.51100000000E-03 0.  1.
         12    1    3    3    0    0 -0.17246139658E+02 -0.44544558068E+01 -0.53033548447E+00  0.17820010251E+02  0.00000000000E+00 0. -1.
</event>
<event>
 7    1  0.1338132E-011  0.5930194E+02  0.7816164E-02  0.1266605E+00
        -11   -1    0    0    0    0  0.00000000000E+00  0.00000000000E+00  0.45593999997E+02  0.45594000000E+02  0.51100000000E-03 0.  1.
         11   -1    0    0    0    0 -0.00000000000E+00 -0.00000000000E+00 -0.45593999997E+02  0.45594000000E+02  0.51100000000E-03 0. -1.
    9900012    2    1    2    0    0 -0.22740117794E+02  0.91123530497E+01 -0.20410121602E+02  0.59301937227E+02  0.49999987597E+02 0.  0.
        -12    1    1    2    0    0  0.22740117794E+02 -0.91123530497E+01  0.20410121602E+02  0.31886062773E+02  0.00000000000E+00 0.  1.
         11    1    3    3    0    0 -0.46449447248E+01 -0.18183218456E+01 -0.51192146459E+01  0.71475985255E+01  0.51100000000E-03 0. -1.
        -11    1    3    3    0    0  0.73590772674E+01 -0.12758819839E+02 -0.74631630251E+01  0.16511883736E+02  0.51100000000E-03 0.  1.
         12    1    3    3    0    0 -0.25454250336E+02  0.23689494734E+02 -0.78277439305E+01  0.35642454966E+02  0.00000000000E+00 0. -1.
</event>
<event>
 7    1  0.1338132E-011  0.5930193E+02  0.7816164E-02  0.1266605E+00
        -11   -1    0    0    0    0  0.00000000000E+00  0.00000000000E+00  0.45593999997E+02  0.45594000000E+02  0.51100000000E-03 0.  1.
         11   -1    0    0    0    0 -0.00000000000E+00 -0.00000000000E+00 -0.45593999997E+02  0.45594000000E+02  0.51100000000E-03 0. -1.
    9900012    2    1    2    0    0 -0.10594895429E+02 -0.30041547191E+02 -0.14053742968E+01  0.59301930257E+02  0.49999974885E+02 0.  0.
        -12    1    1    2    0    0  0.10594895429E+02  0.30041547191E+02  0.14053742968E+01  0.31886069743E+02  0.00000000000E+00 0.  1.
         11    1    3    3    0    0  0.63539691744E+01 -0.14701923555E+02 -0.50799508767E+01  0.16802540929E+02  0.51100000000E-03 0. -1.
        -11    1    3    3    0    0 -0.11549631674E+02 -0.61076605516E+01 -0.15665813117E+02  0.20398902179E+02  0.51100000000E-03 0.  1.
        -12    1    3    3    0    0 -0.53992329289E+01 -0.92319630839E+01  0.19340389697E+02  0.22100487149E+02  0.00000000000E+00 0.  1.
</event>
<event>
 7    1  0.1338132E-011  0.5930194E+02  0.7816164E-02  0.1266605E+00
        -11   -1    0    0    0    0  0.00000000000E+00  0.00000000000E+00  0.45593999997E+02  0.45594000000E+02  0.51100000000E-03 0.  1.
         11   -1    0    0    0    0 -0.00000000000E+00 -0.00000000000E+00 -0.45593999997E+02  0.45594000000E+02  0.51100000000E-03 0. -1.
    9900012    2    1    2    0    0  0.83481428025E+01 -0.10418821298E+02 -0.28956479820E+02  0.59301936445E+02  0.49999986171E+02 0.  0.
        -12    1    1    2    0    0 -0.83481428025E+01  0.10418821298E+02  0.28956479820E+02  0.31886063555E+02  0.00000000000E+00 0.  1.
         11    1    3    3    0    0  0.16101512653E+02 -0.19842165538E+02 -0.33298395884E+01  0.25769324301E+02  0.51100000000E-03 0. -1.
        -11    1    3    3    0    0  0.46139890192E+01  0.31971360292E+00 -0.13703166875E+01  0.48237827005E+01  0.51100000000E-03 0.  1.
        -12    1    3    3    0    0 -0.12367358870E+02  0.91036306369E+01 -0.24256323544E+02  0.28708829444E+02  0.00000000000E+00 0.  1.
</event>
<event>
 7    1  0.1338132E-011  0.5930210E+02  0.7816164E-02  0.1266604E+00
        -11   -1    0    0    0    0  0.00000000000E+00  0.00000000000E+00  0.45593999997E+02  0.45594000000E+02  0.51100000000E-03 0.  1.
         11   -1    0    0    0    0 -0.00000000000E+00 -0.00000000000E+00 -0.45593999997E+02  0.45594000000E+02  0.51100000000E-03 0. -1.
    9900012    2    1    2    0    0  0.24298281879E+02 -0.20419687780E+02 -0.30561822467E+01  0.59302103412E+02  0.50000290678E+02 0.  0.
        -12    1    1    2    0    0 -0.24298281879E+02  0.20419687780E+02  0.30561822467E+01  0.31885896588E+02  0.00000000000E+00 0.  1.
         11    1    3    3    0    0  0.50741703291E+01  0.31166505668E+01 -0.82876914157E+01  0.10205221435E+02  0.51100000000E-03 0. -1.
        -11    1    3    3    0    0  0.54366690381E+01 -0.27433003383E+02 -0.85223256358E+01  0.29236228884E+02  0.51100000000E-03 0.  1.
        -12    1    3    3    0    0  0.13787442512E+02  0.38966650366E+01  0.13753834805E+02  0.19860653093E+02  0.00000000000E+00 0.  1.
</event>
<event>
 7    1  0.1338132E-011  0.5930193E+02  0.7816164E-02  0.1266605E+00
        -11   -1    0    0    0    0  0.00000000000E+00  0.00000000000E+00  0.45593999997E+02  0.45594000000E+02  0.51100000000E-03 0. -1.
         11   -1    0    0    0    0 -0.00000000000E+00 -0.00000000000E+00 -0.45593999997E+02  0.45594000000E+02  0.51100000000E-03 0.  1.
    9900012    2    1    2    0    0 -0.31785413040E+02  0.21409059032E+01  0.13511447286E+01  0.59301928554E+02  0.49999971779E+02 0.  0.
        -12    1    1    2    0    0  0.31785413040E+02 -0.21409059032E+01 -0.13511447286E+01  0.31886071446E+02  0.00000000000E+00 0.  1.
         11    1    3    3    0    0 -0.10495548037E+01  0.29024138062E+01  0.58599833405E+01  0.66230639587E+01  0.51100000000E-03 0. -1.
        -11    1    3    3    0    0 -0.26630198732E+02  0.34060533977E+01 -0.21699448496E+02  0.34520063000E+02  0.51100000000E-03 0.  1.
         12    1    3    3    0    0 -0.41056595044E+01 -0.41675613008E+01  0.17190609884E+02  0.18158801595E+02  0.00000000000E+00 0. -1.
</event>
<event>
 7    1  0.1338132E-011  0.5930193E+02  0.7816164E-02  0.1266605E+00
        -11   -1    0    0    0    0  0.00000000000E+00  0.00000000000E+00  0.45593999997E+02  0.45594000000E+02  0.51100000000E-03 0.  1.
         11   -1    0    0    0    0 -0.00000000000E+00 -0.00000000000E+00 -0.45593999997E+02  0.45594000000E+02  0.51100000000E-03 0. -1.
    9900012    2    1    2    0    0 -0.52628398259E+00  0.30765917574E+02 -0.83607750620E+01  0.59301933785E+02  0.49999981320E+02 0.  0.
        -12    1    1    2    0    0  0.52628398259E+00 -0.30765917574E+02  0.83607750620E+01  0.31886066215E+02  0.00000000000E+00 0.  1.
         11    1    3    3    0    0 -0.59448379972E+01  0.14605580310E+02 -0.11846064728E+02  0.19722913700E+02  0.51100000000E-03 0. -1.
        -11    1    3    3    0    0  0.68910094630E+01  0.21554746383E+02 -0.10180083966E+02  0.24813851230E+02  0.51100000000E-03 0.  1.
        -12    1    3    3    0    0 -0.14724554484E+01 -0.53944091195E+01  0.13665373632E+02  0.14765168855E+02  0.00000000000E+00 0.  1.
</event>
<event>
 7    1  0.1338132E-011  0.5930194E+02  0.7816164E-02  0.1266605E+00
        -11   -1    0    0    0    0  0.00000000000E+00  0.00000000000E+00  0.45593999997E+02  0.45594000000E+02  0.51100000000E-03 0. -1.
         11   -1    0    0    0    0 -0.00000000000E+00 -0.00000000000E+00 -0.45593999997E+02  0.45594000000E+02  0.51100000000E-03 0.  1.
    9900012    2    1    2    0    0 -0.17045795792E+02 -0.23786748363E+02  0.12663022471E+02  0.59301942076E+02  0.49999996440E+02 0.  0.
        -12    1    1    2    0    0  0.17045795792E+02  0.23786748363E+02 -0.12663022471E+02  0.31886057924E+02  0.00000000000E+00 0.  1.
         11    1    3    3    0    0 -0.17520733522E+02 -0.97065271515E+01 -0.26478315074E+01  0.20204053664E+02  0.51100000000E-03 0. -1.
        -11    1    3    3    0    0  0.58002743268E+01 -0.10937679831E+02 -0.81589783374E+01  0.14827169322E+02  0.51100000000E-03 0.  1.
        -12    1    3    3    0    0 -0.53253365971E+01 -0.31425413803E+01  0.23469832316E+02  0.24270719089E+02  0.00000000000E+00 0.  1.
</event>
<event>
 7    1  0.1338132E-011  0.5930193E+02  0.7816164E-02  0.1266605E+00
        -11   -1    0    0    0    0  0.00000000000E+00  0.00000000000E+00  0.45593999997E+02  0.45594000000E+02  0.51100000000E-03 0.  1.
         11   -1    0    0    0    0 -0.00000000000E+00 -0.00000000000E+00 -0.45593999997E+02  0.45594000000E+02  0.51100000000E-03 0. -1.
    9900012    2    1    2    0    0  0.10170280694E+02 -0.17039524498E+02 -0.24958799081E+02  0.59301926926E+02  0.49999968811E+02 0.  0.
        -12    1    1    2    0    0 -0.10170280694E+02  0.17039524498E+02  0.24958799081E+02  0.31886073074E+02  0.00000000000E+00 0.  1.
         11    1    3    3    0    0  0.12312227267E+02  0.14377105328E+01  0.21947512816E+01  0.12588680841E+02  0.51100000000E-03 0. -1.
        -11    1    3    3    0    0  0.37784820664E+01  0.82785518681E+01 -0.13006645178E+02  0.15874009160E+02  0.51100000000E-03 0.  1.
         12    1    3    3    0    0 -0.59204286396E+01 -0.26755786899E+02 -0.14146905184E+02  0.30839236926E+02  0.00000000000E+00 0. -1.
</event>
<event>
 7    1  0.1338132E-011  0.5930193E+02  0.7816164E-02  0.1266605E+00
        -11   -1    0    0    0    0  0.00000000000E+00  0.00000000000E+00  0.45593999997E+02  0.45594000000E+02  0.51100000000E-03 0.  1.
         11   -1    0    0    0    0 -0.00000000000E+00 -0.00000000000E+00 -0.45593999997E+02  0.45594000000E+02  0.51100000000E-03 0. -1.
    9900012    2    1    2    0    0  0.51821016965E+01 -0.31217405404E+02 -0.39167053842E+01  0.59301934717E+02  0.49999983020E+02 0.  0.
        -12    1    1    2    0    0 -0.51821016965E+01  0.31217405404E+02  0.39167053842E+01  0.31886065283E+02  0.00000000000E+00 0.  1.
         11    1    3    3    0    0 -0.11604557412E+02 -0.23948567257E+02  0.46390342536E+01  0.27013334956E+02  0.51100000000E-03 0.  1.
        -11    1    3    3    0    0 -0.52046005628E-01 -0.12172573631E+02 -0.83280433926E+01  0.14748917404E+02  0.51100000000E-03 0. -1.
        -12    1    3    3    0    0  0.16838705114E+02  0.49037354838E+01 -0.22769624516E+00  0.17539682357E+02  0.00000000000E+00 0.  1.
</event>
<event>
 7    1  0.1338132E-011  0.5930192E+02  0.7816164E-02  0.1266605E+00
        -11   -1    0    0    0    0  0.00000000000E+00  0.00000000000E+00  0.45593999997E+02  0.45594000000E+02  0.51100000000E-03 0.  1.
         11   -1    0    0    0    0 -0.00000000000E+00 -0.00000000000E+00 -0.45593999997E+02  0.45594000000E+02  0.51100000000E-03 0. -1.
    9900012    2    1    2    0    0  0.30332941319E+02  0.64563451780E+01  0.74128603288E+01  0.59301918077E+02  0.49999952673E+02 0.  0.
        -12    1    1    2    0    0 -0.30332941319E+02 -0.64563451780E+01 -0.74128603288E+01  0.31886081923E+02  0.00000000000E+00 0.  1.
         11    1    3    3    0    0 -0.16022920954E+01  0.27900336028E+00 -0.36736511174E+00  0.16673752489E+01  0.51100000000E-03 0. -1.
        -11    1    3    3    0    0 -0.14591487670E+01 -0.40178708416E+00  0.21048987130E+02  0.21103326928E+02  0.51100000000E-03 0.  1.
         12    1    3    3    0    0  0.33394382181E+02  0.65791289018E+01 -0.13268761689E+02  0.36531215900E+02  0.00000000000E+00 0. -1.
</event>
<event>
 7    1  0.1338132E-011  0.5930195E+02  0.7816164E-02  0.1266605E+00
        -11   -1    0    0    0    0  0.00000000000E+00  0.00000000000E+00  0.45593999997E+02  0.45594000000E+02  0.51100000000E-03 0.  1.
         11   -1    0    0    0    0 -0.00000000000E+00 -0.00000000000E+00 -0.45593999997E+02  0.45594000000E+02  0.51100000000E-03 0. -1.
    9900012    2    1    2    0    0  0.28242337737E+02 -0.12504552270E+02  0.79200282805E+01  0.59301947935E+02  0.50000007126E+02 0.  0.
        -12    1    1    2    0    0 -0.28242337737E+02  0.12504552270E+02 -0.79200282805E+01  0.31886052065E+02  0.00000000000E+00 0.  1.
         11    1    3    3    0    0  0.23044212199E+02 -0.17993754744E+02 -0.64950047410E+01  0.29949891694E+02  0.51100000000E-03 0. -1.
        -11    1    3    3    0    0  0.10191564034E+02  0.50452067903E+01 -0.25563280281E+01  0.11655766910E+02  0.51100000000E-03 0.  1.
        -12    1    3    3    0    0 -0.49934384961E+01  0.44399568374E+00  0.16971361050E+02  0.17696289330E+02  0.00000000000E+00 0.  1.
</event>
<event>
 7    1  0.1338132E-011  0.5930186E+02  0.7816164E-02  0.1266605E+00
        -11   -1    0    0    0    0  0.00000000000E+00  0.00000000000E+00  0.45593999997E+02  0.45594000000E+02  0.51100000000E-03 0. -1.
         11   -1    0    0    0    0 -0.00000000000E+00 -0.00000000000E+00 -0.45593999997E+02  0.45594000000E+02  0.51100000000E-03 0.  1.
    9900012    2    1    2    0    0  0.47683991767E+01 -0.30935476641E+02  0.60814745656E+01  0.59301863849E+02  0.49999853774E+02 0.  0.
        -12    1    1    2    0    0 -0.47683991767E+01  0.30935476641E+02 -0.60814745656E+01  0.31886136151E+02  0.00000000000E+00 0.  1.
         11    1    3    3    0    0  0.23913769289E+01  0.33633771607E+01 -0.63944905734E+01  0.76105518522E+01  0.51100000000E-03 0. -1.
        -11    1    3    3    0    0 -0.61749415794E+01 -0.28191888910E+01 -0.99935335746E+01  0.12080912345E+02  0.51100000000E-03 0.  1.
         12    1    3    3    0    0  0.85519638272E+01 -0.31479664911E+02  0.22469498714E+02  0.39610399653E+02  0.00000000000E+00 0. -1.
</event>
<event>
 7    1  0.1338132E-011  0.5930190E+02  0.7816164E-02  0.1266605E+00
        -11   -1    0    0    0    0  0.00000000000E+00  0.00000000000E+00  0.45593999997E+02  0.45594000000E+02  0.51100000000E-03 0.  1.
         11   -1    0    0    0    0 -0.00000000000E+00 -0.00000000000E+00 -0.45593999997E+02  0.45594000000E+02  0.51100000000E-03 0. -1.
    9900012    2    1    2    0    0 -0.24164198645E+02 -0.58706668576E+01  0.19958703178E+02  0.59301904942E+02  0.49999928717E+02 0.  0.
        -12    1    1    2    0    0  0.24164198645E+02  0.58706668576E+01 -0.19958703178E+02  0.31886095058E+02  0.00000000000E+00 0.  1.
         11    1    3    3    0    0 -0.15656691848E+02  0.89971404310E+01  0.97071199737E+01  0.20501431999E+02  0.51100000000E-03 0. -1.
        -11    1    3    3    0    0 -0.33378361139E+01  0.32064399052E+01  0.17912182614E+02  0.18500505211E+02  0.51100000000E-03 0.  1.
        -12    1    3    3    0    0 -0.51696706823E+01 -0.18074247194E+02 -0.76605994099E+01  0.20299967732E+02  0.00000000000E+00 0.  1.
</event>
<event>
 7    1  0.1338132E-011  0.5930196E+02  0.7816164E-02  0.1266605E+00
        -11   -1    0    0    0    0  0.00000000000E+00  0.00000000000E+00  0.45593999997E+02  0.45594000000E+02  0.51100000000E-03 0. -1.
         11   -1    0    0    0    0 -0.00000000000E+00 -0.00000000000E+00 -0.45593999997E+02  0.45594000000E+02  0.51100000000E-03 0.  1.
    9900012    2    1    2    0    0  0.39568182530E+01 -0.22646498703E+02  0.22095230659E+02  0.59301960233E+02  0.50000029554E+02 0.  0.
        -12    1    1    2    0    0 -0.39568182530E+01  0.22646498703E+02 -0.22095230659E+02  0.31886039767E+02  0.00000000000E+00 0.  1.
         11    1    3    3    0    0  0.41048089069E+01  0.40428803802E+01 -0.13224192274E+01  0.59112715049E+01  0.51100000000E-03 0. -1.
        -11    1    3    3    0    0  0.96266695891E+01  0.76149761643E+01  0.69175194849E+01  0.14089453696E+02  0.51100000000E-03 0.  1.
         12    1    3    3    0    0 -0.97746602430E+01 -0.34304355247E+02  0.16500130401E+02  0.39301235032E+02  0.00000000000E+00 0. -1.
</event>
<event>
 7    1  0.1338132E-011  0.5930196E+02  0.7816164E-02  0.1266605E+00
        -11   -1    0    0    0    0  0.00000000000E+00  0.00000000000E+00  0.45593999997E+02  0.45594000000E+02  0.51100000000E-03 0. -1.
         11   -1    0    0    0    0 -0.00000000000E+00 -0.00000000000E+00 -0.45593999997E+02  0.45594000000E+02  0.51100000000E-03 0.  1.
    9900012    2    1    2    0    0 -0.30862568058E+02  0.22955545672E+01  0.76780276757E+01  0.59301956236E+02  0.50000022266E+02 0.  0.
        -12    1    1    2    0    0  0.30862568058E+02 -0.22955545672E+01 -0.76780276757E+01  0.31886043764E+02  0.00000000000E+00 0.  1.
         11    1    3    3    0    0 -0.48436050355E+01 -0.68471730255E+01 -0.23493542155E+01  0.87099801189E+01  0.51100000000E-03 0. -1.
        -11    1    3    3    0    0 -0.13130720299E+01 -0.14606799764E+02  0.68153678801E+01  0.16171950937E+02  0.51100000000E-03 0.  1.
        -12    1    3    3    0    0 -0.24705890993E+02  0.23749527357E+02  0.32120140111E+01  0.34420025180E+02  0.00000000000E+00 0.  1.
</event>
<event>
 7    1  0.1338132E-011  0.5930196E+02  0.7816164E-02  0.1266605E+00
        -11   -1    0    0    0    0  0.00000000000E+00  0.00000000000E+00  0.45593999997E+02  0.45594000000E+02  0.51100000000E-03 0.  1.
         11   -1    0    0    0    0 -0.00000000000E+00 -0.00000000000E+00 -0.45593999997E+02  0.45594000000E+02  0.51100000000E-03 0. -1.
    9900012    2    1    2    0    0  0.84962257451E+01 -0.25847596691E+02 -0.16626356576E+02  0.59301955410E+02  0.50000020758E+02 0.  0.
        -12    1    1    2    0    0 -0.84962257451E+01  0.25847596691E+02  0.16626356576E+02  0.31886044590E+02  0.00000000000E+00 0.  1.
         11    1    3    3    0    0  0.49838310662E+00  0.54043733402E+01  0.45746479992E+01  0.70981012601E+01  0.51100000000E-03 0. -1.
        -11    1    3    3    0    0  0.12665271427E+02 -0.52079338811E+01 -0.21792821036E+02  0.25738273536E+02  0.51100000000E-03 0.  1.
         12    1    3    3    0    0 -0.46674287890E+01 -0.26044036150E+02  0.59181646012E+00  0.26465580614E+02  0.00000000000E+00 0. -1.
</event>
<event>
 7    1  0.1338132E-011  0.5930193E+02  0.7816164E-02  0.1266605E+00
        -11   -1    0    0    0    0  0.00000000000E+00  0.00000000000E+00  0.45593999997E+02  0.45594000000E+02  0.51100000000E-03 0. -1.
         11   -1    0    0    0    0 -0.00000000000E+00 -0.00000000000E+00 -0.45593999997E+02  0.45594000000E+02  0.51100000000E-03 0.  1.
    9900012    2    1    2    0    0  0.54009710776E+01 -0.31250757045E+02  0.33077832040E+01  0.59301925702E+02  0.49999966578E+02 0.  0.
        -12    1    1    2    0    0 -0.54009710776E+01  0.31250757045E+02 -0.33077832040E+01  0.31886074298E+02  0.00000000000E+00 0.  1.
         11    1    3    3    0    0  0.12350654377E+02 -0.19927631139E+01 -0.24358555511E+01  0.12745319176E+02  0.51100000000E-03 0. -1.
        -11    1    3    3    0    0  0.56939937132E+01  0.14810016787E+01 -0.85475545389E+01  0.10376686332E+02  0.51100000000E-03 0.  1.
         12    1    3    3    0    0 -0.12643677012E+02 -0.30738995609E+02  0.14291193294E+02  0.36179920194E+02  0.00000000000E+00 0. -1.
</event>
<event>
 7    1  0.1338132E-011  0.5930186E+02  0.7816164E-02  0.1266605E+00
        -11   -1    0    0    0    0  0.00000000000E+00  0.00000000000E+00  0.45593999997E+02  0.45594000000E+02  0.51100000000E-03 0.  1.
         11   -1    0    0    0    0 -0.00000000000E+00 -0.00000000000E+00 -0.45593999997E+02  0.45594000000E+02  0.51100000000E-03 0. -1.
    9900012    2    1    2    0    0  0.25536508343E+02 -0.17889957355E+02 -0.66754954460E+01  0.59301857681E+02  0.49999842525E+02 0.  0.
        -12    1    1    2    0    0 -0.25536508343E+02  0.17889957355E+02  0.66754954460E+01  0.31886142319E+02  0.00000000000E+00 0.  1.
         11    1    3    3    0    0  0.94892604793E+01 -0.10673918232E+01 -0.11540101277E+02  0.14978629026E+02  0.51100000000E-03 0. -1.
        -11    1    3    3    0    0  0.67302017016E+01 -0.15386470987E+01 -0.15645268285E+02  0.17100803192E+02  0.51100000000E-03 0.  1.
        -12    1    3    3    0    0  0.93170461619E+01 -0.15283918433E+02  0.20509874116E+02  0.27222425464E+02  0.00000000000E+00 0.  1.
</event>
<event>
 7    1  0.1338132E-011  0.5930211E+02  0.7816164E-02  0.1266604E+00
        -11   -1    0    0    0    0  0.00000000000E+00  0.00000000000E+00  0.45593999997E+02  0.45594000000E+02  0.51100000000E-03 0. -1.
         11   -1    0    0    0    0 -0.00000000000E+00 -0.00000000000E+00 -0.45593999997E+02  0.45594000000E+02  0.51100000000E-03 0.  1.
    9900012    2    1    2    0    0 -0.12070074278E+02 -0.23933770481E+02  0.17268414638E+02  0.59302106463E+02  0.50000296243E+02 0.  0.
        -12    1    1    2    0    0  0.12070074278E+02  0.23933770481E+02 -0.17268414638E+02  0.31885893537E+02  0.00000000000E+00 0.  1.
         11    1    3    3    0    0  0.39343952536E+01  0.95753165412E+00 -0.88912548986E+01  0.97698898056E+01  0.51100000000E-03 0. -1.
        -11    1    3    3    0    0  0.39762696654E+01 -0.53289199742E+01 -0.45057451445E+01  0.80318022954E+01  0.51100000000E-03 0.  1.
         12    1    3    3    0    0 -0.19980739197E+02 -0.19562382161E+02  0.30665414681E+02  0.41500414362E+02  0.00000000000E+00 0. -1.
</event>
<event>
 7    1  0.1338132E-011  0.5930197E+02  0.7816164E-02  0.1266605E+00
        -11   -1    0    0    0    0  0.00000000000E+00  0.00000000000E+00  0.45593999997E+02  0.45594000000E+02  0.51100000000E-03 0.  1.
         11   -1    0    0    0    0 -0.00000000000E+00 -0.00000000000E+00 -0.45593999997E+02  0.45594000000E+02  0.51100000000E-03 0. -1.
    9900012    2    1    2    0    0  0.15132194963E+02 -0.23016814968E+02  0.16061187997E+02  0.59301970840E+02  0.50000048900E+02 0.  0.
        -12    1    1    2    0    0 -0.15132194963E+02  0.23016814968E+02 -0.16061187997E+02  0.31886029160E+02  0.00000000000E+00 0.  1.
         11    1    3    3    0    0  0.76961075453E+01 -0.85760602394E+01  0.73031730832E+01  0.13642405137E+02  0.51100000000E-03 0. -1.
        -11    1    3    3    0    0 -0.13979252992E+02 -0.94208469853E+01  0.15243613449E+02  0.22727508077E+02  0.51100000000E-03 0.  1.
         12    1    3    3    0    0  0.21415340410E+02 -0.50199077433E+01 -0.64855985351E+01  0.22932057627E+02  0.00000000000E+00 0. -1.
</event>
<event>
 7    1  0.1338132E-011  0.5930197E+02  0.7816164E-02  0.1266605E+00
        -11   -1    0    0    0    0  0.00000000000E+00  0.00000000000E+00  0.45593999997E+02  0.45594000000E+02  0.51100000000E-03 0.  1.
         11   -1    0    0    0    0 -0.00000000000E+00 -0.00000000000E+00 -0.45593999997E+02  0.45594000000E+02  0.51100000000E-03 0. -1.
    9900012    2    1    2    0    0 -0.15578159795E+01  0.18339319183E+01 -0.31795108213E+02  0.59301968525E+02  0.50000044678E+02 0.  0.
        -12    1    1    2    0    0  0.15578159795E+01 -0.18339319183E+01  0.31795108213E+02  0.31886031475E+02  0.00000000000E+00 0.  1.
         11    1    3    3    0    0 -0.14127585483E+01 -0.71689140261E+00  0.75650702051E-01  0.15860464333E+01  0.51100000000E-03 0. -1.
        -11    1    3    3    0    0 -0.13890341455E+02  0.19888366806E+02 -0.24287122473E+02  0.34327147249E+02  0.51100000000E-03 0.  1.
         12    1    3    3    0    0  0.13745284024E+02 -0.17337543485E+02 -0.75836364419E+01  0.23388774843E+02  0.00000000000E+00 0. -1.
</event>
<event>
 7    1  0.1338132E-011  0.5930193E+02  0.7816164E-02  0.1266605E+00
        -11   -1    0    0    0    0  0.00000000000E+00  0.00000000000E+00  0.45593999997E+02  0.45594000000E+02  0.51100000000E-03 0. -1.
         11   -1    0    0    0    0 -0.00000000000E+00 -0.00000000000E+00 -0.45593999997E+02  0.45594000000E+02  0.51100000000E-03 0.  1.
    9900012    2    1    2    0    0  0.15096851635E+02 -0.23710055499E+02  0.15054563783E+02  0.59301928562E+02  0.49999971794E+02 0.  0.
        -12    1    1    2    0    0 -0.15096851635E+02  0.23710055499E+02 -0.15054563783E+02  0.31886071438E+02  0.00000000000E+00 0.  1.
         11    1    3    3    0    0  0.14611046278E+02 -0.27490875521E+02 -0.48609404069E+01  0.31509675532E+02  0.51100000000E-03 0. -1.
        -11    1    3    3    0    0  0.80056238685E+00  0.32585045288E+01 -0.32189437979E+01  0.46497689550E+01  0.51100000000E-03 0.  1.
        -12    1    3    3    0    0 -0.31475702943E+00  0.52231549307E+00  0.23134447988E+02  0.23142484075E+02  0.00000000000E+00 0.  1.
</event>
<event>
 7    1  0.1338132E-011  0.5930197E+02  0.7816164E-02  0.1266605E+00
        -11   -1    0    0    0    0  0.00000000000E+00  0.00000000000E+00  0.45593999997E+02  0.45594000000E+02  0.51100000000E-03 0. -1.
         11   -1    0    0    0    0 -0.00000000000E+00 -0.00000000000E+00 -0.45593999997E+02  0.45594000000E+02  0.51100000000E-03 0.  1.
    9900012    2    1    2    0    0 -0.29920275710E+02 -0.89460844097E+01  0.64392220840E+01  0.59301970052E+02  0.50000047462E+02 0.  0.
        -12    1    1    2    0    0  0.29920275710E+02  0.89460844097E+01 -0.64392220840E+01  0.31886029948E+02  0.00000000000E+00 0.  1.
         11    1    3    3    0    0 -0.86059924795E+00  0.72532510965E+01  0.14741236890E+02  0.16451575847E+02  0.51100000000E-03 0.  1.
        -11    1    3    3    0    0 -0.11501131837E+01  0.43177371047E+01 -0.68524799333E+01  0.81805926153E+01  0.51100000000E-03 0. -1.
         12    1    3    3    0    0 -0.27909563278E+02 -0.20517072611E+02 -0.14495348731E+01  0.34669801589E+02  0.00000000000E+00 0. -1.
</event>
<event>
 7    1  0.1338132E-011  0.5930193E+02  0.7816164E-02  0.1266605E+00
        -11   -1    0    0    0    0  0.00000000000E+00  0.00000000000E+00  0.45593999997E+02  0.45594000000E+02  0.51100000000E-03 0. -1.
         11   -1    0    0    0    0 -0.00000000000E+00 -0.00000000000E+00 -0.45593999997E+02  0.45594000000E+02  0.51100000000E-03 0.  1.
    9900012    2    1    2    0    0  0.26820432933E+02  0.10896968644E+02 -0.13365690758E+02  0.59301933486E+02  0.49999980774E+02 0.  0.
        -12    1    1    2    0    0 -0.26820432933E+02 -0.10896968644E+02  0.13365690758E+02  0.31886066514E+02  0.00000000000E+00 0.  1.
         11    1    3    3    0    0  0.40486254421E+01 -0.42908835886E+01 -0.86288485177E+00  0.59621825257E+01  0.51100000000E-03 0. -1.
        -11    1    3    3    0    0  0.20440658926E+02  0.14162201020E+02 -0.28107310568E+02  0.37528780725E+02  0.51100000000E-03 0.  1.
         12    1    3    3    0    0  0.23311485647E+01  0.10256512132E+01  0.15604504662E+02  0.15810970235E+02  0.00000000000E+00 0. -1.
</event>
<event>
 7    1  0.1338132E-011  0.5930196E+02  0.7816164E-02  0.1266605E+00
        -11   -1    0    0    0    0  0.00000000000E+00  0.00000000000E+00  0.45593999997E+02  0.45594000000E+02  0.51100000000E-03 0.  1.
         11   -1    0    0    0    0 -0.00000000000E+00 -0.00000000000E+00 -0.45593999997E+02  0.45594000000E+02  0.51100000000E-03 0. -1.
    9900012    2    1    2    0    0  0.14685886782E+00  0.33743527977E+01 -0.31706650493E+02  0.59301960582E+02  0.50000030190E+02 0.  0.
        -12    1    1    2    0    0 -0.14685886782E+00 -0.33743527977E+01  0.31706650493E+02  0.31886039418E+02  0.00000000000E+00 0.  1.
         11    1    3    3    0    0  0.17168149998E+01  0.11558643468E+02  0.79278511162E+01  0.14120924763E+02  0.51100000000E-03 0. -1.
        -11    1    3    3    0    0 -0.67106923842E+01 -0.19317808704E+01 -0.28934965486E+01  0.75589345906E+01  0.51100000000E-03 0.  1.
         12    1    3    3    0    0  0.51407362522E+01 -0.62525098000E+01 -0.36741005060E+02  0.37622101229E+02  0.00000000000E+00 0. -1.
</event>
<event>
 7    1  0.1338132E-011  0.5930195E+02  0.7816164E-02  0.1266605E+00
        -11   -1    0    0    0    0  0.00000000000E+00  0.00000000000E+00  0.45593999997E+02  0.45594000000E+02  0.51100000000E-03 0.  1.
         11   -1    0    0    0    0 -0.00000000000E+00 -0.00000000000E+00 -0.45593999997E+02  0.45594000000E+02  0.51100000000E-03 0. -1.
    9900012    2    1    2    0    0  0.25611563697E+02  0.18837666148E+02 -0.24310601005E+01  0.59301954242E+02  0.50000018628E+02 0.  0.
        -12    1    1    2    0    0 -0.25611563697E+02 -0.18837666148E+02  0.24310601005E+01  0.31886045758E+02  0.00000000000E+00 0.  1.
         11    1    3    3    0    0 -0.86648434048E+00  0.13532237794E+02  0.72910192082E+01  0.15395818139E+02  0.51100000000E-03 0. -1.
        -11    1    3    3    0    0 -0.58495425681E+01  0.22421866400E+01 -0.95643652902E+01  0.11433356150E+02  0.51100000000E-03 0.  1.
        -12    1    3    3    0    0  0.32327590605E+02  0.30632417135E+01 -0.15771401849E+00  0.32472779953E+02  0.00000000000E+00 0.  1.
</event>
<event>
 7    1  0.1338132E-011  0.5930194E+02  0.7816164E-02  0.1266605E+00
        -11   -1    0    0    0    0  0.00000000000E+00  0.00000000000E+00  0.45593999997E+02  0.45594000000E+02  0.51100000000E-03 0. -1.
         11   -1    0    0    0    0 -0.00000000000E+00 -0.00000000000E+00 -0.45593999997E+02  0.45594000000E+02  0.51100000000E-03 0.  1.
    9900012    2    1    2    0    0 -0.17965982308E+01  0.30281956988E+02  0.98232426219E+01  0.59301940666E+02  0.49999993870E+02 0.  0.
        -12    1    1    2    0    0  0.17965982308E+01 -0.30281956988E+02 -0.98232426219E+01  0.31886059334E+02  0.00000000000E+00 0.  1.
         11    1    3    3    0    0  0.36741906583E+01  0.87592646735E+01 -0.52848603340E+01  0.10869873211E+02  0.51100000000E-03 0. -1.
        -11    1    3    3    0    0 -0.89224732006E+01 -0.25834939934E+01 -0.98657805136E+01  0.13550593885E+02  0.51100000000E-03 0.  1.
         12    1    3    3    0    0  0.34516843115E+01  0.24106186308E+02  0.24973883470E+02  0.34881473570E+02  0.00000000000E+00 0. -1.
</event>
<event>
 7    1  0.1338132E-011  0.5930194E+02  0.7816164E-02  0.1266605E+00
        -11   -1    0    0    0    0  0.00000000000E+00  0.00000000000E+00  0.45593999997E+02  0.45594000000E+02  0.51100000000E-03 0.  1.
         11   -1    0    0    0    0 -0.00000000000E+00 -0.00000000000E+00 -0.45593999997E+02  0.45594000000E+02  0.51100000000E-03 0. -1.
    9900012    2    1    2    0    0 -0.15194455000E+02  0.17883050979E+02 -0.21588089209E+02  0.59301943945E+02  0.49999999849E+02 0.  0.
        -12    1    1    2    0    0  0.15194455000E+02 -0.17883050979E+02  0.21588089209E+02  0.31886056055E+02  0.00000000000E+00 0.  1.
         11    1    3    3    0    0 -0.26108187063E+02  0.27846055592E+02 -0.17478643239E+02  0.41982653721E+02  0.51100000000E-03 0. -1.
        -11    1    3    3    0    0 -0.12510855333E+01 -0.63887600799E+00 -0.87365098602E+00  0.16542804695E+01  0.51100000000E-03 0.  1.
        -12    1    3    3    0    0  0.12164817597E+02 -0.93241286049E+01 -0.32357949848E+01  0.15665009754E+02  0.00000000000E+00 0.  1.
</event>
<event>
 7    1  0.1338132E-011  0.5930197E+02  0.7816164E-02  0.1266605E+00
        -11   -1    0    0    0    0  0.00000000000E+00  0.00000000000E+00  0.45593999997E+02  0.45594000000E+02  0.51100000000E-03 0.  1.
         11   -1    0    0    0    0 -0.00000000000E+00 -0.00000000000E+00 -0.45593999997E+02  0.45594000000E+02  0.51100000000E-03 0. -1.
    9900012    2    1    2    0    0 -0.15958950698E+02  0.54779608800E+01 -0.27055919204E+02  0.59301969724E+02  0.50000046863E+02 0.  0.
        -12    1    1    2    0    0  0.15958950698E+02 -0.54779608800E+01  0.27055919204E+02  0.31886030276E+02  0.00000000000E+00 0.  1.
         11    1    3    3    0    0 -0.69950792592E+01 -0.22551072098E+01 -0.16804835637E+02  0.18341732291E+02  0.51100000000E-03 0. -1.
        -11    1    3    3    0    0 -0.68946918246E+01 -0.11608420332E+02 -0.15751040485E+02  0.20745782092E+02  0.51100000000E-03 0.  1.
         12    1    3    3    0    0 -0.20691796146E+01  0.19341488422E+02  0.54999569181E+01  0.20214455342E+02  0.00000000000E+00 0. -1.
</event>
<event>
 7    1  0.1338132E-011  0.5930190E+02  0.7816164E-02  0.1266605E+00
        -11   -1    0    0    0    0  0.00000000000E+00  0.00000000000E+00  0.45593999997E+02  0.45594000000E+02  0.51100000000E-03 0.  1.
         11   -1    0    0    0    0 -0.00000000000E+00 -0.00000000000E+00 -0.45593999997E+02  0.45594000000E+02  0.51100000000E-03 0. -1.
    9900012    2    1    2    0    0 -0.90955917013E+01 -0.11340217349E+02 -0.28379452599E+02  0.59301895695E+02  0.49999911852E+02 0.  0.
        -12    1    1    2    0    0  0.90955917013E+01  0.11340217349E+02  0.28379452599E+02  0.31886104305E+02  0.00000000000E+00 0.  1.
         11    1    3    3    0    0 -0.84391376599E+01 -0.18146001863E+02 -0.29024241464E+02  0.35254829753E+02  0.51100000000E-03 0. -1.
        -11    1    3    3    0    0 -0.79642380497E+01 -0.55303102237E+01  0.48077990476E+00  0.97079641770E+01  0.51100000000E-03 0.  1.
        -12    1    3    3    0    0  0.73077840083E+01  0.12336094738E+02  0.16400895993E+00  0.14339101765E+02  0.00000000000E+00 0.  1.
</event>
<event>
 7    1  0.1338132E-011  0.5930194E+02  0.7816164E-02  0.1266605E+00
        -11   -1    0    0    0    0  0.00000000000E+00  0.00000000000E+00  0.45593999997E+02  0.45594000000E+02  0.51100000000E-03 0.  1.
         11   -1    0    0    0    0 -0.00000000000E+00 -0.00000000000E+00 -0.45593999997E+02  0.45594000000E+02  0.51100000000E-03 0. -1.
    9900012    2    1    2    0    0 -0.15906122796E+01  0.23401903521E+02  0.21599578196E+02  0.59301938561E+02  0.49999990030E+02 0.  0.
        -12    1    1    2    0    0  0.15906122796E+01 -0.23401903521E+02 -0.21599578196E+02  0.31886061439E+02  0.00000000000E+00 0.  1.
         11    1    3    3    0    0 -0.61115184305E+01 -0.19683483798E+01 -0.45819226736E+01  0.78879064725E+01  0.51100000000E-03 0. -1.
        -11    1    3    3    0    0 -0.10727672389E+02 -0.35779890523E+01  0.45420866627E+01  0.12186694058E+02  0.51100000000E-03 0.  1.
         12    1    3    3    0    0  0.15248578540E+02  0.28948240953E+02  0.21639414207E+02  0.39227338031E+02  0.00000000000E+00 0. -1.
</event>
<event>
 7    1  0.1338132E-011  0.5930192E+02  0.7816164E-02  0.1266605E+00
        -11   -1    0    0    0    0  0.00000000000E+00  0.00000000000E+00  0.45593999997E+02  0.45594000000E+02  0.51100000000E-03 0.  1.
         11   -1    0    0    0    0 -0.00000000000E+00 -0.00000000000E+00 -0.45593999997E+02  0.45594000000E+02  0.51100000000E-03 0. -1.
    9900012    2    1    2    0    0  0.11881717859E+02 -0.10178777851E+02 -0.27783791360E+02  0.59301924667E+02  0.49999964691E+02 0.  0.
        -12    1    1    2    0    0 -0.11881717859E+02  0.10178777851E+02  0.27783791360E+02  0.31886075333E+02  0.00000000000E+00 0.  1.
         11    1    3    3    0    0  0.58227923191E+01 -0.38251925521E+01 -0.82976273406E+01  0.10834557130E+02  0.51100000000E-03 0. -1.
        -11    1    3    3    0    0  0.24824328956E+02 -0.54435233754E+01 -0.13324345694E+02  0.28695251233E+02  0.51100000000E-03 0.  1.
        -12    1    3    3    0    0 -0.18765403417E+02 -0.91006192374E+00 -0.61618183248E+01  0.19772116305E+02  0.00000000000E+00 0.  1.
</event>
<event>
 7    1  0.1338132E-011  0.5930195E+02  0.7816164E-02  0.1266605E+00
        -11   -1    0    0    0    0  0.00000000000E+00  0.00000000000E+00  0.45593999997E+02  0.45594000000E+02  0.51100000000E-03 0.  1.
         11   -1    0    0    0    0 -0.00000000000E+00 -0.00000000000E+00 -0.45593999997E+02  0.45594000000E+02  0.51100000000E-03 0. -1.
    9900012    2    1    2    0    0 -0.76997204627E+01 -0.29774075719E+02  0.84225061879E+01  0.59301954610E+02  0.50000019300E+02 0.  0.
        -12    1    1    2    0    0  0.76997204627E+01  0.29774075719E+02 -0.84225061879E+01  0.31886045390E+02  0.00000000000E+00 0.  1.
         11    1    3    3    0    0 -0.89685136225E+01 -0.26002744587E+02  0.16469416783E+02  0.32059610916E+02  0.51100000000E-03 0. -1.
        -11    1    3    3    0    0  0.17720247312E+01 -0.67986525278E+01  0.81482503384E+01  0.10758983766E+02  0.51100000000E-03 0.  1.
         12    1    3    3    0    0 -0.50323157147E+00  0.30273213965E+01 -0.16195160934E+02  0.16483359928E+02  0.00000000000E+00 0. -1.
</event>
<event>
 7    1  0.1338132E-011  0.5930208E+02  0.7816164E-02  0.1266604E+00
        -11   -1    0    0    0    0  0.00000000000E+00  0.00000000000E+00  0.45593999997E+02  0.45594000000E+02  0.51100000000E-03 0.  1.
         11   -1    0    0    0    0 -0.00000000000E+00 -0.00000000000E+00 -0.45593999997E+02  0.45594000000E+02  0.51100000000E-03 0. -1.
    9900012    2    1    2    0    0  0.60997684968E+01 -0.29173218901E+02  0.11332613333E+02  0.59302078315E+02  0.50000244908E+02 0.  0.
        -12    1    1    2    0    0 -0.60997684968E+01  0.29173218901E+02 -0.11332613333E+02  0.31885921685E+02  0.00000000000E+00 0.  1.
         11    1    3    3    0    0 -0.15072254046E+02 -0.73513180621E+01 -0.25834749023E+01  0.16967293895E+02  0.51100000000E-03 0. -1.
        -11    1    3    3    0    0  0.39560999006E+00 -0.17492238209E+02  0.10753021499E+01  0.17529722753E+02  0.51100000000E-03 0.  1.
         12    1    3    3    0    0  0.20776412553E+02 -0.43296626294E+01  0.12840786085E+02  0.24805061668E+02  0.00000000000E+00 0. -1.
</event>
<event>
 7    1  0.1338132E-011  0.5930210E+02  0.7816164E-02  0.1266604E+00
        -11   -1    0    0    0    0  0.00000000000E+00  0.00000000000E+00  0.45593999997E+02  0.45594000000E+02  0.51100000000E-03 0.  1.
         11   -1    0    0    0    0 -0.00000000000E+00 -0.00000000000E+00 -0.45593999997E+02  0.45594000000E+02  0.51100000000E-03 0. -1.
    9900012    2    1    2    0    0 -0.47844982198E+01  0.27927321442E+02  0.14624778885E+02  0.59302096162E+02  0.50000277455E+02 0.  0.
        -12    1    1    2    0    0  0.47844982198E+01 -0.27927321442E+02 -0.14624778885E+02  0.31885903838E+02  0.00000000000E+00 0.  1.
         11    1    3    3    0    0  0.24482743481E+01 -0.97742648589E+00  0.13277515160E+02  0.13536684192E+02  0.51100000000E-03 0. -1.
        -11    1    3    3    0    0 -0.68119389065E+01 -0.23907694671E+01  0.10871327342E+02  0.13050059339E+02  0.51100000000E-03 0.  1.
         12    1    3    3    0    0 -0.42083366143E+00  0.31295517395E+02 -0.95240636171E+01  0.32715352631E+02  0.00000000000E+00 0. -1.
</event>
<event>
 7    1  0.1338132E-011  0.5930187E+02  0.7816164E-02  0.1266605E+00
        -11   -1    0    0    0    0  0.00000000000E+00  0.00000000000E+00  0.45593999997E+02  0.45594000000E+02  0.51100000000E-03 0. -1.
         11   -1    0    0    0    0 -0.00000000000E+00 -0.00000000000E+00 -0.45593999997E+02  0.45594000000E+02  0.51100000000E-03 0.  1.
    9900012    2    1    2    0    0 -0.26666299608E+02  0.82574462512E+01  0.15409354393E+02  0.59301872041E+02  0.49999868714E+02 0.  0.
        -12    1    1    2    0    0  0.26666299608E+02 -0.82574462512E+01 -0.15409354393E+02  0.31886127959E+02  0.00000000000E+00 0.  1.
         11    1    3    3    0    0 -0.11814895758E+01 -0.46802718424E+01  0.64073627380E+01  0.80221667680E+01  0.51100000000E-03 0. -1.
        -11    1    3    3    0    0  0.81218986115E+01 -0.43886917666E+01  0.97967014489E+01  0.13461099956E+02  0.51100000000E-03 0.  1.
         12    1    3    3    0    0 -0.33606708644E+02  0.17326409860E+02 -0.79470979341E+00  0.37818605318E+02  0.00000000000E+00 0. -1.
</event>
<event>
 7    1  0.1338132E-011  0.5930195E+02  0.7816164E-02  0.1266605E+00
        -11   -1    0    0    0    0  0.00000000000E+00  0.00000000000E+00  0.45593999997E+02  0.45594000000E+02  0.51100000000E-03 0.  1.
         11   -1    0    0    0    0 -0.00000000000E+00 -0.00000000000E+00 -0.45593999997E+02  0.45594000000E+02  0.51100000000E-03 0. -1.
    9900012    2    1    2    0    0 -0.98768394857E+00 -0.65601643490E+01 -0.31188281870E+02  0.59301949729E+02  0.50000010398E+02 0.  0.
        -12    1    1    2    0    0  0.98768394857E+00  0.65601643490E+01  0.31188281870E+02  0.31886050271E+02  0.00000000000E+00 0.  1.
         11    1    3    3    0    0  0.72237232328E+01 -0.25371855829E+02 -0.14036491267E+02  0.29882040307E+02  0.51100000000E-03 0. -1.
        -11    1    3    3    0    0  0.12928437714E+01 -0.50035445613E+00  0.60898718385E+00  0.15141549624E+01  0.51100000000E-03 0.  1.
         12    1    3    3    0    0 -0.95042509527E+01  0.19312045936E+02 -0.17760777787E+02  0.27905754460E+02  0.00000000000E+00 0. -1.
</event>
<event>
 7    1  0.1338132E-011  0.5930193E+02  0.7816164E-02  0.1266605E+00
        -11   -1    0    0    0    0  0.00000000000E+00  0.00000000000E+00  0.45593999997E+02  0.45594000000E+02  0.51100000000E-03 0.  1.
         11   -1    0    0    0    0 -0.00000000000E+00 -0.00000000000E+00 -0.45593999997E+02  0.45594000000E+02  0.51100000000E-03 0. -1.
    9900012    2    1    2    0    0  0.10903466947E+02 -0.25539357890E+02 -0.15670899788E+02  0.59301929482E+02  0.49999973472E+02 0.  0.
        -12    1    1    2    0    0 -0.10903466947E+02  0.25539357890E+02  0.15670899788E+02  0.31886070518E+02  0.00000000000E+00 0.  1.
         11    1    3    3    0    0 -0.13374093438E+02 -0.73188039512E+01  0.33852483699E+01  0.15617015507E+02  0.51100000000E-03 0. -1.
        -11    1    3    3    0    0 -0.44048719792E+01  0.13212204345E+01 -0.20329269901E+01  0.50280526049E+01  0.51100000000E-03 0.  1.
        -12    1    3    3    0    0  0.28682432365E+02 -0.19541774373E+02 -0.17023221168E+02  0.38656861370E+02  0.00000000000E+00 0.  1.
</event>
<event>
 7    1  0.1338132E-011  0.5930194E+02  0.7816164E-02  0.1266605E+00
        -11   -1    0    0    0    0  0.00000000000E+00  0.00000000000E+00  0.45593999997E+02  0.45594000000E+02  0.51100000000E-03 0.  1.
         11   -1    0    0    0    0 -0.00000000000E+00 -0.00000000000E+00 -0.45593999997E+02  0.45594000000E+02  0.51100000000E-03 0. -1.
    9900012    2    1    2    0    0  0.24474304061E+02  0.46330409721E+01 -0.19906389953E+02  0.59301937389E+02  0.49999987892E+02 0.  0.
        -12    1    1    2    0    0 -0.24474304061E+02 -0.46330409721E+01  0.19906389953E+02  0.31886062611E+02  0.00000000000E+00 0.  1.
         11    1    3    3    0    0  0.68783486468E+01 -0.21749562705E+01  0.18021054481E+01  0.74357043509E+01  0.51100000000E-03 0. -1.
        -11    1    3    3    0    0 -0.83684823325E+01 -0.10228526295E+02  0.12089143655E+01  0.13270859841E+02  0.51100000000E-03 0.  1.
         12    1    3    3    0    0  0.25964437747E+02  0.17036523538E+02 -0.22917409766E+02  0.38595373196E+02  0.00000000000E+00 0. -1.
</event>
<event>
 7    1  0.1338132E-011  0.5930193E+02  0.7816164E-02  0.1266605E+00
        -11   -1    0    0    0    0  0.00000000000E+00  0.00000000000E+00  0.45593999997E+02  0.45594000000E+02  0.51100000000E-03 0.  1.
         11   -1    0    0    0    0 -0.00000000000E+00 -0.00000000000E+00 -0.45593999997E+02  0.45594000000E+02  0.51100000000E-03 0. -1.
    9900012    2    1    2    0    0 -0.21578525791E+02 -0.21601267132E+02 -0.91909762070E+01  0.59301928422E+02  0.49999971540E+02 0.  0.
        -12    1    1    2    0    0  0.21578525791E+02  0.21601267132E+02  0.91909762070E+01  0.31886071578E+02  0.00000000000E+00 0.  1.
         11    1    3    3    0    0 -0.68785325892E+01 -0.15534684296E+02 -0.20142569061E+01  0.17108414827E+02  0.51100000000E-03 0. -1.
        -11    1    3    3    0    0  0.52077207956E+01 -0.10383751919E+02 -0.16183230625E+02  0.19920833655E+02  0.51100000000E-03 0.  1.
        -12    1    3    3    0    0 -0.19907713997E+02  0.43171690828E+01  0.90065113239E+01  0.22272679940E+02  0.00000000000E+00 0.  1.
</event>
<event>
 7    1  0.1338132E-011  0.5930197E+02  0.7816164E-02  0.1266605E+00
        -11   -1    0    0    0    0  0.00000000000E+00  0.00000000000E+00  0.45593999997E+02  0.45594000000E+02  0.51100000000E-03 0.  1.
         11   -1    0    0    0    0 -0.00000000000E+00 -0.00000000000E+00 -0.45593999997E+02  0.45594000000E+02  0.51100000000E-03 0. -1.
    9900012    2    1    2    0    0  0.25955228377E+02  0.32894132165E+01 -0.18227031014E+02  0.59301972041E+02  0.50000051089E+02 0.  0.
        -12    1    1    2    0    0 -0.25955228377E+02 -0.32894132165E+01  0.18227031014E+02  0.31886027959E+02  0.00000000000E+00 0.  1.
         11    1    3    3    0    0  0.16197795298E+02  0.10138176743E+02  0.96219977989E-01  0.19109172110E+02  0.51100000000E-03 0. -1.
        -11    1    3    3    0    0  0.13575001990E+02  0.43778601864E+01  0.40880806451E+01  0.14837747216E+02  0.51100000000E-03 0.  1.
         12    1    3    3    0    0 -0.38175689107E+01 -0.11226623713E+02 -0.22411331637E+02  0.25355052714E+02  0.00000000000E+00 0. -1.
</event>
<event>
 7    1  0.1338132E-011  0.5930192E+02  0.7816164E-02  0.1266605E+00
        -11   -1    0    0    0    0  0.00000000000E+00  0.00000000000E+00  0.45593999997E+02  0.45594000000E+02  0.51100000000E-03 0.  1.
         11   -1    0    0    0    0 -0.00000000000E+00 -0.00000000000E+00 -0.45593999997E+02  0.45594000000E+02  0.51100000000E-03 0. -1.
    9900012    2    1    2    0    0 -0.37127948848E+01  0.87100957088E+01 -0.30447848866E+02  0.59301919750E+02  0.49999955724E+02 0.  0.
        -12    1    1    2    0    0  0.37127948848E+01 -0.87100957088E+01  0.30447848866E+02  0.31886080250E+02  0.00000000000E+00 0.  1.
         11    1    3    3    0    0  0.50332391719E+01  0.15706917068E+02 -0.20125308179E+02  0.26020545150E+02  0.51100000000E-03 0. -1.
        -11    1    3    3    0    0 -0.85369681113E+01  0.75259977072E+01  0.47657768872E+01  0.12338277660E+02  0.51100000000E-03 0.  1.
        -12    1    3    3    0    0 -0.20906594544E+00 -0.14522819066E+02 -0.15088317574E+02  0.20943096940E+02  0.00000000000E+00 0.  1.
</event>
<event>
 7    1  0.1338132E-011  0.5930195E+02  0.7816164E-02  0.1266605E+00
        -11   -1    0    0    0    0  0.00000000000E+00  0.00000000000E+00  0.45593999997E+02  0.45594000000E+02  0.51100000000E-03 0.  1.
         11   -1    0    0    0    0 -0.00000000000E+00 -0.00000000000E+00 -0.45593999997E+02  0.45594000000E+02  0.51100000000E-03 0. -1.
    9900012    2    1    2    0    0  0.61903258937E+00  0.31625062528E+02  0.40239489845E+01  0.59301953731E+02  0.50000017697E+02 0.  0.
        -12    1    1    2    0    0 -0.61903258937E+00 -0.31625062528E+02 -0.40239489845E+01  0.31886046269E+02  0.00000000000E+00 0.  1.
         11    1    3    3    0    0  0.18040462587E+01  0.20116330250E+02 -0.26115449585E+01  0.20365202993E+02  0.51100000000E-03 0. -1.
        -11    1    3    3    0    0 -0.51057372358E+01 -0.73863431189E+01 -0.10013504460E+02  0.13449791419E+02  0.51100000000E-03 0.  1.
         12    1    3    3    0    0  0.39207235665E+01  0.18895075397E+02  0.16648998403E+02  0.25486959319E+02  0.00000000000E+00 0. -1.
</event>
<event>
 7    1  0.1338132E-011  0.5930195E+02  0.7816164E-02  0.1266605E+00
        -11   -1    0    0    0    0  0.00000000000E+00  0.00000000000E+00  0.45593999997E+02  0.45594000000E+02  0.51100000000E-03 0. -1.
         11   -1    0    0    0    0 -0.00000000000E+00 -0.00000000000E+00 -0.45593999997E+02  0.45594000000E+02  0.51100000000E-03 0.  1.
    9900012    2    1    2    0    0 -0.23426078609E+02  0.14999128385E+02  0.15587332616E+02  0.59301953689E+02  0.50000017619E+02 0.  0.
        -12    1    1    2    0    0  0.23426078609E+02 -0.14999128385E+02 -0.15587332616E+02  0.31886046311E+02  0.00000000000E+00 0.  1.
         11    1    3    3    0    0 -0.22916028496E+02  0.17178900933E+02  0.13235083873E+02  0.31550379470E+02  0.51100000000E-03 0. -1.
        -11    1    3    3    0    0 -0.57540576201E+01  0.11293177662E+02  0.37734358812E+01  0.13224366125E+02  0.51100000000E-03 0.  1.
        -12    1    3    3    0    0  0.52440075070E+01 -0.13472950211E+02 -0.14211871386E+01  0.14527208094E+02  0.00000000000E+00 0.  1.
</event>
<event>
 7    1  0.1338132E-011  0.5930189E+02  0.7816164E-02  0.1266605E+00
        -11   -1    0    0    0    0  0.00000000000E+00  0.00000000000E+00  0.45593999997E+02  0.45594000000E+02  0.51100000000E-03 0.  1.
         11   -1    0    0    0    0 -0.00000000000E+00 -0.00000000000E+00 -0.45593999997E+02  0.45594000000E+02  0.51100000000E-03 0. -1.
    9900012    2    1    2    0    0  0.25804422960E+02  0.14459515253E+02 -0.11907068988E+02  0.59301888328E+02  0.49999898418E+02 0.  0.
        -12    1    1    2    0    0 -0.25804422960E+02 -0.14459515253E+02  0.11907068988E+02  0.31886111672E+02  0.00000000000E+00 0.  1.
         11    1    3    3    0    0  0.17746572830E+02  0.11536707257E+02 -0.22011971645E+02  0.30537900345E+02  0.51100000000E-03 0. -1.
        -11    1    3    3    0    0 -0.46252070883E+01  0.32150839475E+01 -0.60215541757E+01  0.82455091020E+01  0.51100000000E-03 0.  1.
         12    1    3    3    0    0  0.12683057218E+02 -0.29227595213E+00  0.16126456832E+02  0.20518478881E+02  0.00000000000E+00 0. -1.
</event>
<event>
 7    1  0.1338132E-011  0.5930194E+02  0.7816164E-02  0.1266605E+00
        -11   -1    0    0    0    0  0.00000000000E+00  0.00000000000E+00  0.45593999997E+02  0.45594000000E+02  0.51100000000E-03 0. -1.
         11   -1    0    0    0    0 -0.00000000000E+00 -0.00000000000E+00 -0.45593999997E+02  0.45594000000E+02  0.51100000000E-03 0.  1.
    9900012    2    1    2    0    0  0.34284238112E+01  0.26907089039E+02  0.16762319824E+02  0.59301938840E+02  0.49999990539E+02 0.  0.
        -12    1    1    2    0    0 -0.34284238112E+01 -0.26907089039E+02 -0.16762319824E+02  0.31886061160E+02  0.00000000000E+00 0.  1.
         11    1    3    3    0    0 -0.62145606422E+01  0.27619166927E+02  0.16565609904E+02  0.32800283191E+02  0.51100000000E-03 0. -1.
        -11    1    3    3    0    0  0.80607897927E+01  0.11031449570E+02  0.36819272172E+01  0.14150116607E+02  0.51100000000E-03 0.  1.
        -12    1    3    3    0    0  0.15821946606E+01 -0.11743527458E+02 -0.34852172970E+01  0.12351539042E+02  0.00000000000E+00 0.  1.
</event>
<event>
 7    1  0.1544462E-011  0.5930192E+02  0.7816164E-02  0.1266605E+00
        -11   -1    0    0    0    0  0.00000000000E+00  0.00000000000E+00  0.45593999997E+02  0.45594000000E+02  0.51100000000E-03 0. -1.
         11   -1    0    0    0    0 -0.00000000000E+00 -0.00000000000E+00 -0.45593999997E+02  0.45594000000E+02  0.51100000000E-03 0.  1.
    9900012    2    1    2    0    0  0.70477738484E+01 -0.31078652649E+02  0.10808346563E+01  0.59301921999E+02  0.49999959826E+02 0.  0.
        -12    1    1    2    0    0 -0.70477738484E+01  0.31078652649E+02 -0.10808346563E+01  0.31886078001E+02  0.00000000000E+00 0.  1.
         11    1    3    3    0    0 -0.21140484411E+01 -0.25926997903E+02  0.10505605526E+02  0.28054343137E+02  0.51100000000E-03 0. -1.
        -11    1    3    3    0    0 -0.99607571491E+01 -0.19002926438E+00 -0.42066604437E+01  0.10814286220E+02  0.51100000000E-03 0.  1.
        -12    1    3    3    0    0  0.19122579439E+02 -0.49616254813E+01 -0.52181104258E+01  0.20433292643E+02  0.00000000000E+00 0.  1.
</event>
<event>
 7    1  0.1338132E-011  0.5930192E+02  0.7816164E-02  0.1266605E+00
        -11   -1    0    0    0    0  0.00000000000E+00  0.00000000000E+00  0.45593999997E+02  0.45594000000E+02  0.51100000000E-03 0. -1.
         11   -1    0    0    0    0 -0.00000000000E+00 -0.00000000000E+00 -0.45593999997E+02  0.45594000000E+02  0.51100000000E-03 0.  1.
    9900012    2    1    2    0    0  0.15150603765E+02 -0.26783367976E+02  0.83565715318E+01  0.59301923378E+02  0.49999962340E+02 0.  0.
        -12    1    1    2    0    0 -0.15150603765E+02  0.26783367976E+02 -0.83565715318E+01  0.31886076622E+02  0.00000000000E+00 0.  1.
         11    1    3    3    0    0  0.14836610868E+02 -0.33657243979E+02  0.32301201040E+01  0.36923823888E+02  0.51100000000E-03 0. -1.
        -11    1    3    3    0    0 -0.25469447336E+01 -0.70821168070E+01  0.14408242116E+01  0.76628506846E+01  0.51100000000E-03 0.  1.
        -12    1    3    3    0    0  0.28609376299E+01  0.13955992810E+02  0.36856272161E+01  0.14715248806E+02  0.00000000000E+00 0.  1.
</event>
<event>
 7    1  0.1338132E-011  0.5930192E+02  0.7816164E-02  0.1266605E+00
        -11   -1    0    0    0    0  0.00000000000E+00  0.00000000000E+00  0.45593999997E+02  0.45594000000E+02  0.51100000000E-03 0.  1.
         11   -1    0    0    0    0 -0.00000000000E+00 -0.00000000000E+00 -0.45593999997E+02  0.45594000000E+02  0.51100000000E-03 0. -1.
    9900012    2    1    2    0    0  0.19138553019E+02 -0.23074911039E+02 -0.10862146036E+02  0.59301922355E+02  0.49999960473E+02 0.  0.
        -12    1    1    2    0    0 -0.19138553019E+02  0.23074911039E+02  0.10862146036E+02  0.31886077645E+02  0.00000000000E+00 0.  1.
         11    1    3    3    0    0  0.77429714553E+01 -0.11682818282E+02 -0.27484179777E+02  0.30851612409E+02  0.51100000000E-03 0. -1.
        -11    1    3    3    0    0 -0.29367057161E+01  0.99508573772E+00  0.59450807976E+01  0.67051041781E+01  0.51100000000E-03 0.  1.
        -12    1    3    3    0    0  0.14332287280E+02 -0.12387178494E+02  0.10676952943E+02  0.21745205768E+02  0.00000000000E+00 0.  1.
</event>
<event>
 7    1  0.1338132E-011  0.5930195E+02  0.7816164E-02  0.1266605E+00
        -11   -1    0    0    0    0  0.00000000000E+00  0.00000000000E+00  0.45593999997E+02  0.45594000000E+02  0.51100000000E-03 0.  1.
         11   -1    0    0    0    0 -0.00000000000E+00 -0.00000000000E+00 -0.45593999997E+02  0.45594000000E+02  0.51100000000E-03 0. -1.
    9900012    2    1    2    0    0  0.28964548898E+02 -0.95083249131E+01 -0.93470222236E+01  0.59301950386E+02  0.50000011597E+02 0.  0.
        -12    1    1    2    0    0 -0.28964548898E+02  0.95083249131E+01  0.93470222236E+01  0.31886049614E+02  0.00000000000E+00 0.  1.
         11    1    3    3    0    0  0.47036972144E+01 -0.46807068222E+01 -0.61724040154E+01  0.90626902976E+01  0.51100000000E-03 0. -1.
        -11    1    3    3    0    0 -0.45983995349E+01 -0.12920663506E+02 -0.12799305587E+02  0.18759292298E+02  0.51100000000E-03 0.  1.
         12    1    3    3    0    0  0.28859251218E+02  0.80930454155E+01  0.96246873793E+01  0.31479967791E+02  0.00000000000E+00 0. -1.
</event>
<event>
 7    1  0.1338132E-011  0.5930195E+02  0.7816164E-02  0.1266605E+00
        -11   -1    0    0    0    0  0.00000000000E+00  0.00000000000E+00  0.45593999997E+02  0.45594000000E+02  0.51100000000E-03 0.  1.
         11   -1    0    0    0    0 -0.00000000000E+00 -0.00000000000E+00 -0.45593999997E+02  0.45594000000E+02  0.51100000000E-03 0. -1.
    9900012    2    1    2    0    0  0.25488298049E+02 -0.11155728052E+02 -0.15576150607E+02  0.59301951742E+02  0.50000014068E+02 0.  0.
        -12    1    1    2    0    0 -0.25488298049E+02  0.11155728052E+02  0.15576150607E+02  0.31886048258E+02  0.00000000000E+00 0.  1.
         11    1    3    3    0    0  0.13822725213E+02  0.16830466843E+02 -0.17785848412E+00  0.21779898539E+02  0.51100000000E-03 0. -1.
        -11    1    3    3    0    0  0.64689755490E+01 -0.48248230227E+01 -0.10570411689E+02  0.13298878351E+02  0.51100000000E-03 0.  1.
        -12    1    3    3    0    0  0.51965972869E+01 -0.23161371873E+02 -0.48278804340E+01  0.24223174852E+02  0.00000000000E+00 0.  1.
</event>
<event>
 7    1  0.1338132E-011  0.5930231E+02  0.7816164E-02  0.1266603E+00
        -11   -1    0    0    0    0  0.00000000000E+00  0.00000000000E+00  0.45593999997E+02  0.45594000000E+02  0.51100000000E-03 0. -1.
         11   -1    0    0    0    0 -0.00000000000E+00 -0.00000000000E+00 -0.45593999997E+02  0.45594000000E+02  0.51100000000E-03 0.  1.
    9900012    2    1    2    0    0 -0.28708228750E+02 -0.11809490380E+02  0.72849607485E+01  0.59302311767E+02  0.50000670664E+02 0.  0.
        -12    1    1    2    0    0  0.28708228750E+02  0.11809490380E+02 -0.72849607485E+01  0.31885688233E+02  0.00000000000E+00 0.  1.
         11    1    3    3    0    0 -0.11077219453E+02  0.44539340953E+01 -0.12805901250E+02  0.17508096037E+02  0.51100000000E-03 0. -1.
        -11    1    3    3    0    0 -0.88194354708E+01  0.35688957196E+01 -0.31253862225E+01  0.10014364582E+02  0.51100000000E-03 0.  1.
        -12    1    3    3    0    0 -0.88115738255E+01 -0.19832320194E+02  0.23216248221E+02  0.31779851149E+02  0.00000000000E+00 0.  1.
</event>
<event>
 7    1  0.1338132E-011  0.5930194E+02  0.7816164E-02  0.1266605E+00
        -11   -1    0    0    0    0  0.00000000000E+00  0.00000000000E+00  0.45593999997E+02  0.45594000000E+02  0.51100000000E-03 0. -1.
         11   -1    0    0    0    0 -0.00000000000E+00 -0.00000000000E+00 -0.45593999997E+02  0.45594000000E+02  0.51100000000E-03 0.  1.
    9900012    2    1    2    0    0 -0.21502511393E+02  0.23351863393E+02 -0.30088658080E+01  0.59301940451E+02  0.49999993476E+02 0.  0.
        -12    1    1    2    0    0  0.21502511393E+02 -0.23351863393E+02  0.30088658080E+01  0.31886059549E+02  0.00000000000E+00 0.  1.
         11    1    3    3    0    0 -0.16025078422E+02  0.15702385604E+02  0.13386123726E+02  0.26125779620E+02  0.51100000000E-03 0. -1.
        -11    1    3    3    0    0  0.27549755413E+01  0.16186810494E+02 -0.62491197506E+01  0.17568557770E+02  0.51100000000E-03 0.  1.
        -12    1    3    3    0    0 -0.82324085124E+01 -0.85373327048E+01 -0.10145869783E+02  0.15607603060E+02  0.00000000000E+00 0.  1.
</event>
<event>
 7    1  0.1338132E-011  0.5930194E+02  0.7816164E-02  0.1266605E+00
        -11   -1    0    0    0    0  0.00000000000E+00  0.00000000000E+00  0.45593999997E+02  0.45594000000E+02  0.51100000000E-03 0. -1.
         11   -1    0    0    0    0 -0.00000000000E+00 -0.00000000000E+00 -0.45593999997E+02  0.45594000000E+02  0.51100000000E-03 0.  1.
    9900012    2    1    2    0    0 -0.11192923561E+02 -0.28452070645E+02 -0.90509111473E+01  0.59301939496E+02  0.49999991736E+02 0.  0.
        -12    1    1    2    0    0  0.11192923561E+02  0.28452070645E+02  0.90509111473E+01  0.31886060504E+02  0.00000000000E+00 0.  1.
         11    1    3    3    0    0  0.25080309728E+01  0.53195465914E+00 -0.18525456968E+02  0.18702025325E+02  0.51100000000E-03 0. -1.
        -11    1    3    3    0    0 -0.55444440269E+00 -0.20848960721E+01 -0.63704038875E+01  0.67257896323E+01  0.51100000000E-03 0.  1.
         12    1    3    3    0    0 -0.13146510131E+02 -0.26899129232E+02  0.15844949708E+02  0.33874124540E+02  0.00000000000E+00 0. -1.
</event>
<event>
 7    1  0.1338132E-011  0.5930194E+02  0.7816164E-02  0.1266605E+00
        -11   -1    0    0    0    0  0.00000000000E+00  0.00000000000E+00  0.45593999997E+02  0.45594000000E+02  0.51100000000E-03 0.  1.
         11   -1    0    0    0    0 -0.00000000000E+00 -0.00000000000E+00 -0.45593999997E+02  0.45594000000E+02  0.51100000000E-03 0. -1.
    9900012    2    1    2    0    0  0.19335464394E+02  0.21946813335E+02 -0.12696378765E+02  0.59301939839E+02  0.49999992361E+02 0.  0.
        -12    1    1    2    0    0 -0.19335464394E+02 -0.21946813335E+02  0.12696378765E+02  0.31886060161E+02  0.00000000000E+00 0.  1.
         11    1    3    3    0    0  0.19206480406E+02  0.12718827682E+02  0.78696129411E+01  0.24343136102E+02  0.51100000000E-03 0. -1.
        -11    1    3    3    0    0 -0.18304641985E+01 -0.56496061983E+01  0.32798374829E+01  0.67842452456E+01  0.51100000000E-03 0.  1.
         12    1    3    3    0    0  0.19594481862E+01  0.14877591851E+02 -0.23845829189E+02  0.28174558491E+02  0.00000000000E+00 0. -1.
</event>
<event>
 7    1  0.1338132E-011  0.5930195E+02  0.7816164E-02  0.1266605E+00
        -11   -1    0    0    0    0  0.00000000000E+00  0.00000000000E+00  0.45593999997E+02  0.45594000000E+02  0.51100000000E-03 0.  1.
         11   -1    0    0    0    0 -0.00000000000E+00 -0.00000000000E+00 -0.45593999997E+02  0.45594000000E+02  0.51100000000E-03 0. -1.
    9900012    2    1    2    0    0  0.30763006337E+02 -0.74408876383E+01 -0.38717894093E+01  0.59301950998E+02  0.50000012713E+02 0.  0.
        -12    1    1    2    0    0 -0.30763006337E+02  0.74408876383E+01  0.38717894093E+01  0.31886049002E+02  0.00000000000E+00 0.  1.
         11    1    3    3    0    0  0.22858064691E+02 -0.84713673321E+01  0.58746035034E+01  0.25075209919E+02  0.51100000000E-03 0. -1.
        -11    1    3    3    0    0  0.78628803405E+01  0.11053374396E+02  0.65743999490E+01  0.15073974517E+02  0.51100000000E-03 0.  1.
         12    1    3    3    0    0  0.42061304564E-01 -0.10022894702E+02 -0.16320792862E+02  0.19152766562E+02  0.00000000000E+00 0. -1.
</event>
<event>
 7    1  0.1338132E-011  0.5930191E+02  0.7816164E-02  0.1266605E+00
        -11   -1    0    0    0    0  0.00000000000E+00  0.00000000000E+00  0.45593999997E+02  0.45594000000E+02  0.51100000000E-03 0.  1.
         11   -1    0    0    0    0 -0.00000000000E+00 -0.00000000000E+00 -0.45593999997E+02  0.45594000000E+02  0.51100000000E-03 0. -1.
    9900012    2    1    2    0    0 -0.18085354393E+02  0.31069297446E+01 -0.26076611185E+02  0.59301910449E+02  0.49999938761E+02 0.  0.
        -12    1    1    2    0    0  0.18085354393E+02 -0.31069297446E+01  0.26076611185E+02  0.31886089551E+02  0.00000000000E+00 0.  1.
         11    1    3    3    0    0 -0.10093857268E+02 -0.97643102254E+01 -0.62303832831E+01  0.15363768575E+02  0.51100000000E-03 0. -1.
        -11    1    3    3    0    0  0.55200033335E+01 -0.10482478662E+02 -0.33401157997E+01  0.12308906105E+02  0.51100000000E-03 0.  1.
        -12    1    3    3    0    0 -0.13511500459E+02  0.23353718632E+02 -0.16506112102E+02  0.31629235769E+02  0.00000000000E+00 0.  1.
</event>
<event>
 7    1  0.1338132E-011  0.5930194E+02  0.7816164E-02  0.1266605E+00
        -11   -1    0    0    0    0  0.00000000000E+00  0.00000000000E+00  0.45593999997E+02  0.45594000000E+02  0.51100000000E-03 0.  1.
         11   -1    0    0    0    0 -0.00000000000E+00 -0.00000000000E+00 -0.45593999997E+02  0.45594000000E+02  0.51100000000E-03 0. -1.
    9900012    2    1    2    0    0 -0.14954372895E+02 -0.27621910049E+02 -0.54879715179E+01  0.59301936981E+02  0.49999987148E+02 0.  0.
        -12    1    1    2    0    0  0.14954372895E+02  0.27621910049E+02  0.54879715179E+01  0.31886063019E+02  0.00000000000E+00 0.  1.
         11    1    3    3    0    0 -0.15288465703E+02 -0.77867287355E+01 -0.10506588211E+02  0.20118616355E+02  0.51100000000E-03 0. -1.
        -11    1    3    3    0    0  0.57781363232E+00  0.77152810534E+01 -0.57108471345E+01  0.96162989544E+01  0.51100000000E-03 0.  1.
         12    1    3    3    0    0 -0.24372082474E+00 -0.27550462367E+02  0.10729463828E+02  0.29567021672E+02  0.00000000000E+00 0. -1.
</event>
<event>
 7    1  0.1338132E-011  0.5930185E+02  0.7816164E-02  0.1266605E+00
        -11   -1    0    0    0    0  0.00000000000E+00  0.00000000000E+00  0.45593999997E+02  0.45594000000E+02  0.51100000000E-03 0.  1.
         11   -1    0    0    0    0 -0.00000000000E+00 -0.00000000000E+00 -0.45593999997E+02  0.45594000000E+02  0.51100000000E-03 0. -1.
    9900012    2    1    2    0    0  0.56104509984E+01  0.24840450224E+02 -0.19188582587E+02  0.59301845803E+02  0.49999820862E+02 0.  0.
        -12    1    1    2    0    0 -0.56104509984E+01 -0.24840450224E+02  0.19188582587E+02  0.31886154197E+02  0.00000000000E+00 0.  1.
         11    1    3    3    0    0 -0.17138136573E+02 -0.33156456942E+01 -0.93958496269E+01  0.19824006205E+02  0.51100000000E-03 0. -1.
        -11    1    3    3    0    0  0.57910791412E+00  0.55602962754E+01  0.16324656606E+01  0.58238479583E+01  0.51100000000E-03 0.  1.
        -12    1    3    3    0    0  0.22169479657E+02  0.22595799643E+02 -0.11425198621E+02  0.33653991640E+02  0.00000000000E+00 0.  1.
</event>
<event>
 7    1  0.1338132E-011  0.5930187E+02  0.7816164E-02  0.1266605E+00
        -11   -1    0    0    0    0  0.00000000000E+00  0.00000000000E+00  0.45593999997E+02  0.45594000000E+02  0.51100000000E-03 0. -1.
         11   -1    0    0    0    0 -0.00000000000E+00 -0.00000000000E+00 -0.45593999997E+02  0.45594000000E+02  0.51100000000E-03 0.  1.
    9900012    2    1    2    0    0 -0.22594810968E+02  0.20565701871E+02  0.91242412597E+01  0.59301868928E+02  0.49999863036E+02 0.  0.
        -12    1    1    2    0    0  0.22594810968E+02 -0.20565701871E+02 -0.91242412597E+01  0.31886131072E+02  0.00000000000E+00 0.  1.
         11    1    3    3    0    0 -0.11566757888E+02  0.27193343307E+02  0.48196333305E+01  0.29941554301E+02  0.51100000000E-03 0. -1.
        -11    1    3    3    0    0 -0.91392557161E+01  0.90983282864E+01  0.40581701123E+01  0.13519405223E+02  0.51100000000E-03 0.  1.
        -12    1    3    3    0    0 -0.18887973641E+01 -0.15725969722E+02  0.24643781689E+00  0.15840909405E+02  0.00000000000E+00 0.  1.
</event>
<event>
 7    1  0.1338132E-011  0.5930191E+02  0.7816164E-02  0.1266605E+00
        -11   -1    0    0    0    0  0.00000000000E+00  0.00000000000E+00  0.45593999997E+02  0.45594000000E+02  0.51100000000E-03 0.  1.
         11   -1    0    0    0    0 -0.00000000000E+00 -0.00000000000E+00 -0.45593999997E+02  0.45594000000E+02  0.51100000000E-03 0. -1.
    9900012    2    1    2    0    0 -0.28187863456E+02 -0.12011834304E+02 -0.88251146734E+01  0.59301914343E+02  0.49999945862E+02 0.  0.
        -12    1    1    2    0    0  0.28187863456E+02  0.12011834304E+02  0.88251146734E+01  0.31886085657E+02  0.00000000000E+00 0.  1.
         11    1    3    3    0    0 -0.38920814734E+01  0.70239384576E+01 -0.14192516118E+02  0.16306793789E+02  0.51100000000E-03 0. -1.
        -11    1    3    3    0    0 -0.95778460653E+00 -0.67244475835E+01  0.13727676570E+02  0.15316156533E+02  0.51100000000E-03 0.  1.
        -12    1    3    3    0    0 -0.23337997376E+02 -0.12311325178E+02 -0.83602751259E+01  0.27678964022E+02  0.00000000000E+00 0.  1.
</event>
<event>
 7    1  0.1338132E-011  0.5930194E+02  0.7816164E-02  0.1266605E+00
        -11   -1    0    0    0    0  0.00000000000E+00  0.00000000000E+00  0.45593999997E+02  0.45594000000E+02  0.51100000000E-03 0.  1.
         11   -1    0    0    0    0 -0.00000000000E+00 -0.00000000000E+00 -0.45593999997E+02  0.45594000000E+02  0.51100000000E-03 0. -1.
    9900012    2    1    2    0    0 -0.15477261420E+02  0.66082146490E+01 -0.27083327082E+02  0.59301941483E+02  0.49999995359E+02 0.  0.
        -12    1    1    2    0    0  0.15477261420E+02 -0.66082146490E+01  0.27083327082E+02  0.31886058517E+02  0.00000000000E+00 0.  1.
         11    1    3    3    0    0  0.59192543070E+01 -0.14724341806E+01 -0.34291697072E+01  0.69974880571E+01  0.51100000000E-03 0.  1.
        -11    1    3    3    0    0  0.66074202192E+01 -0.10762161316E+02 -0.90000424790E+01  0.15507510536E+02  0.51100000000E-03 0. -1.
        -12    1    3    3    0    0 -0.28003935946E+02  0.18842810145E+02 -0.14654114896E+02  0.36796942890E+02  0.00000000000E+00 0.  1.
</event>
<event>
 7    1  0.1338132E-011  0.5930194E+02  0.7816164E-02  0.1266605E+00
        -11   -1    0    0    0    0  0.00000000000E+00  0.00000000000E+00  0.45593999997E+02  0.45594000000E+02  0.51100000000E-03 0. -1.
         11   -1    0    0    0    0 -0.00000000000E+00 -0.00000000000E+00 -0.45593999997E+02  0.45594000000E+02  0.51100000000E-03 0.  1.
    9900012    2    1    2    0    0 -0.22309981624E+02  0.11954603484E+02  0.19392596489E+02  0.59301943124E+02  0.49999998352E+02 0.  0.
        -12    1    1    2    0    0  0.22309981624E+02 -0.11954603484E+02 -0.19392596489E+02  0.31886056876E+02  0.00000000000E+00 0.  1.
         11    1    3    3    0    0  0.51284179020E+01  0.12826686171E+02  0.13129105775E+02  0.19057753462E+02  0.51100000000E-03 0. -1.
        -11    1    3    3    0    0 -0.52451555621E+01  0.10428266960E+02 -0.52592557319E+01  0.12803131639E+02  0.51100000000E-03 0.  1.
        -12    1    3    3    0    0 -0.22193243963E+02 -0.11300349647E+02  0.11522746446E+02  0.27441058023E+02  0.00000000000E+00 0.  1.
</event>
<event>
 7    1  0.1338132E-011  0.5930192E+02  0.7816164E-02  0.1266605E+00
        -11   -1    0    0    0    0  0.00000000000E+00  0.00000000000E+00  0.45593999997E+02  0.45594000000E+02  0.51100000000E-03 0.  1.
         11   -1    0    0    0    0 -0.00000000000E+00 -0.00000000000E+00 -0.45593999997E+02  0.45594000000E+02  0.51100000000E-03 0. -1.
    9900012    2    1    2    0    0  0.12731911111E+02  0.27351880593E+02 -0.10319647317E+02  0.59301920698E+02  0.49999957452E+02 0.  0.
        -12    1    1    2    0    0 -0.12731911111E+02 -0.27351880593E+02  0.10319647317E+02  0.31886079302E+02  0.00000000000E+00 0.  1.
         11    1    3    3    0    0  0.11155971276E+01  0.32363429889E+02 -0.10347024742E+02  0.33995544890E+02  0.51100000000E-03 0. -1.
        -11    1    3    3    0    0  0.16382116608E+01  0.71752489536E+01 -0.48543667072E+01  0.88166213132E+01  0.51100000000E-03 0.  1.
        -12    1    3    3    0    0  0.99781023222E+01 -0.12186798249E+02  0.48817441331E+01  0.16489754495E+02  0.00000000000E+00 0.  1.
</event>
<event>
 7    1  0.1338132E-011  0.5930187E+02  0.7816164E-02  0.1266605E+00
        -11   -1    0    0    0    0  0.00000000000E+00  0.00000000000E+00  0.45593999997E+02  0.45594000000E+02  0.51100000000E-03 0.  1.
         11   -1    0    0    0    0 -0.00000000000E+00 -0.00000000000E+00 -0.45593999997E+02  0.45594000000E+02  0.51100000000E-03 0. -1.
    9900012    2    1    2    0    0 -0.82713743537E+01  0.13955447529E+02 -0.27450963359E+02  0.59301866042E+02  0.49999857773E+02 0.  0.
        -12    1    1    2    0    0  0.82713743537E+01 -0.13955447529E+02  0.27450963359E+02  0.31886133958E+02  0.00000000000E+00 0.  1.
         11    1    3    3    0    0 -0.35451837639E+01  0.11082434631E+02 -0.19136006059E+02  0.22395879385E+02  0.51100000000E-03 0. -1.
        -11    1    3    3    0    0 -0.19818636641E+02  0.43531254933E+01 -0.77807497261E+01  0.21731730866E+02  0.51100000000E-03 0.  1.
        -12    1    3    3    0    0  0.15092446051E+02 -0.14801125948E+01 -0.53420757378E+00  0.15174255791E+02  0.00000000000E+00 0.  1.
</event>
<event>
 7    1  0.1338132E-011  0.5930195E+02  0.7816164E-02  0.1266605E+00
        -11   -1    0    0    0    0  0.00000000000E+00  0.00000000000E+00  0.45593999997E+02  0.45594000000E+02  0.51100000000E-03 0. -1.
         11   -1    0    0    0    0 -0.00000000000E+00 -0.00000000000E+00 -0.45593999997E+02  0.45594000000E+02  0.51100000000E-03 0.  1.
    9900012    2    1    2    0    0 -0.16078578647E+02 -0.27092181542E+02 -0.49206902150E+01  0.59301950006E+02  0.50000010903E+02 0.  0.
        -12    1    1    2    0    0  0.16078578647E+02  0.27092181542E+02  0.49206902150E+01  0.31886049994E+02  0.00000000000E+00 0.  1.
         11    1    3    3    0    0 -0.28548470294E+01 -0.22343209403E+02  0.31309462196E+01  0.22741415578E+02  0.51100000000E-03 0. -1.
        -11    1    3    3    0    0 -0.21938422819E+02 -0.10465611380E+02 -0.93798198389E+01  0.26053875677E+02  0.51100000000E-03 0.  1.
        -12    1    3    3    0    0  0.87146912012E+01  0.57166392410E+01  0.13281834043E+01  0.10506658750E+02  0.00000000000E+00 0.  1.
</event>
<event>
 7    1  0.1338132E-011  0.5930198E+02  0.7816164E-02  0.1266605E+00
        -11   -1    0    0    0    0  0.00000000000E+00  0.00000000000E+00  0.45593999997E+02  0.45594000000E+02  0.51100000000E-03 0.  1.
         11   -1    0    0    0    0 -0.00000000000E+00 -0.00000000000E+00 -0.45593999997E+02  0.45594000000E+02  0.51100000000E-03 0. -1.
    9900012    2    1    2    0    0 -0.21922596411E+02 -0.18327037940E+02 -0.14150540412E+02  0.59301978815E+02  0.50000063444E+02 0.  0.
        -12    1    1    2    0    0  0.21922596411E+02  0.18327037940E+02  0.14150540412E+02  0.31886021185E+02  0.00000000000E+00 0.  1.
         11    1    3    3    0    0 -0.71345406388E+00 -0.10866192282E+02  0.26561808580E+00  0.10892828128E+02  0.51100000000E-03 0. -1.
        -11    1    3    3    0    0  0.39900617103E+01 -0.16642803199E+02  0.15700491208E+01  0.17186289456E+02  0.51100000000E-03 0.  1.
        -12    1    3    3    0    0 -0.25199204058E+02  0.91819575407E+01 -0.15986207619E+02  0.31222861231E+02  0.00000000000E+00 0.  1.
</event>
<event>
 7    1  0.1338132E-011  0.5930194E+02  0.7816164E-02  0.1266605E+00
        -11   -1    0    0    0    0  0.00000000000E+00  0.00000000000E+00  0.45593999997E+02  0.45594000000E+02  0.51100000000E-03 0.  1.
         11   -1    0    0    0    0 -0.00000000000E+00 -0.00000000000E+00 -0.45593999997E+02  0.45594000000E+02  0.51100000000E-03 0. -1.
    9900012    2    1    2    0    0 -0.20689660911E+02 -0.41491828505E+01 -0.23904878175E+02  0.59301937410E+02  0.49999987931E+02 0.  0.
        -12    1    1    2    0    0  0.20689660911E+02  0.41491828505E+01  0.23904878175E+02  0.31886062590E+02  0.00000000000E+00 0.  1.
         11    1    3    3    0    0 -0.73541659774E+01 -0.87730156984E+01 -0.29862275628E+02  0.31981323732E+02  0.51100000000E-03 0.  1.
        -11    1    3    3    0    0 -0.35006862153E+01  0.58463753105E+01 -0.78050482998E+01  0.10361162458E+02  0.51100000000E-03 0. -1.
        -12    1    3    3    0    0 -0.98348087182E+01 -0.12225424626E+01  0.13762445753E+02  0.16959451221E+02  0.00000000000E+00 0.  1.
</event>
<event>
 7    1  0.1338132E-011  0.5930194E+02  0.7816164E-02  0.1266605E+00
        -11   -1    0    0    0    0  0.00000000000E+00  0.00000000000E+00  0.45593999997E+02  0.45594000000E+02  0.51100000000E-03 0. -1.
         11   -1    0    0    0    0 -0.00000000000E+00 -0.00000000000E+00 -0.45593999997E+02  0.45594000000E+02  0.51100000000E-03 0.  1.
    9900012    2    1    2    0    0  0.45616863491E+01  0.22254824487E+02  0.22374866062E+02  0.59301939933E+02  0.49999992533E+02 0.  0.
        -12    1    1    2    0    0 -0.45616863491E+01 -0.22254824487E+02 -0.22374866062E+02  0.31886060067E+02  0.00000000000E+00 0.  1.
         11    1    3    3    0    0 -0.14200145642E+02 -0.24974094348E+01  0.12437405203E+02  0.19041277231E+02  0.51100000000E-03 0. -1.
        -11    1    3    3    0    0  0.47713022017E+01 -0.87887803211E+00 -0.54145595975E+01  0.72701586772E+01  0.51100000000E-03 0.  1.
        -12    1    3    3    0    0  0.13990529789E+02  0.25631111954E+02  0.15352020456E+02  0.32990504025E+02  0.00000000000E+00 0.  1.
</event>
<event>
 7    1  0.1338132E-011  0.5930199E+02  0.7816164E-02  0.1266605E+00
        -11   -1    0    0    0    0  0.00000000000E+00  0.00000000000E+00  0.45593999997E+02  0.45594000000E+02  0.51100000000E-03 0. -1.
         11   -1    0    0    0    0 -0.00000000000E+00 -0.00000000000E+00 -0.45593999997E+02  0.45594000000E+02  0.51100000000E-03 0.  1.
    9900012    2    1    2    0    0  0.61826566912E+01 -0.29768564819E+02  0.96085997383E+01  0.59301986074E+02  0.50000076682E+02 0.  0.
        -12    1    1    2    0    0 -0.61826566912E+01  0.29768564819E+02 -0.96085997383E+01  0.31886013926E+02  0.00000000000E+00 0.  1.
         11    1    3    3    0    0 -0.10008621606E+02 -0.23172973626E+02  0.22633620217E+02  0.33903391829E+02  0.51100000000E-03 0. -1.
        -11    1    3    3    0    0 -0.17478273926E+01  0.12805564599E+01 -0.82425489253E+00  0.23182152252E+01  0.51100000000E-03 0.  1.
         12    1    3    3    0    0  0.17939105690E+02 -0.78761476535E+01 -0.12200765586E+02  0.23080379020E+02  0.00000000000E+00 0. -1.
</event>
<event>
 7    1  0.1338132E-011  0.5930204E+02  0.7816164E-02  0.1266604E+00
        -11   -1    0    0    0    0  0.00000000000E+00  0.00000000000E+00  0.45593999997E+02  0.45594000000E+02  0.51100000000E-03 0.  1.
         11   -1    0    0    0    0 -0.00000000000E+00 -0.00000000000E+00 -0.45593999997E+02  0.45594000000E+02  0.51100000000E-03 0. -1.
    9900012    2    1    2    0    0 -0.13376227227E+02  0.25620590302E+02 -0.13467597930E+02  0.59302042334E+02  0.50000179287E+02 0.  0.
        -12    1    1    2    0    0  0.13376227227E+02 -0.25620590302E+02  0.13467597930E+02  0.31885957666E+02  0.00000000000E+00 0.  1.
         11    1    3    3    0    0 -0.25166541427E+01  0.10998552063E+02 -0.17146877956E+02  0.20526010803E+02  0.51100000000E-03 0. -1.
        -11    1    3    3    0    0 -0.63480176039E+00 -0.10291682624E+02 -0.35278456077E+01  0.10898045669E+02  0.51100000000E-03 0.  1.
        -12    1    3    3    0    0 -0.10224771324E+02  0.24913720863E+02  0.72071256340E+01  0.27877985862E+02  0.00000000000E+00 0.  1.
</event>
<event>
 7    1  0.1338132E-011  0.5930196E+02  0.7816164E-02  0.1266605E+00
        -11   -1    0    0    0    0  0.00000000000E+00  0.00000000000E+00  0.45593999997E+02  0.45594000000E+02  0.51100000000E-03 0.  1.
         11   -1    0    0    0    0 -0.00000000000E+00 -0.00000000000E+00 -0.45593999997E+02  0.45594000000E+02  0.51100000000E-03 0. -1.
    9900012    2    1    2    0    0  0.24516241514E+02 -0.19127479959E+02 -0.70578078147E+01  0.59301964833E+02  0.50000037943E+02 0.  0.
        -12    1    1    2    0    0 -0.24516241514E+02  0.19127479959E+02  0.70578078147E+01  0.31886035167E+02  0.00000000000E+00 0.  1.
         11    1    3    3    0    0  0.15357433974E+02  0.67620492003E+01  0.43808719639E+01  0.17342667819E+02  0.51100000000E-03 0. -1.
        -11    1    3    3    0    0  0.96466714658E+01  0.17116742146E+01  0.37030409626E+01  0.10473805976E+02  0.51100000000E-03 0.  1.
         12    1    3    3    0    0 -0.48786392628E+00 -0.27601203374E+02 -0.15141720741E+02  0.31485491038E+02  0.00000000000E+00 0. -1.
</event>
<event>
 7    1  0.1338132E-011  0.5930195E+02  0.7816164E-02  0.1266605E+00
        -11   -1    0    0    0    0  0.00000000000E+00  0.00000000000E+00  0.45593999997E+02  0.45594000000E+02  0.51100000000E-03 0. -1.
         11   -1    0    0    0    0 -0.00000000000E+00 -0.00000000000E+00 -0.45593999997E+02  0.45594000000E+02  0.51100000000E-03 0.  1.
    9900012    2    1    2    0    0  0.65726275023E+01 -0.17907922857E+02  0.25550475624E+02  0.59301953868E+02  0.50000017946E+02 0.  0.
        -12    1    1    2    0    0 -0.65726275023E+01  0.17907922857E+02 -0.25550475624E+02  0.31886046132E+02  0.00000000000E+00 0.  1.
         11    1    3    3    0    0  0.41978737703E+01 -0.12550323754E+02  0.14443149466E+02  0.19589214821E+02  0.51100000000E-03 0. -1.
        -11    1    3    3    0    0  0.19788313954E+02 -0.50104230351E+01  0.84566456285E+01  0.22095170597E+02  0.51100000000E-03 0.  1.
        -12    1    3    3    0    0 -0.17413560222E+02 -0.34717606711E+00  0.26506805294E+01  0.17617568451E+02  0.00000000000E+00 0.  1.
</event>
<event>
 7    1  0.1338132E-011  0.5930202E+02  0.7816164E-02  0.1266604E+00
        -11   -1    0    0    0    0  0.00000000000E+00  0.00000000000E+00  0.45593999997E+02  0.45594000000E+02  0.51100000000E-03 0.  1.
         11   -1    0    0    0    0 -0.00000000000E+00 -0.00000000000E+00 -0.45593999997E+02  0.45594000000E+02  0.51100000000E-03 0. -1.
    9900012    2    1    2    0    0  0.26351377036E+02  0.16302475121E+02  0.75199581794E+01  0.59302022866E+02  0.50000143782E+02 0.  0.
        -12    1    1    2    0    0 -0.26351377036E+02 -0.16302475121E+02 -0.75199581794E+01  0.31885977134E+02  0.00000000000E+00 0.  1.
         11    1    3    3    0    0  0.64546786526E+01  0.21193515375E+02 -0.12139172589E+01  0.22187869790E+02  0.51100000000E-03 0. -1.
        -11    1    3    3    0    0 -0.25492352509E+01  0.75277166031E+01  0.82524675089E+01  0.11457239540E+02  0.51100000000E-03 0.  1.
        -12    1    3    3    0    0  0.22445933635E+02 -0.12418756857E+02  0.48140792936E+00  0.25656913536E+02  0.00000000000E+00 0.  1.
</event>
<event>
 7    1  0.1338132E-011  0.5930203E+02  0.7816164E-02  0.1266604E+00
        -11   -1    0    0    0    0  0.00000000000E+00  0.00000000000E+00  0.45593999997E+02  0.45594000000E+02  0.51100000000E-03 0.  1.
         11   -1    0    0    0    0 -0.00000000000E+00 -0.00000000000E+00 -0.45593999997E+02  0.45594000000E+02  0.51100000000E-03 0. -1.
    9900012    2    1    2    0    0  0.85367924929E+01  0.47107610009E+00 -0.30718343577E+02  0.59302025483E+02  0.50000148555E+02 0.  0.
        -12    1    1    2    0    0 -0.85367924929E+01 -0.47107610009E+00  0.30718343577E+02  0.31885974517E+02  0.00000000000E+00 0.  1.
         11    1    3    3    0    0 -0.64978444157E+01  0.18579092547E+01  0.36027593106E+01  0.76585693024E+01  0.51100000000E-03 0. -1.
        -11    1    3    3    0    0 -0.82101021345E+01  0.95892883720E+01 -0.14193318599E+02  0.18995013073E+02  0.51100000000E-03 0.  1.
         12    1    3    3    0    0  0.23244739043E+02 -0.10976121527E+02 -0.20127784289E+02  0.32648443108E+02  0.00000000000E+00 0. -1.
</event>
<event>
 7    1  0.1338132E-011  0.5930197E+02  0.7816164E-02  0.1266605E+00
        -11   -1    0    0    0    0  0.00000000000E+00  0.00000000000E+00  0.45593999997E+02  0.45594000000E+02  0.51100000000E-03 0.  1.
         11   -1    0    0    0    0 -0.00000000000E+00 -0.00000000000E+00 -0.45593999997E+02  0.45594000000E+02  0.51100000000E-03 0. -1.
    9900012    2    1    2    0    0 -0.12839830803E+02  0.17425449626E+02 -0.23413919130E+02  0.59301966086E+02  0.50000040230E+02 0.  0.
        -12    1    1    2    0    0  0.12839830803E+02 -0.17425449626E+02  0.23413919130E+02  0.31886033914E+02  0.00000000000E+00 0.  1.
         11    1    3    3    0    0  0.43938584106E+01 -0.18006180667E+01  0.41431397822E+01  0.63018905632E+01  0.51100000000E-03 0. -1.
        -11    1    3    3    0    0  0.86705426586E+01  0.30041361815E+01  0.31235314264E+01  0.96932756602E+01  0.51100000000E-03 0.  1.
         12    1    3    3    0    0 -0.25904231872E+02  0.16221931511E+02 -0.30680590339E+02  0.43306799863E+02  0.00000000000E+00 0. -1.
</event>
<event>
 7    1  0.1338132E-011  0.5930195E+02  0.7816164E-02  0.1266605E+00
        -11   -1    0    0    0    0  0.00000000000E+00  0.00000000000E+00  0.45593999997E+02  0.45594000000E+02  0.51100000000E-03 0.  1.
         11   -1    0    0    0    0 -0.00000000000E+00 -0.00000000000E+00 -0.45593999997E+02  0.45594000000E+02  0.51100000000E-03 0. -1.
    9900012    2    1    2    0    0  0.15136517239E+02  0.11388994635E+02 -0.25649505549E+02  0.59301945245E+02  0.50000002220E+02 0.  0.
        -12    1    1    2    0    0 -0.15136517239E+02 -0.11388994635E+02  0.25649505549E+02  0.31886054755E+02  0.00000000000E+00 0.  1.
         11    1    3    3    0    0 -0.44499243546E+00 -0.63865596226E+00  0.58733561955E+01  0.59247120576E+01  0.51100000000E-03 0. -1.
        -11    1    3    3    0    0 -0.12458225810E+01  0.62532513755E+00  0.84334041388E+01  0.85478307810E+01  0.51100000000E-03 0.  1.
         12    1    3    3    0    0  0.16827332255E+02  0.11402325460E+02 -0.39956265884E+02  0.44829402406E+02  0.00000000000E+00 0. -1.
</event>
<event>
 7    1  0.1338132E-011  0.5930194E+02  0.7816164E-02  0.1266605E+00
        -11   -1    0    0    0    0  0.00000000000E+00  0.00000000000E+00  0.45593999997E+02  0.45594000000E+02  0.51100000000E-03 0.  1.
         11   -1    0    0    0    0 -0.00000000000E+00 -0.00000000000E+00 -0.45593999997E+02  0.45594000000E+02  0.51100000000E-03 0. -1.
    9900012    2    1    2    0    0  0.17941844953E+02  0.20749698516E+02 -0.16256108407E+02  0.59301939576E+02  0.49999991881E+02 0.  0.
        -12    1    1    2    0    0 -0.17941844953E+02 -0.20749698516E+02  0.16256108407E+02  0.31886060424E+02  0.00000000000E+00 0.  1.
         11    1    3    3    0    0  0.53909019756E+01  0.36073104204E+00 -0.83862293422E+01  0.99760109180E+01  0.51100000000E-03 0. -1.
        -11    1    3    3    0    0  0.35337906693E+01  0.26566425548E+01 -0.23571540868E+02  0.23982555437E+02  0.51100000000E-03 0.  1.
        -12    1    3    3    0    0  0.90171523086E+01  0.17732324919E+02  0.15701661804E+02  0.25343373220E+02  0.00000000000E+00 0.  1.
</event>
<event>
 7    1  0.1338132E-011  0.5930201E+02  0.7816164E-02  0.1266605E+00
        -11   -1    0    0    0    0  0.00000000000E+00  0.00000000000E+00  0.45593999997E+02  0.45594000000E+02  0.51100000000E-03 0.  1.
         11   -1    0    0    0    0 -0.00000000000E+00 -0.00000000000E+00 -0.45593999997E+02  0.45594000000E+02  0.51100000000E-03 0. -1.
    9900012    2    1    2    0    0  0.27618397761E+02  0.14673782557E+02 -0.62145441512E+01  0.59302010155E+02  0.50000120600E+02 0.  0.
        -12    1    1    2    0    0 -0.27618397761E+02 -0.14673782557E+02  0.62145441512E+01  0.31885989845E+02  0.00000000000E+00 0.  1.
         11    1    3    3    0    0 -0.10793673082E+01  0.10010400556E+01  0.23836789303E+01  0.28016139068E+01  0.51100000000E-03 0. -1.
        -11    1    3    3    0    0  0.16521061928E+02  0.57424639113E+01  0.18681713251E+02  0.25591556992E+02  0.51100000000E-03 0.  1.
         12    1    3    3    0    0  0.12176703140E+02  0.79302785906E+01 -0.27279936332E+02  0.30908839256E+02  0.00000000000E+00 0. -1.
</event>
<event>
 7    1  0.1338132E-011  0.5930195E+02  0.7816164E-02  0.1266605E+00
        -11   -1    0    0    0    0  0.00000000000E+00  0.00000000000E+00  0.45593999997E+02  0.45594000000E+02  0.51100000000E-03 0.  1.
         11   -1    0    0    0    0 -0.00000000000E+00 -0.00000000000E+00 -0.45593999997E+02  0.45594000000E+02  0.51100000000E-03 0. -1.
    9900012    2    1    2    0    0  0.17901523589E+02  0.44352697534E+01 -0.26011232162E+02  0.59301947200E+02  0.50000005785E+02 0.  0.
        -12    1    1    2    0    0 -0.17901523589E+02 -0.44352697534E+01  0.26011232162E+02  0.31886052800E+02  0.00000000000E+00 0.  1.
         11    1    3    3    0    0  0.65151465509E+01  0.27663932804E+01 -0.22450792193E+02  0.23540138842E+02  0.51100000000E-03 0. -1.
        -11    1    3    3    0    0  0.16464951430E+02 -0.33708778601E+01 -0.14829268431E+02  0.22413492490E+02  0.51100000000E-03 0.  1.
        -12    1    3    3    0    0 -0.50785743916E+01  0.50397543331E+01  0.11268828462E+02  0.13348315867E+02  0.00000000000E+00 0.  1.
</event>
<event>
 7    1  0.1338132E-011  0.5930194E+02  0.7816164E-02  0.1266605E+00
        -11   -1    0    0    0    0  0.00000000000E+00  0.00000000000E+00  0.45593999997E+02  0.45594000000E+02  0.51100000000E-03 0.  1.
         11   -1    0    0    0    0 -0.00000000000E+00 -0.00000000000E+00 -0.45593999997E+02  0.45594000000E+02  0.51100000000E-03 0. -1.
    9900012    2    1    2    0    0 -0.18380891375E+02 -0.76763486291E+01 -0.24898540819E+02  0.59301939866E+02  0.49999992409E+02 0.  0.
        -12    1    1    2    0    0  0.18380891375E+02  0.76763486291E+01  0.24898540819E+02  0.31886060134E+02  0.00000000000E+00 0.  1.
         11    1    3    3    0    0 -0.18325486124E+02  0.26966993594E-01 -0.35696103882E+02  0.40125253912E+02  0.51100000000E-03 0. -1.
        -11    1    3    3    0    0 -0.43571180671E+01  0.16080009285E+01  0.54834913811E+00  0.46766261210E+01  0.51100000000E-03 0.  1.
        -12    1    3    3    0    0  0.43017128166E+01 -0.93113165512E+01  0.10249213925E+02  0.14500059833E+02  0.00000000000E+00 0.  1.
</event>
<event>
 7    1  0.1338132E-011  0.5930191E+02  0.7816164E-02  0.1266605E+00
        -11   -1    0    0    0    0  0.00000000000E+00  0.00000000000E+00  0.45593999997E+02  0.45594000000E+02  0.51100000000E-03 0. -1.
         11   -1    0    0    0    0 -0.00000000000E+00 -0.00000000000E+00 -0.45593999997E+02  0.45594000000E+02  0.51100000000E-03 0.  1.
    9900012    2    1    2    0    0  0.49799136545E+00  0.29903247296E+02  0.11057593998E+02  0.59301912449E+02  0.49999942408E+02 0.  0.
        -12    1    1    2    0    0 -0.49799136545E+00 -0.29903247296E+02 -0.11057593998E+02  0.31886087551E+02  0.00000000000E+00 0.  1.
         11    1    3    3    0    0 -0.80606865635E+01  0.18430653217E+02  0.16085442208E+02  0.25756651513E+02  0.51100000000E-03 0. -1.
        -11    1    3    3    0    0 -0.88779469155E+00  0.19453838990E+02 -0.76164086185E+01  0.20910516765E+02  0.51100000000E-03 0.  1.
        -12    1    3    3    0    0  0.94464726205E+01 -0.79812449105E+01  0.25885604080E+01  0.12634744171E+02  0.00000000000E+00 0.  1.
</event>
<event>
 7    1  0.1338132E-011  0.5930197E+02  0.7816164E-02  0.1266605E+00
        -11   -1    0    0    0    0  0.00000000000E+00  0.00000000000E+00  0.45593999997E+02  0.45594000000E+02  0.51100000000E-03 0.  1.
         11   -1    0    0    0    0 -0.00000000000E+00 -0.00000000000E+00 -0.45593999997E+02  0.45594000000E+02  0.51100000000E-03 0. -1.
    9900012    2    1    2    0    0  0.13559704972E+02  0.23791863523E+02 -0.16334025422E+02  0.59301972412E+02  0.50000051767E+02 0.  0.
        -12    1    1    2    0    0 -0.13559704972E+02 -0.23791863523E+02  0.16334025422E+02  0.31886027588E+02  0.00000000000E+00 0.  1.
         11    1    3    3    0    0  0.10285636695E+02  0.29378853048E+02 -0.14231867361E+02  0.34226559533E+02  0.51100000000E-03 0. -1.
        -11    1    3    3    0    0  0.63936056541E+00  0.76556286551E+01 -0.73093300718E+01  0.10603949189E+02  0.51100000000E-03 0.  1.
        -12    1    3    3    0    0  0.26347077115E+01 -0.13242618180E+02  0.52071720106E+01  0.14471463690E+02  0.00000000000E+00 0.  1.
</event>
<event>
 7    1  0.1338132E-011  0.5930195E+02  0.7816164E-02  0.1266605E+00
        -11   -1    0    0    0    0  0.00000000000E+00  0.00000000000E+00  0.45593999997E+02  0.45594000000E+02  0.51100000000E-03 0.  1.
         11   -1    0    0    0    0 -0.00000000000E+00 -0.00000000000E+00 -0.45593999997E+02  0.45594000000E+02  0.51100000000E-03 0. -1.
    9900012    2    1    2    0    0  0.13591448852E+02  0.11206058293E+02 -0.26578508470E+02  0.59301947613E+02  0.50000006538E+02 0.  0.
        -12    1    1    2    0    0 -0.13591448852E+02 -0.11206058293E+02  0.26578508470E+02  0.31886052387E+02  0.00000000000E+00 0.  1.
         11    1    3    3    0    0  0.13232862222E+02  0.13833287062E+02  0.57705095348E+00  0.19152061549E+02  0.51100000000E-03 0. -1.
        -11    1    3    3    0    0 -0.13445126359E+01  0.10891481473E+02 -0.14674932136E+01  0.11071839029E+02  0.51100000000E-03 0.  1.
        -12    1    3    3    0    0  0.17030992666E+01 -0.13518710242E+02 -0.25688066210E+02  0.29078047034E+02  0.00000000000E+00 0.  1.
</event>
<event>
 7    1  0.1338132E-011  0.5930197E+02  0.7816164E-02  0.1266605E+00
        -11   -1    0    0    0    0  0.00000000000E+00  0.00000000000E+00  0.45593999997E+02  0.45594000000E+02  0.51100000000E-03 0. -1.
         11   -1    0    0    0    0 -0.00000000000E+00 -0.00000000000E+00 -0.45593999997E+02  0.45594000000E+02  0.51100000000E-03 0.  1.
    9900012    2    1    2    0    0 -0.10332384450E+02  0.27034416876E+02  0.13382870194E+02  0.59301967338E+02  0.50000042513E+02 0.  0.
        -12    1    1    2    0    0  0.10332384450E+02 -0.27034416876E+02 -0.13382870194E+02  0.31886032662E+02  0.00000000000E+00 0.  1.
         11    1    3    3    0    0 -0.78133121343E+01  0.10739288893E+02  0.16165838542E+01  0.13378845841E+02  0.51100000000E-03 0. -1.
        -11    1    3    3    0    0 -0.21054780744E+02  0.92616213026E+01  0.26517395478E+00  0.23003298433E+02  0.51100000000E-03 0.  1.
        -12    1    3    3    0    0  0.18535708428E+02  0.70335066811E+01  0.11501112385E+02  0.22919823064E+02  0.00000000000E+00 0.  1.
</event>
<event>
 7    1  0.1338132E-011  0.5930195E+02  0.7816164E-02  0.1266605E+00
        -11   -1    0    0    0    0  0.00000000000E+00  0.00000000000E+00  0.45593999997E+02  0.45594000000E+02  0.51100000000E-03 0.  1.
         11   -1    0    0    0    0 -0.00000000000E+00 -0.00000000000E+00 -0.45593999997E+02  0.45594000000E+02  0.51100000000E-03 0. -1.
    9900012    2    1    2    0    0 -0.58500069926E+01  0.17108074327E+02 -0.26264260007E+02  0.59301950657E+02  0.50000012091E+02 0.  0.
        -12    1    1    2    0    0  0.58500069926E+01 -0.17108074327E+02  0.26264260007E+02  0.31886049343E+02  0.00000000000E+00 0.  1.
         11    1    3    3    0    0 -0.16249624704E+02  0.74718966305E+01 -0.28280908362E+01  0.18107391869E+02  0.51100000000E-03 0. -1.
        -11    1    3    3    0    0  0.12752016272E+02  0.18379797442E+02 -0.89140682923E+01  0.24080936169E+02  0.51100000000E-03 0.  1.
         12    1    3    3    0    0 -0.23523985607E+01 -0.87436197456E+01 -0.14522100878E+02  0.17113622619E+02  0.00000000000E+00 0. -1.
</event>
<event>
 7    1  0.1338132E-011  0.5930196E+02  0.7816164E-02  0.1266605E+00
        -11   -1    0    0    0    0  0.00000000000E+00  0.00000000000E+00  0.45593999997E+02  0.45594000000E+02  0.51100000000E-03 0.  1.
         11   -1    0    0    0    0 -0.00000000000E+00 -0.00000000000E+00 -0.45593999997E+02  0.45594000000E+02  0.51100000000E-03 0. -1.
    9900012    2    1    2    0    0  0.23259401736E+02 -0.16237803341E+02 -0.14562066585E+02  0.59301955879E+02  0.50000021614E+02 0.  0.
        -12    1    1    2    0    0 -0.23259401736E+02  0.16237803341E+02  0.14562066585E+02  0.31886044121E+02  0.00000000000E+00 0.  1.
         11    1    3    3    0    0 -0.45377934422E+01 -0.10821249139E+02 -0.49999749945E+01  0.12755028517E+02  0.51100000000E-03 0. -1.
        -11    1    3    3    0    0 -0.24996816188E+01 -0.79140324302E+01  0.79258636283E+01  0.11476046010E+02  0.51100000000E-03 0.  1.
         12    1    3    3    0    0  0.30296876797E+02  0.24974782282E+01 -0.17487955219E+02  0.35070881353E+02  0.00000000000E+00 0. -1.
</event>
<event>
 7    1  0.1338132E-011  0.5930205E+02  0.7816164E-02  0.1266604E+00
        -11   -1    0    0    0    0  0.00000000000E+00  0.00000000000E+00  0.45593999997E+02  0.45594000000E+02  0.51100000000E-03 0. -1.
         11   -1    0    0    0    0 -0.00000000000E+00 -0.00000000000E+00 -0.45593999997E+02  0.45594000000E+02  0.51100000000E-03 0.  1.
    9900012    2    1    2    0    0  0.23795176897E+02 -0.41286077584E+01  0.20819652416E+02  0.59302050550E+02  0.50000194272E+02 0.  0.
        -12    1    1    2    0    0 -0.23795176897E+02  0.41286077584E+01 -0.20819652416E+02  0.31885949450E+02  0.00000000000E+00 0.  1.
         11    1    3    3    0    0  0.21874913404E+01 -0.20576377787E+02  0.12049942902E+02  0.23945220095E+02  0.51100000000E-03 0. -1.
        -11    1    3    3    0    0  0.59718045163E+00 -0.39978164045E+00 -0.50403708592E+01  0.50913444699E+01  0.51100000000E-03 0.  1.
         12    1    3    3    0    0  0.21010505105E+02  0.16847551669E+02  0.13810080373E+02  0.30265485985E+02  0.00000000000E+00 0. -1.
</event>
<event>
 7    1  0.1338132E-011  0.5930192E+02  0.7816164E-02  0.1266605E+00
        -11   -1    0    0    0    0  0.00000000000E+00  0.00000000000E+00  0.45593999997E+02  0.45594000000E+02  0.51100000000E-03 0. -1.
         11   -1    0    0    0    0 -0.00000000000E+00 -0.00000000000E+00 -0.45593999997E+02  0.45594000000E+02  0.51100000000E-03 0.  1.
    9900012    2    1    2    0    0 -0.20324520390E+02  0.24543667118E+02 -0.11154872062E+01  0.59301920962E+02  0.49999957934E+02 0.  0.
        -12    1    1    2    0    0  0.20324520390E+02 -0.24543667118E+02  0.11154872062E+01  0.31886079038E+02  0.00000000000E+00 0.  1.
         11    1    3    3    0    0 -0.27256843787E+02  0.23107603102E+01  0.76150999413E+01  0.28394803993E+02  0.51100000000E-03 0. -1.
        -11    1    3    3    0    0  0.58545144336E+01  0.18019831583E+02  0.22658279457E+01  0.19082024161E+02  0.51100000000E-03 0.  1.
        -12    1    3    3    0    0  0.10778089631E+01  0.42130752247E+01 -0.10996415093E+02  0.11825092808E+02  0.00000000000E+00 0.  1.
</event>
<event>
 7    1  0.1338132E-011  0.5930172E+02  0.7816164E-02  0.1266606E+00
        -11   -1    0    0    0    0  0.00000000000E+00  0.00000000000E+00  0.45593999997E+02  0.45594000000E+02  0.51100000000E-03 0.  1.
         11   -1    0    0    0    0 -0.00000000000E+00 -0.00000000000E+00 -0.45593999997E+02  0.45594000000E+02  0.51100000000E-03 0. -1.
    9900012    2    1    2    0    0  0.24443970536E+02 -0.12256002550E+02 -0.16401762226E+02  0.59301716144E+02  0.49999584393E+02 0.  0.
        -12    1    1    2    0    0 -0.24443970536E+02  0.12256002550E+02  0.16401762226E+02  0.31886283856E+02  0.00000000000E+00 0.  1.
         11    1    3    3    0    0  0.10550904004E+02 -0.11436202602E+02 -0.17616482926E+02  0.23504228900E+02  0.51100000000E-03 0. -1.
        -11    1    3    3    0    0  0.21135345524E+02  0.22917525105E+01 -0.88378082215E+01  0.23023071350E+02  0.51100000000E-03 0.  1.
        -12    1    3    3    0    0 -0.72422789922E+01 -0.31115524584E+01  0.10052528922E+02  0.12774415894E+02  0.00000000000E+00 0.  1.
</event>
<event>
 7    1  0.1338132E-011  0.5930195E+02  0.7816164E-02  0.1266605E+00
        -11   -1    0    0    0    0  0.00000000000E+00  0.00000000000E+00  0.45593999997E+02  0.45594000000E+02  0.51100000000E-03 0.  1.
         11   -1    0    0    0    0 -0.00000000000E+00 -0.00000000000E+00 -0.45593999997E+02  0.45594000000E+02  0.51100000000E-03 0. -1.
    9900012    2    1    2    0    0 -0.10720030292E+01 -0.28639769870E+02  0.13976220022E+02  0.59301947644E+02  0.50000006596E+02 0.  0.
        -12    1    1    2    0    0  0.10720030292E+01  0.28639769870E+02 -0.13976220022E+02  0.31886052356E+02  0.00000000000E+00 0.  1.
         11    1    3    3    0    0  0.17189388953E+02 -0.14862373204E+02 -0.77575652372E+01  0.24011352492E+02  0.51100000000E-03 0. -1.
        -11    1    3    3    0    0 -0.52626199125E+01 -0.11895193408E+02  0.16830125408E+02  0.21270729091E+02  0.51100000000E-03 0.  1.
        -12    1    3    3    0    0 -0.12998772070E+02 -0.18822032583E+01  0.49036598518E+01  0.14019866061E+02  0.00000000000E+00 0.  1.
</event>
<event>
 7    1  0.1338132E-011  0.5930189E+02  0.7816164E-02  0.1266605E+00
        -11   -1    0    0    0    0  0.00000000000E+00  0.00000000000E+00  0.45593999997E+02  0.45594000000E+02  0.51100000000E-03 0. -1.
         11   -1    0    0    0    0 -0.00000000000E+00 -0.00000000000E+00 -0.45593999997E+02  0.45594000000E+02  0.51100000000E-03 0.  1.
    9900012    2    1    2    0    0 -0.11479769162E+02 -0.17396668259E+02  0.24130781879E+02  0.59301893298E+02  0.49999907481E+02 0.  0.
        -12    1    1    2    0    0  0.11479769162E+02  0.17396668259E+02 -0.24130781879E+02  0.31886106702E+02  0.00000000000E+00 0.  1.
         11    1    3    3    0    0  0.60753034851E+01 -0.14300803369E+02  0.61459583266E+01  0.16709132037E+02  0.51100000000E-03 0. -1.
        -11    1    3    3    0    0  0.10096259440E+02  0.22708397539E+01  0.35372978412E+01  0.10936345100E+02  0.51100000000E-03 0.  1.
         12    1    3    3    0    0 -0.27651332087E+02 -0.53667046448E+01  0.14447525711E+02  0.31656416160E+02  0.00000000000E+00 0. -1.
</event>
<event>
 7    1  0.1338132E-011  0.5930180E+02  0.7816164E-02  0.1266605E+00
        -11   -1    0    0    0    0  0.00000000000E+00  0.00000000000E+00  0.45593999997E+02  0.45594000000E+02  0.51100000000E-03 0. -1.
         11   -1    0    0    0    0 -0.00000000000E+00 -0.00000000000E+00 -0.45593999997E+02  0.45594000000E+02  0.51100000000E-03 0.  1.
    9900012    2    1    2    0    0  0.23995086230E+01 -0.24377174661E+02  0.20413852043E+02  0.59301801711E+02  0.49999740448E+02 0.  0.
        -12    1    1    2    0    0 -0.23995086230E+01  0.24377174661E+02 -0.20413852043E+02  0.31886198289E+02  0.00000000000E+00 0.  1.
         11    1    3    3    0    0 -0.79959287252E+00 -0.25201722939E+01  0.23545824194E+02  0.23693806245E+02  0.51100000000E-03 0. -1.
        -11    1    3    3    0    0 -0.14396014163E+01  0.57598676374E+01 -0.46824979997E+01  0.75613699299E+01  0.51100000000E-03 0.  1.
        -12    1    3    3    0    0  0.46387029118E+01 -0.27616870004E+02  0.15505258494E+01  0.28046625536E+02  0.00000000000E+00 0.  1.
</event>
<event>
 7    1  0.1338132E-011  0.5930194E+02  0.7816164E-02  0.1266605E+00
        -11   -1    0    0    0    0  0.00000000000E+00  0.00000000000E+00  0.45593999997E+02  0.45594000000E+02  0.51100000000E-03 0.  1.
         11   -1    0    0    0    0 -0.00000000000E+00 -0.00000000000E+00 -0.45593999997E+02  0.45594000000E+02  0.51100000000E-03 0. -1.
    9900012    2    1    2    0    0  0.20881725234E+02 -0.15319693465E+01 -0.24048443595E+02  0.59301936929E+02  0.49999987054E+02 0.  0.
        -12    1    1    2    0    0 -0.20881725234E+02  0.15319693465E+01  0.24048443595E+02  0.31886063071E+02  0.00000000000E+00 0.  1.
         11    1    3    3    0    0  0.87806966022E+01 -0.44106227824E+01  0.56814053808E-01  0.98263652612E+01  0.51100000000E-03 0. -1.
        -11    1    3    3    0    0  0.12912011988E+02 -0.17102367929E+02 -0.54131391603E+01  0.22102332868E+02  0.51100000000E-03 0.  1.
         12    1    3    3    0    0 -0.81098335672E+00  0.19981021365E+02 -0.18692118489E+02  0.27373238800E+02  0.00000000000E+00 0. -1.
</event>
<event>
 7    1  0.1338132E-011  0.5930196E+02  0.7816164E-02  0.1266605E+00
        -11   -1    0    0    0    0  0.00000000000E+00  0.00000000000E+00  0.45593999997E+02  0.45594000000E+02  0.51100000000E-03 0.  1.
         11   -1    0    0    0    0 -0.00000000000E+00 -0.00000000000E+00 -0.45593999997E+02  0.45594000000E+02  0.51100000000E-03 0. -1.
    9900012    2    1    2    0    0  0.19674174861E+02  0.25027666646E+02 -0.18062515884E+01  0.59301956047E+02  0.50000021920E+02 0.  0.
        -12    1    1    2    0    0 -0.19674174861E+02 -0.25027666646E+02  0.18062515884E+01  0.31886043953E+02  0.00000000000E+00 0.  1.
         11    1    3    3    0    0  0.92933939394E+00 -0.42358834618E+01 -0.33269575545E+01  0.54658052692E+01  0.51100000000E-03 0. -1.
        -11    1    3    3    0    0  0.26160923656E+02  0.12981369684E+02 -0.11832829477E+02  0.31510724192E+02  0.51100000000E-03 0.  1.
        -12    1    3    3    0    0 -0.74160881896E+01  0.16282180423E+02  0.13353535443E+02  0.22325426585E+02  0.00000000000E+00 0.  1.
</event>
<event>
 7    1  0.1338132E-011  0.5930198E+02  0.7816164E-02  0.1266605E+00
        -11   -1    0    0    0    0  0.00000000000E+00  0.00000000000E+00  0.45593999997E+02  0.45594000000E+02  0.51100000000E-03 0.  1.
         11   -1    0    0    0    0 -0.00000000000E+00 -0.00000000000E+00 -0.45593999997E+02  0.45594000000E+02  0.51100000000E-03 0. -1.
    9900012    2    1    2    0    0  0.13439032097E+02  0.13543980759E+02 -0.25547434343E+02  0.59301977984E+02  0.50000061928E+02 0.  0.
        -12    1    1    2    0    0 -0.13439032097E+02 -0.13543980759E+02  0.25547434343E+02  0.31886022016E+02  0.00000000000E+00 0.  1.
         11    1    3    3    0    0 -0.52159377896E+01 -0.66747423554E+01 -0.91103995792E+01  0.12440159697E+02  0.51100000000E-03 0. -1.
        -11    1    3    3    0    0  0.13862134506E+02  0.13165418405E+02 -0.27127261589E+02  0.33186975404E+02  0.51100000000E-03 0.  1.
        -12    1    3    3    0    0  0.47928353805E+01  0.70533047091E+01  0.10690226826E+02  0.13674842883E+02  0.00000000000E+00 0.  1.
</event>
<event>
 7    1  0.1338132E-011  0.5930196E+02  0.7816164E-02  0.1266605E+00
        -11   -1    0    0    0    0  0.00000000000E+00  0.00000000000E+00  0.45593999997E+02  0.45594000000E+02  0.51100000000E-03 0.  1.
         11   -1    0    0    0    0 -0.00000000000E+00 -0.00000000000E+00 -0.45593999997E+02  0.45594000000E+02  0.51100000000E-03 0. -1.
    9900012    2    1    2    0    0  0.10204959474E+01  0.82261695703E+01 -0.30789746790E+02  0.59301956263E+02  0.50000022315E+02 0.  0.
        -12    1    1    2    0    0 -0.10204959474E+01 -0.82261695703E+01  0.30789746790E+02  0.31886043737E+02  0.00000000000E+00 0.  1.
         11    1    3    3    0    0  0.70282590542E+01  0.82771396543E+01 -0.35497316169E+01  0.11424012474E+02  0.51100000000E-03 0. -1.
        -11    1    3    3    0    0  0.81367023618E+01  0.88471790163E+01  0.38163569744E+01  0.12611228437E+02  0.51100000000E-03 0.  1.
        -12    1    3    3    0    0 -0.14144465469E+02 -0.88981491003E+01 -0.31056372147E+02  0.35266715353E+02  0.00000000000E+00 0.  1.
</event>
<event>
 7    1  0.1338132E-011  0.5930197E+02  0.7816164E-02  0.1266605E+00
        -11   -1    0    0    0    0  0.00000000000E+00  0.00000000000E+00  0.45593999997E+02  0.45594000000E+02  0.51100000000E-03 0.  1.
         11   -1    0    0    0    0 -0.00000000000E+00 -0.00000000000E+00 -0.45593999997E+02  0.45594000000E+02  0.51100000000E-03 0. -1.
    9900012    2    1    2    0    0 -0.81024970148E+01 -0.28285827925E+02 -0.12287396696E+02  0.59301974270E+02  0.50000055156E+02 0.  0.
        -12    1    1    2    0    0  0.81024970148E+01  0.28285827925E+02  0.12287396696E+02  0.31886025730E+02  0.00000000000E+00 0.  1.
         11    1    3    3    0    0 -0.79328212403E+01 -0.65101622885E+01  0.13462610037E+01  0.10350086222E+02  0.51100000000E-03 0. -1.
        -11    1    3    3    0    0  0.51251443610E+01 -0.33023980624E+02 -0.49421298298E+01  0.33782762594E+02  0.51100000000E-03 0.  1.
        -12    1    3    3    0    0 -0.52948201355E+01  0.11248314988E+02 -0.86915278701E+01  0.15169125454E+02  0.00000000000E+00 0.  1.
</event>
<event>
 7    1  0.1338132E-011  0.5930193E+02  0.7816164E-02  0.1266605E+00
        -11   -1    0    0    0    0  0.00000000000E+00  0.00000000000E+00  0.45593999997E+02  0.45594000000E+02  0.51100000000E-03 0.  1.
         11   -1    0    0    0    0 -0.00000000000E+00 -0.00000000000E+00 -0.45593999997E+02  0.45594000000E+02  0.51100000000E-03 0. -1.
    9900012    2    1    2    0    0 -0.11048793894E+02 -0.11344860861E+02 -0.27675613896E+02  0.59301932211E+02  0.49999978450E+02 0.  0.
        -12    1    1    2    0    0  0.11048793894E+02  0.11344860861E+02  0.27675613896E+02  0.31886067789E+02  0.00000000000E+00 0.  1.
         11    1    3    3    0    0 -0.12900455524E+02  0.96461475673E+01 -0.71697905578E+01  0.17631670724E+02  0.51100000000E-03 0. -1.
        -11    1    3    3    0    0  0.82402368925E-01  0.58112464905E+01  0.24784204921E+01  0.63182231933E+01  0.51100000000E-03 0.  1.
        -12    1    3    3    0    0  0.17692592606E+01 -0.26802254919E+02 -0.22984243831E+02  0.35352038294E+02  0.00000000000E+00 0.  1.
</event>
<event>
 7    1  0.1338132E-011  0.5930196E+02  0.7816164E-02  0.1266605E+00
        -11   -1    0    0    0    0  0.00000000000E+00  0.00000000000E+00  0.45593999997E+02  0.45594000000E+02  0.51100000000E-03 0. -1.
         11   -1    0    0    0    0 -0.00000000000E+00 -0.00000000000E+00 -0.45593999997E+02  0.45594000000E+02  0.51100000000E-03 0.  1.
    9900012    2    1    2    0    0  0.20513623594E+02 -0.16432121518E+02  0.18052586986E+02  0.59301964383E+02  0.50000037122E+02 0.  0.
        -12    1    1    2    0    0 -0.20513623594E+02  0.16432121518E+02 -0.18052586986E+02  0.31886035617E+02  0.00000000000E+00 0.  1.
         11    1    3    3    0    0  0.15122603516E+02  0.47807520968E+00  0.71992759698E+01  0.16755633911E+02  0.51100000000E-03 0. -1.
        -11    1    3    3    0    0 -0.68152830538E+01  0.96987202068E+01  0.27071409334E+01  0.12159024182E+02  0.51100000000E-03 0.  1.
         12    1    3    3    0    0  0.12206303132E+02 -0.26608916934E+02  0.81461700823E+01  0.30387306290E+02  0.00000000000E+00 0. -1.
</event>
<event>
 7    1  0.1338132E-011  0.5930195E+02  0.7816164E-02  0.1266605E+00
        -11   -1    0    0    0    0  0.00000000000E+00  0.00000000000E+00  0.45593999997E+02  0.45594000000E+02  0.51100000000E-03 0.  1.
         11   -1    0    0    0    0 -0.00000000000E+00 -0.00000000000E+00 -0.45593999997E+02  0.45594000000E+02  0.51100000000E-03 0. -1.
    9900012    2    1    2    0    0  0.16287128879E+02 -0.10349088896E+01 -0.27393034510E+02  0.59301953786E+02  0.50000017796E+02 0.  0.
        -12    1    1    2    0    0 -0.16287128879E+02  0.10349088896E+01  0.27393034510E+02  0.31886046214E+02  0.00000000000E+00 0.  1.
         11    1    3    3    0    0  0.22242098907E-02  0.15675509590E+02 -0.47429825621E+01  0.16377346846E+02  0.51100000000E-03 0. -1.
        -11    1    3    3    0    0 -0.10406148430E+01 -0.15752947925E+01  0.59372515573E+01  0.62301997762E+01  0.51100000000E-03 0.  1.
        -12    1    3    3    0    0  0.17325519512E+02 -0.15135123687E+02 -0.28587303505E+02  0.36694407164E+02  0.00000000000E+00 0.  1.
</event>
<event>
 7    1  0.1338132E-011  0.5930193E+02  0.7816164E-02  0.1266605E+00
        -11   -1    0    0    0    0  0.00000000000E+00  0.00000000000E+00  0.45593999997E+02  0.45594000000E+02  0.51100000000E-03 0.  1.
         11   -1    0    0    0    0 -0.00000000000E+00 -0.00000000000E+00 -0.45593999997E+02  0.45594000000E+02  0.51100000000E-03 0. -1.
    9900012    2    1    2    0    0  0.70835053615E+01 -0.13302480471E+02 -0.28099629259E+02  0.59301934087E+02  0.49999981870E+02 0.  0.
        -12    1    1    2    0    0 -0.70835053615E+01  0.13302480471E+02  0.28099629259E+02  0.31886065913E+02  0.00000000000E+00 0.  1.
         11    1    3    3    0    0 -0.93496154390E+01 -0.15758571964E+02 -0.21760289765E+02  0.28447462279E+02  0.51100000000E-03 0. -1.
        -11    1    3    3    0    0 -0.33624498664E+01 -0.37081160470E+01 -0.86490390832E+01  0.99931011726E+01  0.51100000000E-03 0.  1.
        -12    1    3    3    0    0  0.19795570667E+02  0.61642075391E+01  0.23096995886E+01  0.20861370636E+02  0.00000000000E+00 0.  1.
</event>
<event>
 7    1  0.1338132E-011  0.5930195E+02  0.7816164E-02  0.1266605E+00
        -11   -1    0    0    0    0  0.00000000000E+00  0.00000000000E+00  0.45593999997E+02  0.45594000000E+02  0.51100000000E-03 0. -1.
         11   -1    0    0    0    0 -0.00000000000E+00 -0.00000000000E+00 -0.45593999997E+02  0.45594000000E+02  0.51100000000E-03 0.  1.
    9900012    2    1    2    0    0  0.17801018122E+02 -0.53495945900E+01  0.25908024556E+02  0.59301950623E+02  0.50000012028E+02 0.  0.
        -12    1    1    2    0    0 -0.17801018122E+02  0.53495945900E+01 -0.25908024556E+02  0.31886049377E+02  0.00000000000E+00 0.  1.
         11    1    3    3    0    0 -0.10215682955E+02  0.12417008062E+01 -0.80132359158E+00  0.10322021066E+02  0.51100000000E-03 0. -1.
        -11    1    3    3    0    0  0.14636176390E+02 -0.18127363409E+02  0.16798629987E+02  0.28723038370E+02  0.51100000000E-03 0.  1.
         12    1    3    3    0    0  0.13380524687E+02  0.11536068013E+02  0.99107181605E+01  0.20256891187E+02  0.00000000000E+00 0. -1.
</event>
<event>
 7    1  0.1338132E-011  0.5930195E+02  0.7816164E-02  0.1266605E+00
        -11   -1    0    0    0    0  0.00000000000E+00  0.00000000000E+00  0.45593999997E+02  0.45594000000E+02  0.51100000000E-03 0.  1.
         11   -1    0    0    0    0 -0.00000000000E+00 -0.00000000000E+00 -0.45593999997E+02  0.45594000000E+02  0.51100000000E-03 0. -1.
    9900012    2    1    2    0    0  0.35931759107E+01 -0.38277823984E+01 -0.31450870992E+02  0.59301951055E+02  0.50000012815E+02 0.  0.
        -12    1    1    2    0    0 -0.35931759107E+01  0.38277823984E+01  0.31450870992E+02  0.31886048945E+02  0.00000000000E+00 0.  1.
         11    1    3    3    0    0  0.94778726316E+01 -0.77969634985E+01 -0.11064383603E+02  0.16524021732E+02  0.51100000000E-03 0. -1.
        -11    1    3    3    0    0  0.31956624754E+01 -0.13147874115E+02 -0.19035530936E+02  0.23354449055E+02  0.51100000000E-03 0.  1.
        -12    1    3    3    0    0 -0.90803591963E+01  0.17117055215E+02 -0.13509564531E+01  0.19423480268E+02  0.00000000000E+00 0.  1.
</event>
<event>
 7    1  0.1338132E-011  0.5930194E+02  0.7816164E-02  0.1266605E+00
        -11   -1    0    0    0    0  0.00000000000E+00  0.00000000000E+00  0.45593999997E+02  0.45594000000E+02  0.51100000000E-03 0.  1.
         11   -1    0    0    0    0 -0.00000000000E+00 -0.00000000000E+00 -0.45593999997E+02  0.45594000000E+02  0.51100000000E-03 0. -1.
    9900012    2    1    2    0    0 -0.73872914211E+01 -0.31018398217E+02 -0.88829715097E-01  0.59301937320E+02  0.49999987768E+02 0.  0.
        -12    1    1    2    0    0  0.73872914211E+01  0.31018398217E+02  0.88829715097E-01  0.31886062680E+02  0.00000000000E+00 0.  1.
         11    1    3    3    0    0 -0.45151833448E+01 -0.24896285534E+00 -0.17010089300E+02  0.17600909107E+02  0.51100000000E-03 0. -1.
        -11    1    3    3    0    0  0.84885909832E+01 -0.19006264061E+02  0.48456658355E+01  0.21372288789E+02  0.51100000000E-03 0.  1.
        -12    1    3    3    0    0 -0.11360699060E+02 -0.11763171301E+02  0.12075593750E+02  0.20328739424E+02  0.00000000000E+00 0.  1.
</event>
<event>
 7    1  0.1338132E-011  0.5930191E+02  0.7816164E-02  0.1266605E+00
        -11   -1    0    0    0    0  0.00000000000E+00  0.00000000000E+00  0.45593999997E+02  0.45594000000E+02  0.51100000000E-03 0. -1.
         11   -1    0    0    0    0 -0.00000000000E+00 -0.00000000000E+00 -0.45593999997E+02  0.45594000000E+02  0.51100000000E-03 0.  1.
    9900012    2    1    2    0    0 -0.27358760573E+02  0.16322700067E+02 -0.13379499613E+01  0.59301914827E+02  0.49999946745E+02 0.  0.
        -12    1    1    2    0    0  0.27358760573E+02 -0.16322700067E+02  0.13379499613E+01  0.31886085173E+02  0.00000000000E+00 0.  1.
         11    1    3    3    0    0 -0.46452142926E+01  0.84202279494E+01 -0.75370707100E+01  0.12218252317E+02  0.51100000000E-03 0. -1.
        -11    1    3    3    0    0  0.72606472997E+00  0.88941242731E+01 -0.13680106963E+02  0.16333338402E+02  0.51100000000E-03 0.  1.
        -12    1    3    3    0    0 -0.23439611010E+02 -0.99165215535E+00  0.19879227712E+02  0.30750324107E+02  0.00000000000E+00 0.  1.
</event>
<event>
 7    1  0.1338132E-011  0.5930196E+02  0.7816164E-02  0.1266605E+00
        -11   -1    0    0    0    0  0.00000000000E+00  0.00000000000E+00  0.45593999997E+02  0.45594000000E+02  0.51100000000E-03 0. -1.
         11   -1    0    0    0    0 -0.00000000000E+00 -0.00000000000E+00 -0.45593999997E+02  0.45594000000E+02  0.51100000000E-03 0.  1.
    9900012    2    1    2    0    0  0.98201594668E+01 -0.18865478623E+02  0.23756630128E+02  0.59301964018E+02  0.50000036457E+02 0.  0.
        -12    1    1    2    0    0 -0.98201594668E+01  0.18865478623E+02 -0.23756630128E+02  0.31886035982E+02  0.00000000000E+00 0.  1.
         11    1    3    3    0    0  0.12768864307E+02 -0.27894311998E+01  0.30075577293E+02  0.32792760968E+02  0.51100000000E-03 0. -1.
        -11    1    3    3    0    0  0.36113566829E+01  0.31347284000E+01 -0.36889215062E+01  0.60395828807E+01  0.51100000000E-03 0.  1.
        -12    1    3    3    0    0 -0.65600615234E+01 -0.19210775823E+02 -0.26300256589E+01  0.20469620169E+02  0.00000000000E+00 0.  1.
</event>
<event>
 7    1  0.1338132E-011  0.5930195E+02  0.7816164E-02  0.1266605E+00
        -11   -1    0    0    0    0  0.00000000000E+00  0.00000000000E+00  0.45593999997E+02  0.45594000000E+02  0.51100000000E-03 0. -1.
         11   -1    0    0    0    0 -0.00000000000E+00 -0.00000000000E+00 -0.45593999997E+02  0.45594000000E+02  0.51100000000E-03 0.  1.
    9900012    2    1    2    0    0 -0.19598981445E+02 -0.17987111995E+02  0.17580212701E+02  0.59301950539E+02  0.50000011875E+02 0.  0.
        -12    1    1    2    0    0  0.19598981445E+02  0.17987111995E+02 -0.17580212701E+02  0.31886049461E+02  0.00000000000E+00 0.  1.
         11    1    3    3    0    0 -0.26320517383E+01 -0.46534094299E+01  0.29855325727E+01  0.61233422801E+01  0.51100000000E-03 0. -1.
        -11    1    3    3    0    0 -0.20264141419E+02 -0.28842108172E+02  0.10940013301E+02  0.36907811132E+02  0.51100000000E-03 0.  1.
         12    1    3    3    0    0  0.32972117124E+01  0.15508405607E+02  0.36546668279E+01  0.16270797127E+02  0.00000000000E+00 0. -1.
</event>
<event>
 7    1  0.1338132E-011  0.5930196E+02  0.7816164E-02  0.1266605E+00
        -11   -1    0    0    0    0  0.00000000000E+00  0.00000000000E+00  0.45593999997E+02  0.45594000000E+02  0.51100000000E-03 0.  1.
         11   -1    0    0    0    0 -0.00000000000E+00 -0.00000000000E+00 -0.45593999997E+02  0.45594000000E+02  0.51100000000E-03 0. -1.
    9900012    2    1    2    0    0 -0.27293160727E+02 -0.13284814204E+02  0.97630111417E+01  0.59301963912E+02  0.50000036263E+02 0.  0.
        -12    1    1    2    0    0  0.27293160727E+02  0.13284814204E+02 -0.97630111417E+01  0.31886036088E+02  0.00000000000E+00 0.  1.
         11    1    3    3    0    0  0.37428193214E+01 -0.73454406506E+01 -0.44080771718E+01  0.93485474507E+01  0.51100000000E-03 0. -1.
        -11    1    3    3    0    0  0.44619887068E+01 -0.11058291140E+02  0.20774299292E+01  0.12104167114E+02  0.51100000000E-03 0.  1.
        -12    1    3    3    0    0 -0.35497968755E+02  0.51189175870E+01  0.12093658384E+02  0.37849249347E+02  0.00000000000E+00 0.  1.
</event>
<event>
 7    1  0.1338132E-011  0.5930195E+02  0.7816164E-02  0.1266605E+00
        -11   -1    0    0    0    0  0.00000000000E+00  0.00000000000E+00  0.45593999997E+02  0.45594000000E+02  0.51100000000E-03 0. -1.
         11   -1    0    0    0    0 -0.00000000000E+00 -0.00000000000E+00 -0.45593999997E+02  0.45594000000E+02  0.51100000000E-03 0.  1.
    9900012    2    1    2    0    0 -0.35372541737E+00 -0.22625586184E+02  0.22465034710E+02  0.59301952011E+02  0.50000014560E+02 0.  0.
        -12    1    1    2    0    0  0.35372541737E+00  0.22625586184E+02 -0.22465034710E+02  0.31886047989E+02  0.00000000000E+00 0.  1.
         11    1    3    3    0    0  0.93956838842E+01  0.10199436269E+02  0.73093687271E+01  0.15675912966E+02  0.51100000000E-03 0. -1.
        -11    1    3    3    0    0 -0.10893492307E+02 -0.67384261336E+01  0.11585708545E+02  0.17271456341E+02  0.51100000000E-03 0.  1.
        -12    1    3    3    0    0  0.11440830053E+01 -0.26086596319E+02  0.35699574379E+01  0.26354582705E+02  0.00000000000E+00 0.  1.
</event>
<event>
 7    1  0.1338132E-011  0.5930194E+02  0.7816164E-02  0.1266605E+00
        -11   -1    0    0    0    0  0.00000000000E+00  0.00000000000E+00  0.45593999997E+02  0.45594000000E+02  0.51100000000E-03 0. -1.
         11   -1    0    0    0    0 -0.00000000000E+00 -0.00000000000E+00 -0.45593999997E+02  0.45594000000E+02  0.51100000000E-03 0.  1.
    9900012    2    1    2    0    0  0.65254452154E+01 -0.24864327377E+02  0.18865427309E+02  0.59301944134E+02  0.50000000193E+02 0.  0.
        -12    1    1    2    0    0 -0.65254452154E+01  0.24864327377E+02 -0.18865427309E+02  0.31886055866E+02  0.00000000000E+00 0.  1.
         11    1    3    3    0    0  0.74247636563E+01 -0.93223066871E+01  0.15191565860E+02  0.19308448692E+02  0.51100000000E-03 0. -1.
        -11    1    3    3    0    0 -0.73206734823E+00  0.14579014604E+01  0.17809298409E+02  0.17883861702E+02  0.51100000000E-03 0.  1.
        -12    1    3    3    0    0 -0.16725109265E+00 -0.16999922150E+02 -0.14135436961E+02  0.22109633740E+02  0.00000000000E+00 0.  1.
</event>
<event>
 7    1  0.1338132E-011  0.5930198E+02  0.7816164E-02  0.1266605E+00
        -11   -1    0    0    0    0  0.00000000000E+00  0.00000000000E+00  0.45593999997E+02  0.45594000000E+02  0.51100000000E-03 0.  1.
         11   -1    0    0    0    0 -0.00000000000E+00 -0.00000000000E+00 -0.45593999997E+02  0.45594000000E+02  0.51100000000E-03 0. -1.
    9900012    2    1    2    0    0 -0.18910369042E+02  0.25564864905E+02  0.23566610580E+01  0.59301980709E+02  0.50000066897E+02 0.  0.
        -12    1    1    2    0    0  0.18910369042E+02 -0.25564864905E+02 -0.23566610580E+01  0.31886019291E+02  0.00000000000E+00 0.  1.
         11    1    3    3    0    0 -0.25221903009E+02  0.70720270856E+01  0.43792967706E+01  0.26558166333E+02  0.51100000000E-03 0. -1.
        -11    1    3    3    0    0  0.39156889856E+00  0.19784789431E+01  0.10817271546E+02  0.11003684341E+02  0.51100000000E-03 0.  1.
        -12    1    3    3    0    0  0.59199650690E+01  0.16514358876E+02 -0.12839907258E+02  0.21740130034E+02  0.00000000000E+00 0.  1.
</event>
<event>
 7    1  0.1338132E-011  0.5930197E+02  0.7816164E-02  0.1266605E+00
        -11   -1    0    0    0    0  0.00000000000E+00  0.00000000000E+00  0.45593999997E+02  0.45594000000E+02  0.51100000000E-03 0. -1.
         11   -1    0    0    0    0 -0.00000000000E+00 -0.00000000000E+00 -0.45593999997E+02  0.45594000000E+02  0.51100000000E-03 0.  1.
    9900012    2    1    2    0    0 -0.46955535192E+01 -0.26225846556E+02  0.17517862795E+02  0.59301972224E+02  0.50000051423E+02 0.  0.
        -12    1    1    2    0    0  0.46955535192E+01  0.26225846556E+02 -0.17517862795E+02  0.31886027776E+02  0.00000000000E+00 0.  1.
         11    1    3    3    0    0  0.48885830835E+01  0.22304240789E+01  0.55123777174E+01  0.76980091256E+01  0.51100000000E-03 0. -1.
        -11    1    3    3    0    0 -0.28163085436E+00 -0.43128845739E+01 -0.14160787788E+02  0.14805681353E+02  0.51100000000E-03 0.  1.
        -12    1    3    3    0    0 -0.93025057484E+01 -0.24143386061E+02  0.26166272866E+02  0.36798281745E+02  0.00000000000E+00 0.  1.
</event>
<event>
 7    1  0.1338132E-011  0.5930196E+02  0.7816164E-02  0.1266605E+00
        -11   -1    0    0    0    0  0.00000000000E+00  0.00000000000E+00  0.45593999997E+02  0.45594000000E+02  0.51100000000E-03 0. -1.
         11   -1    0    0    0    0 -0.00000000000E+00 -0.00000000000E+00 -0.45593999997E+02  0.45594000000E+02  0.51100000000E-03 0.  1.
    9900012    2    1    2    0    0  0.14074908941E+02 -0.28093922312E+02  0.54174053933E+01  0.59301955815E+02  0.50000021496E+02 0.  0.
        -12    1    1    2    0    0 -0.14074908941E+02  0.28093922312E+02 -0.54174053933E+01  0.31886044185E+02  0.00000000000E+00 0.  1.
         11    1    3    3    0    0  0.11068971843E+01  0.49291835137E+01 -0.49516230793E+01  0.70739411129E+01  0.51100000000E-03 0.  1.
        -11    1    3    3    0    0 -0.10584388929E+02 -0.42762817497E+01  0.98242406700E+01  0.15060928909E+02  0.51100000000E-03 0. -1.
         12    1    3    3    0    0  0.23552400686E+02 -0.28746824076E+02  0.54478780254E+00  0.37167085792E+02  0.00000000000E+00 0. -1.
</event>
<event>
 7    1  0.1338132E-011  0.5930192E+02  0.7816164E-02  0.1266605E+00
        -11   -1    0    0    0    0  0.00000000000E+00  0.00000000000E+00  0.45593999997E+02  0.45594000000E+02  0.51100000000E-03 0. -1.
         11   -1    0    0    0    0 -0.00000000000E+00 -0.00000000000E+00 -0.45593999997E+02  0.45594000000E+02  0.51100000000E-03 0.  1.
    9900012    2    1    2    0    0  0.12697772682E+02 -0.16536955334E+02  0.24125041042E+02  0.59301922661E+02  0.49999961032E+02 0.  0.
        -12    1    1    2    0    0 -0.12697772682E+02  0.16536955334E+02 -0.24125041042E+02  0.31886077339E+02  0.00000000000E+00 0.  1.
         11    1    3    3    0    0  0.14502185073E+02 -0.10578123396E+02  0.34630686216E+01  0.18281217438E+02  0.51100000000E-03 0. -1.
        -11    1    3    3    0    0  0.13460603766E+02 -0.65774437862E+01 -0.41705549500E+00  0.14987479976E+02  0.51100000000E-03 0.  1.
         12    1    3    3    0    0 -0.15265016156E+02  0.61861184855E+00  0.21079027915E+02  0.26033225246E+02  0.00000000000E+00 0. -1.
</event>
<event>
 7    1  0.1338132E-011  0.5930196E+02  0.7816164E-02  0.1266605E+00
        -11   -1    0    0    0    0  0.00000000000E+00  0.00000000000E+00  0.45593999997E+02  0.45594000000E+02  0.51100000000E-03 0. -1.
         11   -1    0    0    0    0 -0.00000000000E+00 -0.00000000000E+00 -0.45593999997E+02  0.45594000000E+02  0.51100000000E-03 0.  1.
    9900012    2    1    2    0    0  0.25253773129E+02  0.15748823533E+02  0.11442944660E+02  0.59301961011E+02  0.50000030973E+02 0.  0.
        -12    1    1    2    0    0 -0.25253773129E+02 -0.15748823533E+02 -0.11442944660E+02  0.31886038989E+02  0.00000000000E+00 0.  1.
         11    1    3    3    0    0  0.15267259501E+02 -0.56360965218E+01 -0.38396116182E+01  0.16721166656E+02  0.51100000000E-03 0. -1.
        -11    1    3    3    0    0  0.49712721831E+01 -0.26565268928E+01 -0.72963027396E+01  0.92199086861E+01  0.51100000000E-03 0.  1.
        -12    1    3    3    0    0  0.50152414449E+01  0.24041446948E+02  0.22578859017E+02  0.33360885669E+02  0.00000000000E+00 0.  1.
</event>
<event>
 7    1  0.1338132E-011  0.5930194E+02  0.7816164E-02  0.1266605E+00
        -11   -1    0    0    0    0  0.00000000000E+00  0.00000000000E+00  0.45593999997E+02  0.45594000000E+02  0.51100000000E-03 0.  1.
         11   -1    0    0    0    0 -0.00000000000E+00 -0.00000000000E+00 -0.45593999997E+02  0.45594000000E+02  0.51100000000E-03 0. -1.
    9900012    2    1    2    0    0  0.77464061335E+01  0.30603186672E+02  0.44898566842E+01  0.59301942616E+02  0.49999997426E+02 0.  0.
        -12    1    1    2    0    0 -0.77464061335E+01 -0.30603186672E+02 -0.44898566842E+01  0.31886057384E+02  0.00000000000E+00 0.  1.
         11    1    3    3    0    0 -0.37144565333E+00  0.16275353773E+02 -0.91587062161E+01  0.18679052763E+02  0.51100000000E-03 0. -1.
        -11    1    3    3    0    0  0.17928520633E+01  0.25421509404E+02  0.94493605123E+01  0.27180100685E+02  0.51100000000E-03 0.  1.
        -12    1    3    3    0    0  0.63249997235E+01 -0.11093676506E+02  0.41992023880E+01  0.13442789168E+02  0.00000000000E+00 0.  1.
</event>
<event>
 7    1  0.1338132E-011  0.5930195E+02  0.7816164E-02  0.1266605E+00
        -11   -1    0    0    0    0  0.00000000000E+00  0.00000000000E+00  0.45593999997E+02  0.45594000000E+02  0.51100000000E-03 0.  1.
         11   -1    0    0    0    0 -0.00000000000E+00 -0.00000000000E+00 -0.45593999997E+02  0.45594000000E+02  0.51100000000E-03 0. -1.
    9900012    2    1    2    0    0  0.14883125564E+01 -0.28467600211E+02 -0.14286386841E+02  0.59301949993E+02  0.50000010880E+02 0.  0.
        -12    1    1    2    0    0 -0.14883125564E+01  0.28467600211E+02  0.14286386841E+02  0.31886050007E+02  0.00000000000E+00 0.  1.
         11    1    3    3    0    0 -0.47227615540E+01 -0.21017441900E+02 -0.19836610285E+02  0.29283586676E+02  0.51100000000E-03 0. -1.
        -11    1    3    3    0    0 -0.61943793488E+01 -0.63027594154E+01  0.12837546968E+02  0.15585176424E+02  0.51100000000E-03 0.  1.
        -12    1    3    3    0    0  0.12405453459E+02 -0.11473988955E+01 -0.72873235240E+01  0.14433186893E+02  0.00000000000E+00 0.  1.
</event>
<event>
 7    1  0.1338132E-011  0.5930194E+02  0.7816164E-02  0.1266605E+00
        -11   -1    0    0    0    0  0.00000000000E+00  0.00000000000E+00  0.45593999997E+02  0.45594000000E+02  0.51100000000E-03 0.  1.
         11   -1    0    0    0    0 -0.00000000000E+00 -0.00000000000E+00 -0.45593999997E+02  0.45594000000E+02  0.51100000000E-03 0. -1.
    9900012    2    1    2    0    0  0.24181467800E+01  0.21570753323E+02  0.23357567452E+02  0.59301940506E+02  0.49999993577E+02 0.  0.
        -12    1    1    2    0    0 -0.24181467800E+01 -0.21570753323E+02 -0.23357567452E+02  0.31886059494E+02  0.00000000000E+00 0.  1.
         11    1    3    3    0    0 -0.56936274127E+01  0.26286795224E+02  0.17808977007E+02  0.32257908466E+02  0.51100000000E-03 0. -1.
        -11    1    3    3    0    0  0.19074282460E+01  0.79144090937E+01  0.94187920515E+01  0.12449489861E+02  0.51100000000E-03 0.  1.
        -12    1    3    3    0    0  0.62043459467E+01 -0.12630450995E+02 -0.38702016069E+01  0.14594542180E+02  0.00000000000E+00 0.  1.
</event>
<event>
 7    1  0.1338132E-011  0.5930190E+02  0.7816164E-02  0.1266605E+00
        -11   -1    0    0    0    0  0.00000000000E+00  0.00000000000E+00  0.45593999997E+02  0.45594000000E+02  0.51100000000E-03 0. -1.
         11   -1    0    0    0    0 -0.00000000000E+00 -0.00000000000E+00 -0.45593999997E+02  0.45594000000E+02  0.51100000000E-03 0.  1.
    9900012    2    1    2    0    0 -0.29891986820E+02 -0.85519025287E+01  0.70751112931E+01  0.59301904085E+02  0.49999927154E+02 0.  0.
        -12    1    1    2    0    0  0.29891986820E+02  0.85519025287E+01 -0.70751112931E+01  0.31886095915E+02  0.00000000000E+00 0.  1.
         11    1    3    3    0    0 -0.30884366049E+02  0.49454877896E+01 -0.12135839859E+02  0.33549672503E+02  0.51100000000E-03 0.  1.
        -11    1    3    3    0    0  0.37708360172E+01 -0.67774851343E+00  0.28117859965E+01  0.47523350121E+01  0.51100000000E-03 0. -1.
        -12    1    3    3    0    0 -0.27784567878E+01 -0.12819641805E+02  0.16399165155E+02  0.20999896569E+02  0.00000000000E+00 0.  1.
</event>
<event>
 7    1  0.1338132E-011  0.5930194E+02  0.7816164E-02  0.1266605E+00
        -11   -1    0    0    0    0  0.00000000000E+00  0.00000000000E+00  0.45593999997E+02  0.45594000000E+02  0.51100000000E-03 0.  1.
         11   -1    0    0    0    0 -0.00000000000E+00 -0.00000000000E+00 -0.45593999997E+02  0.45594000000E+02  0.51100000000E-03 0. -1.
    9900012    2    1    2    0    0  0.18130788997E+02  0.25270680502E+01 -0.26107652290E+02  0.59301935792E+02  0.49999984980E+02 0.  0.
        -12    1    1    2    0    0 -0.18130788997E+02 -0.25270680502E+01  0.26107652290E+02  0.31886064208E+02  0.00000000000E+00 0.  1.
         11    1    3    3    0    0  0.63607768402E+01  0.15768097471E+02 -0.71642766714E+01  0.18450453662E+02  0.51100000000E-03 0. -1.
        -11    1    3    3    0    0 -0.37320832564E+01 -0.16524169570E+02 -0.10829702529E+01  0.16974965398E+02  0.51100000000E-03 0.  1.
         12    1    3    3    0    0  0.15502095413E+02  0.32831401496E+01 -0.17860405366E+02  0.23876516732E+02  0.00000000000E+00 0. -1.
</event>
<event>
 7    1  0.1338132E-011  0.5930192E+02  0.7816164E-02  0.1266605E+00
        -11   -1    0    0    0    0  0.00000000000E+00  0.00000000000E+00  0.45593999997E+02  0.45594000000E+02  0.51100000000E-03 0.  1.
         11   -1    0    0    0    0 -0.00000000000E+00 -0.00000000000E+00 -0.45593999997E+02  0.45594000000E+02  0.51100000000E-03 0. -1.
    9900012    2    1    2    0    0  0.13117653096E+02 -0.99776326955E+01 -0.27296445303E+02  0.59301923052E+02  0.49999961745E+02 0.  0.
        -12    1    1    2    0    0 -0.13117653096E+02  0.99776326955E+01  0.27296445303E+02  0.31886076948E+02  0.00000000000E+00 0.  1.
         11    1    3    3    0    0 -0.99137931084E+01 -0.50055359466E+01 -0.12495094581E+02  0.16717238790E+02  0.51100000000E-03 0. -1.
        -11    1    3    3    0    0  0.88510154562E+01 -0.17966628489E+02 -0.36699746159E+01  0.20361948036E+02  0.51100000000E-03 0.  1.
         12    1    3    3    0    0  0.14180430748E+02  0.12994531740E+02 -0.11131376106E+02  0.22222736226E+02  0.00000000000E+00 0. -1.
</event>
<event>
 7    1  0.1338132E-011  0.5930197E+02  0.7816164E-02  0.1266605E+00
        -11   -1    0    0    0    0  0.00000000000E+00  0.00000000000E+00  0.45593999997E+02  0.45594000000E+02  0.51100000000E-03 0. -1.
         11   -1    0    0    0    0 -0.00000000000E+00 -0.00000000000E+00 -0.45593999997E+02  0.45594000000E+02  0.51100000000E-03 0.  1.
    9900012    2    1    2    0    0 -0.88693738106E+01 -0.24951500237E+02  0.17761637246E+02  0.59301969932E+02  0.50000047242E+02 0.  0.
        -12    1    1    2    0    0  0.88693738106E+01  0.24951500237E+02 -0.17761637246E+02  0.31886030068E+02  0.00000000000E+00 0.  1.
         11    1    3    3    0    0  0.38770973381E+00 -0.13991877350E+02  0.24594058168E+02  0.28298244611E+02  0.51100000000E-03 0. -1.
        -11    1    3    3    0    0  0.83754088803E+01 -0.22027574450E+01  0.27795239682E+01  0.90953487027E+01  0.51100000000E-03 0.  1.
        -12    1    3    3    0    0 -0.17632492425E+02 -0.87568654418E+01 -0.96119448899E+01  0.21908376618E+02  0.00000000000E+00 0.  1.
</event>
<event>
 7    1  0.1338132E-011  0.5930187E+02  0.7816164E-02  0.1266605E+00
        -11   -1    0    0    0    0  0.00000000000E+00  0.00000000000E+00  0.45593999997E+02  0.45594000000E+02  0.51100000000E-03 0.  1.
         11   -1    0    0    0    0 -0.00000000000E+00 -0.00000000000E+00 -0.45593999997E+02  0.45594000000E+02  0.51100000000E-03 0. -1.
    9900012    2    1    2    0    0 -0.25671361129E+02  0.16803787010E+02 -0.86798015962E+01  0.59301874556E+02  0.49999873299E+02 0.  0.
        -12    1    1    2    0    0  0.25671361129E+02 -0.16803787010E+02  0.86798015962E+01  0.31886125444E+02  0.00000000000E+00 0.  1.
         11    1    3    3    0    0  0.53986041016E+01  0.21618559140E+02 -0.12739759094E+01  0.22318827039E+02  0.51100000000E-03 0.  1.
        -11    1    3    3    0    0 -0.10304677922E+02  0.21433864991E+01 -0.10498085330E+02  0.14865742114E+02  0.51100000000E-03 0. -1.
        -12    1    3    3    0    0 -0.20765287309E+02 -0.69581586289E+01  0.30922596433E+01  0.22117305402E+02  0.00000000000E+00 0.  1.
</event>
<event>
 7    1  0.1338132E-011  0.5930194E+02  0.7816164E-02  0.1266605E+00
        -11   -1    0    0    0    0  0.00000000000E+00  0.00000000000E+00  0.45593999997E+02  0.45594000000E+02  0.51100000000E-03 0.  1.
         11   -1    0    0    0    0 -0.00000000000E+00 -0.00000000000E+00 -0.45593999997E+02  0.45594000000E+02  0.51100000000E-03 0. -1.
    9900012    2    1    2    0    0 -0.61084911088E+01 -0.48634842636E+01 -0.30915266815E+02  0.59301939330E+02  0.49999991432E+02 0.  0.
        -12    1    1    2    0    0  0.61084911088E+01  0.48634842636E+01  0.30915266815E+02  0.31886060670E+02  0.00000000000E+00 0.  1.
         11    1    3    3    0    0 -0.75169396285E+01  0.17087255653E+01 -0.14504301681E+02  0.16425556062E+02  0.51100000000E-03 0. -1.
        -11    1    3    3    0    0 -0.16592161509E+01  0.16160572100E+02 -0.99283048179E+01  0.19039126179E+02  0.51100000000E-03 0.  1.
         12    1    3    3    0    0  0.30676646706E+01 -0.22732781929E+02 -0.64826603165E+01  0.23837257089E+02  0.00000000000E+00 0. -1.
</event>
<event>
 7    1  0.1338132E-011  0.5930195E+02  0.7816164E-02  0.1266605E+00
        -11   -1    0    0    0    0  0.00000000000E+00  0.00000000000E+00  0.45593999997E+02  0.45594000000E+02  0.51100000000E-03 0.  1.
         11   -1    0    0    0    0 -0.00000000000E+00 -0.00000000000E+00 -0.45593999997E+02  0.45594000000E+02  0.51100000000E-03 0. -1.
    9900012    2    1    2    0    0  0.11186992619E+02 -0.25741942898E+01 -0.29748019225E+02  0.59301954025E+02  0.50000018233E+02 0.  0.
        -12    1    1    2    0    0 -0.11186992619E+02  0.25741942898E+01  0.29748019225E+02  0.31886045975E+02  0.00000000000E+00 0.  1.
         11    1    3    3    0    0  0.15878602895E+02  0.16951088373E+02 -0.23207305928E+02  0.32833648527E+02  0.51100000000E-03 0. -1.
        -11    1    3    3    0    0  0.18946150132E+01 -0.53009242450E+01 -0.89859018683E+01  0.10603574706E+02  0.51100000000E-03 0.  1.
        -12    1    3    3    0    0 -0.65862252886E+01 -0.14224358417E+02  0.24451885717E+01  0.15864730792E+02  0.00000000000E+00 0.  1.
</event>
<event>
 7    1  0.1338132E-011  0.5930192E+02  0.7816164E-02  0.1266605E+00
        -11   -1    0    0    0    0  0.00000000000E+00  0.00000000000E+00  0.45593999997E+02  0.45594000000E+02  0.51100000000E-03 0. -1.
         11   -1    0    0    0    0 -0.00000000000E+00 -0.00000000000E+00 -0.45593999997E+02  0.45594000000E+02  0.51100000000E-03 0.  1.
    9900012    2    1    2    0    0 -0.11514746134E+02 -0.23078836633E+02  0.18748338389E+02  0.59301917280E+02  0.49999951218E+02 0.  0.
        -12    1    1    2    0    0  0.11514746134E+02  0.23078836633E+02 -0.18748338389E+02  0.31886082720E+02  0.00000000000E+00 0.  1.
         11    1    3    3    0    0  0.66441946880E+00 -0.30608845981E+02  0.83696234130E+01  0.31739462847E+02  0.51100000000E-03 0. -1.
        -11    1    3    3    0    0  0.49309665679E+00 -0.23785563340E+01 -0.48416848412E+01  0.54168798130E+01  0.51100000000E-03 0.  1.
         12    1    3    3    0    0 -0.12672262259E+02  0.99085656813E+01  0.15220399818E+02  0.22145574619E+02  0.00000000000E+00 0. -1.
</event>
<event>
 7    1  0.1338132E-011  0.5930191E+02  0.7816164E-02  0.1266605E+00
        -11   -1    0    0    0    0  0.00000000000E+00  0.00000000000E+00  0.45593999997E+02  0.45594000000E+02  0.51100000000E-03 0.  1.
         11   -1    0    0    0    0 -0.00000000000E+00 -0.00000000000E+00 -0.45593999997E+02  0.45594000000E+02  0.51100000000E-03 0. -1.
    9900012    2    1    2    0    0  0.17369636509E+02  0.24478486522E+02  0.10762056926E+02  0.59301914569E+02  0.49999946274E+02 0.  0.
        -12    1    1    2    0    0 -0.17369636509E+02 -0.24478486522E+02 -0.10762056926E+02  0.31886085431E+02  0.00000000000E+00 0.  1.
         11    1    3    3    0    0  0.44147615591E+01  0.25252011627E+02 -0.45443336365E+01  0.26034691842E+02  0.51100000000E-03 0. -1.
        -11    1    3    3    0    0  0.88708038855E+01  0.93246061724E+01  0.17922428708E+02  0.22064743210E+02  0.51100000000E-03 0.  1.
        -12    1    3    3    0    0  0.40840710643E+01 -0.10098131277E+02 -0.26160381463E+01  0.11202479517E+02  0.00000000000E+00 0.  1.
</event>
<event>
 7    1  0.1338132E-011  0.5930196E+02  0.7816164E-02  0.1266605E+00
        -11   -1    0    0    0    0  0.00000000000E+00  0.00000000000E+00  0.45593999997E+02  0.45594000000E+02  0.51100000000E-03 0. -1.
         11   -1    0    0    0    0 -0.00000000000E+00 -0.00000000000E+00 -0.45593999997E+02  0.45594000000E+02  0.51100000000E-03 0.  1.
    9900012    2    1    2    0    0  0.79177543511E-01  0.39206614681E+01  0.31643980759E+02  0.59301962716E+02  0.50000034083E+02 0.  0.
        -12    1    1    2    0    0 -0.79177543511E-01 -0.39206614681E+01 -0.31643980759E+02  0.31886037284E+02  0.00000000000E+00 0.  1.
         11    1    3    3    0    0  0.50277175572E+01 -0.12169553858E+02  0.12144905823E+02  0.17912976376E+02  0.51100000000E-03 0. -1.
        -11    1    3    3    0    0 -0.18256108609E+02  0.43647006818E+01  0.98720655255E+01  0.21208342500E+02  0.51100000000E-03 0.  1.
         12    1    3    3    0    0  0.13307568596E+02  0.11725514644E+02  0.96270094105E+01  0.20180643840E+02  0.00000000000E+00 0. -1.
</event>
<event>
 7    1  0.1338132E-011  0.5930165E+02  0.7816164E-02  0.1266606E+00
        -11   -1    0    0    0    0  0.00000000000E+00  0.00000000000E+00  0.45593999997E+02  0.45594000000E+02  0.51100000000E-03 0.  1.
         11   -1    0    0    0    0 -0.00000000000E+00 -0.00000000000E+00 -0.45593999997E+02  0.45594000000E+02  0.51100000000E-03 0. -1.
    9900012    2    1    2    0    0  0.14769957204E+02 -0.27068686513E+02 -0.81162588641E+01  0.59301653654E+02  0.49999470426E+02 0.  0.
        -12    1    1    2    0    0 -0.14769957204E+02  0.27068686513E+02  0.81162588641E+01  0.31886346346E+02  0.00000000000E+00 0.  1.
         11    1    3    3    0    0  0.17152703841E+02 -0.35113681405E+01 -0.43294416300E+01  0.18035770579E+02  0.51100000000E-03 0. -1.
        -11    1    3    3    0    0 -0.70774549161E+01  0.50449363455E+01  0.61251757785E+01  0.10632945471E+02  0.51100000000E-03 0.  1.
         12    1    3    3    0    0  0.46947082785E+01 -0.28602254718E+02 -0.99119930126E+01  0.30632937604E+02  0.00000000000E+00 0. -1.
</event>
<event>
 7    1  0.1338132E-011  0.5930195E+02  0.7816164E-02  0.1266605E+00
        -11   -1    0    0    0    0  0.00000000000E+00  0.00000000000E+00  0.45593999997E+02  0.45594000000E+02  0.51100000000E-03 0. -1.
         11   -1    0    0    0    0 -0.00000000000E+00 -0.00000000000E+00 -0.45593999997E+02  0.45594000000E+02  0.51100000000E-03 0.  1.
    9900012    2    1    2    0    0  0.25146895254E+02 -0.51389862231E+01  0.18919424327E+02  0.59301950744E+02  0.50000012248E+02 0.  0.
        -12    1    1    2    0    0 -0.25146895254E+02  0.51389862231E+01 -0.18919424327E+02  0.31886049256E+02  0.00000000000E+00 0.  1.
         11    1    3    3    0    0 -0.41460032725E+01  0.76857474179E+01  0.10220971339E+02  0.13443523046E+02  0.51100000000E-03 0. -1.
        -11    1    3    3    0    0 -0.20332793936E+01 -0.11732215111E+02  0.82932499851E+01  0.14510585518E+02  0.51100000000E-03 0.  1.
        -12    1    3    3    0    0  0.31326177920E+02 -0.10925185298E+01  0.40520300226E+00  0.31347842179E+02  0.00000000000E+00 0.  1.
</event>
<event>
 7    1  0.1338132E-011  0.5930192E+02  0.7816164E-02  0.1266605E+00
        -11   -1    0    0    0    0  0.00000000000E+00  0.00000000000E+00  0.45593999997E+02  0.45594000000E+02  0.51100000000E-03 0. -1.
         11   -1    0    0    0    0 -0.00000000000E+00 -0.00000000000E+00 -0.45593999997E+02  0.45594000000E+02  0.51100000000E-03 0.  1.
    9900012    2    1    2    0    0 -0.14164903448E+02  0.11035328119E+02  0.26349558075E+02  0.59301918912E+02  0.49999954195E+02 0.  0.
        -12    1    1    2    0    0  0.14164903448E+02 -0.11035328119E+02 -0.26349558075E+02  0.31886081088E+02  0.00000000000E+00 0.  1.
         11    1    3    3    0    0  0.59084620714E+00 -0.78273663318E+01  0.48952996674E+01  0.92509849220E+01  0.51100000000E-03 0. -1.
        -11    1    3    3    0    0  0.72774946156E+01 -0.69841176259E+01  0.40746119111E+00  0.10094842831E+02  0.51100000000E-03 0.  1.
         12    1    3    3    0    0 -0.22033244271E+02  0.25846812077E+02  0.21046797217E+02  0.39956091159E+02  0.00000000000E+00 0. -1.
</event>
<event>
 7    1  0.1338132E-011  0.5930193E+02  0.7816164E-02  0.1266605E+00
        -11   -1    0    0    0    0  0.00000000000E+00  0.00000000000E+00  0.45593999997E+02  0.45594000000E+02  0.51100000000E-03 0.  1.
         11   -1    0    0    0    0 -0.00000000000E+00 -0.00000000000E+00 -0.45593999997E+02  0.45594000000E+02  0.51100000000E-03 0. -1.
    9900012    2    1    2    0    0 -0.27956676265E+02  0.52599315605E+01 -0.14404134562E+02  0.59301925919E+02  0.49999966975E+02 0.  0.
        -12    1    1    2    0    0  0.27956676265E+02 -0.52599315605E+01  0.14404134562E+02  0.31886074081E+02  0.00000000000E+00 0.  1.
         11    1    3    3    0    0 -0.14660529341E+02  0.17940633360E+02 -0.11647619018E+02  0.25931920002E+02  0.51100000000E-03 0. -1.
        -11    1    3    3    0    0 -0.45143638515E+01  0.64881333737E+01  0.66049535042E+01  0.10300522643E+02  0.51100000000E-03 0.  1.
        -12    1    3    3    0    0 -0.87817830721E+01 -0.19168835173E+02 -0.93614690477E+01  0.23069483275E+02  0.00000000000E+00 0.  1.
</event>
<event>
 7    1  0.1338132E-011  0.5930195E+02  0.7816164E-02  0.1266605E+00
        -11   -1    0    0    0    0  0.00000000000E+00  0.00000000000E+00  0.45593999997E+02  0.45594000000E+02  0.51100000000E-03 0. -1.
         11   -1    0    0    0    0 -0.00000000000E+00 -0.00000000000E+00 -0.45593999997E+02  0.45594000000E+02  0.51100000000E-03 0.  1.
    9900012    2    1    2    0    0  0.24210007206E+02  0.25409594251E+01  0.20594645334E+02  0.59301947561E+02  0.50000006443E+02 0.  0.
        -12    1    1    2    0    0 -0.24210007206E+02 -0.25409594251E+01 -0.20594645334E+02  0.31886052439E+02  0.00000000000E+00 0.  1.
         11    1    3    3    0    0  0.14274068247E+02 -0.59441975504E+01  0.18305027712E+00  0.15463376620E+02  0.51100000000E-03 0.  1.
        -11    1    3    3    0    0  0.18357839032E+01  0.20347019712E+02  0.20587508525E+01  0.20533138314E+02  0.51100000000E-03 0. -1.
         12    1    3    3    0    0  0.81001550563E+01 -0.11861862736E+02  0.18352844205E+02  0.23305432627E+02  0.00000000000E+00 0. -1.
</event>
<event>
 7    1  0.1338132E-011  0.5930185E+02  0.7816164E-02  0.1266605E+00
        -11   -1    0    0    0    0  0.00000000000E+00  0.00000000000E+00  0.45593999997E+02  0.45594000000E+02  0.51100000000E-03 0.  1.
         11   -1    0    0    0    0 -0.00000000000E+00 -0.00000000000E+00 -0.45593999997E+02  0.45594000000E+02  0.51100000000E-03 0. -1.
    9900012    2    1    2    0    0  0.24478538919E+02  0.78052736863E+01 -0.18884005494E+02  0.59301845819E+02  0.49999820891E+02 0.  0.
        -12    1    1    2    0    0 -0.24478538919E+02 -0.78052736863E+01  0.18884005494E+02  0.31886154181E+02  0.00000000000E+00 0.  1.
         11    1    3    3    0    0  0.26075956225E+02  0.71181700774E+01 -0.22306480482E+02  0.35045725988E+02  0.51100000000E-03 0. -1.
        -11    1    3    3    0    0 -0.56922474679E+01  0.96054964930E+01 -0.40965455098E+01  0.11893230406E+02  0.51100000000E-03 0.  1.
        -12    1    3    3    0    0  0.40948301619E+01 -0.89183928841E+01  0.75190204974E+01  0.12362889425E+02  0.00000000000E+00 0.  1.
</event>
<event>
 7    1  0.1338132E-011  0.5930193E+02  0.7816164E-02  0.1266605E+00
        -11   -1    0    0    0    0  0.00000000000E+00  0.00000000000E+00  0.45593999997E+02  0.45594000000E+02  0.51100000000E-03 0.  1.
         11   -1    0    0    0    0 -0.00000000000E+00 -0.00000000000E+00 -0.45593999997E+02  0.45594000000E+02  0.51100000000E-03 0. -1.
    9900012    2    1    2    0    0  0.28962760671E+00 -0.25616501189E+02 -0.18985051152E+02  0.59301934320E+02  0.49999982295E+02 0.  0.
        -12    1    1    2    0    0 -0.28962760671E+00  0.25616501189E+02  0.18985051152E+02  0.31886065680E+02  0.00000000000E+00 0.  1.
         11    1    3    3    0    0 -0.81868787154E+01 -0.30263005514E+02 -0.11121128623E+02  0.33264906252E+02  0.51100000000E-03 0. -1.
        -11    1    3    3    0    0  0.41709035287E+01 -0.20504406427E+01 -0.14778414042E+02  0.15492006485E+02  0.51100000000E-03 0.  1.
         12    1    3    3    0    0  0.43056027934E+01  0.66969449678E+01  0.69144915126E+01  0.10545021583E+02  0.00000000000E+00 0. -1.
</event>
<event>
 7    1  0.1338132E-011  0.5930191E+02  0.7816164E-02  0.1266605E+00
        -11   -1    0    0    0    0  0.00000000000E+00  0.00000000000E+00  0.45593999997E+02  0.45594000000E+02  0.51100000000E-03 0. -1.
         11   -1    0    0    0    0 -0.00000000000E+00 -0.00000000000E+00 -0.45593999997E+02  0.45594000000E+02  0.51100000000E-03 0.  1.
    9900012    2    1    2    0    0 -0.17633931503E+02 -0.12605743959E+02  0.23385090600E+02  0.59301909249E+02  0.49999936572E+02 0.  0.
        -12    1    1    2    0    0  0.17633931503E+02  0.12605743959E+02 -0.23385090600E+02  0.31886090751E+02  0.00000000000E+00 0.  1.
         11    1    3    3    0    0 -0.10709730432E+02 -0.12539360492E+02  0.15881650872E+02  0.22894556606E+02  0.51100000000E-03 0. -1.
        -11    1    3    3    0    0 -0.15902149986E+01 -0.10813122786E+02  0.17606166998E+02  0.20722681409E+02  0.51100000000E-03 0.  1.
        -12    1    3    3    0    0 -0.53339860724E+01  0.10746739319E+02 -0.10102727271E+02  0.15684671234E+02  0.00000000000E+00 0.  1.
</event>
<event>
 7    1  0.1338132E-011  0.5930197E+02  0.7816164E-02  0.1266605E+00
        -11   -1    0    0    0    0  0.00000000000E+00  0.00000000000E+00  0.45593999997E+02  0.45594000000E+02  0.51100000000E-03 0.  1.
         11   -1    0    0    0    0 -0.00000000000E+00 -0.00000000000E+00 -0.45593999997E+02  0.45594000000E+02  0.51100000000E-03 0. -1.
    9900012    2    1    2    0    0 -0.10460764922E+02 -0.10693939726E+02 -0.28159026293E+02  0.59301973101E+02  0.50000053023E+02 0.  0.
        -12    1    1    2    0    0  0.10460764922E+02  0.10693939726E+02  0.28159026293E+02  0.31886026899E+02  0.00000000000E+00 0.  1.
         11    1    3    3    0    0 -0.61358885376E+01 -0.78794774608E+01 -0.95366216681E+01  0.13808781492E+02  0.51100000000E-03 0. -1.
        -11    1    3    3    0    0 -0.19779692826E+02  0.63165746011E+01 -0.17162328055E+01  0.20834606266E+02  0.51100000000E-03 0.  1.
        -12    1    3    3    0    0  0.15454816442E+02 -0.91310368661E+01 -0.16906171820E+02  0.24658585343E+02  0.00000000000E+00 0.  1.
</event>
<event>
 7    1  0.1338132E-011  0.5930190E+02  0.7816164E-02  0.1266605E+00
        -11   -1    0    0    0    0  0.00000000000E+00  0.00000000000E+00  0.45593999997E+02  0.45594000000E+02  0.51100000000E-03 0.  1.
         11   -1    0    0    0    0 -0.00000000000E+00 -0.00000000000E+00 -0.45593999997E+02  0.45594000000E+02  0.51100000000E-03 0. -1.
    9900012    2    1    2    0    0 -0.46246264459E+01 -0.11983229653E+02 -0.29184557604E+02  0.59301900126E+02  0.49999919933E+02 0.  0.
        -12    1    1    2    0    0  0.46246264459E+01  0.11983229653E+02  0.29184557604E+02  0.31886099874E+02  0.00000000000E+00 0.  1.
         11    1    3    3    0    0  0.58332876565E+01  0.36296215522E+01 -0.11064193306E+02  0.13023738759E+02  0.51100000000E-03 0. -1.
        -11    1    3    3    0    0 -0.16260496631E+02  0.79702804713E+01 -0.98993155310E+01  0.20637964283E+02  0.51100000000E-03 0.  1.
         12    1    3    3    0    0  0.58025825290E+01 -0.23583131676E+02 -0.82210487671E+01  0.25640197084E+02  0.00000000000E+00 0. -1.
</event>
<event>
 7    1  0.1338132E-011  0.5930192E+02  0.7816164E-02  0.1266605E+00
        -11   -1    0    0    0    0  0.00000000000E+00  0.00000000000E+00  0.45593999997E+02  0.45594000000E+02  0.51100000000E-03 0.  1.
         11   -1    0    0    0    0 -0.00000000000E+00 -0.00000000000E+00 -0.45593999997E+02  0.45594000000E+02  0.51100000000E-03 0. -1.
    9900012    2    1    2    0    0 -0.24971631865E+02 -0.15967168940E+02  0.11755385817E+02  0.59301921883E+02  0.49999959614E+02 0.  0.
        -12    1    1    2    0    0  0.24971631865E+02  0.15967168940E+02 -0.11755385817E+02  0.31886078117E+02  0.00000000000E+00 0.  1.
         11    1    3    3    0    0  0.10286856563E+01 -0.11795608161E+02 -0.50044818499E+01  0.12854548025E+02  0.51100000000E-03 0. -1.
        -11    1    3    3    0    0 -0.17232408997E+02 -0.94360144532E+01  0.26051806653E+02  0.32629601878E+02  0.51100000000E-03 0.  1.
         12    1    3    3    0    0 -0.87679085239E+01  0.52644536746E+01 -0.92919389860E+01  0.13817771980E+02  0.00000000000E+00 0. -1.
</event>
<event>
 7    1  0.1338132E-011  0.5930197E+02  0.7816164E-02  0.1266605E+00
        -11   -1    0    0    0    0  0.00000000000E+00  0.00000000000E+00  0.45593999997E+02  0.45594000000E+02  0.51100000000E-03 0.  1.
         11   -1    0    0    0    0 -0.00000000000E+00 -0.00000000000E+00 -0.45593999997E+02  0.45594000000E+02  0.51100000000E-03 0. -1.
    9900012    2    1    2    0    0 -0.11350625520E+02 -0.12806718848E+02 -0.26904830997E+02  0.59301973620E+02  0.50000053969E+02 0.  0.
        -12    1    1    2    0    0  0.11350625520E+02  0.12806718848E+02  0.26904830997E+02  0.31886026380E+02  0.00000000000E+00 0.  1.
         11    1    3    3    0    0 -0.10967248600E+02 -0.21452668662E+02 -0.16738060910E+02  0.29337011059E+02  0.51100000000E-03 0. -1.
        -11    1    3    3    0    0 -0.29527525945E+01  0.19130519263E+01  0.89061978421E+01  0.95759529981E+01  0.51100000000E-03 0.  1.
         12    1    3    3    0    0  0.25693756754E+01  0.67328978876E+01 -0.19072967929E+02  0.20389009563E+02  0.00000000000E+00 0. -1.
</event>
<event>
 7    1  0.1338132E-011  0.5930195E+02  0.7816164E-02  0.1266605E+00
        -11   -1    0    0    0    0  0.00000000000E+00  0.00000000000E+00  0.45593999997E+02  0.45594000000E+02  0.51100000000E-03 0. -1.
         11   -1    0    0    0    0 -0.00000000000E+00 -0.00000000000E+00 -0.45593999997E+02  0.45594000000E+02  0.51100000000E-03 0.  1.
    9900012    2    1    2    0    0  0.29891768233E+02  0.16912153325E+01  0.10970060704E+02  0.59301948986E+02  0.50000009043E+02 0.  0.
        -12    1    1    2    0    0 -0.29891768233E+02 -0.16912153325E+01 -0.10970060704E+02  0.31886051014E+02  0.00000000000E+00 0.  1.
         11    1    3    3    0    0 -0.23769088833E+01 -0.15424667160E+01 -0.38126990307E+01  0.47503235226E+01  0.51100000000E-03 0. -1.
        -11    1    3    3    0    0 -0.13066318232E+01 -0.13923327884E+02 -0.18157667349E+00  0.13985682552E+02  0.51100000000E-03 0.  1.
        -12    1    3    3    0    0  0.33575308940E+02  0.17157009932E+02  0.14964336408E+02  0.40565942912E+02  0.00000000000E+00 0.  1.
</event>
<event>
 7    1  0.1338132E-011  0.5930193E+02  0.7816164E-02  0.1266605E+00
        -11   -1    0    0    0    0  0.00000000000E+00  0.00000000000E+00  0.45593999997E+02  0.45594000000E+02  0.51100000000E-03 0.  1.
         11   -1    0    0    0    0 -0.00000000000E+00 -0.00000000000E+00 -0.45593999997E+02  0.45594000000E+02  0.51100000000E-03 0. -1.
    9900012    2    1    2    0    0 -0.26483497367E+02 -0.12196488970E+02 -0.12907027720E+02  0.59301931873E+02  0.49999977834E+02 0.  0.
        -12    1    1    2    0    0  0.26483497367E+02  0.12196488970E+02  0.12907027720E+02  0.31886068127E+02  0.00000000000E+00 0.  1.
         11    1    3    3    0    0 -0.14580925641E+02 -0.11326145623E+00 -0.12479986817E+02  0.19192870862E+02  0.51100000000E-03 0. -1.
        -11    1    3    3    0    0 -0.21581215141E+02 -0.24824697685E+01 -0.95243192066E+01  0.23719699824E+02  0.51100000000E-03 0.  1.
        -12    1    3    3    0    0  0.96786434145E+01 -0.96007577456E+01  0.90972783032E+01  0.16389361188E+02  0.00000000000E+00 0.  1.
</event>
<event>
 7    1  0.1338132E-011  0.5930221E+02  0.7816164E-02  0.1266604E+00
        -11   -1    0    0    0    0  0.00000000000E+00  0.00000000000E+00  0.45593999997E+02  0.45594000000E+02  0.51100000000E-03 0.  1.
         11   -1    0    0    0    0 -0.00000000000E+00 -0.00000000000E+00 -0.45593999997E+02  0.45594000000E+02  0.51100000000E-03 0. -1.
    9900012    2    1    2    0    0 -0.24340138070E+02  0.37440233469E+01 -0.20254468238E+02  0.59302211384E+02  0.50000487590E+02 0.  0.
        -12    1    1    2    0    0  0.24340138070E+02 -0.37440233469E+01  0.20254468238E+02  0.31885788616E+02  0.00000000000E+00 0.  1.
         11    1    3    3    0    0 -0.72248047286E+00  0.64899536353E+00  0.53099458330E+00  0.11068552408E+01  0.51100000000E-03 0. -1.
        -11    1    3    3    0    0 -0.85126510738E-01  0.90706142567E+01  0.13450897802E+02  0.16223746222E+02  0.51100000000E-03 0.  1.
         12    1    3    3    0    0 -0.23532531087E+02 -0.59755862734E+01 -0.34236360623E+02  0.41971609921E+02  0.00000000000E+00 0. -1.
</event>
<event>
 7    1  0.1338132E-011  0.5930194E+02  0.7816164E-02  0.1266605E+00
        -11   -1    0    0    0    0  0.00000000000E+00  0.00000000000E+00  0.45593999997E+02  0.45594000000E+02  0.51100000000E-03 0. -1.
         11   -1    0    0    0    0 -0.00000000000E+00 -0.00000000000E+00 -0.45593999997E+02  0.45594000000E+02  0.51100000000E-03 0.  1.
    9900012    2    1    2    0    0 -0.91588099722E+01  0.50116663980E+01  0.30128399649E+02  0.59301936185E+02  0.49999985697E+02 0.  0.
        -12    1    1    2    0    0  0.91588099722E+01 -0.50116663980E+01 -0.30128399649E+02  0.31886063815E+02  0.00000000000E+00 0.  1.
         11    1    3    3    0    0  0.26525126392E+01  0.45791982448E+01  0.16836051262E+01  0.55533239009E+01  0.51100000000E-03 0. -1.
        -11    1    3    3    0    0  0.64302106396E-01  0.20171233122E+02  0.21958352784E+02  0.29816975663E+02  0.51100000000E-03 0.  1.
         12    1    3    3    0    0 -0.11875624718E+02 -0.19738764969E+02  0.64864417392E+01  0.23931636621E+02  0.00000000000E+00 0. -1.
</event>
<event>
 7    1  0.1338132E-011  0.5930194E+02  0.7816164E-02  0.1266605E+00
        -11   -1    0    0    0    0  0.00000000000E+00  0.00000000000E+00  0.45593999997E+02  0.45594000000E+02  0.51100000000E-03 0. -1.
         11   -1    0    0    0    0 -0.00000000000E+00 -0.00000000000E+00 -0.45593999997E+02  0.45594000000E+02  0.51100000000E-03 0.  1.
    9900012    2    1    2    0    0  0.42215488617E+01  0.20351079819E+02  0.24181257140E+02  0.59301935309E+02  0.49999984100E+02 0.  0.
        -12    1    1    2    0    0 -0.42215488617E+01 -0.20351079819E+02 -0.24181257140E+02  0.31886064691E+02  0.00000000000E+00 0.  1.
         11    1    3    3    0    0  0.38481745283E+01  0.10761445198E+02  0.33923210298E+02  0.35796666704E+02  0.51100000000E-03 0. -1.
        -11    1    3    3    0    0  0.56201978345E+01  0.92179611645E+01  0.16840034267E+01  0.10926724099E+02  0.51100000000E-03 0.  1.
        -12    1    3    3    0    0 -0.52468235010E+01  0.37167345644E+00 -0.11425956585E+02  0.12578544506E+02  0.00000000000E+00 0.  1.
</event>
<event>
 7    1  0.1338132E-011  0.5930195E+02  0.7816164E-02  0.1266605E+00
        -11   -1    0    0    0    0  0.00000000000E+00  0.00000000000E+00  0.45593999997E+02  0.45594000000E+02  0.51100000000E-03 0.  1.
         11   -1    0    0    0    0 -0.00000000000E+00 -0.00000000000E+00 -0.45593999997E+02  0.45594000000E+02  0.51100000000E-03 0. -1.
    9900012    2    1    2    0    0 -0.17281044294E+02 -0.21893508547E+02 -0.15451850433E+02  0.59301954616E+02  0.50000019311E+02 0.  0.
        -12    1    1    2    0    0  0.17281044294E+02  0.21893508547E+02  0.15451850433E+02  0.31886045384E+02  0.00000000000E+00 0.  1.
         11    1    3    3    0    0  0.39368189602E+01  0.92048500626E+00  0.54957375175E+01  0.68226803600E+01  0.51100000000E-03 0. -1.
        -11    1    3    3    0    0 -0.24311073455E+01  0.93286928195E+01 -0.94857513552E+01  0.13524580277E+02  0.51100000000E-03 0.  1.
         12    1    3    3    0    0 -0.18786755908E+02 -0.32142686373E+02 -0.11461836596E+02  0.38954693979E+02  0.00000000000E+00 0. -1.
</event>
<event>
 7    1  0.1338132E-011  0.5930187E+02  0.7816164E-02  0.1266605E+00
        -11   -1    0    0    0    0  0.00000000000E+00  0.00000000000E+00  0.45593999997E+02  0.45594000000E+02  0.51100000000E-03 0. -1.
         11   -1    0    0    0    0 -0.00000000000E+00 -0.00000000000E+00 -0.45593999997E+02  0.45594000000E+02  0.51100000000E-03 0.  1.
    9900012    2    1    2    0    0  0.16291138413E+02 -0.53331293809E+01  0.26886458220E+02  0.59301872994E+02  0.49999870452E+02 0.  0.
        -12    1    1    2    0    0 -0.16291138413E+02  0.53331293809E+01 -0.26886458220E+02  0.31886127006E+02  0.00000000000E+00 0.  1.
         11    1    3    3    0    0 -0.15075330931E+01 -0.26260994429E+00  0.70219491857E+00  0.16836561331E+01  0.51100000000E-03 0. -1.
        -11    1    3    3    0    0  0.12041678391E+02 -0.24585363982E+02  0.25262588019E+02  0.37251046888E+02  0.51100000000E-03 0.  1.
         12    1    3    3    0    0  0.57569931154E+01  0.19514844546E+02  0.92167528291E+00  0.20367169973E+02  0.00000000000E+00 0. -1.
</event>
<event>
 7    1  0.1338132E-011  0.5930192E+02  0.7816164E-02  0.1266605E+00
        -11   -1    0    0    0    0  0.00000000000E+00  0.00000000000E+00  0.45593999997E+02  0.45594000000E+02  0.51100000000E-03 0.  1.
         11   -1    0    0    0    0 -0.00000000000E+00 -0.00000000000E+00 -0.45593999997E+02  0.45594000000E+02  0.51100000000E-03 0. -1.
    9900012    2    1    2    0    0 -0.30218367290E+02 -0.54473694889E+01 -0.85964152063E+01  0.59301922937E+02  0.49999961536E+02 0.  0.
        -12    1    1    2    0    0  0.30218367290E+02  0.54473694889E+01  0.85964152063E+01  0.31886077063E+02  0.00000000000E+00 0.  1.
         11    1    3    3    0    0 -0.66662720708E+00 -0.12332961786E+02 -0.13547706243E+02  0.18332667099E+02  0.51100000000E-03 0. -1.
        -11    1    3    3    0    0  0.41597948130E+01 -0.34220668980E+01  0.11955187886E+01  0.55175810076E+01  0.51100000000E-03 0.  1.
         12    1    3    3    0    0 -0.33711534896E+02  0.10307659195E+02  0.37557722477E+01  0.35451674831E+02  0.00000000000E+00 0. -1.
</event>
<event>
 7    1  0.1338132E-011  0.5930196E+02  0.7816164E-02  0.1266605E+00
        -11   -1    0    0    0    0  0.00000000000E+00  0.00000000000E+00  0.45593999997E+02  0.45594000000E+02  0.51100000000E-03 0.  1.
         11   -1    0    0    0    0 -0.00000000000E+00 -0.00000000000E+00 -0.45593999997E+02  0.45594000000E+02  0.51100000000E-03 0. -1.
    9900012    2    1    2    0    0  0.10800652123E+02  0.12124379230E+02 -0.27442033508E+02  0.59301955074E+02  0.50000020145E+02 0.  0.
        -12    1    1    2    0    0 -0.10800652123E+02 -0.12124379230E+02  0.27442033508E+02  0.31886044926E+02  0.00000000000E+00 0.  1.
         11    1    3    3    0    0  0.35591870984E+01  0.13018683257E+01 -0.31285778529E+02  0.31514482581E+02  0.51100000000E-03 0. -1.
        -11    1    3    3    0    0 -0.44760153385E+01  0.97036645464E+01 -0.61646929544E+01  0.12336906355E+02  0.51100000000E-03 0.  1.
        -12    1    3    3    0    0  0.11717480363E+02  0.11188463580E+01  0.10008437976E+02  0.15450566137E+02  0.00000000000E+00 0.  1.
</event>
<event>
 7    1  0.1338132E-011  0.5930208E+02  0.7816164E-02  0.1266604E+00
        -11   -1    0    0    0    0  0.00000000000E+00  0.00000000000E+00  0.45593999997E+02  0.45594000000E+02  0.51100000000E-03 0.  1.
         11   -1    0    0    0    0 -0.00000000000E+00 -0.00000000000E+00 -0.45593999997E+02  0.45594000000E+02  0.51100000000E-03 0. -1.
    9900012    2    1    2    0    0 -0.25459429402E+02 -0.17684013582E+02  0.74702831058E+01  0.59302078161E+02  0.50000244626E+02 0.  0.
        -12    1    1    2    0    0  0.25459429402E+02  0.17684013582E+02 -0.74702831058E+01  0.31885921839E+02  0.00000000000E+00 0.  1.
         11    1    3    3    0    0 -0.12298740049E+02  0.81792495585E+01  0.13654077274E+02  0.20114496180E+02  0.51100000000E-03 0. -1.
        -11    1    3    3    0    0 -0.24053168867E+01 -0.14890364122E+00  0.76855741055E+01  0.80545497212E+01  0.51100000000E-03 0.  1.
         12    1    3    3    0    0 -0.10755372467E+02 -0.25714359499E+02 -0.13869368274E+02  0.31133032259E+02  0.00000000000E+00 0. -1.
</event>
<event>
 7    1  0.1338132E-011  0.5930192E+02  0.7816164E-02  0.1266605E+00
        -11   -1    0    0    0    0  0.00000000000E+00  0.00000000000E+00  0.45593999997E+02  0.45594000000E+02  0.51100000000E-03 0. -1.
         11   -1    0    0    0    0 -0.00000000000E+00 -0.00000000000E+00 -0.45593999997E+02  0.45594000000E+02  0.51100000000E-03 0.  1.
    9900012    2    1    2    0    0 -0.56680900084E+01 -0.27513842242E+02  0.15085860287E+02  0.59301922476E+02  0.49999960694E+02 0.  0.
        -12    1    1    2    0    0  0.56680900084E+01  0.27513842242E+02 -0.15085860287E+02  0.31886077524E+02  0.00000000000E+00 0.  1.
         11    1    3    3    0    0  0.26502938559E+00  0.11370792733E+02  0.15764589650E+02  0.19439327536E+02  0.51100000000E-03 0. -1.
        -11    1    3    3    0    0  0.70423772043E+00 -0.10161420008E+01 -0.69201833749E+00  0.14168221389E+01  0.51100000000E-03 0.  1.
         12    1    3    3    0    0 -0.66373571144E+01 -0.37868492975E+02  0.13288974844E-01  0.38445772801E+02  0.00000000000E+00 0. -1.
</event>
<event>
 7    1  0.1338132E-011  0.5930195E+02  0.7816164E-02  0.1266605E+00
        -11   -1    0    0    0    0  0.00000000000E+00  0.00000000000E+00  0.45593999997E+02  0.45594000000E+02  0.51100000000E-03 0.  1.
         11   -1    0    0    0    0 -0.00000000000E+00 -0.00000000000E+00 -0.45593999997E+02  0.45594000000E+02  0.51100000000E-03 0. -1.
    9900012    2    1    2    0    0 -0.64299569890E+00 -0.22894922095E+01 -0.31797250748E+02  0.59301947043E+02  0.50000005499E+02 0.  0.
        -12    1    1    2    0    0  0.64299569890E+00  0.22894922095E+01  0.31797250748E+02  0.31886052957E+02  0.00000000000E+00 0.  1.
         11    1    3    3    0    0 -0.35532546647E+01  0.30780540777E+00  0.52806147725E+01  0.63722253191E+01  0.51100000000E-03 0. -1.
        -11    1    3    3    0    0 -0.10954344352E+02 -0.40454167846E+00  0.22338433289E+01  0.11187107330E+02  0.51100000000E-03 0.  1.
         12    1    3    3    0    0  0.13864603318E+02 -0.21927559388E+01 -0.39311708849E+02  0.41742614393E+02  0.00000000000E+00 0. -1.
</event>
<event>
 7    1  0.1338132E-011  0.5930202E+02  0.7816164E-02  0.1266604E+00
        -11   -1    0    0    0    0  0.00000000000E+00  0.00000000000E+00  0.45593999997E+02  0.45594000000E+02  0.51100000000E-03 0.  1.
         11   -1    0    0    0    0 -0.00000000000E+00 -0.00000000000E+00 -0.45593999997E+02  0.45594000000E+02  0.51100000000E-03 0. -1.
    9900012    2    1    2    0    0 -0.10396098176E+02 -0.11132840930E+02 -0.28012438576E+02  0.59302020018E+02  0.50000138588E+02 0.  0.
        -12    1    1    2    0    0  0.10396098176E+02  0.11132840930E+02  0.28012438576E+02  0.31885979982E+02  0.00000000000E+00 0.  1.
         11    1    3    3    0    0  0.22971501706E+01 -0.99632221226E+01 -0.73203398666E+01  0.12574977932E+02  0.51100000000E-03 0. -1.
        -11    1    3    3    0    0  0.10993703689E+02 -0.10541044520E+02 -0.25239650830E+01  0.15438443586E+02  0.51100000000E-03 0.  1.
         12    1    3    3    0    0 -0.23686952035E+02  0.93714257121E+01 -0.18168133626E+02  0.31288598499E+02  0.00000000000E+00 0. -1.
</event>
<event>
 7    1  0.1338132E-011  0.5930195E+02  0.7816164E-02  0.1266605E+00
        -11   -1    0    0    0    0  0.00000000000E+00  0.00000000000E+00  0.45593999997E+02  0.45594000000E+02  0.51100000000E-03 0.  1.
         11   -1    0    0    0    0 -0.00000000000E+00 -0.00000000000E+00 -0.45593999997E+02  0.45594000000E+02  0.51100000000E-03 0. -1.
    9900012    2    1    2    0    0 -0.84313596361E+01  0.27304297128E+02 -0.14145950203E+02  0.59301947028E+02  0.50000005472E+02 0.  0.
        -12    1    1    2    0    0  0.84313596361E+01 -0.27304297128E+02  0.14145950203E+02  0.31886052972E+02  0.00000000000E+00 0.  1.
         11    1    3    3    0    0 -0.10581568140E+02  0.17175664951E+02 -0.75151686398E+01  0.21527907719E+02  0.51100000000E-03 0. -1.
        -11    1    3    3    0    0 -0.13282846836E+02  0.15837782251E+02 -0.47720921254E+01  0.21214198788E+02  0.51100000000E-03 0.  1.
         12    1    3    3    0    0  0.15433055340E+02 -0.57091500737E+01 -0.18586894377E+01  0.16559840522E+02  0.00000000000E+00 0. -1.
</event>
<event>
 7    1  0.1338132E-011  0.5930192E+02  0.7816164E-02  0.1266605E+00
        -11   -1    0    0    0    0  0.00000000000E+00  0.00000000000E+00  0.45593999997E+02  0.45594000000E+02  0.51100000000E-03 0.  1.
         11   -1    0    0    0    0 -0.00000000000E+00 -0.00000000000E+00 -0.45593999997E+02  0.45594000000E+02  0.51100000000E-03 0. -1.
    9900012    2    1    2    0    0 -0.15063157747E+02  0.97686944639E+01 -0.26351392630E+02  0.59301921433E+02  0.49999958792E+02 0.  0.
        -12    1    1    2    0    0  0.15063157747E+02 -0.97686944639E+01  0.26351392630E+02  0.31886078567E+02  0.00000000000E+00 0.  1.
         11    1    3    3    0    0 -0.12682484155E+02  0.50216744922E+01 -0.18586448237E+02  0.23054688837E+02  0.51100000000E-03 0. -1.
        -11    1    3    3    0    0 -0.16669841109E+02  0.67917082833E+01  0.29892871940E+01  0.18246828277E+02  0.51100000000E-03 0.  1.
        -12    1    3    3    0    0  0.14289167516E+02 -0.20446883116E+01 -0.10754231588E+02  0.18000404318E+02  0.00000000000E+00 0.  1.
</event>
<event>
 7    1  0.1338132E-011  0.5930197E+02  0.7816164E-02  0.1266605E+00
        -11   -1    0    0    0    0  0.00000000000E+00  0.00000000000E+00  0.45593999997E+02  0.45594000000E+02  0.51100000000E-03 0.  1.
         11   -1    0    0    0    0 -0.00000000000E+00 -0.00000000000E+00 -0.45593999997E+02  0.45594000000E+02  0.51100000000E-03 0. -1.
    9900012    2    1    2    0    0 -0.20660196402E+02 -0.83461942967E+01 -0.22808247684E+02  0.59301971131E+02  0.50000049430E+02 0.  0.
        -12    1    1    2    0    0  0.20660196402E+02  0.83461942967E+01  0.22808247684E+02  0.31886028869E+02  0.00000000000E+00 0.  1.
         11    1    3    3    0    0  0.34447780309E+01 -0.21415872730E+01  0.60648993448E+01  0.72962933092E+01  0.51100000000E-03 0.  1.
        -11    1    3    3    0    0 -0.14032557947E+02  0.14524393344E+02 -0.14093374887E+02  0.24627096875E+02  0.51100000000E-03 0. -1.
         12    1    3    3    0    0 -0.10072416486E+02 -0.20729000367E+02 -0.14779772142E+02  0.27378580947E+02  0.00000000000E+00 0. -1.
</event>
<event>
 7    1  0.1338132E-011  0.5930181E+02  0.7816164E-02  0.1266605E+00
        -11   -1    0    0    0    0  0.00000000000E+00  0.00000000000E+00  0.45593999997E+02  0.45594000000E+02  0.51100000000E-03 0. -1.
         11   -1    0    0    0    0 -0.00000000000E+00 -0.00000000000E+00 -0.45593999997E+02  0.45594000000E+02  0.51100000000E-03 0.  1.
    9900012    2    1    2    0    0 -0.29779543461E+02  0.10949197974E+02 -0.31658763235E+01  0.59301813055E+02  0.49999761137E+02 0.  0.
        -12    1    1    2    0    0  0.29779543461E+02 -0.10949197974E+02  0.31658763235E+01  0.31886186945E+02  0.00000000000E+00 0.  1.
         11    1    3    3    0    0  0.26236805506E+01  0.13248030234E+02  0.87947874195E+01  0.16116522290E+02  0.51100000000E-03 0.  1.
        -11    1    3    3    0    0 -0.52538946373E+01 -0.92689883217E+01  0.34491702023E+01  0.11198853902E+02  0.51100000000E-03 0. -1.
         12    1    3    3    0    0 -0.27149329374E+02  0.69701560615E+01 -0.15409833945E+02  0.31986436863E+02  0.00000000000E+00 0. -1.
</event>
<event>
 7    1  0.1338132E-011  0.5930193E+02  0.7816164E-02  0.1266605E+00
        -11   -1    0    0    0    0  0.00000000000E+00  0.00000000000E+00  0.45593999997E+02  0.45594000000E+02  0.51100000000E-03 0.  1.
         11   -1    0    0    0    0 -0.00000000000E+00 -0.00000000000E+00 -0.45593999997E+02  0.45594000000E+02  0.51100000000E-03 0. -1.
    9900012    2    1    2    0    0  0.15752800346E+02  0.25505872873E+02 -0.10863744186E+02  0.59301933960E+02  0.49999981638E+02 0.  0.
        -12    1    1    2    0    0 -0.15752800346E+02 -0.25505872873E+02  0.10863744186E+02  0.31886066040E+02  0.00000000000E+00 0.  1.
         11    1    3    3    0    0 -0.15876987209E+01  0.10493849578E+02 -0.31038296559E+01  0.11057821891E+02  0.51100000000E-03 0. -1.
        -11    1    3    3    0    0 -0.84069143048E+01  0.19677465404E+02 -0.23796419520E+01  0.21530015070E+02  0.51100000000E-03 0.  1.
         12    1    3    3    0    0  0.25747413372E+02 -0.46654421079E+01 -0.53802725782E+01  0.26714096998E+02  0.00000000000E+00 0. -1.
</event>
<event>
 7    1  0.1338132E-011  0.5930195E+02  0.7816164E-02  0.1266605E+00
        -11   -1    0    0    0    0  0.00000000000E+00  0.00000000000E+00  0.45593999997E+02  0.45594000000E+02  0.51100000000E-03 0. -1.
         11   -1    0    0    0    0 -0.00000000000E+00 -0.00000000000E+00 -0.45593999997E+02  0.45594000000E+02  0.51100000000E-03 0.  1.
    9900012    2    1    2    0    0 -0.30689036651E+02  0.39495283961E+00 -0.86456453202E+01  0.59301950679E+02  0.50000012131E+02 0.  0.
        -12    1    1    2    0    0  0.30689036651E+02 -0.39495283961E+00  0.86456453202E+01  0.31886049321E+02  0.00000000000E+00 0.  1.
         11    1    3    3    0    0 -0.19494508875E+02  0.12746383310E+02  0.13017881702E+02  0.26682792359E+02  0.51100000000E-03 0. -1.
        -11    1    3    3    0    0  0.36426065377E+00 -0.12721850351E+02 -0.12780400454E+02  0.18036540638E+02  0.51100000000E-03 0.  1.
        -12    1    3    3    0    0 -0.11558788429E+02  0.37041988050E+00 -0.88831265688E+01  0.14582617682E+02  0.00000000000E+00 0.  1.
</event>
<event>
 7    1  0.1338132E-011  0.5930197E+02  0.7816164E-02  0.1266605E+00
        -11   -1    0    0    0    0  0.00000000000E+00  0.00000000000E+00  0.45593999997E+02  0.45594000000E+02  0.51100000000E-03 0.  1.
         11   -1    0    0    0    0 -0.00000000000E+00 -0.00000000000E+00 -0.45593999997E+02  0.45594000000E+02  0.51100000000E-03 0. -1.
    9900012    2    1    2    0    0  0.11472816798E+02 -0.28952535743E+02 -0.68442784181E+01  0.59301968602E+02  0.50000044818E+02 0.  0.
        -12    1    1    2    0    0 -0.11472816798E+02  0.28952535743E+02  0.68442784181E+01  0.31886031398E+02  0.00000000000E+00 0.  1.
         11    1    3    3    0    0  0.55284191185E+01 -0.17324603875E+02  0.37336405880E+01  0.18564627378E+02  0.51100000000E-03 0.  1.
        -11    1    3    3    0    0  0.23964247854E+01  0.28609445753E+01 -0.21770602414E+02  0.22088163920E+02  0.51100000000E-03 0. -1.
         12    1    3    3    0    0  0.35479728941E+01 -0.14488876443E+02  0.11192683408E+02  0.18649177304E+02  0.00000000000E+00 0. -1.
</event>
<event>
 7    1  0.1338132E-011  0.5930190E+02  0.7816164E-02  0.1266605E+00
        -11   -1    0    0    0    0  0.00000000000E+00  0.00000000000E+00  0.45593999997E+02  0.45594000000E+02  0.51100000000E-03 0. -1.
         11   -1    0    0    0    0 -0.00000000000E+00 -0.00000000000E+00 -0.45593999997E+02  0.45594000000E+02  0.51100000000E-03 0.  1.
    9900012    2    1    2    0    0 -0.78108098404E+01 -0.17460314362E+02  0.25511799281E+02  0.59301902237E+02  0.49999923784E+02 0.  0.
        -12    1    1    2    0    0  0.78108098404E+01  0.17460314362E+02 -0.25511799281E+02  0.31886097763E+02  0.00000000000E+00 0.  1.
         11    1    3    3    0    0 -0.11412899704E+02 -0.53198355776E+01  0.59097500752E+01  0.13909711588E+02  0.51100000000E-03 0. -1.
        -11    1    3    3    0    0 -0.16172200793E+02 -0.48571790142E+01  0.41207072510E+00  0.16890887159E+02  0.51100000000E-03 0.  1.
         12    1    3    3    0    0  0.19774290658E+02 -0.72832997699E+01  0.19189978481E+02  0.28501303490E+02  0.00000000000E+00 0. -1.
</event>
<event>
 7    1  0.1338132E-011  0.5930176E+02  0.7816164E-02  0.1266605E+00
        -11   -1    0    0    0    0  0.00000000000E+00  0.00000000000E+00  0.45593999997E+02  0.45594000000E+02  0.51100000000E-03 0. -1.
         11   -1    0    0    0    0 -0.00000000000E+00 -0.00000000000E+00 -0.45593999997E+02  0.45594000000E+02  0.51100000000E-03 0.  1.
    9900012    2    1    2    0    0  0.23126057304E+02 -0.16134425723E+02  0.14886170179E+02  0.59301760296E+02  0.49999664916E+02 0.  0.
        -12    1    1    2    0    0 -0.23126057304E+02  0.16134425723E+02 -0.14886170179E+02  0.31886239704E+02  0.00000000000E+00 0.  1.
         11    1    3    3    0    0  0.18285206318E+02 -0.12706597988E+02  0.95765715456E+01  0.24238752554E+02  0.51100000000E-03 0. -1.
        -11    1    3    3    0    0  0.38615639766E+01 -0.11618722408E+02 -0.11208690658E+02  0.16599431715E+02  0.51100000000E-03 0.  1.
        -12    1    3    3    0    0  0.97928700940E+00  0.81908946727E+01  0.16518289292E+02  0.18463576027E+02  0.00000000000E+00 0.  1.
</event>
<event>
 7    1  0.1338132E-011  0.5930196E+02  0.7816164E-02  0.1266605E+00
        -11   -1    0    0    0    0  0.00000000000E+00  0.00000000000E+00  0.45593999997E+02  0.45594000000E+02  0.51100000000E-03 0.  1.
         11   -1    0    0    0    0 -0.00000000000E+00 -0.00000000000E+00 -0.45593999997E+02  0.45594000000E+02  0.51100000000E-03 0. -1.
    9900012    2    1    2    0    0  0.16568219064E+02 -0.96370871717E+01 -0.25482155017E+02  0.59301959851E+02  0.50000028857E+02 0.  0.
        -12    1    1    2    0    0 -0.16568219064E+02  0.96370871717E+01  0.25482155017E+02  0.31886040149E+02  0.00000000000E+00 0.  1.
         11    1    3    3    0    0 -0.25974732381E+01  0.69268125131E+01  0.62169963608E+01  0.96632625353E+01  0.51100000000E-03 0. -1.
        -11    1    3    3    0    0  0.11225278385E+02  0.33122774305E+01 -0.38682370835E+00  0.11710153262E+02  0.51100000000E-03 0.  1.
         12    1    3    3    0    0  0.79404139174E+01 -0.19876177115E+02 -0.31312327669E+02  0.37928544053E+02  0.00000000000E+00 0. -1.
</event>
<event>
 7    1  0.1338132E-011  0.5930209E+02  0.7816164E-02  0.1266604E+00
        -11   -1    0    0    0    0  0.00000000000E+00  0.00000000000E+00  0.45593999997E+02  0.45594000000E+02  0.51100000000E-03 0.  1.
         11   -1    0    0    0    0 -0.00000000000E+00 -0.00000000000E+00 -0.45593999997E+02  0.45594000000E+02  0.51100000000E-03 0. -1.
    9900012    2    1    2    0    0 -0.26172618373E+02 -0.76465863306E+01 -0.16529820146E+02  0.59302091057E+02  0.50000268146E+02 0.  0.
        -12    1    1    2    0    0  0.26172618373E+02  0.76465863306E+01  0.16529820146E+02  0.31885908943E+02  0.00000000000E+00 0.  1.
         11    1    3    3    0    0 -0.17144330386E+01  0.84308357360E+00  0.14994554285E+01  0.24286698827E+01  0.51100000000E-03 0. -1.
        -11    1    3    3    0    0 -0.99027757377E+01  0.22643108141E+01  0.15639577397E+02  0.18649087168E+02  0.51100000000E-03 0.  1.
         12    1    3    3    0    0 -0.14555409597E+02 -0.10753980718E+02 -0.33668852972E+02  0.38224334007E+02  0.00000000000E+00 0. -1.
</event>
<event>
 7    1  0.1338132E-011  0.5930195E+02  0.7816164E-02  0.1266605E+00
        -11   -1    0    0    0    0  0.00000000000E+00  0.00000000000E+00  0.45593999997E+02  0.45594000000E+02  0.51100000000E-03 0.  1.
         11   -1    0    0    0    0 -0.00000000000E+00 -0.00000000000E+00 -0.45593999997E+02  0.45594000000E+02  0.51100000000E-03 0. -1.
    9900012    2    1    2    0    0 -0.86644376148E+01 -0.15581287386E+02 -0.26436176646E+02  0.59301946129E+02  0.50000003833E+02 0.  0.
        -12    1    1    2    0    0  0.86644376148E+01  0.15581287386E+02  0.26436176646E+02  0.31886053871E+02  0.00000000000E+00 0.  1.
         11    1    3    3    0    0 -0.13201590941E+02  0.57061914109E+01 -0.22659379079E+02  0.26838220587E+02  0.51100000000E-03 0. -1.
        -11    1    3    3    0    0 -0.18810824759E+01 -0.23870437624E+02 -0.68329256693E+01  0.24900303956E+02  0.51100000000E-03 0.  1.
         12    1    3    3    0    0  0.64182358016E+01  0.25829588269E+01  0.30561281025E+01  0.75634215859E+01  0.00000000000E+00 0. -1.
</event>
<event>
 7    1  0.1338132E-011  0.5930193E+02  0.7816164E-02  0.1266605E+00
        -11   -1    0    0    0    0  0.00000000000E+00  0.00000000000E+00  0.45593999997E+02  0.45594000000E+02  0.51100000000E-03 0.  1.
         11   -1    0    0    0    0 -0.00000000000E+00 -0.00000000000E+00 -0.45593999997E+02  0.45594000000E+02  0.51100000000E-03 0. -1.
    9900012    2    1    2    0    0  0.24364193851E+02  0.45774811312E+01  0.20053779410E+02  0.59301931818E+02  0.49999977732E+02 0.  0.
        -12    1    1    2    0    0 -0.24364193851E+02 -0.45774811312E+01 -0.20053779410E+02  0.31886068182E+02  0.00000000000E+00 0.  1.
         11    1    3    3    0    0  0.27127859209E+02  0.92866392207E+00 -0.83832406033E+01  0.28408834633E+02  0.51100000000E-03 0. -1.
        -11    1    3    3    0    0  0.15911601317E+01 -0.14339293497E+01  0.54631698725E+00  0.22105217612E+01  0.51100000000E-03 0.  1.
        -12    1    3    3    0    0 -0.43548254898E+01  0.50827465589E+01  0.27890703026E+02  0.28682575423E+02  0.00000000000E+00 0.  1.
</event>
<event>
 7    1  0.1338132E-011  0.5930194E+02  0.7816164E-02  0.1266605E+00
        -11   -1    0    0    0    0  0.00000000000E+00  0.00000000000E+00  0.45593999997E+02  0.45594000000E+02  0.51100000000E-03 0.  1.
         11   -1    0    0    0    0 -0.00000000000E+00 -0.00000000000E+00 -0.45593999997E+02  0.45594000000E+02  0.51100000000E-03 0. -1.
    9900012    2    1    2    0    0  0.24359701567E+01 -0.13667631589E+02 -0.28705093999E+02  0.59301944657E+02  0.50000001147E+02 0.  0.
        -12    1    1    2    0    0 -0.24359701567E+01  0.13667631589E+02  0.28705093999E+02  0.31886055343E+02  0.00000000000E+00 0.  1.
         11    1    3    3    0    0  0.14706349030E+02 -0.10775916689E+02 -0.15067398334E+02  0.23652136798E+02  0.51100000000E-03 0. -1.
        -11    1    3    3    0    0 -0.58372383436E+01 -0.14751566644E+01  0.96909721890E+01  0.11408960553E+02  0.51100000000E-03 0.  1.
         12    1    3    3    0    0 -0.64331405293E+01 -0.14165582359E+01 -0.23328667853E+02  0.24240847306E+02  0.00000000000E+00 0. -1.
</event>
<event>
 7    1  0.1338132E-011  0.5930194E+02  0.7816164E-02  0.1266605E+00
        -11   -1    0    0    0    0  0.00000000000E+00  0.00000000000E+00  0.45593999997E+02  0.45594000000E+02  0.51100000000E-03 0.  1.
         11   -1    0    0    0    0 -0.00000000000E+00 -0.00000000000E+00 -0.45593999997E+02  0.45594000000E+02  0.51100000000E-03 0. -1.
    9900012    2    1    2    0    0 -0.19827137835E+02  0.19396820713E+02 -0.15727955684E+02  0.59301942883E+02  0.49999997912E+02 0.  0.
        -12    1    1    2    0    0  0.19827137835E+02 -0.19396820713E+02  0.15727955684E+02  0.31886057117E+02  0.00000000000E+00 0.  1.
         11    1    3    3    0    0 -0.29559926402E+01 -0.45950129196E+01  0.45497138828E+01  0.71099882487E+01  0.51100000000E-03 0. -1.
        -11    1    3    3    0    0  0.78390498862E+01  0.36095615807E+01  0.62059173674E+01  0.10629818839E+02  0.51100000000E-03 0.  1.
         12    1    3    3    0    0 -0.24710195081E+02  0.20382272052E+02 -0.26483586934E+02  0.41562135795E+02  0.00000000000E+00 0. -1.
</event>
<event>
 7    1  0.1338132E-011  0.5930197E+02  0.7816164E-02  0.1266605E+00
        -11   -1    0    0    0    0  0.00000000000E+00  0.00000000000E+00  0.45593999997E+02  0.45594000000E+02  0.51100000000E-03 0. -1.
         11   -1    0    0    0    0 -0.00000000000E+00 -0.00000000000E+00 -0.45593999997E+02  0.45594000000E+02  0.51100000000E-03 0.  1.
    9900012    2    1    2    0    0 -0.26936456807E+02 -0.13400609751E+02 -0.10562658073E+02  0.59301971828E+02  0.50000050702E+02 0.  0.
        -12    1    1    2    0    0  0.26936456807E+02  0.13400609751E+02  0.10562658073E+02  0.31886028172E+02  0.00000000000E+00 0.  1.
         11    1    3    3    0    0  0.52850184975E+01 -0.57335195919E+01  0.12609926054E+02  0.14826156035E+02  0.51100000000E-03 0.  1.
        -11    1    3    3    0    0 -0.20600715133E+02  0.44257490738E+01 -0.14650382517E+02  0.25663406380E+02  0.51100000000E-03 0. -1.
        -12    1    3    3    0    0 -0.11620760171E+02 -0.12092839233E+02 -0.85222016093E+01  0.18812409413E+02  0.00000000000E+00 0.  1.
</event>
<event>
 7    1  0.1338132E-011  0.5930193E+02  0.7816164E-02  0.1266605E+00
        -11   -1    0    0    0    0  0.00000000000E+00  0.00000000000E+00  0.45593999997E+02  0.45594000000E+02  0.51100000000E-03 0.  1.
         11   -1    0    0    0    0 -0.00000000000E+00 -0.00000000000E+00 -0.45593999997E+02  0.45594000000E+02  0.51100000000E-03 0. -1.
    9900012    2    1    2    0    0 -0.12556206445E+01  0.15333148959E+02 -0.27929181439E+02  0.59301933826E+02  0.49999981394E+02 0.  0.
        -12    1    1    2    0    0  0.12556206445E+01 -0.15333148959E+02  0.27929181439E+02  0.31886066174E+02  0.00000000000E+00 0.  1.
         11    1    3    3    0    0  0.22651464395E+01  0.11547151378E+02 -0.31855242655E+02  0.33959153085E+02  0.51100000000E-03 0. -1.
        -11    1    3    3    0    0  0.92488361569E+01  0.50427472778E+01 -0.27378636334E+01  0.10884216458E+02  0.51100000000E-03 0.  1.
        -12    1    3    3    0    0 -0.12769603241E+02 -0.12567496963E+01  0.66639248497E+01  0.14458564283E+02  0.00000000000E+00 0.  1.
</event>
<event>
 7    1  0.1338132E-011  0.5930192E+02  0.7816164E-02  0.1266605E+00
        -11   -1    0    0    0    0  0.00000000000E+00  0.00000000000E+00  0.45593999997E+02  0.45594000000E+02  0.51100000000E-03 0. -1.
         11   -1    0    0    0    0 -0.00000000000E+00 -0.00000000000E+00 -0.45593999997E+02  0.45594000000E+02  0.51100000000E-03 0.  1.
    9900012    2    1    2    0    0 -0.19033897633E+02 -0.24625002210E+02  0.69312205000E+01  0.59301924504E+02  0.49999964393E+02 0.  0.
        -12    1    1    2    0    0  0.19033897633E+02  0.24625002210E+02 -0.69312205000E+01  0.31886075496E+02  0.00000000000E+00 0.  1.
         11    1    3    3    0    0 -0.14837794932E+02  0.10259372632E+01 -0.97453555052E+01  0.17781582041E+02  0.51100000000E-03 0. -1.
        -11    1    3    3    0    0 -0.20431674860E+01 -0.11282886031E+02 -0.72226991121E+01  0.13551584162E+02  0.51100000000E-03 0.  1.
         12    1    3    3    0    0 -0.21529352157E+01 -0.14368053442E+02  0.23899275117E+02  0.27968758301E+02  0.00000000000E+00 0. -1.
</event>
<event>
 7    1  0.1338132E-011  0.5930193E+02  0.7816164E-02  0.1266605E+00
        -11   -1    0    0    0    0  0.00000000000E+00  0.00000000000E+00  0.45593999997E+02  0.45594000000E+02  0.51100000000E-03 0. -1.
         11   -1    0    0    0    0 -0.00000000000E+00 -0.00000000000E+00 -0.45593999997E+02  0.45594000000E+02  0.51100000000E-03 0.  1.
    9900012    2    1    2    0    0 -0.18463916915E+01 -0.24000564111E+02 -0.20911368150E+02  0.59301928466E+02  0.49999971619E+02 0.  0.
        -12    1    1    2    0    0  0.18463916915E+01  0.24000564111E+02  0.20911368150E+02  0.31886071534E+02  0.00000000000E+00 0.  1.
         11    1    3    3    0    0  0.11690626442E+02 -0.12385124558E+02 -0.16866806248E+02  0.23969797875E+02  0.51100000000E-03 0. -1.
        -11    1    3    3    0    0  0.91802417374E+01  0.77646893658E+00 -0.69924009867E+00  0.92395172678E+01  0.51100000000E-03 0.  1.
         12    1    3    3    0    0 -0.22717259870E+02 -0.12391908490E+02 -0.33453218037E+01  0.26092613323E+02  0.00000000000E+00 0. -1.
</event>
<event>
 7    1  0.1338132E-011  0.5930198E+02  0.7816164E-02  0.1266605E+00
        -11   -1    0    0    0    0  0.00000000000E+00  0.00000000000E+00  0.45593999997E+02  0.45594000000E+02  0.51100000000E-03 0.  1.
         11   -1    0    0    0    0 -0.00000000000E+00 -0.00000000000E+00 -0.45593999997E+02  0.45594000000E+02  0.51100000000E-03 0. -1.
    9900012    2    1    2    0    0  0.62168550966E+01  0.30305665452E+02  0.77224046204E+01  0.59301981451E+02  0.50000068251E+02 0.  0.
        -12    1    1    2    0    0 -0.62168550966E+01 -0.30305665452E+02 -0.77224046204E+01  0.31886018549E+02  0.00000000000E+00 0.  1.
         11    1    3    3    0    0 -0.15345467867E+02  0.12452625049E+01 -0.12345600497E+01  0.15445329441E+02  0.51100000000E-03 0. -1.
        -11    1    3    3    0    0  0.10121316081E+02  0.65521829019E+00  0.84955602423E+01  0.13230453292E+02  0.51100000000E-03 0.  1.
        -12    1    3    3    0    0  0.11441006882E+02  0.28405184657E+02  0.46140442784E+00  0.30626198718E+02  0.00000000000E+00 0.  1.
</event>
<event>
 7    1  0.1338132E-011  0.5930195E+02  0.7816164E-02  0.1266605E+00
        -11   -1    0    0    0    0  0.00000000000E+00  0.00000000000E+00  0.45593999997E+02  0.45594000000E+02  0.51100000000E-03 0.  1.
         11   -1    0    0    0    0 -0.00000000000E+00 -0.00000000000E+00 -0.45593999997E+02  0.45594000000E+02  0.51100000000E-03 0. -1.
    9900012    2    1    2    0    0 -0.26368273571E+02 -0.17757441142E+02  0.24713817143E+01  0.59301948275E+02  0.50000007746E+02 0.  0.
        -12    1    1    2    0    0  0.26368273571E+02  0.17757441142E+02 -0.24713817143E+01  0.31886051725E+02  0.00000000000E+00 0.  1.
         11    1    3    3    0    0  0.48801247118E+01  0.10780753450E+01  0.38688046072E+01  0.63202462770E+01  0.51100000000E-03 0. -1.
        -11    1    3    3    0    0 -0.25817263102E+02 -0.60757271867E+01  0.15813576201E+02  0.30879033784E+02  0.51100000000E-03 0.  1.
         12    1    3    3    0    0 -0.54311351809E+01 -0.12759789301E+02 -0.17210999094E+02  0.22102668214E+02  0.00000000000E+00 0. -1.
</event>
<event>
 7    1  0.1338132E-011  0.5930189E+02  0.7816164E-02  0.1266605E+00
        -11   -1    0    0    0    0  0.00000000000E+00  0.00000000000E+00  0.45593999997E+02  0.45594000000E+02  0.51100000000E-03 0.  1.
         11   -1    0    0    0    0 -0.00000000000E+00 -0.00000000000E+00 -0.45593999997E+02  0.45594000000E+02  0.51100000000E-03 0. -1.
    9900012    2    1    2    0    0  0.21026736604E+02  0.19881043682E+02 -0.13391956413E+02  0.59301889440E+02  0.49999900445E+02 0.  0.
        -12    1    1    2    0    0 -0.21026736604E+02 -0.19881043682E+02  0.13391956413E+02  0.31886110560E+02  0.00000000000E+00 0.  1.
         11    1    3    3    0    0  0.11341070926E+02  0.14480312607E+02 -0.89136906963E+01  0.20439012330E+02  0.51100000000E-03 0. -1.
        -11    1    3    3    0    0  0.97769274372E+01  0.78738034856E+01  0.14811163138E+02  0.19415345611E+02  0.51100000000E-03 0.  1.
         12    1    3    3    0    0 -0.91261759382E-01 -0.24730724108E+01 -0.19289428855E+02  0.19447531499E+02  0.00000000000E+00 0. -1.
</event>
<event>
 7    1  0.1338132E-011  0.5930194E+02  0.7816164E-02  0.1266605E+00
        -11   -1    0    0    0    0  0.00000000000E+00  0.00000000000E+00  0.45593999997E+02  0.45594000000E+02  0.51100000000E-03 0. -1.
         11   -1    0    0    0    0 -0.00000000000E+00 -0.00000000000E+00 -0.45593999997E+02  0.45594000000E+02  0.51100000000E-03 0.  1.
    9900012    2    1    2    0    0  0.52682722265E+01  0.24016032087E+02  0.20302625482E+02  0.59301935788E+02  0.49999984973E+02 0.  0.
        -12    1    1    2    0    0 -0.52682722265E+01 -0.24016032087E+02 -0.20302625482E+02  0.31886064212E+02  0.00000000000E+00 0.  1.
         11    1    3    3    0    0  0.95628006364E+01  0.46013209826E+01  0.15283743384E+02  0.18606776263E+02  0.51100000000E-03 0. -1.
        -11    1    3    3    0    0  0.12616330754E+02  0.66291794495E+01 -0.74689104159E+01  0.16090445765E+02  0.51100000000E-03 0.  1.
         12    1    3    3    0    0 -0.16910859164E+02  0.12785531655E+02  0.12487792513E+02  0.24604713760E+02  0.00000000000E+00 0. -1.
</event>
<event>
 7    1  0.1338132E-011  0.5930200E+02  0.7816164E-02  0.1266605E+00
        -11   -1    0    0    0    0  0.00000000000E+00  0.00000000000E+00  0.45593999997E+02  0.45594000000E+02  0.51100000000E-03 0.  1.
         11   -1    0    0    0    0 -0.00000000000E+00 -0.00000000000E+00 -0.45593999997E+02  0.45594000000E+02  0.51100000000E-03 0. -1.
    9900012    2    1    2    0    0 -0.25501554112E+02  0.62770449826E+01 -0.18082768891E+02  0.59301998579E+02  0.50000099489E+02 0.  0.
        -12    1    1    2    0    0  0.25501554112E+02 -0.62770449826E+01  0.18082768891E+02  0.31886001421E+02  0.00000000000E+00 0.  1.
         11    1    3    3    0    0  0.14487301324E+01  0.23595863222E+01  0.41880307530E+01  0.50205645557E+01  0.51100000000E-03 0.  1.
        -11    1    3    3    0    0  0.11627276165E+01 -0.79039776914E+01 -0.22401894800E+02  0.23783811506E+02  0.51100000000E-03 0. -1.
         12    1    3    3    0    0 -0.28113011861E+02  0.11821436352E+02  0.13109515546E+00  0.30497622518E+02  0.00000000000E+00 0. -1.
</event>
<event>
 7    1  0.1338132E-011  0.5930196E+02  0.7816164E-02  0.1266605E+00
        -11   -1    0    0    0    0  0.00000000000E+00  0.00000000000E+00  0.45593999997E+02  0.45594000000E+02  0.51100000000E-03 0.  1.
         11   -1    0    0    0    0 -0.00000000000E+00 -0.00000000000E+00 -0.45593999997E+02  0.45594000000E+02  0.51100000000E-03 0. -1.
    9900012    2    1    2    0    0  0.17530898354E+02  0.19569376693E+01 -0.26562339060E+02  0.59301955113E+02  0.50000020218E+02 0.  0.
        -12    1    1    2    0    0 -0.17530898354E+02 -0.19569376693E+01  0.26562339060E+02  0.31886044887E+02  0.00000000000E+00 0.  1.
         11    1    3    3    0    0  0.10347001416E+02 -0.70028524580E+01 -0.21147706801E+01  0.12671725855E+02  0.51100000000E-03 0. -1.
        -11    1    3    3    0    0  0.21264331766E+02  0.12660224140E+01 -0.58969443265E+01  0.22103134865E+02  0.51100000000E-03 0.  1.
         12    1    3    3    0    0 -0.14080434828E+02  0.76937677133E+01 -0.18550624054E+02  0.24527094393E+02  0.00000000000E+00 0. -1.
</event>
<event>
 7    1  0.1338132E-011  0.5930197E+02  0.7816164E-02  0.1266605E+00
        -11   -1    0    0    0    0  0.00000000000E+00  0.00000000000E+00  0.45593999997E+02  0.45594000000E+02  0.51100000000E-03 0.  1.
         11   -1    0    0    0    0 -0.00000000000E+00 -0.00000000000E+00 -0.45593999997E+02  0.45594000000E+02  0.51100000000E-03 0. -1.
    9900012    2    1    2    0    0  0.14160160831E+02 -0.16371393978E+02 -0.23413371741E+02  0.59301973721E+02  0.50000054154E+02 0.  0.
        -12    1    1    2    0    0 -0.14160160831E+02  0.16371393978E+02  0.23413371741E+02  0.31886026279E+02  0.00000000000E+00 0.  1.
         11    1    3    3    0    0  0.79240346441E+01  0.78154214425E+01  0.35896071606E+01  0.11694289940E+02  0.51100000000E-03 0.  1.
        -11    1    3    3    0    0  0.10994923960E+02  0.25981824276E+01 -0.40108060694E+01  0.11988555809E+02  0.51100000000E-03 0. -1.
         12    1    3    3    0    0 -0.47587977724E+01 -0.26784997848E+02 -0.22992172832E+02  0.35619127972E+02  0.00000000000E+00 0. -1.
</event>
<event>
 7    1  0.1338132E-011  0.5930194E+02  0.7816164E-02  0.1266605E+00
        -11   -1    0    0    0    0  0.00000000000E+00  0.00000000000E+00  0.45593999997E+02  0.45594000000E+02  0.51100000000E-03 0.  1.
         11   -1    0    0    0    0 -0.00000000000E+00 -0.00000000000E+00 -0.45593999997E+02  0.45594000000E+02  0.51100000000E-03 0. -1.
    9900012    2    1    2    0    0 -0.12808265329E+02  0.99426466167E+01 -0.27455654917E+02  0.59301939262E+02  0.49999991308E+02 0.  0.
        -12    1    1    2    0    0  0.12808265329E+02 -0.99426466167E+01  0.27455654917E+02  0.31886060738E+02  0.00000000000E+00 0.  1.
         11    1    3    3    0    0 -0.14105115123E+01  0.47070256206E+01 -0.97996840975E+01  0.10962638441E+02  0.51100000000E-03 0. -1.
        -11    1    3    3    0    0 -0.27123446456E+02 -0.15528266247E+01 -0.14915880182E+02  0.30993162150E+02  0.51100000000E-03 0.  1.
         12    1    3    3    0    0  0.15725692639E+02  0.67884476208E+01 -0.27400906375E+01  0.17346138671E+02  0.00000000000E+00 0. -1.
</event>
<event>
 7    1  0.1338132E-011  0.5930194E+02  0.7816164E-02  0.1266605E+00
        -11   -1    0    0    0    0  0.00000000000E+00  0.00000000000E+00  0.45593999997E+02  0.45594000000E+02  0.51100000000E-03 0. -1.
         11   -1    0    0    0    0 -0.00000000000E+00 -0.00000000000E+00 -0.45593999997E+02  0.45594000000E+02  0.51100000000E-03 0.  1.
    9900012    2    1    2    0    0  0.91582601113E+01  0.29482427522E+02  0.79770727159E+01  0.59301937998E+02  0.49999989004E+02 0.  0.
        -12    1    1    2    0    0 -0.91582601113E+01 -0.29482427522E+02 -0.79770727159E+01  0.31886062002E+02  0.00000000000E+00 0.  1.
         11    1    3    3    0    0  0.14491654461E+02  0.39148988308E+02  0.14509207567E+02  0.44194665278E+02  0.51100000000E-03 0. -1.
        -11    1    3    3    0    0 -0.52727578096E+01 -0.18731706164E+01 -0.13756321221E+01  0.57622137303E+01  0.51100000000E-03 0.  1.
        -12    1    3    3    0    0 -0.60636540633E-01 -0.77933901698E+01 -0.51565027290E+01  0.93450589898E+01  0.00000000000E+00 0.  1.
</event>
<event>
 7    1  0.1338132E-011  0.5930194E+02  0.7816164E-02  0.1266605E+00
        -11   -1    0    0    0    0  0.00000000000E+00  0.00000000000E+00  0.45593999997E+02  0.45594000000E+02  0.51100000000E-03 0.  1.
         11   -1    0    0    0    0 -0.00000000000E+00 -0.00000000000E+00 -0.45593999997E+02  0.45594000000E+02  0.51100000000E-03 0. -1.
    9900012    2    1    2    0    0 -0.56309791060E+00  0.23039332404E+02 -0.22036172050E+02  0.59301940420E+02  0.49999993421E+02 0.  0.
        -12    1    1    2    0    0  0.56309791060E+00 -0.23039332404E+02  0.22036172050E+02  0.31886059580E+02  0.00000000000E+00 0.  1.
         11    1    3    3    0    0  0.58662867956E+01  0.29209231135E+02 -0.96641862651E+01  0.31320743936E+02  0.51100000000E-03 0. -1.
        -11    1    3    3    0    0  0.84944828961E+01 -0.28692039077E+01 -0.81689641721E+01  0.12129325894E+02  0.51100000000E-03 0.  1.
        -12    1    3    3    0    0 -0.14923867602E+02 -0.33006948232E+01 -0.42030216132E+01  0.15851870590E+02  0.00000000000E+00 0.  1.
</event>
<event>
 7    1  0.1338132E-011  0.5930192E+02  0.7816164E-02  0.1266605E+00
        -11   -1    0    0    0    0  0.00000000000E+00  0.00000000000E+00  0.45593999997E+02  0.45594000000E+02  0.51100000000E-03 0.  1.
         11   -1    0    0    0    0 -0.00000000000E+00 -0.00000000000E+00 -0.45593999997E+02  0.45594000000E+02  0.51100000000E-03 0. -1.
    9900012    2    1    2    0    0 -0.12769749497E+02  0.28758291877E+02  0.51591205826E+01  0.59301915589E+02  0.49999948135E+02 0.  0.
        -12    1    1    2    0    0  0.12769749497E+02 -0.28758291877E+02 -0.51591205826E+01  0.31886084411E+02  0.00000000000E+00 0.  1.
         11    1    3    3    0    0 -0.13454447561E+01  0.51809592805E+01  0.17755964785E+00  0.53557528273E+01  0.51100000000E-03 0. -1.
        -11    1    3    3    0    0 -0.22464720467E+02  0.26026788881E+02  0.16209086762E+02  0.38010418296E+02  0.51100000000E-03 0.  1.
         12    1    3    3    0    0  0.11040415726E+02 -0.24494562852E+01 -0.11227525827E+02  0.15935744466E+02  0.00000000000E+00 0. -1.
</event>
<event>
 7    1  0.1338132E-011  0.5930194E+02  0.7816164E-02  0.1266605E+00
        -11   -1    0    0    0    0  0.00000000000E+00  0.00000000000E+00  0.45593999997E+02  0.45594000000E+02  0.51100000000E-03 0.  1.
         11   -1    0    0    0    0 -0.00000000000E+00 -0.00000000000E+00 -0.45593999997E+02  0.45594000000E+02  0.51100000000E-03 0. -1.
    9900012    2    1    2    0    0 -0.45790100119E+01 -0.24460759941E+02 -0.19935511371E+02  0.59301941555E+02  0.49999995490E+02 0.  0.
        -12    1    1    2    0    0  0.45790100119E+01  0.24460759941E+02  0.19935511371E+02  0.31886058445E+02  0.00000000000E+00 0.  1.
         11    1    3    3    0    0  0.25118574666E+00 -0.14359121168E+02  0.10450438490E+02  0.17761168877E+02  0.51100000000E-03 0.  1.
        -11    1    3    3    0    0  0.99966210839E+01  0.62227112024E+00 -0.11303443477E+02  0.15102565648E+02  0.51100000000E-03 0. -1.
        -12    1    3    3    0    0 -0.14826816842E+02 -0.10723909893E+02 -0.19082506384E+02  0.26438207030E+02  0.00000000000E+00 0.  1.
</event>
<event>
 7    1  0.1338132E-011  0.5930191E+02  0.7816164E-02  0.1266605E+00
        -11   -1    0    0    0    0  0.00000000000E+00  0.00000000000E+00  0.45593999997E+02  0.45594000000E+02  0.51100000000E-03 0. -1.
         11   -1    0    0    0    0 -0.00000000000E+00 -0.00000000000E+00 -0.45593999997E+02  0.45594000000E+02  0.51100000000E-03 0.  1.
    9900012    2    1    2    0    0 -0.15707805873E+02  0.12328483075E+02  0.24859520640E+02  0.59301914841E+02  0.49999946771E+02 0.  0.
        -12    1    1    2    0    0  0.15707805873E+02 -0.12328483075E+02 -0.24859520640E+02  0.31886085159E+02  0.00000000000E+00 0.  1.
         11    1    3    3    0    0 -0.18308744447E+02  0.17827526455E+02  0.28375013625E+02  0.38186021280E+02  0.51100000000E-03 0. -1.
        -11    1    3    3    0    0 -0.51642119441E+01  0.38070609563E+01  0.32957991625E+01  0.72128420549E+01  0.51100000000E-03 0.  1.
         12    1    3    3    0    0  0.77651505175E+01 -0.93061043363E+01 -0.68112921474E+01  0.13903051507E+02  0.00000000000E+00 0. -1.
</event>
<event>
 7    1  0.1338132E-011  0.5930181E+02  0.7816164E-02  0.1266605E+00
        -11   -1    0    0    0    0  0.00000000000E+00  0.00000000000E+00  0.45593999997E+02  0.45594000000E+02  0.51100000000E-03 0.  1.
         11   -1    0    0    0    0 -0.00000000000E+00 -0.00000000000E+00 -0.45593999997E+02  0.45594000000E+02  0.51100000000E-03 0. -1.
    9900012    2    1    2    0    0 -0.21621367305E+02 -0.20502252733E+02 -0.11353545367E+02  0.59301813592E+02  0.49999762115E+02 0.  0.
        -12    1    1    2    0    0  0.21621367305E+02  0.20502252733E+02  0.11353545367E+02  0.31886186408E+02  0.00000000000E+00 0.  1.
         11    1    3    3    0    0 -0.17324057894E+02 -0.23022198285E+01 -0.11316077269E+02  0.20820105741E+02  0.51100000000E-03 0. -1.
        -11    1    3    3    0    0  0.34410888936E+01  0.92367615912E+01 -0.13242708041E+01  0.99454789171E+01  0.51100000000E-03 0.  1.
        -12    1    3    3    0    0 -0.77383983043E+01 -0.27436794496E+02  0.12868027061E+01  0.28536228933E+02  0.00000000000E+00 0.  1.
</event>
<event>
 7    1  0.1338132E-011  0.5930194E+02  0.7816164E-02  0.1266605E+00
        -11   -1    0    0    0    0  0.00000000000E+00  0.00000000000E+00  0.45593999997E+02  0.45594000000E+02  0.51100000000E-03 0.  1.
         11   -1    0    0    0    0 -0.00000000000E+00 -0.00000000000E+00 -0.45593999997E+02  0.45594000000E+02  0.51100000000E-03 0. -1.
    9900012    2    1    2    0    0 -0.15921724204E+02  0.11578640398E+01 -0.27602151325E+02  0.59301941784E+02  0.49999995908E+02 0.  0.
        -12    1    1    2    0    0  0.15921724204E+02 -0.11578640398E+01  0.27602151325E+02  0.31886058216E+02  0.00000000000E+00 0.  1.
         11    1    3    3    0    0  0.88932855517E+00 -0.69098214974E+01  0.19883904183E+01  0.72450145012E+01  0.51100000000E-03 0. -1.
        -11    1    3    3    0    0 -0.59187135657E+01 -0.14544596483E+02 -0.39826118208E+01  0.16199927601E+02  0.51100000000E-03 0.  1.
        -12    1    3    3    0    0 -0.10892339194E+02  0.22612282020E+02 -0.25607929923E+02  0.35856999682E+02  0.00000000000E+00 0.  1.
</event>
<event>
 7    1  0.1338132E-011  0.5930195E+02  0.7816164E-02  0.1266605E+00
        -11   -1    0    0    0    0  0.00000000000E+00  0.00000000000E+00  0.45593999997E+02  0.45594000000E+02  0.51100000000E-03 0.  1.
         11   -1    0    0    0    0 -0.00000000000E+00 -0.00000000000E+00 -0.45593999997E+02  0.45594000000E+02  0.51100000000E-03 0. -1.
    9900012    2    1    2    0    0  0.25044404074E+02 -0.10824765543E+02  0.16502192754E+02  0.59301951481E+02  0.50000013593E+02 0.  0.
        -12    1    1    2    0    0 -0.25044404074E+02  0.10824765543E+02 -0.16502192754E+02  0.31886048519E+02  0.00000000000E+00 0.  1.
         11    1    3    3    0    0  0.92276564029E+01 -0.61491065337E+01  0.87202308300E+00  0.11123020200E+02  0.51100000000E-03 0. -1.
        -11    1    3    3    0    0  0.12594709420E+01 -0.19423952110E+02 -0.37309786031E+01  0.19819091407E+02  0.51100000000E-03 0.  1.
        -12    1    3    3    0    0  0.14557276729E+02  0.14748293101E+02  0.19361148274E+02  0.28359839873E+02  0.00000000000E+00 0.  1.
</event>
<event>
 7    1  0.1338132E-011  0.5930196E+02  0.7816164E-02  0.1266605E+00
        -11   -1    0    0    0    0  0.00000000000E+00  0.00000000000E+00  0.45593999997E+02  0.45594000000E+02  0.51100000000E-03 0.  1.
         11   -1    0    0    0    0 -0.00000000000E+00 -0.00000000000E+00 -0.45593999997E+02  0.45594000000E+02  0.51100000000E-03 0. -1.
    9900012    2    1    2    0    0 -0.33644705191E+01  0.25114431316E+02 -0.19356275333E+02  0.59301957333E+02  0.50000024267E+02 0.  0.
        -12    1    1    2    0    0  0.33644705191E+01 -0.25114431316E+02  0.19356275333E+02  0.31886042667E+02  0.00000000000E+00 0.  1.
         11    1    3    3    0    0 -0.60080093577E+01  0.28396163813E+02 -0.36919884086E+01  0.29258658110E+02  0.51100000000E-03 0.  1.
        -11    1    3    3    0    0  0.11497620651E+02  0.18750396046E+01 -0.15999750289E+02  0.19791489680E+02  0.51100000000E-03 0. -1.
         12    1    3    3    0    0 -0.88540818126E+01 -0.51567721019E+01  0.33546336529E+00  0.10251809544E+02  0.00000000000E+00 0. -1.
</event>
<event>
 7    1  0.1338132E-011  0.5930195E+02  0.7816164E-02  0.1266605E+00
        -11   -1    0    0    0    0  0.00000000000E+00  0.00000000000E+00  0.45593999997E+02  0.45594000000E+02  0.51100000000E-03 0.  1.
         11   -1    0    0    0    0 -0.00000000000E+00 -0.00000000000E+00 -0.45593999997E+02  0.45594000000E+02  0.51100000000E-03 0. -1.
    9900012    2    1    2    0    0  0.26494837646E+02  0.13572472233E+02  0.11425041297E+02  0.59301953004E+02  0.50000016371E+02 0.  0.
        -12    1    1    2    0    0 -0.26494837646E+02 -0.13572472233E+02 -0.11425041297E+02  0.31886046996E+02  0.00000000000E+00 0.  1.
         11    1    3    3    0    0  0.13752730321E+02  0.47574333734E+01 -0.59668542938E+01  0.15728131294E+02  0.51100000000E-03 0. -1.
        -11    1    3    3    0    0  0.90312835060E+01  0.23186361969E+02  0.13111879242E+02  0.28126372689E+02  0.51100000000E-03 0.  1.
         12    1    3    3    0    0  0.37108238187E+01 -0.14371323109E+02  0.42800163485E+01  0.15447449021E+02  0.00000000000E+00 0. -1.
</event>
<event>
 7    1  0.1338132E-011  0.5930161E+02  0.7816164E-02  0.1266606E+00
        -11   -1    0    0    0    0  0.00000000000E+00  0.00000000000E+00  0.45593999997E+02  0.45594000000E+02  0.51100000000E-03 0.  1.
         11   -1    0    0    0    0 -0.00000000000E+00 -0.00000000000E+00 -0.45593999997E+02  0.45594000000E+02  0.51100000000E-03 0. -1.
    9900012    2    1    2    0    0  0.20923368308E+02 -0.51357129259E+01 -0.23506995933E+02  0.59301611895E+02  0.49999394265E+02 0.  0.
        -12    1    1    2    0    0 -0.20923368308E+02  0.51357129259E+01  0.23506995933E+02  0.31886388105E+02  0.00000000000E+00 0.  1.
         11    1    3    3    0    0  0.18419931239E+01  0.61017205653E+01 -0.69995612719E+01  0.94666673537E+01  0.51100000000E-03 0. -1.
        -11    1    3    3    0    0  0.15770042618E+02  0.14135205213E+02 -0.10068800089E+02  0.23449499058E+02  0.51100000000E-03 0.  1.
         12    1    3    3    0    0  0.33113325666E+01 -0.25372638704E+02 -0.64386345722E+01  0.26385445483E+02  0.00000000000E+00 0. -1.
</event>
<event>
 7    1  0.1338132E-011  0.5930195E+02  0.7816164E-02  0.1266605E+00
        -11   -1    0    0    0    0  0.00000000000E+00  0.00000000000E+00  0.45593999997E+02  0.45594000000E+02  0.51100000000E-03 0. -1.
         11   -1    0    0    0    0 -0.00000000000E+00 -0.00000000000E+00 -0.45593999997E+02  0.45594000000E+02  0.51100000000E-03 0.  1.
    9900012    2    1    2    0    0 -0.23655902171E+01  0.15869315284E+02  0.27555199204E+02  0.59301949950E+02  0.50000010800E+02 0.  0.
        -12    1    1    2    0    0  0.23655902171E+01 -0.15869315284E+02 -0.27555199204E+02  0.31886050050E+02  0.00000000000E+00 0.  1.
         11    1    3    3    0    0 -0.59686809139E+01  0.21407656477E+02  0.11104320378E+02  0.24843889370E+02  0.51100000000E-03 0. -1.
        -11    1    3    3    0    0  0.68951809340E+01  0.89864135980E+01  0.15941954725E+02  0.19556202857E+02  0.51100000000E-03 0.  1.
         12    1    3    3    0    0 -0.32920902372E+01 -0.14524754791E+02  0.50892410025E+00  0.14901857723E+02  0.00000000000E+00 0. -1.
</event>
<event>
 7    1  0.1338132E-011  0.5930172E+02  0.7816164E-02  0.1266606E+00
        -11   -1    0    0    0    0  0.00000000000E+00  0.00000000000E+00  0.45593999997E+02  0.45594000000E+02  0.51100000000E-03 0. -1.
         11   -1    0    0    0    0 -0.00000000000E+00 -0.00000000000E+00 -0.45593999997E+02  0.45594000000E+02  0.51100000000E-03 0.  1.
    9900012    2    1    2    0    0  0.18087402137E+02 -0.23248482914E+02 -0.12210198984E+02  0.59301717164E+02  0.49999586252E+02 0.  0.
        -12    1    1    2    0    0 -0.18087402137E+02  0.23248482914E+02  0.12210198984E+02  0.31886282836E+02  0.00000000000E+00 0.  1.
         11    1    3    3    0    0  0.10695363984E+02 -0.17460628833E+02  0.10660015076E+02  0.23084633237E+02  0.51100000000E-03 0.  1.
        -11    1    3    3    0    0  0.15681556064E+02 -0.20368105063E+00 -0.63730283238E+01  0.16928324691E+02  0.51100000000E-03 0. -1.
        -12    1    3    3    0    0 -0.82895179110E+01 -0.55841730300E+01 -0.16497185736E+02  0.19288759235E+02  0.00000000000E+00 0.  1.
</event>
<event>
 7    1  0.1338132E-011  0.5930193E+02  0.7816164E-02  0.1266605E+00
        -11   -1    0    0    0    0  0.00000000000E+00  0.00000000000E+00  0.45593999997E+02  0.45594000000E+02  0.51100000000E-03 0.  1.
         11   -1    0    0    0    0 -0.00000000000E+00 -0.00000000000E+00 -0.45593999997E+02  0.45594000000E+02  0.51100000000E-03 0. -1.
    9900012    2    1    2    0    0  0.16810132350E+02 -0.17663681183E+02 -0.20545933240E+02  0.59301928507E+02  0.49999971693E+02 0.  0.
        -12    1    1    2    0    0 -0.16810132350E+02  0.17663681183E+02  0.20545933240E+02  0.31886071493E+02  0.00000000000E+00 0.  1.
         11    1    3    3    0    0  0.96154121614E+01 -0.10109654389E+02 -0.39594540480E+01  0.14503052765E+02  0.51100000000E-03 0. -1.
        -11    1    3    3    0    0  0.10064591291E+02 -0.21627733360E+02 -0.18660660478E+02  0.30286549785E+02  0.51100000000E-03 0.  1.
         12    1    3    3    0    0 -0.28698711022E+01  0.14073706566E+02  0.20741812858E+01  0.14512325956E+02  0.00000000000E+00 0. -1.
</event>
<event>
 7    1  0.1338132E-011  0.5930197E+02  0.7816164E-02  0.1266605E+00
        -11   -1    0    0    0    0  0.00000000000E+00  0.00000000000E+00  0.45593999997E+02  0.45594000000E+02  0.51100000000E-03 0. -1.
         11   -1    0    0    0    0 -0.00000000000E+00 -0.00000000000E+00 -0.45593999997E+02  0.45594000000E+02  0.51100000000E-03 0.  1.
    9900012    2    1    2    0    0  0.39505682076E+01 -0.24446461525E+02  0.20086865135E+02  0.59301974516E+02  0.50000055603E+02 0.  0.
        -12    1    1    2    0    0 -0.39505682076E+01  0.24446461525E+02 -0.20086865135E+02  0.31886025484E+02  0.00000000000E+00 0.  1.
         11    1    3    3    0    0  0.71047372742E+01 -0.19967004277E+02  0.11914855345E+02  0.24313007417E+02  0.51100000000E-03 0. -1.
        -11    1    3    3    0    0  0.37990502318E+00 -0.92416689246E+01 -0.11317967233E+02  0.14616742280E+02  0.51100000000E-03 0.  1.
         12    1    3    3    0    0 -0.35340740898E+01  0.47622116767E+01  0.19489977023E+02  0.20372224819E+02  0.00000000000E+00 0. -1.
</event>
<event>
 7    1  0.1338132E-011  0.5930200E+02  0.7816164E-02  0.1266605E+00
        -11   -1    0    0    0    0  0.00000000000E+00  0.00000000000E+00  0.45593999997E+02  0.45594000000E+02  0.51100000000E-03 0.  1.
         11   -1    0    0    0    0 -0.00000000000E+00 -0.00000000000E+00 -0.45593999997E+02  0.45594000000E+02  0.51100000000E-03 0. -1.
    9900012    2    1    2    0    0  0.27124386263E+02  0.15229271871E+02 -0.70038448228E+01  0.59302001597E+02  0.50000104993E+02 0.  0.
        -12    1    1    2    0    0 -0.27124386263E+02 -0.15229271871E+02  0.70038448228E+01  0.31885998403E+02  0.00000000000E+00 0.  1.
         11    1    3    3    0    0  0.16480490012E+02 -0.85191603893E+00 -0.10886681716E+02  0.19769981058E+02  0.51100000000E-03 0. -1.
        -11    1    3    3    0    0  0.60138123557E+01  0.67246406773E+01 -0.15260243532E+02  0.17727429712E+02  0.51100000000E-03 0.  1.
        -12    1    3    3    0    0  0.46300838944E+01  0.93565472323E+01  0.19143080425E+02  0.21804590827E+02  0.00000000000E+00 0.  1.
</event>
<event>
 7    1  0.1338132E-011  0.5930192E+02  0.7816164E-02  0.1266605E+00
        -11   -1    0    0    0    0  0.00000000000E+00  0.00000000000E+00  0.45593999997E+02  0.45594000000E+02  0.51100000000E-03 0. -1.
         11   -1    0    0    0    0 -0.00000000000E+00 -0.00000000000E+00 -0.45593999997E+02  0.45594000000E+02  0.51100000000E-03 0.  1.
    9900012    2    1    2    0    0  0.30918011023E+02  0.69281211960E+01  0.35776746034E+01  0.59301921149E+02  0.49999958275E+02 0.  0.
        -12    1    1    2    0    0 -0.30918011023E+02 -0.69281211960E+01 -0.35776746034E+01  0.31886078851E+02  0.00000000000E+00 0.  1.
         11    1    3    3    0    0  0.18387566507E+02  0.59043342200E+01  0.22919159237E+02  0.29970846251E+02  0.51100000000E-03 0. -1.
        -11    1    3    3    0    0 -0.33431867023E+01 -0.15198930879E+01  0.59507029864E+00  0.37203603652E+01  0.51100000000E-03 0.  1.
         12    1    3    3    0    0  0.15873631218E+02  0.25436800639E+01 -0.19936554932E+02  0.25610714533E+02  0.00000000000E+00 0. -1.
</event>
<event>
 7    1  0.1338132E-011  0.5930194E+02  0.7816164E-02  0.1266605E+00
        -11   -1    0    0    0    0  0.00000000000E+00  0.00000000000E+00  0.45593999997E+02  0.45594000000E+02  0.51100000000E-03 0.  1.
         11   -1    0    0    0    0 -0.00000000000E+00 -0.00000000000E+00 -0.45593999997E+02  0.45594000000E+02  0.51100000000E-03 0. -1.
    9900012    2    1    2    0    0 -0.27065953026E+02 -0.16716095381E+02  0.21741891212E+01  0.59301941035E+02  0.49999994542E+02 0.  0.
        -12    1    1    2    0    0  0.27065953026E+02  0.16716095381E+02 -0.21741891212E+01  0.31886058965E+02  0.00000000000E+00 0.  1.
         11    1    3    3    0    0 -0.27073539248E+02  0.33929825222E+01 -0.35983044825E+01  0.27521567056E+02  0.51100000000E-03 0. -1.
        -11    1    3    3    0    0  0.69660004851E+01  0.25984147415E+01  0.49473999555E+00  0.74512877982E+01  0.51100000000E-03 0.  1.
        -12    1    3    3    0    0 -0.69584142626E+01 -0.22707492645E+02  0.52777536081E+01  0.24329086181E+02  0.00000000000E+00 0.  1.
</event>
<event>
 7    1  0.1338132E-011  0.5930195E+02  0.7816164E-02  0.1266605E+00
        -11   -1    0    0    0    0  0.00000000000E+00  0.00000000000E+00  0.45593999997E+02  0.45594000000E+02  0.51100000000E-03 0. -1.
         11   -1    0    0    0    0 -0.00000000000E+00 -0.00000000000E+00 -0.45593999997E+02  0.45594000000E+02  0.51100000000E-03 0.  1.
    9900012    2    1    2    0    0 -0.91375256444E+01 -0.87286036474E+01  0.29275203824E+02  0.59301945753E+02  0.50000003146E+02 0.  0.
        -12    1    1    2    0    0  0.91375256444E+01  0.87286036474E+01 -0.29275203824E+02  0.31886054247E+02  0.00000000000E+00 0.  1.
         11    1    3    3    0    0  0.71494728365E+01 -0.17923471959E+02  0.10976321260E+02  0.22200122467E+02  0.51100000000E-03 0. -1.
        -11    1    3    3    0    0 -0.16948188412E+02 -0.36153532720E+01  0.37963622702E+01  0.17740468891E+02  0.51100000000E-03 0.  1.
        -12    1    3    3    0    0  0.66118993115E+00  0.12810221583E+02  0.14502520293E+02  0.19361354394E+02  0.00000000000E+00 0.  1.
</event>
<event>
 7    1  0.1338132E-011  0.5930195E+02  0.7816164E-02  0.1266605E+00
        -11   -1    0    0    0    0  0.00000000000E+00  0.00000000000E+00  0.45593999997E+02  0.45594000000E+02  0.51100000000E-03 0.  1.
         11   -1    0    0    0    0 -0.00000000000E+00 -0.00000000000E+00 -0.45593999997E+02  0.45594000000E+02  0.51100000000E-03 0. -1.
    9900012    2    1    2    0    0 -0.15903936286E+02 -0.14247838729E+02 -0.23680875596E+02  0.59301953415E+02  0.50000017120E+02 0.  0.
        -12    1    1    2    0    0  0.15903936286E+02  0.14247838729E+02  0.23680875596E+02  0.31886046585E+02  0.00000000000E+00 0.  1.
         11    1    3    3    0    0 -0.21608048485E+02  0.17651396124E+01 -0.88156534296E+01  0.23403829234E+02  0.51100000000E-03 0.  1.
        -11    1    3    3    0    0 -0.35434920315E+01  0.11097976109E+01 -0.15980064023E+02  0.16405804855E+02  0.51100000000E-03 0. -1.
         12    1    3    3    0    0  0.92476042301E+01 -0.17122775953E+02  0.11148418569E+01  0.19492319325E+02  0.00000000000E+00 0. -1.
</event>
<event>
 7    1  0.1338132E-011  0.5930194E+02  0.7816164E-02  0.1266605E+00
        -11   -1    0    0    0    0  0.00000000000E+00  0.00000000000E+00  0.45593999997E+02  0.45594000000E+02  0.51100000000E-03 0.  1.
         11   -1    0    0    0    0 -0.00000000000E+00 -0.00000000000E+00 -0.45593999997E+02  0.45594000000E+02  0.51100000000E-03 0. -1.
    9900012    2    1    2    0    0 -0.17711176675E+02  0.14557019200E+02 -0.22161408055E+02  0.59301943577E+02  0.49999999178E+02 0.  0.
        -12    1    1    2    0    0  0.17711176675E+02 -0.14557019200E+02  0.22161408055E+02  0.31886056423E+02  0.00000000000E+00 0.  1.
         11    1    3    3    0    0 -0.15876939138E+02  0.86008218130E+01  0.12475523770E+01  0.18099937001E+02  0.51100000000E-03 0. -1.
        -11    1    3    3    0    0 -0.16489743416E+02 -0.28463037321E+01 -0.10194911818E+02  0.19594624521E+02  0.51100000000E-03 0.  1.
         12    1    3    3    0    0  0.14655505879E+02  0.88025011190E+01 -0.13214048614E+02  0.21607382056E+02  0.00000000000E+00 0. -1.
</event>
<event>
 7    1  0.1338132E-011  0.5930194E+02  0.7816164E-02  0.1266605E+00
        -11   -1    0    0    0    0  0.00000000000E+00  0.00000000000E+00  0.45593999997E+02  0.45594000000E+02  0.51100000000E-03 0.  1.
         11   -1    0    0    0    0 -0.00000000000E+00 -0.00000000000E+00 -0.45593999997E+02  0.45594000000E+02  0.51100000000E-03 0. -1.
    9900012    2    1    2    0    0  0.27861396833E+02  0.15475280790E+02 -0.98941830818E+00  0.59301941956E+02  0.49999996221E+02 0.  0.
        -12    1    1    2    0    0 -0.27861396833E+02 -0.15475280790E+02  0.98941830818E+00  0.31886058044E+02  0.00000000000E+00 0.  1.
         11    1    3    3    0    0  0.72794017850E+01 -0.17012074987E+01 -0.28045313909E+01  0.79843092303E+01  0.51100000000E-03 0. -1.
        -11    1    3    3    0    0  0.28023652696E+02 -0.31333747742E+01  0.70430424592E+01  0.29064541889E+02  0.51100000000E-03 0.  1.
        -12    1    3    3    0    0 -0.74416576480E+01  0.20309863063E+02 -0.52279293765E+01  0.22253090836E+02  0.00000000000E+00 0.  1.
</event>
<event>
 7    1  0.1338132E-011  0.5930176E+02  0.7816164E-02  0.1266605E+00
        -11   -1    0    0    0    0  0.00000000000E+00  0.00000000000E+00  0.45593999997E+02  0.45594000000E+02  0.51100000000E-03 0.  1.
         11   -1    0    0    0    0 -0.00000000000E+00 -0.00000000000E+00 -0.45593999997E+02  0.45594000000E+02  0.51100000000E-03 0. -1.
    9900012    2    1    2    0    0  0.49713360586E+01  0.31217490209E+02 -0.41816410489E+01  0.59301764741E+02  0.49999673022E+02 0.  0.
        -12    1    1    2    0    0 -0.49713360586E+01 -0.31217490209E+02  0.41816410489E+01  0.31886235259E+02  0.00000000000E+00 0.  1.
         11    1    3    3    0    0  0.12746949157E+02 -0.24655683402E+01 -0.50102009185E+00  0.12992873486E+02  0.51100000000E-03 0. -1.
        -11    1    3    3    0    0 -0.15814420486E+02  0.80327787476E+01  0.43333733276E+01  0.18259232031E+02  0.51100000000E-03 0.  1.
         12    1    3    3    0    0  0.80388073880E+01  0.25650279802E+02 -0.80139942846E+01  0.28049659223E+02  0.00000000000E+00 0. -1.
</event>
<event>
 7    1  0.1338132E-011  0.5930193E+02  0.7816164E-02  0.1266605E+00
        -11   -1    0    0    0    0  0.00000000000E+00  0.00000000000E+00  0.45593999997E+02  0.45594000000E+02  0.51100000000E-03 0.  1.
         11   -1    0    0    0    0 -0.00000000000E+00 -0.00000000000E+00 -0.45593999997E+02  0.45594000000E+02  0.51100000000E-03 0. -1.
    9900012    2    1    2    0    0 -0.23484979191E+02 -0.14654584097E+02 -0.15824677795E+02  0.59301929217E+02  0.49999972989E+02 0.  0.
        -12    1    1    2    0    0  0.23484979191E+02  0.14654584097E+02  0.15824677795E+02  0.31886070783E+02  0.00000000000E+00 0.  1.
         11    1    3    3    0    0 -0.12212869790E+02 -0.23728840081E+01  0.22993243791E+01  0.12651942930E+02  0.51100000000E-03 0. -1.
        -11    1    3    3    0    0 -0.18753239294E+02 -0.23076914879E+02 -0.10977639784E+02  0.31697579716E+02  0.51100000000E-03 0.  1.
         12    1    3    3    0    0  0.74811298944E+01  0.10795214790E+02 -0.71463623906E+01  0.14952406572E+02  0.00000000000E+00 0. -1.
</event>
<event>
 7    1  0.1338132E-011  0.5930196E+02  0.7816164E-02  0.1266605E+00
        -11   -1    0    0    0    0  0.00000000000E+00  0.00000000000E+00  0.45593999997E+02  0.45594000000E+02  0.51100000000E-03 0. -1.
         11   -1    0    0    0    0 -0.00000000000E+00 -0.00000000000E+00 -0.45593999997E+02  0.45594000000E+02  0.51100000000E-03 0.  1.
    9900012    2    1    2    0    0  0.23258860148E+02  0.13093834741E+02  0.17444103112E+02  0.59301955765E+02  0.50000021405E+02 0.  0.
        -12    1    1    2    0    0 -0.23258860148E+02 -0.13093834741E+02 -0.17444103112E+02  0.31886044235E+02  0.00000000000E+00 0.  1.
         11    1    3    3    0    0  0.49508051801E+01 -0.48740442968E+01  0.28012881543E+02  0.28861536902E+02  0.51100000000E-03 0. -1.
        -11    1    3    3    0    0  0.94696059840E+01  0.73134048081E+01  0.15208820696E+01  0.12061194382E+02  0.51100000000E-03 0.  1.
        -12    1    3    3    0    0  0.88384489836E+01  0.10654474229E+02 -0.12089660500E+02  0.18379224481E+02  0.00000000000E+00 0.  1.
</event>
<event>
 7    1  0.1338132E-011  0.5930195E+02  0.7816164E-02  0.1266605E+00
        -11   -1    0    0    0    0  0.00000000000E+00  0.00000000000E+00  0.45593999997E+02  0.45594000000E+02  0.51100000000E-03 0.  1.
         11   -1    0    0    0    0 -0.00000000000E+00 -0.00000000000E+00 -0.45593999997E+02  0.45594000000E+02  0.51100000000E-03 0. -1.
    9900012    2    1    2    0    0 -0.23931322930E+02 -0.18677775926E+02 -0.97546264055E+01  0.59301948707E+02  0.50000008535E+02 0.  0.
        -12    1    1    2    0    0  0.23931322930E+02  0.18677775926E+02  0.97546264055E+01  0.31886051293E+02  0.00000000000E+00 0.  1.
         11    1    3    3    0    0 -0.15713069807E+01 -0.46567495843E+01  0.58225314412E+01  0.76194615927E+01  0.51100000000E-03 0. -1.
        -11    1    3    3    0    0  0.12412344653E+02 -0.44510221150E+01 -0.49404187222E+01  0.14081393222E+02  0.51100000000E-03 0.  1.
         12    1    3    3    0    0 -0.34772360602E+02 -0.95700042266E+01 -0.10636739124E+02  0.37601093893E+02  0.00000000000E+00 0. -1.
</event>
<event>
 7    1  0.1338132E-011  0.5930192E+02  0.7816164E-02  0.1266605E+00
        -11   -1    0    0    0    0  0.00000000000E+00  0.00000000000E+00  0.45593999997E+02  0.45594000000E+02  0.51100000000E-03 0. -1.
         11   -1    0    0    0    0 -0.00000000000E+00 -0.00000000000E+00 -0.45593999997E+02  0.45594000000E+02  0.51100000000E-03 0.  1.
    9900012    2    1    2    0    0  0.35105784165E+01 -0.28980020543E+02  0.12827947868E+02  0.59301921565E+02  0.49999959033E+02 0.  0.
        -12    1    1    2    0    0 -0.35105784165E+01  0.28980020543E+02 -0.12827947868E+02  0.31886078435E+02  0.00000000000E+00 0.  1.
         11    1    3    3    0    0  0.19152418359E+00 -0.15434595642E+02 -0.87710858466E+00  0.15460683810E+02  0.51100000000E-03 0. -1.
        -11    1    3    3    0    0 -0.39584447155E+01 -0.17653385056E+02 -0.85929045294E+01  0.20028711816E+02  0.51100000000E-03 0.  1.
         12    1    3    3    0    0  0.72774989484E+01  0.41079601559E+01  0.22297960982E+02  0.23812525938E+02  0.00000000000E+00 0. -1.
</event>
<event>
 7    1  0.1338132E-011  0.5930196E+02  0.7816164E-02  0.1266605E+00
        -11   -1    0    0    0    0  0.00000000000E+00  0.00000000000E+00  0.45593999997E+02  0.45594000000E+02  0.51100000000E-03 0.  1.
         11   -1    0    0    0    0 -0.00000000000E+00 -0.00000000000E+00 -0.45593999997E+02  0.45594000000E+02  0.51100000000E-03 0. -1.
    9900012    2    1    2    0    0 -0.10851355915E+02  0.10725099061E+02 -0.27998926978E+02  0.59301959371E+02  0.50000027983E+02 0.  0.
        -12    1    1    2    0    0  0.10851355915E+02 -0.10725099061E+02  0.27998926978E+02  0.31886040629E+02  0.00000000000E+00 0.  1.
         11    1    3    3    0    0 -0.66182079034E+01  0.16730125962E+02 -0.71410756058E+01  0.19356981986E+02  0.51100000000E-03 0. -1.
        -11    1    3    3    0    0 -0.97793765002E+01 -0.42748778051E+01  0.61508751451E+01  0.12318443501E+02  0.51100000000E-03 0.  1.
         12    1    3    3    0    0  0.55462284885E+01 -0.17301490956E+01 -0.27008726517E+02  0.27626533883E+02  0.00000000000E+00 0. -1.
</event>
<event>
 7    1  0.1338132E-011  0.5930193E+02  0.7816164E-02  0.1266605E+00
        -11   -1    0    0    0    0  0.00000000000E+00  0.00000000000E+00  0.45593999997E+02  0.45594000000E+02  0.51100000000E-03 0.  1.
         11   -1    0    0    0    0 -0.00000000000E+00 -0.00000000000E+00 -0.45593999997E+02  0.45594000000E+02  0.51100000000E-03 0. -1.
    9900012    2    1    2    0    0 -0.22920404939E+02  0.13211238940E+02 -0.17799981868E+02  0.59301934840E+02  0.49999983244E+02 0.  0.
        -12    1    1    2    0    0  0.22920404939E+02 -0.13211238940E+02  0.17799981868E+02  0.31886065160E+02  0.00000000000E+00 0.  1.
         11    1    3    3    0    0 -0.17871764883E+02 -0.46131805209E+01 -0.10734935938E+02  0.21352289442E+02  0.51100000000E-03 0. -1.
        -11    1    3    3    0    0 -0.16121886490E+01 -0.85022313505E+01  0.35535766405E+01  0.93549450761E+01  0.51100000000E-03 0.  1.
         12    1    3    3    0    0 -0.34364514070E+01  0.26326650812E+02 -0.10618622570E+02  0.28594700322E+02  0.00000000000E+00 0. -1.
</event>
<event>
 7    1  0.1338132E-011  0.5930193E+02  0.7816164E-02  0.1266605E+00
        -11   -1    0    0    0    0  0.00000000000E+00  0.00000000000E+00  0.45593999997E+02  0.45594000000E+02  0.51100000000E-03 0.  1.
         11   -1    0    0    0    0 -0.00000000000E+00 -0.00000000000E+00 -0.45593999997E+02  0.45594000000E+02  0.51100000000E-03 0. -1.
    9900012    2    1    2    0    0 -0.31534791410E+02  0.36049776864E+01 -0.30467325532E+01  0.59301929175E+02  0.49999972912E+02 0.  0.
        -12    1    1    2    0    0  0.31534791410E+02 -0.36049776864E+01  0.30467325532E+01  0.31886070825E+02  0.00000000000E+00 0.  1.
         11    1    3    3    0    0 -0.17568559795E+01 -0.52309925910E+01 -0.17071956879E+01  0.57761876526E+01  0.51100000000E-03 0. -1.
        -11    1    3    3    0    0  0.87741255798E+01  0.11951665052E+02 -0.55903497347E-01  0.14826688864E+02  0.51100000000E-03 0.  1.
         12    1    3    3    0    0 -0.38552061010E+02 -0.31156947741E+01 -0.12836333680E+01  0.38699052659E+02  0.00000000000E+00 0. -1.
</event>
<event>
 7    1  0.1338132E-011  0.5930197E+02  0.7816164E-02  0.1266605E+00
        -11   -1    0    0    0    0  0.00000000000E+00  0.00000000000E+00  0.45593999997E+02  0.45594000000E+02  0.51100000000E-03 0.  1.
         11   -1    0    0    0    0 -0.00000000000E+00 -0.00000000000E+00 -0.45593999997E+02  0.45594000000E+02  0.51100000000E-03 0. -1.
    9900012    2    1    2    0    0  0.12470647938E+02 -0.21733283347E+02 -0.19719692846E+02  0.59301969345E+02  0.50000046172E+02 0.  0.
        -12    1    1    2    0    0 -0.12470647938E+02  0.21733283347E+02  0.19719692846E+02  0.31886030655E+02  0.00000000000E+00 0.  1.
         11    1    3    3    0    0  0.90697983164E+01 -0.13768690940E+02 -0.22362352617E+02  0.27783320653E+02  0.51100000000E-03 0. -1.
        -11    1    3    3    0    0 -0.13172626014E+02 -0.33136763421E+01 -0.19009668215E+01  0.13715400181E+02  0.51100000000E-03 0.  1.
         12    1    3    3    0    0  0.16573475636E+02 -0.46509160651E+01  0.45436265926E+01  0.17803248510E+02  0.00000000000E+00 0. -1.
</event>
<event>
 7    1  0.1338132E-011  0.5930196E+02  0.7816164E-02  0.1266605E+00
        -11   -1    0    0    0    0  0.00000000000E+00  0.00000000000E+00  0.45593999997E+02  0.45594000000E+02  0.51100000000E-03 0.  1.
         11   -1    0    0    0    0 -0.00000000000E+00 -0.00000000000E+00 -0.45593999997E+02  0.45594000000E+02  0.51100000000E-03 0. -1.
    9900012    2    1    2    0    0  0.11202872869E+02 -0.35813576952E+01 -0.29637630591E+02  0.59301958689E+02  0.50000026739E+02 0.  0.
        -12    1    1    2    0    0 -0.11202872869E+02  0.35813576952E+01  0.29637630591E+02  0.31886041311E+02  0.00000000000E+00 0.  1.
         11    1    3    3    0    0 -0.41629502880E+01 -0.39158972788E+01  0.35579714511E+01  0.67322780473E+01  0.51100000000E-03 0. -1.
        -11    1    3    3    0    0  0.16295864306E+02 -0.61740301962E+01  0.12795993568E+01  0.17473157045E+02  0.51100000000E-03 0.  1.
         12    1    3    3    0    0 -0.93004114957E+00  0.65085697798E+01 -0.34475201398E+02  0.35096523597E+02  0.00000000000E+00 0. -1.
</event>
<event>
 7    1  0.1338132E-011  0.5930195E+02  0.7816164E-02  0.1266605E+00
        -11   -1    0    0    0    0  0.00000000000E+00  0.00000000000E+00  0.45593999997E+02  0.45594000000E+02  0.51100000000E-03 0.  1.
         11   -1    0    0    0    0 -0.00000000000E+00 -0.00000000000E+00 -0.45593999997E+02  0.45594000000E+02  0.51100000000E-03 0. -1.
    9900012    2    1    2    0    0 -0.19751881432E+02  0.13494358476E+02 -0.21082823486E+02  0.59301953256E+02  0.50000016831E+02 0.  0.
        -12    1    1    2    0    0  0.19751881432E+02 -0.13494358476E+02  0.21082823486E+02  0.31886046744E+02  0.00000000000E+00 0.  1.
         11    1    3    3    0    0 -0.34659897778E+01  0.89755974466E+01  0.32246412320E+01  0.10147548768E+02  0.51100000000E-03 0. -1.
        -11    1    3    3    0    0  0.19082923513E+01  0.12189321232E+02  0.54128961744E+01  0.13472957249E+02  0.51100000000E-03 0.  1.
         12    1    3    3    0    0 -0.18194184006E+02 -0.76705602026E+01 -0.29720360893E+02  0.35681447239E+02  0.00000000000E+00 0. -1.
</event>
<event>
 7    1  0.1338132E-011  0.5930192E+02  0.7816164E-02  0.1266605E+00
        -11   -1    0    0    0    0  0.00000000000E+00  0.00000000000E+00  0.45593999997E+02  0.45594000000E+02  0.51100000000E-03 0. -1.
         11   -1    0    0    0    0 -0.00000000000E+00 -0.00000000000E+00 -0.45593999997E+02  0.45594000000E+02  0.51100000000E-03 0.  1.
    9900012    2    1    2    0    0  0.24797635869E+02  0.15688819451E+02 -0.12476388150E+02  0.59301920565E+02  0.49999957210E+02 0.  0.
        -12    1    1    2    0    0 -0.24797635869E+02 -0.15688819451E+02  0.12476388150E+02  0.31886079435E+02  0.00000000000E+00 0.  1.
         11    1    3    3    0    0 -0.57497543289E+01  0.79575498037E+01  0.73514085279E+01  0.12264806616E+02  0.51100000000E-03 0. -1.
        -11    1    3    3    0    0 -0.51721833713E+01  0.20143064829E+01  0.44706404561E+00  0.55685525907E+01  0.51100000000E-03 0.  1.
        -12    1    3    3    0    0  0.35719573569E+02  0.57169631643E+01 -0.20274860724E+02  0.41468561359E+02  0.00000000000E+00 0.  1.
</event>
<event>
 7    1  0.1338132E-011  0.5930202E+02  0.7816164E-02  0.1266604E+00
        -11   -1    0    0    0    0  0.00000000000E+00  0.00000000000E+00  0.45593999997E+02  0.45594000000E+02  0.51100000000E-03 0.  1.
         11   -1    0    0    0    0 -0.00000000000E+00 -0.00000000000E+00 -0.45593999997E+02  0.45594000000E+02  0.51100000000E-03 0. -1.
    9900012    2    1    2    0    0 -0.52451922430E+00 -0.31801013919E+02  0.22662740504E+01  0.59302021816E+02  0.50000141866E+02 0.  0.
        -12    1    1    2    0    0  0.52451922430E+00  0.31801013919E+02 -0.22662740504E+01  0.31885978184E+02  0.00000000000E+00 0.  1.
         11    1    3    3    0    0  0.10398201443E+01  0.29304749732E+01  0.13873733842E+01  0.34049544299E+01  0.51100000000E-03 0. -1.
        -11    1    3    3    0    0  0.10490522781E+02 -0.14348590245E+02  0.19045114530E+02  0.26050902056E+02  0.51100000000E-03 0.  1.
         12    1    3    3    0    0 -0.12054862149E+02 -0.20382898648E+02 -0.18166213864E+02  0.29846165329E+02  0.00000000000E+00 0. -1.
</event>
<event>
 7    1  0.1338132E-011  0.5930194E+02  0.7816164E-02  0.1266605E+00
        -11   -1    0    0    0    0  0.00000000000E+00  0.00000000000E+00  0.45593999997E+02  0.45594000000E+02  0.51100000000E-03 0.  1.
         11   -1    0    0    0    0 -0.00000000000E+00 -0.00000000000E+00 -0.45593999997E+02  0.45594000000E+02  0.51100000000E-03 0. -1.
    9900012    2    1    2    0    0  0.14849764928E+02 -0.10537396434E+02 -0.26175730375E+02  0.59301935604E+02  0.49999984637E+02 0.  0.
        -12    1    1    2    0    0 -0.14849764928E+02  0.10537396434E+02  0.26175730375E+02  0.31886064396E+02  0.00000000000E+00 0.  1.
         11    1    3    3    0    0  0.10650240215E+02 -0.19962737169E+01 -0.14158641096E+02  0.17829185157E+02  0.51100000000E-03 0. -1.
        -11    1    3    3    0    0  0.17099062315E+02 -0.13206952597E+02 -0.16341753703E+02  0.27089747937E+02  0.51100000000E-03 0.  1.
        -12    1    3    3    0    0 -0.12899537603E+02  0.46658298798E+01  0.43246644247E+01  0.14383002510E+02  0.00000000000E+00 0.  1.
</event>
<event>
 7    1  0.1338132E-011  0.5930182E+02  0.7816164E-02  0.1266605E+00
        -11   -1    0    0    0    0  0.00000000000E+00  0.00000000000E+00  0.45593999997E+02  0.45594000000E+02  0.51100000000E-03 0. -1.
         11   -1    0    0    0    0 -0.00000000000E+00 -0.00000000000E+00 -0.45593999997E+02  0.45594000000E+02  0.51100000000E-03 0.  1.
    9900012    2    1    2    0    0 -0.91467822307E+01 -0.53608337810E+01  0.30072023811E+02  0.59301815216E+02  0.49999765078E+02 0.  0.
        -12    1    1    2    0    0  0.91467822307E+01  0.53608337810E+01 -0.30072023811E+02  0.31886184784E+02  0.00000000000E+00 0.  1.
         11    1    3    3    0    0 -0.16931555923E+02 -0.37440614286E+01  0.75573762894E+01  0.18915853632E+02  0.51100000000E-03 0. -1.
        -11    1    3    3    0    0 -0.11667264283E+02 -0.56634515588E+01  0.12977321789E+02  0.18346951259E+02  0.51100000000E-03 0.  1.
        -12    1    3    3    0    0  0.19452037976E+02  0.40466792065E+01  0.95373257321E+01  0.22039010326E+02  0.00000000000E+00 0.  1.
</event>
<event>
 7    1  0.1338132E-011  0.5930190E+02  0.7816164E-02  0.1266605E+00
        -11   -1    0    0    0    0  0.00000000000E+00  0.00000000000E+00  0.45593999997E+02  0.45594000000E+02  0.51100000000E-03 0.  1.
         11   -1    0    0    0    0 -0.00000000000E+00 -0.00000000000E+00 -0.45593999997E+02  0.45594000000E+02  0.51100000000E-03 0. -1.
    9900012    2    1    2    0    0 -0.22926594102E+02  0.20739829690E+02 -0.78072915838E+01  0.59301904997E+02  0.49999928817E+02 0.  0.
        -12    1    1    2    0    0  0.22926594102E+02 -0.20739829690E+02  0.78072915838E+01  0.31886095003E+02  0.00000000000E+00 0.  1.
         11    1    3    3    0    0 -0.12883601767E+01  0.48074505231E+01 -0.24273323784E+01  0.55374538566E+01  0.51100000000E-03 0. -1.
        -11    1    3    3    0    0 -0.12382834193E+02  0.29719662055E+02  0.71270796610E+01  0.32975569140E+02  0.51100000000E-03 0.  1.
        -12    1    3    3    0    0 -0.92553997316E+01 -0.13787282888E+02 -0.12507038866E+02  0.20788882001E+02  0.00000000000E+00 0.  1.
</event>
<event>
 7    1  0.1338132E-011  0.5930195E+02  0.7816164E-02  0.1266605E+00
        -11   -1    0    0    0    0  0.00000000000E+00  0.00000000000E+00  0.45593999997E+02  0.45594000000E+02  0.51100000000E-03 0. -1.
         11   -1    0    0    0    0 -0.00000000000E+00 -0.00000000000E+00 -0.45593999997E+02  0.45594000000E+02  0.51100000000E-03 0.  1.
    9900012    2    1    2    0    0 -0.30571556190E+02 -0.71855708669E+01 -0.55197396785E+01  0.59301952853E+02  0.50000016095E+02 0.  0.
        -12    1    1    2    0    0  0.30571556190E+02  0.71855708669E+01  0.55197396785E+01  0.31886047147E+02  0.00000000000E+00 0.  1.
         11    1    3    3    0    0 -0.23311261744E+02  0.13583416779E+02 -0.33952254729E+01  0.27192861044E+02  0.51100000000E-03 0. -1.
        -11    1    3    3    0    0  0.22858112783E+01 -0.15601347532E+01  0.79448749104E+01  0.84130845266E+01  0.51100000000E-03 0.  1.
        -12    1    3    3    0    0 -0.95461057238E+01 -0.19208852893E+02 -0.10069389116E+02  0.23696007282E+02  0.00000000000E+00 0.  1.
</event>
<event>
 7    1  0.1338132E-011  0.5930194E+02  0.7816164E-02  0.1266605E+00
        -11   -1    0    0    0    0  0.00000000000E+00  0.00000000000E+00  0.45593999997E+02  0.45594000000E+02  0.51100000000E-03 0.  1.
         11   -1    0    0    0    0 -0.00000000000E+00 -0.00000000000E+00 -0.45593999997E+02  0.45594000000E+02  0.51100000000E-03 0. -1.
    9900012    2    1    2    0    0  0.94927544963E+01  0.10895453722E+02 -0.28423540956E+02  0.59301937525E+02  0.49999988140E+02 0.  0.
        -12    1    1    2    0    0 -0.94927544963E+01 -0.10895453722E+02  0.28423540956E+02  0.31886062475E+02  0.00000000000E+00 0.  1.
         11    1    3    3    0    0  0.38563699213E+01  0.20991935443E+02 -0.16478071070E+02  0.26964045859E+02  0.51100000000E-03 0. -1.
        -11    1    3    3    0    0  0.11088176469E+02  0.58630311613E+01 -0.18400790464E+01  0.12677092844E+02  0.51100000000E-03 0.  1.
        -12    1    3    3    0    0 -0.54517918943E+01 -0.15959512883E+02 -0.10105390839E+02  0.19660798822E+02  0.00000000000E+00 0.  1.
</event>
<event>
 7    1  0.1338132E-011  0.5930192E+02  0.7816164E-02  0.1266605E+00
        -11   -1    0    0    0    0  0.00000000000E+00  0.00000000000E+00  0.45593999997E+02  0.45594000000E+02  0.51100000000E-03 0.  1.
         11   -1    0    0    0    0 -0.00000000000E+00 -0.00000000000E+00 -0.45593999997E+02  0.45594000000E+02  0.51100000000E-03 0. -1.
    9900012    2    1    2    0    0  0.24915702300E+02 -0.11099534033E+01 -0.19867011432E+02  0.59301915874E+02  0.49999948654E+02 0.  0.
        -12    1    1    2    0    0 -0.24915702300E+02  0.11099534033E+01  0.19867011432E+02  0.31886084126E+02  0.00000000000E+00 0.  1.
         11    1    3    3    0    0  0.12878977726E+02  0.11187637338E+02  0.24757672351E+01  0.17238350273E+02  0.51100000000E-03 0. -1.
        -11    1    3    3    0    0  0.10565070062E+02 -0.14558035829E+02 -0.29423653253E+02  0.34486352136E+02  0.51100000000E-03 0.  1.
         12    1    3    3    0    0  0.14716545127E+01  0.22604450874E+01  0.70808745856E+01  0.75772134651E+01  0.00000000000E+00 0. -1.
</event>
<event>
 7    1  0.1338132E-011  0.5930192E+02  0.7816164E-02  0.1266605E+00
        -11   -1    0    0    0    0  0.00000000000E+00  0.00000000000E+00  0.45593999997E+02  0.45594000000E+02  0.51100000000E-03 0.  1.
         11   -1    0    0    0    0 -0.00000000000E+00 -0.00000000000E+00 -0.45593999997E+02  0.45594000000E+02  0.51100000000E-03 0. -1.
    9900012    2    1    2    0    0  0.26309663610E+02  0.12832824631E+02 -0.12642882107E+02  0.59301917530E+02  0.49999951675E+02 0.  0.
        -12    1    1    2    0    0 -0.26309663610E+02 -0.12832824631E+02  0.12642882107E+02  0.31886082470E+02  0.00000000000E+00 0.  1.
         11    1    3    3    0    0  0.28519561983E+02 -0.56138720743E+01 -0.19525308012E+01  0.29132342030E+02  0.51100000000E-03 0. -1.
        -11    1    3    3    0    0  0.66456744032E+01 -0.71987132949E+00 -0.43890920327E+00  0.66989435402E+01  0.51100000000E-03 0.  1.
        -12    1    3    3    0    0 -0.88555727764E+01  0.19166568034E+02 -0.10251442103E+02  0.23470631960E+02  0.00000000000E+00 0.  1.
</event>
<event>
 7    1  0.1338132E-011  0.5930193E+02  0.7816164E-02  0.1266605E+00
        -11   -1    0    0    0    0  0.00000000000E+00  0.00000000000E+00  0.45593999997E+02  0.45594000000E+02  0.51100000000E-03 0.  1.
         11   -1    0    0    0    0 -0.00000000000E+00 -0.00000000000E+00 -0.45593999997E+02  0.45594000000E+02  0.51100000000E-03 0. -1.
    9900012    2    1    2    0    0  0.23184195043E+02 -0.11253001404E+02 -0.18777241450E+02  0.59301925659E+02  0.49999966500E+02 0.  0.
        -12    1    1    2    0    0 -0.23184195043E+02  0.11253001404E+02  0.18777241450E+02  0.31886074341E+02  0.00000000000E+00 0.  1.
         11    1    3    3    0    0  0.40663157872E+01  0.99250089413E+01 -0.35111887801E+01  0.11285795208E+02  0.51100000000E-03 0. -1.
        -11    1    3    3    0    0  0.49571502713E+01  0.98369146086E+01 -0.65850133215E+01  0.12833574270E+02  0.51100000000E-03 0.  1.
         12    1    3    3    0    0  0.14160728985E+02 -0.31014924954E+02 -0.86810393480E+01  0.35182556181E+02  0.00000000000E+00 0. -1.
</event>
<event>
 7    1  0.1338132E-011  0.5930197E+02  0.7816164E-02  0.1266605E+00
        -11   -1    0    0    0    0  0.00000000000E+00  0.00000000000E+00  0.45593999997E+02  0.45594000000E+02  0.51100000000E-03 0. -1.
         11   -1    0    0    0    0 -0.00000000000E+00 -0.00000000000E+00 -0.45593999997E+02  0.45594000000E+02  0.51100000000E-03 0.  1.
    9900012    2    1    2    0    0 -0.16425869132E+02  0.15737371240E+02  0.22343789988E+02  0.59301968868E+02  0.50000045303E+02 0.  0.
        -12    1    1    2    0    0  0.16425869132E+02 -0.15737371240E+02 -0.22343789988E+02  0.31886031132E+02  0.00000000000E+00 0.  1.
         11    1    3    3    0    0  0.20714728307E+01  0.28647758653E+02  0.58855087830E+01  0.29319350085E+02  0.51100000000E-03 0. -1.
        -11    1    3    3    0    0  0.78984956523E+00  0.91900601959E+00  0.15033006672E+01  0.19308929429E+01  0.51100000000E-03 0.  1.
         12    1    3    3    0    0 -0.19287191528E+02 -0.13829393432E+02  0.14954980538E+02  0.28051725840E+02  0.00000000000E+00 0. -1.
</event>
<event>
 7    1  0.1338132E-011  0.5930192E+02  0.7816164E-02  0.1266605E+00
        -11   -1    0    0    0    0  0.00000000000E+00  0.00000000000E+00  0.45593999997E+02  0.45594000000E+02  0.51100000000E-03 0.  1.
         11   -1    0    0    0    0 -0.00000000000E+00 -0.00000000000E+00 -0.45593999997E+02  0.45594000000E+02  0.51100000000E-03 0. -1.
    9900012    2    1    2    0    0  0.24781273258E+02 -0.17258858691E+02 -0.10234379768E+02  0.59301917819E+02  0.49999952202E+02 0.  0.
        -12    1    1    2    0    0 -0.24781273258E+02  0.17258858691E+02  0.10234379768E+02  0.31886082181E+02  0.00000000000E+00 0.  1.
         11    1    3    3    0    0 -0.86107318936E+01 -0.94880754714E+01  0.11193137291E+02  0.17013365410E+02  0.51100000000E-03 0.  1.
        -11    1    3    3    0    0  0.10309512431E+02 -0.66209681759E+01 -0.27101720634E+01  0.12548637338E+02  0.51100000000E-03 0. -1.
        -12    1    3    3    0    0  0.23082492720E+02 -0.11498150438E+01 -0.18717344995E+02  0.29739915072E+02  0.00000000000E+00 0.  1.
</event>
<event>
 7    1  0.1338132E-011  0.5930194E+02  0.7816164E-02  0.1266605E+00
        -11   -1    0    0    0    0  0.00000000000E+00  0.00000000000E+00  0.45593999997E+02  0.45594000000E+02  0.51100000000E-03 0.  1.
         11   -1    0    0    0    0 -0.00000000000E+00 -0.00000000000E+00 -0.45593999997E+02  0.45594000000E+02  0.51100000000E-03 0. -1.
    9900012    2    1    2    0    0 -0.14824945711E+02 -0.21343727327E+02 -0.18476660423E+02  0.59301942045E+02  0.49999996384E+02 0.  0.
        -12    1    1    2    0    0  0.14824945711E+02  0.21343727327E+02  0.18476660423E+02  0.31886057955E+02  0.00000000000E+00 0.  1.
         11    1    3    3    0    0  0.27898449455E+01 -0.21177337479E+01  0.59285486482E+01  0.68859073754E+01  0.51100000000E-03 0. -1.
        -11    1    3    3    0    0 -0.60540937168E+01 -0.27337418490E+02 -0.50424244539E+01  0.28450176538E+02  0.51100000000E-03 0.  1.
         12    1    3    3    0    0 -0.11560696939E+02  0.81114249113E+01 -0.19362784618E+02  0.23965858131E+02  0.00000000000E+00 0. -1.
</event>
<event>
 7    1  0.1338132E-011  0.5930195E+02  0.7816164E-02  0.1266605E+00
        -11   -1    0    0    0    0  0.00000000000E+00  0.00000000000E+00  0.45593999997E+02  0.45594000000E+02  0.51100000000E-03 0.  1.
         11   -1    0    0    0    0 -0.00000000000E+00 -0.00000000000E+00 -0.45593999997E+02  0.45594000000E+02  0.51100000000E-03 0. -1.
    9900012    2    1    2    0    0 -0.25329538270E+01 -0.38240147458E+01 -0.31554414926E+02  0.59301952187E+02  0.50000014880E+02 0.  0.
        -12    1    1    2    0    0  0.25329538270E+01  0.38240147458E+01  0.31554414926E+02  0.31886047813E+02  0.00000000000E+00 0.  1.
         11    1    3    3    0    0  0.97416050721E+01 -0.14396505218E+02 -0.10923450369E+01  0.17416987392E+02  0.51100000000E-03 0. -1.
        -11    1    3    3    0    0  0.11714008840E+01  0.12652050415E+02 -0.63629922475E+01  0.14210356447E+02  0.51100000000E-03 0.  1.
        -12    1    3    3    0    0 -0.13445959783E+02 -0.20795599427E+01 -0.24099077641E+02  0.27674608348E+02  0.00000000000E+00 0.  1.
</event>
<event>
 7    1  0.1338132E-011  0.5930194E+02  0.7816164E-02  0.1266605E+00
        -11   -1    0    0    0    0  0.00000000000E+00  0.00000000000E+00  0.45593999997E+02  0.45594000000E+02  0.51100000000E-03 0.  1.
         11   -1    0    0    0    0 -0.00000000000E+00 -0.00000000000E+00 -0.45593999997E+02  0.45594000000E+02  0.51100000000E-03 0. -1.
    9900012    2    1    2    0    0 -0.14565960537E+01  0.15145485293E+02 -0.28021655604E+02  0.59301943806E+02  0.49999999595E+02 0.  0.
        -12    1    1    2    0    0  0.14565960537E+01 -0.15145485293E+02  0.28021655604E+02  0.31886056194E+02  0.00000000000E+00 0.  1.
         11    1    3    3    0    0 -0.91219058132E+01  0.12379182833E+02 -0.39242597019E+01  0.15869881781E+02  0.51100000000E-03 0. -1.
        -11    1    3    3    0    0 -0.11629648519E+01  0.13988773331E+02  0.15046458708E+01  0.14117444033E+02  0.51100000000E-03 0.  1.
         12    1    3    3    0    0  0.88282746113E+01 -0.11222470871E+02 -0.25602041773E+02  0.29314617992E+02  0.00000000000E+00 0. -1.
</event>
<event>
 7    1  0.1338132E-011  0.5930195E+02  0.7816164E-02  0.1266605E+00
        -11   -1    0    0    0    0  0.00000000000E+00  0.00000000000E+00  0.45593999997E+02  0.45594000000E+02  0.51100000000E-03 0.  1.
         11   -1    0    0    0    0 -0.00000000000E+00 -0.00000000000E+00 -0.45593999997E+02  0.45594000000E+02  0.51100000000E-03 0. -1.
    9900012    2    1    2    0    0  0.10589369674E+02  0.15576867525E+02 -0.25728319045E+02  0.59301953634E+02  0.50000017520E+02 0.  0.
        -12    1    1    2    0    0 -0.10589369674E+02 -0.15576867525E+02  0.25728319045E+02  0.31886046366E+02  0.00000000000E+00 0.  1.
         11    1    3    3    0    0  0.89953528621E+01  0.11700902419E+02 -0.11496077981E+02  0.18707947502E+02  0.51100000000E-03 0. -1.
        -11    1    3    3    0    0  0.18912310295E+02  0.12398381545E+01 -0.16474663592E+01  0.19024374497E+02  0.51100000000E-03 0.  1.
         12    1    3    3    0    0 -0.17318293484E+02  0.26361269508E+01 -0.12584774705E+02  0.21569631635E+02  0.00000000000E+00 0. -1.
</event>
<event>
 7    1  0.1338132E-011  0.5930208E+02  0.7816164E-02  0.1266604E+00
        -11   -1    0    0    0    0  0.00000000000E+00  0.00000000000E+00  0.45593999997E+02  0.45594000000E+02  0.51100000000E-03 0. -1.
         11   -1    0    0    0    0 -0.00000000000E+00 -0.00000000000E+00 -0.45593999997E+02  0.45594000000E+02  0.51100000000E-03 0.  1.
    9900012    2    1    2    0    0 -0.22723563131E+02  0.15581331952E+02  0.16049106124E+02  0.59302077806E+02  0.50000243979E+02 0.  0.
        -12    1    1    2    0    0  0.22723563131E+02 -0.15581331952E+02 -0.16049106124E+02  0.31885922194E+02  0.00000000000E+00 0.  1.
         11    1    3    3    0    0  0.58169445828E+01  0.10929724870E+02  0.16254732549E+02  0.20433111866E+02  0.51100000000E-03 0. -1.
        -11    1    3    3    0    0 -0.97833098225E+01  0.12946907359E+02 -0.64004070742E+01  0.17444218877E+02  0.51100000000E-03 0.  1.
        -12    1    3    3    0    0 -0.18757197891E+02 -0.82953002775E+01  0.61947806494E+01  0.21424747063E+02  0.00000000000E+00 0.  1.
</event>
<event>
 7    1  0.1338132E-011  0.5930196E+02  0.7816164E-02  0.1266605E+00
        -11   -1    0    0    0    0  0.00000000000E+00  0.00000000000E+00  0.45593999997E+02  0.45594000000E+02  0.51100000000E-03 0. -1.
         11   -1    0    0    0    0 -0.00000000000E+00 -0.00000000000E+00 -0.45593999997E+02  0.45594000000E+02  0.51100000000E-03 0.  1.
    9900012    2    1    2    0    0 -0.26425976410E+02 -0.39724236748E+01  0.17395609365E+02  0.59301959100E+02  0.50000027489E+02 0.  0.
        -12    1    1    2    0    0  0.26425976410E+02  0.39724236748E+01 -0.17395609365E+02  0.31886040900E+02  0.00000000000E+00 0.  1.
         11    1    3    3    0    0 -0.26017810668E+02 -0.31628894574E+01 -0.28890787545E+01  0.26368107971E+02  0.51100000000E-03 0. -1.
        -11    1    3    3    0    0 -0.98511671988E+00 -0.46155210529E+01 -0.52795190098E+01  0.70814412924E+01  0.51100000000E-03 0.  1.
        -12    1    3    3    0    0  0.57695097740E+00  0.38059868355E+01  0.25564207129E+02  0.25852409837E+02  0.00000000000E+00 0.  1.
</event>
<event>
 7    1  0.1338132E-011  0.5930187E+02  0.7816164E-02  0.1266605E+00
        -11   -1    0    0    0    0  0.00000000000E+00  0.00000000000E+00  0.45593999997E+02  0.45594000000E+02  0.51100000000E-03 0.  1.
         11   -1    0    0    0    0 -0.00000000000E+00 -0.00000000000E+00 -0.45593999997E+02  0.45594000000E+02  0.51100000000E-03 0. -1.
    9900012    2    1    2    0    0 -0.15364319438E+02 -0.20209419608E+02 -0.19293590473E+02  0.59301865301E+02  0.49999856422E+02 0.  0.
        -12    1    1    2    0    0  0.15364319438E+02  0.20209419608E+02  0.19293590473E+02  0.31886134699E+02  0.00000000000E+00 0.  1.
         11    1    3    3    0    0  0.11561330031E+01  0.41914885953E+01 -0.21996468500E+02  0.22422083910E+02  0.51100000000E-03 0. -1.
        -11    1    3    3    0    0  0.20207053759E+01 -0.13582748901E+02 -0.41507246403E+01  0.14345829820E+02  0.51100000000E-03 0.  1.
        -12    1    3    3    0    0 -0.18541157817E+02 -0.10818159302E+02  0.68536026671E+01  0.22533951571E+02  0.00000000000E+00 0.  1.
</event>
<event>
 7    1  0.1338132E-011  0.5930195E+02  0.7816164E-02  0.1266605E+00
        -11   -1    0    0    0    0  0.00000000000E+00  0.00000000000E+00  0.45593999997E+02  0.45594000000E+02  0.51100000000E-03 0.  1.
         11   -1    0    0    0    0 -0.00000000000E+00 -0.00000000000E+00 -0.45593999997E+02  0.45594000000E+02  0.51100000000E-03 0. -1.
    9900012    2    1    2    0    0  0.27445782616E+02  0.34638729223E+00 -0.16227429405E+02  0.59301946110E+02  0.50000003797E+02 0.  0.
        -12    1    1    2    0    0 -0.27445782616E+02 -0.34638729223E+00  0.16227429405E+02  0.31886053890E+02  0.00000000000E+00 0.  1.
         11    1    3    3    0    0  0.27370027815E+02  0.13237910012E+01 -0.12951502644E+02  0.30308617029E+02  0.51100000000E-03 0. -1.
        -11    1    3    3    0    0  0.56676155432E+01  0.99905637722E+01 -0.97655252366E+01  0.15076429081E+02  0.51100000000E-03 0.  1.
        -12    1    3    3    0    0 -0.55918607421E+01 -0.10967967481E+02  0.64895984754E+01  0.13916900000E+02  0.00000000000E+00 0.  1.
</event>
<event>
 7    1  0.1338132E-011  0.5930192E+02  0.7816164E-02  0.1266605E+00
        -11   -1    0    0    0    0  0.00000000000E+00  0.00000000000E+00  0.45593999997E+02  0.45594000000E+02  0.51100000000E-03 0.  1.
         11   -1    0    0    0    0 -0.00000000000E+00 -0.00000000000E+00 -0.45593999997E+02  0.45594000000E+02  0.51100000000E-03 0. -1.
    9900012    2    1    2    0    0  0.10856910520E+02 -0.13736862723E+02 -0.26648600849E+02  0.59301924188E+02  0.49999963816E+02 0.  0.
        -12    1    1    2    0    0 -0.10856910520E+02  0.13736862723E+02  0.26648600849E+02  0.31886075812E+02  0.00000000000E+00 0.  1.
         11    1    3    3    0    0  0.58092273803E+01  0.13815829313E+02 -0.31669465831E+01  0.15318414189E+02  0.51100000000E-03 0. -1.
        -11    1    3    3    0    0  0.15019528616E+01 -0.40529950436E+01  0.51826006022E+01  0.67484798648E+01  0.51100000000E-03 0.  1.
         12    1    3    3    0    0  0.35457302780E+01 -0.23499696992E+02 -0.28664254868E+02  0.37235030134E+02  0.00000000000E+00 0. -1.
</event>
<event>
 7    1  0.1412256E-011  0.5930174E+02  0.7816164E-02  0.1266605E+00
        -11   -1    0    0    0    0  0.00000000000E+00  0.00000000000E+00  0.45593999997E+02  0.45594000000E+02  0.51100000000E-03 0.  1.
         11   -1    0    0    0    0 -0.00000000000E+00 -0.00000000000E+00 -0.45593999997E+02  0.45594000000E+02  0.51100000000E-03 0. -1.
    9900012    2    1    2    0    0 -0.19397954751E+02  0.23765305373E+02  0.86984558929E+01  0.59301740845E+02  0.49999629442E+02 0.  0.
        -12    1    1    2    0    0  0.19397954751E+02 -0.23765305373E+02 -0.86984558929E+01  0.31886259155E+02  0.00000000000E+00 0.  1.
         11    1    3    3    0    0 -0.41009718304E+01  0.12014081276E+02 -0.88448357149E+01  0.15472143935E+02  0.51100000000E-03 0. -1.
        -11    1    3    3    0    0  0.45516141630E+01 -0.97189780299E+01  0.28391326342E+01  0.11101189117E+02  0.51100000000E-03 0.  1.
         12    1    3    3    0    0 -0.19848597084E+02  0.21470202127E+02  0.14704158974E+02  0.32728407793E+02  0.00000000000E+00 0. -1.
</event>
<event>
 7    1  0.1338132E-011  0.5930195E+02  0.7816164E-02  0.1266605E+00
        -11   -1    0    0    0    0  0.00000000000E+00  0.00000000000E+00  0.45593999997E+02  0.45594000000E+02  0.51100000000E-03 0.  1.
         11   -1    0    0    0    0 -0.00000000000E+00 -0.00000000000E+00 -0.45593999997E+02  0.45594000000E+02  0.51100000000E-03 0. -1.
    9900012    2    1    2    0    0 -0.10967501224E+02  0.29752443129E+02 -0.33505922458E+01  0.59301946251E+02  0.50000004055E+02 0.  0.
        -12    1    1    2    0    0  0.10967501224E+02 -0.29752443129E+02  0.33505922458E+01  0.31886053749E+02  0.00000000000E+00 0.  1.
         11    1    3    3    0    0 -0.19341568607E+02  0.25001063177E+02 -0.71148721958E+01  0.32400167326E+02  0.51100000000E-03 0. -1.
        -11    1    3    3    0    0 -0.82732273534E+01 -0.16975500835E+01 -0.77469773162E+00  0.84810449806E+01  0.51100000000E-03 0.  1.
         12    1    3    3    0    0  0.16647294736E+02  0.64489300364E+01  0.45389776815E+01  0.18420733944E+02  0.00000000000E+00 0. -1.
</event>
<event>
 7    1  0.1338132E-011  0.5930197E+02  0.7816164E-02  0.1266605E+00
        -11   -1    0    0    0    0  0.00000000000E+00  0.00000000000E+00  0.45593999997E+02  0.45594000000E+02  0.51100000000E-03 0.  1.
         11   -1    0    0    0    0 -0.00000000000E+00 -0.00000000000E+00 -0.45593999997E+02  0.45594000000E+02  0.51100000000E-03 0. -1.
    9900012    2    1    2    0    0  0.19871801079E+02  0.23946812999E+02  0.69556249708E+01  0.59301967797E+02  0.50000043349E+02 0.  0.
        -12    1    1    2    0    0 -0.19871801079E+02 -0.23946812999E+02 -0.69556249708E+01  0.31886032203E+02  0.00000000000E+00 0.  1.
         11    1    3    3    0    0  0.17981932565E+02  0.11562507690E+02 -0.57294574408E+01  0.22132965587E+02  0.51100000000E-03 0. -1.
        -11    1    3    3    0    0 -0.18834492804E+01 -0.66348543173E+01 -0.67962448128E+01  0.96828516884E+01  0.51100000000E-03 0.  1.
         12    1    3    3    0    0  0.37733177945E+01  0.19019159626E+02  0.19481327224E+02  0.27486150521E+02  0.00000000000E+00 0. -1.
</event>
<event>
 7    1  0.1338132E-011  0.5930204E+02  0.7816164E-02  0.1266604E+00
        -11   -1    0    0    0    0  0.00000000000E+00  0.00000000000E+00  0.45593999997E+02  0.45594000000E+02  0.51100000000E-03 0.  1.
         11   -1    0    0    0    0 -0.00000000000E+00 -0.00000000000E+00 -0.45593999997E+02  0.45594000000E+02  0.51100000000E-03 0. -1.
    9900012    2    1    2    0    0  0.24642851160E+02  0.19663932626E+02 -0.47721915462E+01  0.59302044286E+02  0.50000182847E+02 0.  0.
        -12    1    1    2    0    0 -0.24642851160E+02 -0.19663932626E+02  0.47721915462E+01  0.31885955714E+02  0.00000000000E+00 0.  1.
         11    1    3    3    0    0  0.14213605573E+02 -0.36912416931E+01  0.10575214805E+02  0.18096602362E+02  0.51100000000E-03 0. -1.
        -11    1    3    3    0    0  0.17367315437E+01  0.73591679777E+01  0.83874765591E+01  0.11292623835E+02  0.51100000000E-03 0.  1.
         12    1    3    3    0    0  0.86925140435E+01  0.15996006341E+02 -0.23734882911E+02  0.29912818089E+02  0.00000000000E+00 0. -1.
</event>
<event>
 7    1  0.1338132E-011  0.5930194E+02  0.7816164E-02  0.1266605E+00
        -11   -1    0    0    0    0  0.00000000000E+00  0.00000000000E+00  0.45593999997E+02  0.45594000000E+02  0.51100000000E-03 0.  1.
         11   -1    0    0    0    0 -0.00000000000E+00 -0.00000000000E+00 -0.45593999997E+02  0.45594000000E+02  0.51100000000E-03 0. -1.
    9900012    2    1    2    0    0 -0.24294662728E-01  0.31703243765E+02 -0.34095234747E+01  0.59301935555E+02  0.49999984547E+02 0.  0.
        -12    1    1    2    0    0  0.24294662728E-01 -0.31703243765E+02  0.34095234747E+01  0.31886064445E+02  0.00000000000E+00 0.  1.
         11    1    3    3    0    0  0.13219215171E+02  0.14639443397E+02 -0.13104064225E+02  0.23680740111E+02  0.51100000000E-03 0. -1.
        -11    1    3    3    0    0 -0.11592750923E+02  0.20805455775E+02 -0.13383116264E+01  0.23854767705E+02  0.51100000000E-03 0.  1.
         12    1    3    3    0    0 -0.16507589109E+01 -0.37416554065E+01  0.11032852377E+02  0.11766427739E+02  0.00000000000E+00 0. -1.
</event>
<event>
 7    1  0.1338132E-011  0.5930204E+02  0.7816164E-02  0.1266604E+00
        -11   -1    0    0    0    0  0.00000000000E+00  0.00000000000E+00  0.45593999997E+02  0.45594000000E+02  0.51100000000E-03 0. -1.
         11   -1    0    0    0    0 -0.00000000000E+00 -0.00000000000E+00 -0.45593999997E+02  0.45594000000E+02  0.51100000000E-03 0.  1.
    9900012    2    1    2    0    0 -0.17616023912E+01  0.29563826261E+02  0.11814891468E+02  0.59302035586E+02  0.50000166981E+02 0.  0.
        -12    1    1    2    0    0  0.17616023912E+01 -0.29563826261E+02 -0.11814891468E+02  0.31885964414E+02  0.00000000000E+00 0.  1.
         11    1    3    3    0    0 -0.11373285044E+02 -0.64384753673E+00  0.21074770408E+02  0.23956462601E+02  0.51100000000E-03 0. -1.
        -11    1    3    3    0    0  0.17431043368E+01  0.56399273333E+01  0.31806181066E+01  0.67054846846E+01  0.51100000000E-03 0.  1.
        -12    1    3    3    0    0  0.78685783162E+01  0.24567746465E+02 -0.12440497047E+02  0.28640088300E+02  0.00000000000E+00 0.  1.
</event>
<event>
 7    1  0.1338132E-011  0.5930196E+02  0.7816164E-02  0.1266605E+00
        -11   -1    0    0    0    0  0.00000000000E+00  0.00000000000E+00  0.45593999997E+02  0.45594000000E+02  0.51100000000E-03 0. -1.
         11   -1    0    0    0    0 -0.00000000000E+00 -0.00000000000E+00 -0.45593999997E+02  0.45594000000E+02  0.51100000000E-03 0.  1.
    9900012    2    1    2    0    0 -0.92382033978E+01  0.94956699789E+01  0.29003576139E+02  0.59301959492E+02  0.50000028204E+02 0.  0.
        -12    1    1    2    0    0  0.92382033978E+01 -0.94956699789E+01 -0.29003576139E+02  0.31886040508E+02  0.00000000000E+00 0.  1.
         11    1    3    3    0    0 -0.74107427403E+01 -0.37766212583E+00  0.13289543054E+02  0.15220830841E+02  0.51100000000E-03 0. -1.
        -11    1    3    3    0    0 -0.15865638466E+02 -0.85376508874E+01  0.62725197969E+01  0.19077590820E+02  0.51100000000E-03 0.  1.
         12    1    3    3    0    0  0.14038177809E+02  0.18410982992E+02  0.94415132883E+01  0.25003537832E+02  0.00000000000E+00 0. -1.
</event>
<event>
 7    1  0.1338132E-011  0.5930193E+02  0.7816164E-02  0.1266605E+00
        -11   -1    0    0    0    0  0.00000000000E+00  0.00000000000E+00  0.45593999997E+02  0.45594000000E+02  0.51100000000E-03 0. -1.
         11   -1    0    0    0    0 -0.00000000000E+00 -0.00000000000E+00 -0.45593999997E+02  0.45594000000E+02  0.51100000000E-03 0.  1.
    9900012    2    1    2    0    0 -0.57642700977E+01 -0.17588039589E+02  0.25964504682E+02  0.59301930162E+02  0.49999974712E+02 0.  0.
        -12    1    1    2    0    0  0.57642700977E+01  0.17588039589E+02 -0.25964504682E+02  0.31886069838E+02  0.00000000000E+00 0.  1.
         11    1    3    3    0    0 -0.49261012091E+01 -0.95758267853E+01  0.10983328616E+02  0.15381691698E+02  0.51100000000E-03 0. -1.
        -11    1    3    3    0    0 -0.17438340387E+02 -0.92341055640E+01  0.18340521227E+02  0.26939546028E+02  0.51100000000E-03 0.  1.
        -12    1    3    3    0    0  0.16600171499E+02  0.12218927602E+01 -0.33593451613E+01  0.16980692436E+02  0.00000000000E+00 0.  1.
</event>
<event>
 7    1  0.1338132E-011  0.5930195E+02  0.7816164E-02  0.1266605E+00
        -11   -1    0    0    0    0  0.00000000000E+00  0.00000000000E+00  0.45593999997E+02  0.45594000000E+02  0.51100000000E-03 0.  1.
         11   -1    0    0    0    0 -0.00000000000E+00 -0.00000000000E+00 -0.45593999997E+02  0.45594000000E+02  0.51100000000E-03 0. -1.
    9900012    2    1    2    0    0 -0.23141346011E+02  0.12984498553E+02 -0.17680521936E+02  0.59301953619E+02  0.50000017492E+02 0.  0.
        -12    1    1    2    0    0  0.23141346011E+02 -0.12984498553E+02  0.17680521936E+02  0.31886046381E+02  0.00000000000E+00 0.  1.
         11    1    3    3    0    0 -0.17075069598E+02  0.82483822008E+01 -0.17072051328E+02  0.25515656909E+02  0.51100000000E-03 0. -1.
        -11    1    3    3    0    0  0.84279872312E+00  0.11331031609E+02 -0.13561659906E+02  0.17692405339E+02  0.51100000000E-03 0.  1.
        -12    1    3    3    0    0 -0.69090751364E+01 -0.65949152568E+01  0.12953189298E+02  0.16093891371E+02  0.00000000000E+00 0.  1.
</event>
<event>
 7    1  0.1338132E-011  0.5930196E+02  0.7816164E-02  0.1266605E+00
        -11   -1    0    0    0    0  0.00000000000E+00  0.00000000000E+00  0.45593999997E+02  0.45594000000E+02  0.51100000000E-03 0. -1.
         11   -1    0    0    0    0 -0.00000000000E+00 -0.00000000000E+00 -0.45593999997E+02  0.45594000000E+02  0.51100000000E-03 0.  1.
    9900012    2    1    2    0    0  0.47706957338E+01 -0.21313137964E+02  0.23231668001E+02  0.59301956254E+02  0.50000022298E+02 0.  0.
        -12    1    1    2    0    0 -0.47706957338E+01  0.21313137964E+02 -0.23231668001E+02  0.31886043746E+02  0.00000000000E+00 0.  1.
         11    1    3    3    0    0  0.33603615660E+01  0.59041554916E+01 -0.49079877095E+01  0.83808964640E+01  0.51100000000E-03 0. -1.
        -11    1    3    3    0    0  0.71033504216E+01  0.75225234263E+00 -0.37958764266E+01  0.80890140874E+01  0.51100000000E-03 0.  1.
         12    1    3    3    0    0 -0.56930162537E+01 -0.27969545798E+02  0.31935532137E+02  0.42832045703E+02  0.00000000000E+00 0. -1.
</event>
<event>
 7    1  0.1338132E-011  0.5930194E+02  0.7816164E-02  0.1266605E+00
        -11   -1    0    0    0    0  0.00000000000E+00  0.00000000000E+00  0.45593999997E+02  0.45594000000E+02  0.51100000000E-03 0. -1.
         11   -1    0    0    0    0 -0.00000000000E+00 -0.00000000000E+00 -0.45593999997E+02  0.45594000000E+02  0.51100000000E-03 0.  1.
    9900012    2    1    2    0    0 -0.24924433613E+02 -0.85292033602E+01  0.17965129603E+02  0.59301943760E+02  0.49999999511E+02 0.  0.
        -12    1    1    2    0    0  0.24924433613E+02  0.85292033602E+01 -0.17965129603E+02  0.31886056240E+02  0.00000000000E+00 0.  1.
         11    1    3    3    0    0 -0.38432649517E+01  0.21494907292E+00  0.53540514108E-01  0.38496435473E+01  0.51100000000E-03 0. -1.
        -11    1    3    3    0    0 -0.12468666458E+02  0.12689873353E+02 -0.90404851024E+01  0.19955723493E+02  0.51100000000E-03 0.  1.
        -12    1    3    3    0    0 -0.86125022032E+01 -0.21434025786E+02  0.26952074192E+02  0.35496576720E+02  0.00000000000E+00 0.  1.
</event>
<event>
 7    1  0.1338132E-011  0.5930203E+02  0.7816164E-02  0.1266604E+00
        -11   -1    0    0    0    0  0.00000000000E+00  0.00000000000E+00  0.45593999997E+02  0.45594000000E+02  0.51100000000E-03 0.  1.
         11   -1    0    0    0    0 -0.00000000000E+00 -0.00000000000E+00 -0.45593999997E+02  0.45594000000E+02  0.51100000000E-03 0. -1.
    9900012    2    1    2    0    0 -0.33339509108E+01  0.18287609695E+02 -0.25906816710E+02  0.59302030529E+02  0.50000157758E+02 0.  0.
        -12    1    1    2    0    0  0.33339509108E+01 -0.18287609695E+02  0.25906816710E+02  0.31885969471E+02  0.00000000000E+00 0.  1.
         11    1    3    3    0    0 -0.98931605580E+01  0.22006841011E+02 -0.95084380897E+01  0.25934264444E+02  0.51100000000E-03 0. -1.
        -11    1    3    3    0    0 -0.10524942017E+02  0.22387258881E+01 -0.42231270723E+01  0.11559459356E+02  0.51100000000E-03 0.  1.
        -12    1    3    3    0    0  0.17084151665E+02 -0.59579572032E+01 -0.12175251548E+02  0.21808306729E+02  0.00000000000E+00 0.  1.
</event>
<event>
 7    1  0.1338132E-011  0.5930194E+02  0.7816164E-02  0.1266605E+00
        -11   -1    0    0    0    0  0.00000000000E+00  0.00000000000E+00  0.45593999997E+02  0.45594000000E+02  0.51100000000E-03 0.  1.
         11   -1    0    0    0    0 -0.00000000000E+00 -0.00000000000E+00 -0.45593999997E+02  0.45594000000E+02  0.51100000000E-03 0. -1.
    9900012    2    1    2    0    0  0.25101871056E+02 -0.34440737443E+01  0.19358588446E+02  0.59301944724E+02  0.50000001269E+02 0.  0.
        -12    1    1    2    0    0 -0.25101871056E+02  0.34440737443E+01 -0.19358588446E+02  0.31886055276E+02  0.00000000000E+00 0.  1.
         11    1    3    3    0    0  0.54875433353E+01 -0.59068910706E+01 -0.11064960934E+02  0.13690794524E+02  0.51100000000E-03 0. -1.
        -11    1    3    3    0    0 -0.59644482874E+01 -0.44815651971E+01  0.60947837629E+01  0.96335590187E+01  0.51100000000E-03 0.  1.
        -12    1    3    3    0    0  0.25578776008E+02  0.69443825234E+01  0.24328765617E+02  0.35977591181E+02  0.00000000000E+00 0.  1.
</event>
<event>
 7    1  0.1338132E-011  0.5930194E+02  0.7816164E-02  0.1266605E+00
        -11   -1    0    0    0    0  0.00000000000E+00  0.00000000000E+00  0.45593999997E+02  0.45594000000E+02  0.51100000000E-03 0. -1.
         11   -1    0    0    0    0 -0.00000000000E+00 -0.00000000000E+00 -0.45593999997E+02  0.45594000000E+02  0.51100000000E-03 0.  1.
    9900012    2    1    2    0    0 -0.14290943506E+02  0.11209940473E+02  0.26207379262E+02  0.59301944122E+02  0.50000000172E+02 0.  0.
        -12    1    1    2    0    0  0.14290943506E+02 -0.11209940473E+02 -0.26207379262E+02  0.31886055878E+02  0.00000000000E+00 0.  1.
         11    1    3    3    0    0 -0.58755197742E+01  0.54182786678E+01  0.32610074438E+02  0.33575235389E+02  0.51100000000E-03 0. -1.
        -11    1    3    3    0    0 -0.38264376003E+01 -0.20768690761E+01  0.77540064376E+01  0.88926725996E+01  0.51100000000E-03 0.  1.
        -12    1    3    3    0    0 -0.45889861313E+01  0.78685308811E+01 -0.14156701614E+02  0.16834036133E+02  0.00000000000E+00 0.  1.
</event>
<event>
 7    1  0.1338132E-011  0.5930194E+02  0.7816164E-02  0.1266605E+00
        -11   -1    0    0    0    0  0.00000000000E+00  0.00000000000E+00  0.45593999997E+02  0.45594000000E+02  0.51100000000E-03 0.  1.
         11   -1    0    0    0    0 -0.00000000000E+00 -0.00000000000E+00 -0.45593999997E+02  0.45594000000E+02  0.51100000000E-03 0. -1.
    9900012    2    1    2    0    0 -0.13331326880E+02 -0.26321814806E+02  0.12089599791E+02  0.59301942950E+02  0.49999998035E+02 0.  0.
        -12    1    1    2    0    0  0.13331326880E+02  0.26321814806E+02 -0.12089599791E+02  0.31886057050E+02  0.00000000000E+00 0.  1.
         11    1    3    3    0    0  0.16348206125E+02 -0.20199787714E+01  0.96542031182E+01  0.19093134783E+02  0.51100000000E-03 0. -1.
        -11    1    3    3    0    0 -0.10956963962E+01 -0.44238301150E+00  0.27296936313E+01  0.29744715335E+01  0.51100000000E-03 0.  1.
        -12    1    3    3    0    0 -0.28583836609E+02 -0.23859453023E+02 -0.29429695877E+00  0.37234336634E+02  0.00000000000E+00 0.  1.
</event>
<event>
 7    1  0.1338132E-011  0.5930194E+02  0.7816164E-02  0.1266605E+00
        -11   -1    0    0    0    0  0.00000000000E+00  0.00000000000E+00  0.45593999997E+02  0.45594000000E+02  0.51100000000E-03 0.  1.
         11   -1    0    0    0    0 -0.00000000000E+00 -0.00000000000E+00 -0.45593999997E+02  0.45594000000E+02  0.51100000000E-03 0. -1.
    9900012    2    1    2    0    0 -0.19401216289E+02 -0.24499064172E+02 -0.63332022031E+01  0.59301940523E+02  0.49999993608E+02 0.  0.
        -12    1    1    2    0    0  0.19401216289E+02  0.24499064172E+02  0.63332022031E+01  0.31886059477E+02  0.00000000000E+00 0.  1.
         11    1    3    3    0    0 -0.21482420509E+02 -0.24295545758E+02 -0.11215896985E+02  0.34315656486E+02  0.51100000000E-03 0. -1.
        -11    1    3    3    0    0 -0.26049519129E+01 -0.10079817730E+02 -0.37408656901E+01  0.11062665877E+02  0.51100000000E-03 0.  1.
        -12    1    3    3    0    0  0.46861561329E+01  0.98762993155E+01  0.86235604716E+01  0.13923618160E+02  0.00000000000E+00 0.  1.
</event>
<event>
 7    1  0.1338132E-011  0.5930197E+02  0.7816164E-02  0.1266605E+00
        -11   -1    0    0    0    0  0.00000000000E+00  0.00000000000E+00  0.45593999997E+02  0.45594000000E+02  0.51100000000E-03 0.  1.
         11   -1    0    0    0    0 -0.00000000000E+00 -0.00000000000E+00 -0.45593999997E+02  0.45594000000E+02  0.51100000000E-03 0. -1.
    9900012    2    1    2    0    0  0.11065274479E+02  0.29903356731E+02 -0.26049099776E+00  0.59301970165E+02  0.50000047668E+02 0.  0.
        -12    1    1    2    0    0 -0.11065274479E+02 -0.29903356731E+02  0.26049099776E+00  0.31886029835E+02  0.00000000000E+00 0.  1.
         11    1    3    3    0    0  0.33482472549E+01 -0.46217991701E+01 -0.12059384077E+02  0.13341683995E+02  0.51100000000E-03 0. -1.
        -11    1    3    3    0    0  0.71428530856E+01  0.23313402701E+02 -0.58205952126E+01  0.25068195479E+02  0.51100000000E-03 0.  1.
        -12    1    3    3    0    0  0.57417413819E+00  0.11211753200E+02  0.17619488292E+02  0.20892090691E+02  0.00000000000E+00 0.  1.
</event>
<event>
 7    1  0.1338132E-011  0.5930199E+02  0.7816164E-02  0.1266605E+00
        -11   -1    0    0    0    0  0.00000000000E+00  0.00000000000E+00  0.45593999997E+02  0.45594000000E+02  0.51100000000E-03 0.  1.
         11   -1    0    0    0    0 -0.00000000000E+00 -0.00000000000E+00 -0.45593999997E+02  0.45594000000E+02  0.51100000000E-03 0. -1.
    9900012    2    1    2    0    0 -0.11502641991E+02  0.16429068956E+02 -0.24788961265E+02  0.59301989272E+02  0.50000082515E+02 0.  0.
        -12    1    1    2    0    0  0.11502641991E+02 -0.16429068956E+02  0.24788961265E+02  0.31886010728E+02  0.00000000000E+00 0.  1.
         11    1    3    3    0    0  0.26109283385E+01  0.91903200685E+01 -0.16171496210E+02  0.18782870379E+02  0.51100000000E-03 0. -1.
        -11    1    3    3    0    0 -0.10688236387E+02  0.21732795479E+02 -0.22546535359E+01  0.24323574146E+02  0.51100000000E-03 0.  1.
        -12    1    3    3    0    0 -0.34253339426E+01 -0.14494046592E+02 -0.63628115195E+01  0.16195544747E+02  0.00000000000E+00 0.  1.
</event>
<event>
 7    1  0.1338132E-011  0.5930196E+02  0.7816164E-02  0.1266605E+00
        -11   -1    0    0    0    0  0.00000000000E+00  0.00000000000E+00  0.45593999997E+02  0.45594000000E+02  0.51100000000E-03 0.  1.
         11   -1    0    0    0    0 -0.00000000000E+00 -0.00000000000E+00 -0.45593999997E+02  0.45594000000E+02  0.51100000000E-03 0. -1.
    9900012    2    1    2    0    0 -0.27533011293E+02  0.15439618727E+02  0.45023470131E+01  0.59301958133E+02  0.50000025724E+02 0.  0.
        -12    1    1    2    0    0  0.27533011293E+02 -0.15439618727E+02 -0.45023470131E+01  0.31886041867E+02  0.00000000000E+00 0.  1.
         11    1    3    3    0    0  0.15121249786E+01  0.79992642786E+01 -0.33424064123E+01  0.88003654376E+01  0.51100000000E-03 0. -1.
        -11    1    3    3    0    0 -0.98189111479E+01  0.68457028553E+01 -0.15926222274E+02  0.19922831623E+02  0.51100000000E-03 0.  1.
        -12    1    3    3    0    0 -0.19226225124E+02  0.59465159329E+00  0.23770975699E+02  0.30578761072E+02  0.00000000000E+00 0.  1.
</event>
<event>
 7    1  0.1338132E-011  0.5930197E+02  0.7816164E-02  0.1266605E+00
        -11   -1    0    0    0    0  0.00000000000E+00  0.00000000000E+00  0.45593999997E+02  0.45594000000E+02  0.51100000000E-03 0. -1.
         11   -1    0    0    0    0 -0.00000000000E+00 -0.00000000000E+00 -0.45593999997E+02  0.45594000000E+02  0.51100000000E-03 0.  1.
    9900012    2    1    2    0    0  0.29481343435E+02 -0.44269307133E+00  0.12139743881E+02  0.59301969055E+02  0.50000045644E+02 0.  0.
        -12    1    1    2    0    0 -0.29481343435E+02  0.44269307133E+00 -0.12139743881E+02  0.31886030945E+02  0.00000000000E+00 0.  1.
         11    1    3    3    0    0 -0.31646578512E+01 -0.70676053424E+01 -0.24888229356E+01  0.81339009373E+01  0.51100000000E-03 0. -1.
        -11    1    3    3    0    0  0.45142364442E+00 -0.96945060623E+01 -0.40627194988E+01  0.10521070339E+02  0.51100000000E-03 0.  1.
         12    1    3    3    0    0  0.32194577642E+02  0.16319418333E+02  0.18691286315E+02  0.40646997779E+02  0.00000000000E+00 0. -1.
</event>
<event>
 7    1  0.1338132E-011  0.5930198E+02  0.7816164E-02  0.1266605E+00
        -11   -1    0    0    0    0  0.00000000000E+00  0.00000000000E+00  0.45593999997E+02  0.45594000000E+02  0.51100000000E-03 0. -1.
         11   -1    0    0    0    0 -0.00000000000E+00 -0.00000000000E+00 -0.45593999997E+02  0.45594000000E+02  0.51100000000E-03 0.  1.
    9900012    2    1    2    0    0  0.19976685618E+02  0.12195419878E+02  0.21654602901E+02  0.59301983299E+02  0.50000071621E+02 0.  0.
        -12    1    1    2    0    0 -0.19976685618E+02 -0.12195419878E+02 -0.21654602901E+02  0.31886016701E+02  0.00000000000E+00 0.  1.
         11    1    3    3    0    0 -0.17036870856E+01 -0.75043401638E-01  0.48625491156E+01  0.51529181403E+01  0.51100000000E-03 0. -1.
        -11    1    3    3    0    0  0.24702577858E+02 -0.10858007679E+02  0.32519878594E+01  0.27178835679E+02  0.51100000000E-03 0.  1.
         12    1    3    3    0    0 -0.30222051542E+01  0.23128470959E+02  0.13540065926E+02  0.26970229479E+02  0.00000000000E+00 0. -1.
</event>
<event>
 7    1  0.1338132E-011  0.5930195E+02  0.7816164E-02  0.1266605E+00
        -11   -1    0    0    0    0  0.00000000000E+00  0.00000000000E+00  0.45593999997E+02  0.45594000000E+02  0.51100000000E-03 0.  1.
         11   -1    0    0    0    0 -0.00000000000E+00 -0.00000000000E+00 -0.45593999997E+02  0.45594000000E+02  0.51100000000E-03 0. -1.
    9900012    2    1    2    0    0  0.23862823291E+02 -0.21968383200E+01 -0.21034734260E+02  0.59301945377E+02  0.50000002461E+02 0.  0.
        -12    1    1    2    0    0 -0.23862823291E+02  0.21968383200E+01  0.21034734260E+02  0.31886054623E+02  0.00000000000E+00 0.  1.
         11    1    3    3    0    0 -0.55530106801E+01 -0.69754235007E+00 -0.10992981954E+02  0.12335645319E+02  0.51100000000E-03 0. -1.
        -11    1    3    3    0    0 -0.34016672387E+01 -0.96050689469E+01 -0.82576187146E+01  0.13115523496E+02  0.51100000000E-03 0.  1.
         12    1    3    3    0    0  0.32817501209E+02  0.81057729770E+01 -0.17841335917E+01  0.33850776562E+02  0.00000000000E+00 0. -1.
</event>
<event>
 7    1  0.1338132E-011  0.5930194E+02  0.7816164E-02  0.1266605E+00
        -11   -1    0    0    0    0  0.00000000000E+00  0.00000000000E+00  0.45593999997E+02  0.45594000000E+02  0.51100000000E-03 0. -1.
         11   -1    0    0    0    0 -0.00000000000E+00 -0.00000000000E+00 -0.45593999997E+02  0.45594000000E+02  0.51100000000E-03 0.  1.
    9900012    2    1    2    0    0 -0.24398141178E+02  0.14049496589E+02  0.14968731367E+02  0.59301944018E+02  0.49999999983E+02 0.  0.
        -12    1    1    2    0    0  0.24398141178E+02 -0.14049496589E+02 -0.14968731367E+02  0.31886055982E+02  0.00000000000E+00 0.  1.
         11    1    3    3    0    0 -0.40745684684E+01  0.40774999819E+00  0.10050973535E+00  0.40961531628E+01  0.51100000000E-03 0. -1.
        -11    1    3    3    0    0 -0.17400544835E+02  0.19564765385E+02 -0.11079306581E+02  0.28430793864E+02  0.51100000000E-03 0.  1.
         12    1    3    3    0    0 -0.29230278741E+01 -0.59230187938E+01  0.25947528213E+02  0.26774996992E+02  0.00000000000E+00 0. -1.
</event>
<event>
 7    1  0.1338132E-011  0.5930192E+02  0.7816164E-02  0.1266605E+00
        -11   -1    0    0    0    0  0.00000000000E+00  0.00000000000E+00  0.45593999997E+02  0.45594000000E+02  0.51100000000E-03 0.  1.
         11   -1    0    0    0    0 -0.00000000000E+00 -0.00000000000E+00 -0.45593999997E+02  0.45594000000E+02  0.51100000000E-03 0. -1.
    9900012    2    1    2    0    0 -0.18044619509E+02 -0.11155966851E+02 -0.23804582770E+02  0.59301920742E+02  0.49999957532E+02 0.  0.
        -12    1    1    2    0    0  0.18044619509E+02  0.11155966851E+02  0.23804582770E+02  0.31886079258E+02  0.00000000000E+00 0.  1.
         11    1    3    3    0    0 -0.13839238241E+02 -0.35669471423E+01 -0.12420586132E+02  0.18934587060E+02  0.51100000000E-03 0. -1.
        -11    1    3    3    0    0 -0.18972734166E+02 -0.20235340454E+01  0.26313822785E+01  0.19260932083E+02  0.51100000000E-03 0.  1.
         12    1    3    3    0    0  0.14767352897E+02 -0.55654856638E+01 -0.14015378917E+02  0.21106401599E+02  0.00000000000E+00 0. -1.
</event>
<event>
 7    1  0.1763235E-011  0.5930200E+02  0.7816164E-02  0.1266605E+00
        -11   -1    0    0    0    0  0.00000000000E+00  0.00000000000E+00  0.45593999997E+02  0.45594000000E+02  0.51100000000E-03 0.  1.
         11   -1    0    0    0    0 -0.00000000000E+00 -0.00000000000E+00 -0.45593999997E+02  0.45594000000E+02  0.51100000000E-03 0. -1.
    9900012    2    1    2    0    0 -0.31046573837E+02 -0.19159183290E+01  0.70111900280E+01  0.59301995614E+02  0.50000094082E+02 0.  0.
        -12    1    1    2    0    0  0.31046573837E+02  0.19159183290E+01 -0.70111900280E+01  0.31886004386E+02  0.00000000000E+00 0.  1.
         11    1    3    3    0    0 -0.26935172279E+02  0.54613890826E+00 -0.11071628916E+02  0.29127010497E+02  0.51100000000E-03 0. -1.
        -11    1    3    3    0    0  0.48769464333E+01  0.56889296122E+01 -0.10015799546E+01  0.75598736307E+01  0.51100000000E-03 0.  1.
        -12    1    3    3    0    0 -0.89883479917E+01 -0.81509868494E+01  0.19084398898E+02  0.22615111487E+02  0.00000000000E+00 0.  1.
</event>
<event>
 7    1  0.1338132E-011  0.5930195E+02  0.7816164E-02  0.1266605E+00
        -11   -1    0    0    0    0  0.00000000000E+00  0.00000000000E+00  0.45593999997E+02  0.45594000000E+02  0.51100000000E-03 0.  1.
         11   -1    0    0    0    0 -0.00000000000E+00 -0.00000000000E+00 -0.45593999997E+02  0.45594000000E+02  0.51100000000E-03 0. -1.
    9900012    2    1    2    0    0  0.10898225844E+02  0.15122397177E+02 -0.25870093319E+02  0.59301953660E+02  0.50000017566E+02 0.  0.
        -12    1    1    2    0    0 -0.10898225844E+02 -0.15122397177E+02  0.25870093319E+02  0.31886046340E+02  0.00000000000E+00 0.  1.
         11    1    3    3    0    0 -0.42328207450E+01  0.24722378258E+00 -0.24034229724E+00  0.42468406774E+01  0.51100000000E-03 0. -1.
        -11    1    3    3    0    0 -0.83373539137E+01  0.86314658171E+00  0.80895790072E+01  0.11648939054E+02  0.51100000000E-03 0.  1.
        -12    1    3    3    0    0  0.23468400502E+02  0.14012026812E+02 -0.33719330029E+02  0.43406173928E+02  0.00000000000E+00 0.  1.
</event>
<event>
 7    1  0.1338132E-011  0.5930196E+02  0.7816164E-02  0.1266605E+00
        -11   -1    0    0    0    0  0.00000000000E+00  0.00000000000E+00  0.45593999997E+02  0.45594000000E+02  0.51100000000E-03 0.  1.
         11   -1    0    0    0    0 -0.00000000000E+00 -0.00000000000E+00 -0.45593999997E+02  0.45594000000E+02  0.51100000000E-03 0. -1.
    9900012    2    1    2    0    0  0.22486188575E+02 -0.17868597845E+02 -0.13849335295E+02  0.59301959893E+02  0.50000028934E+02 0.  0.
        -12    1    1    2    0    0 -0.22486188575E+02  0.17868597845E+02  0.13849335295E+02  0.31886040107E+02  0.00000000000E+00 0.  1.
         11    1    3    3    0    0  0.10752093040E+02 -0.17031576274E+02 -0.13267393671E+01  0.20185200834E+02  0.51100000000E-03 0. -1.
        -11    1    3    3    0    0 -0.54910732874E+01 -0.23555239746E+01  0.94349603328E+01  0.11167759658E+02  0.51100000000E-03 0.  1.
         12    1    3    3    0    0  0.17225168823E+02  0.15185024031E+01 -0.21957556261E+02  0.27948999400E+02  0.00000000000E+00 0. -1.
</event>
<event>
 7    1  0.1338132E-011  0.5930194E+02  0.7816164E-02  0.1266605E+00
        -11   -1    0    0    0    0  0.00000000000E+00  0.00000000000E+00  0.45593999997E+02  0.45594000000E+02  0.51100000000E-03 0.  1.
         11   -1    0    0    0    0 -0.00000000000E+00 -0.00000000000E+00 -0.45593999997E+02  0.45594000000E+02  0.51100000000E-03 0. -1.
    9900012    2    1    2    0    0 -0.80481800347E+01  0.13799727115E+02 -0.27595564353E+02  0.59301939687E+02  0.49999992083E+02 0.  0.
        -12    1    1    2    0    0  0.80481800347E+01 -0.13799727115E+02  0.27595564353E+02  0.31886060313E+02  0.00000000000E+00 0.  1.
         11    1    3    3    0    0  0.13505744414E+02  0.91447426400E+01 -0.41338747955E+01  0.16826181124E+02  0.51100000000E-03 0. -1.
        -11    1    3    3    0    0 -0.83336752079E+01  0.25342454428E+01 -0.27211237371E+02  0.28571383970E+02  0.51100000000E-03 0.  1.
         12    1    3    3    0    0 -0.13220249240E+02  0.21207390324E+01  0.37495478136E+01  0.13904374593E+02  0.00000000000E+00 0. -1.
</event>
<event>
 7    1  0.1338132E-011  0.5930195E+02  0.7816164E-02  0.1266605E+00
        -11   -1    0    0    0    0  0.00000000000E+00  0.00000000000E+00  0.45593999997E+02  0.45594000000E+02  0.51100000000E-03 0.  1.
         11   -1    0    0    0    0 -0.00000000000E+00 -0.00000000000E+00 -0.45593999997E+02  0.45594000000E+02  0.51100000000E-03 0. -1.
    9900012    2    1    2    0    0 -0.15330175456E+02  0.12779315807E+02 -0.24867547047E+02  0.59301951512E+02  0.50000013650E+02 0.  0.
        -12    1    1    2    0    0  0.15330175456E+02 -0.12779315807E+02  0.24867547047E+02  0.31886048488E+02  0.00000000000E+00 0.  1.
         11    1    3    3    0    0 -0.17577904913E+02  0.26666761635E+02 -0.21908799043E+02  0.38731052052E+02  0.51100000000E-03 0. -1.
        -11    1    3    3    0    0 -0.19646203404E+01  0.25211932833E+01 -0.16038633507E+01  0.35761049429E+01  0.51100000000E-03 0.  1.
        -12    1    3    3    0    0  0.42123497972E+01 -0.16408639111E+02 -0.13548846528E+01  0.16994794518E+02  0.00000000000E+00 0.  1.
</event>
<event>
 7    1  0.1338132E-011  0.5930194E+02  0.7816164E-02  0.1266605E+00
        -11   -1    0    0    0    0  0.00000000000E+00  0.00000000000E+00  0.45593999997E+02  0.45594000000E+02  0.51100000000E-03 0.  1.
         11   -1    0    0    0    0 -0.00000000000E+00 -0.00000000000E+00 -0.45593999997E+02  0.45594000000E+02  0.51100000000E-03 0. -1.
    9900012    2    1    2    0    0  0.16856406159E+02 -0.15436456104E+02 -0.22232821412E+02  0.59301937941E+02  0.49999988900E+02 0.  0.
        -12    1    1    2    0    0 -0.16856406159E+02  0.15436456104E+02  0.22232821412E+02  0.31886062059E+02  0.00000000000E+00 0.  1.
         11    1    3    3    0    0  0.11231045183E+02 -0.95186433273E+01 -0.14868147090E+02  0.20923736398E+02  0.51100000000E-03 0. -1.
        -11    1    3    3    0    0  0.12441673767E+02 -0.19106213565E+02 -0.50575313082E+01  0.23354255846E+02  0.51100000000E-03 0.  1.
        -12    1    3    3    0    0 -0.68163127908E+01  0.13188400789E+02 -0.23071430138E+01  0.15023945697E+02  0.00000000000E+00 0.  1.
</event>
<event>
 7    1  0.1338132E-011  0.5930195E+02  0.7816164E-02  0.1266605E+00
        -11   -1    0    0    0    0  0.00000000000E+00  0.00000000000E+00  0.45593999997E+02  0.45594000000E+02  0.51100000000E-03 0. -1.
         11   -1    0    0    0    0 -0.00000000000E+00 -0.00000000000E+00 -0.45593999997E+02  0.45594000000E+02  0.51100000000E-03 0.  1.
    9900012    2    1    2    0    0 -0.12616781610E+02 -0.26624336076E+02  0.12193524117E+02  0.59301945367E+02  0.50000002443E+02 0.  0.
        -12    1    1    2    0    0  0.12616781610E+02  0.26624336076E+02 -0.12193524117E+02  0.31886054633E+02  0.00000000000E+00 0.  1.
         11    1    3    3    0    0 -0.13525118382E+02 -0.21979582150E+02  0.18344378078E+02  0.31663023641E+02  0.51100000000E-03 0. -1.
        -11    1    3    3    0    0  0.10706030029E+02  0.29144634762E+01  0.38327473073E+01  0.11738957727E+02  0.51100000000E-03 0.  1.
        -12    1    3    3    0    0 -0.97976932574E+01 -0.75592174015E+01 -0.99836012686E+01  0.15899963999E+02  0.00000000000E+00 0.  1.
</event>
<event>
 7    1  0.1338132E-011  0.5930195E+02  0.7816164E-02  0.1266605E+00
        -11   -1    0    0    0    0  0.00000000000E+00  0.00000000000E+00  0.45593999997E+02  0.45594000000E+02  0.51100000000E-03 0.  1.
         11   -1    0    0    0    0 -0.00000000000E+00 -0.00000000000E+00 -0.45593999997E+02  0.45594000000E+02  0.51100000000E-03 0. -1.
    9900012    2    1    2    0    0 -0.21405915232E+02  0.21232861407E+02  0.10376554179E+02  0.59301945257E+02  0.50000002241E+02 0.  0.
        -12    1    1    2    0    0  0.21405915232E+02 -0.21232861407E+02 -0.10376554179E+02  0.31886054743E+02  0.00000000000E+00 0.  1.
         11    1    3    3    0    0 -0.30109605492E+02  0.10672628768E+02  0.31860230573E+01  0.32103646068E+02  0.51100000000E-03 0. -1.
        -11    1    3    3    0    0  0.14854985615E+01 -0.57104720734E+01  0.73146894703E+01  0.93979188965E+01  0.51100000000E-03 0.  1.
        -12    1    3    3    0    0  0.72181916983E+01  0.16270704712E+02 -0.12415834837E+00  0.17800380292E+02  0.00000000000E+00 0.  1.
</event>
<event>
 7    1  0.1338132E-011  0.5930193E+02  0.7816164E-02  0.1266605E+00
        -11   -1    0    0    0    0  0.00000000000E+00  0.00000000000E+00  0.45593999997E+02  0.45594000000E+02  0.51100000000E-03 0. -1.
         11   -1    0    0    0    0 -0.00000000000E+00 -0.00000000000E+00 -0.45593999997E+02  0.45594000000E+02  0.51100000000E-03 0.  1.
    9900012    2    1    2    0    0  0.94770675688E+01 -0.18704420039E+02  0.24021888402E+02  0.59301933120E+02  0.49999980106E+02 0.  0.
        -12    1    1    2    0    0 -0.94770675688E+01  0.18704420039E+02 -0.24021888402E+02  0.31886066880E+02  0.00000000000E+00 0.  1.
         11    1    3    3    0    0  0.21628591978E+02 -0.10608233883E+01  0.16727131090E+02  0.27362716458E+02  0.51100000000E-03 0. -1.
        -11    1    3    3    0    0  0.21264339749E+01 -0.14922497348E+02  0.85858792491E+01  0.17347045031E+02  0.51100000000E-03 0.  1.
        -12    1    3    3    0    0 -0.14277958384E+02 -0.27210993024E+01 -0.12911219371E+01  0.14592171631E+02  0.00000000000E+00 0.  1.
</event>
<event>
 7    1  0.1338132E-011  0.5930197E+02  0.7816164E-02  0.1266605E+00
        -11   -1    0    0    0    0  0.00000000000E+00  0.00000000000E+00  0.45593999997E+02  0.45594000000E+02  0.51100000000E-03 0.  1.
         11   -1    0    0    0    0 -0.00000000000E+00 -0.00000000000E+00 -0.45593999997E+02  0.45594000000E+02  0.51100000000E-03 0. -1.
    9900012    2    1    2    0    0 -0.22977593402E+02  0.14624125785E+02 -0.16579624304E+02  0.59301971781E+02  0.50000050616E+02 0.  0.
        -12    1    1    2    0    0  0.22977593402E+02 -0.14624125785E+02  0.16579624304E+02  0.31886028219E+02  0.00000000000E+00 0.  1.
         11    1    3    3    0    0 -0.10370850113E+02  0.25183406888E+01  0.89439423400E+01  0.13924463247E+02  0.51100000000E-03 0. -1.
        -11    1    3    3    0    0 -0.15340229396E+02 -0.76671962400E+01 -0.15144456969E+02  0.22879316276E+02  0.51100000000E-03 0.  1.
         12    1    3    3    0    0  0.27334861075E+01  0.19772981336E+02 -0.10379109675E+02  0.22498192258E+02  0.00000000000E+00 0. -1.
</event>
<event>
 7    1  0.1338132E-011  0.5930201E+02  0.7816164E-02  0.1266605E+00
        -11   -1    0    0    0    0  0.00000000000E+00  0.00000000000E+00  0.45593999997E+02  0.45594000000E+02  0.51100000000E-03 0. -1.
         11   -1    0    0    0    0 -0.00000000000E+00 -0.00000000000E+00 -0.45593999997E+02  0.45594000000E+02  0.51100000000E-03 0.  1.
    9900012    2    1    2    0    0  0.20799114901E+02 -0.21472407969E+02 -0.11092734777E+02  0.59302011706E+02  0.50000123428E+02 0.  0.
        -12    1    1    2    0    0 -0.20799114901E+02  0.21472407969E+02  0.11092734777E+02  0.31885988294E+02  0.00000000000E+00 0.  1.
         11    1    3    3    0    0  0.86023334773E+00 -0.10318060256E+02  0.43631181211E+01  0.11235620538E+02  0.51100000000E-03 0.  1.
        -11    1    3    3    0    0  0.97528865590E+01 -0.17812384348E+02  0.78522179296E+01  0.21772853719E+02  0.51100000000E-03 0. -1.
        -12    1    3    3    0    0  0.10185994995E+02  0.66580366353E+01 -0.23308070828E+02  0.26293537449E+02  0.00000000000E+00 0.  1.
</event>
<event>
 7    1  0.1338132E-011  0.5930194E+02  0.7816164E-02  0.1266605E+00
        -11   -1    0    0    0    0  0.00000000000E+00  0.00000000000E+00  0.45593999997E+02  0.45594000000E+02  0.51100000000E-03 0.  1.
         11   -1    0    0    0    0 -0.00000000000E+00 -0.00000000000E+00 -0.45593999997E+02  0.45594000000E+02  0.51100000000E-03 0. -1.
    9900012    2    1    2    0    0  0.27071830123E+02 -0.12476522848E+02 -0.11321368437E+02  0.59301937341E+02  0.49999987805E+02 0.  0.
        -12    1    1    2    0    0 -0.27071830123E+02  0.12476522848E+02  0.11321368437E+02  0.31886062659E+02  0.00000000000E+00 0.  1.
         11    1    3    3    0    0  0.17187879030E+02 -0.34283008771E+01  0.17193874084E+01  0.17610585617E+02  0.51100000000E-03 0. -1.
        -11    1    3    3    0    0  0.22931389385E+02 -0.51186252708E+01 -0.10155431221E+01  0.23517658725E+02  0.51100000000E-03 0.  1.
         12    1    3    3    0    0 -0.13047438292E+02 -0.39295967001E+01 -0.12025212723E+02  0.18173693000E+02  0.00000000000E+00 0. -1.
</event>
<event>
 7    1  0.1338132E-011  0.5930209E+02  0.7816164E-02  0.1266604E+00
        -11   -1    0    0    0    0  0.00000000000E+00  0.00000000000E+00  0.45593999997E+02  0.45594000000E+02  0.51100000000E-03 0. -1.
         11   -1    0    0    0    0 -0.00000000000E+00 -0.00000000000E+00 -0.45593999997E+02  0.45594000000E+02  0.51100000000E-03 0.  1.
    9900012    2    1    2    0    0  0.11656352581E+02 -0.29664689452E+02 -0.92013711990E+00  0.59302093896E+02  0.50000273322E+02 0.  0.
        -12    1    1    2    0    0 -0.11656352581E+02  0.29664689452E+02  0.92013711990E+00  0.31885906104E+02  0.00000000000E+00 0.  1.
         11    1    3    3    0    0  0.83624786402E+00 -0.12164813113E+02  0.13876297492E+02  0.18472509871E+02  0.51100000000E-03 0.  1.
        -11    1    3    3    0    0  0.20403382533E+02 -0.52416739778E+01 -0.29456850146E+01  0.21270877400E+02  0.51100000000E-03 0. -1.
        -12    1    3    3    0    0 -0.95832778165E+01 -0.12258202361E+02 -0.11850749597E+02  0.19558706625E+02  0.00000000000E+00 0.  1.
</event>
<event>
 7    1  0.1338132E-011  0.5930193E+02  0.7816164E-02  0.1266605E+00
        -11   -1    0    0    0    0  0.00000000000E+00  0.00000000000E+00  0.45593999997E+02  0.45594000000E+02  0.51100000000E-03 0. -1.
         11   -1    0    0    0    0 -0.00000000000E+00 -0.00000000000E+00 -0.45593999997E+02  0.45594000000E+02  0.51100000000E-03 0.  1.
    9900012    2    1    2    0    0  0.80603474158E+01  0.30360915247E+02  0.54742115293E+01  0.59301931460E+02  0.49999977079E+02 0.  0.
        -12    1    1    2    0    0 -0.80603474158E+01 -0.30360915247E+02 -0.54742115293E+01  0.31886068540E+02  0.00000000000E+00 0.  1.
         11    1    3    3    0    0  0.14200310053E+02  0.35074104473E+01  0.18421798805E+02  0.23522614759E+02  0.51100000000E-03 0. -1.
        -11    1    3    3    0    0  0.24684068127E+00 -0.21783009275E+01 -0.42908519357E+01  0.48184370753E+01  0.51100000000E-03 0.  1.
        -12    1    3    3    0    0 -0.63868033189E+01  0.29031805727E+02 -0.86567353397E+01  0.30960879625E+02  0.00000000000E+00 0.  1.
</event>
<event>
 7    1  0.1338132E-011  0.5930194E+02  0.7816164E-02  0.1266605E+00
        -11   -1    0    0    0    0  0.00000000000E+00  0.00000000000E+00  0.45593999997E+02  0.45594000000E+02  0.51100000000E-03 0. -1.
         11   -1    0    0    0    0 -0.00000000000E+00 -0.00000000000E+00 -0.45593999997E+02  0.45594000000E+02  0.51100000000E-03 0.  1.
    9900012    2    1    2    0    0 -0.15506711978E+02  0.27579436329E+02  0.39544067237E+01  0.59301941022E+02  0.49999994519E+02 0.  0.
        -12    1    1    2    0    0  0.15506711978E+02 -0.27579436329E+02 -0.39544067237E+01  0.31886058978E+02  0.00000000000E+00 0.  1.
         11    1    3    3    0    0 -0.17988498880E+02  0.26146975134E+02 -0.10754293970E+01  0.31755423935E+02  0.51100000000E-03 0. -1.
        -11    1    3    3    0    0 -0.65366903044E+01 -0.15239562145E+01  0.13338943297E+02  0.14932453623E+02  0.51100000000E-03 0.  1.
        -12    1    3    3    0    0  0.90184772066E+01  0.29564174096E+01 -0.83091071759E+01  0.12614063465E+02  0.00000000000E+00 0.  1.
</event>
<event>
 7    1  0.1338132E-011  0.5930193E+02  0.7816164E-02  0.1266605E+00
        -11   -1    0    0    0    0  0.00000000000E+00  0.00000000000E+00  0.45593999997E+02  0.45594000000E+02  0.51100000000E-03 0.  1.
         11   -1    0    0    0    0 -0.00000000000E+00 -0.00000000000E+00 -0.45593999997E+02  0.45594000000E+02  0.51100000000E-03 0. -1.
    9900012    2    1    2    0    0  0.35617619224E+01 -0.21317251132E+02  0.23443760755E+02  0.59301933104E+02  0.49999980077E+02 0.  0.
        -12    1    1    2    0    0 -0.35617619224E+01  0.21317251132E+02 -0.23443760755E+02  0.31886066896E+02  0.00000000000E+00 0.  1.
         11    1    3    3    0    0  0.11320068364E+02 -0.52968473397E+01 -0.46964706387E+01  0.13351306162E+02  0.51100000000E-03 0. -1.
        -11    1    3    3    0    0  0.10869932836E+02 -0.11441697435E+01  0.30646218854E+01  0.11351496458E+02  0.51100000000E-03 0.  1.
        -12    1    3    3    0    0 -0.18628239278E+02 -0.14876234048E+02  0.25075609508E+02  0.34599130484E+02  0.00000000000E+00 0.  1.
</event>
<event>
 7    1  0.1338132E-011  0.5930194E+02  0.7816164E-02  0.1266605E+00
        -11   -1    0    0    0    0  0.00000000000E+00  0.00000000000E+00  0.45593999997E+02  0.45594000000E+02  0.51100000000E-03 0.  1.
         11   -1    0    0    0    0 -0.00000000000E+00 -0.00000000000E+00 -0.45593999997E+02  0.45594000000E+02  0.51100000000E-03 0. -1.
    9900012    2    1    2    0    0  0.23404114873E+02 -0.19748019379E+02  0.88872967606E+01  0.59301938686E+02  0.49999990258E+02 0.  0.
        -12    1    1    2    0    0 -0.23404114873E+02  0.19748019379E+02 -0.88872967606E+01  0.31886061314E+02  0.00000000000E+00 0.  1.
         11    1    3    3    0    0  0.24251701070E+02 -0.97328621531E+01  0.15980665665E+02  0.30630953068E+02  0.51100000000E-03 0. -1.
        -11    1    3    3    0    0 -0.23575413857E+00 -0.16329069821E+02  0.31410385806E+01  0.16630099966E+02  0.51100000000E-03 0.  1.
         12    1    3    3    0    0 -0.61183205848E+00  0.63139125957E+01 -0.10234407485E+02  0.12040885652E+02  0.00000000000E+00 0. -1.
</event>
<event>
 7    1  0.1338132E-011  0.5930194E+02  0.7816164E-02  0.1266605E+00
        -11   -1    0    0    0    0  0.00000000000E+00  0.00000000000E+00  0.45593999997E+02  0.45594000000E+02  0.51100000000E-03 0.  1.
         11   -1    0    0    0    0 -0.00000000000E+00 -0.00000000000E+00 -0.45593999997E+02  0.45594000000E+02  0.51100000000E-03 0. -1.
    9900012    2    1    2    0    0  0.38570891752E+01 -0.83422704544E+01 -0.30532769577E+02  0.59301942996E+02  0.49999998118E+02 0.  0.
        -12    1    1    2    0    0 -0.38570891752E+01  0.83422704544E+01  0.30532769577E+02  0.31886057004E+02  0.00000000000E+00 0.  1.
         11    1    3    3    0    0 -0.66724103932E+01  0.46526313589E+01 -0.21267867736E+02  0.22770380702E+02  0.51100000000E-03 0. -1.
        -11    1    3    3    0    0  0.12890762186E+02 -0.82886278031E+00 -0.17426840517E+02  0.21692245940E+02  0.51100000000E-03 0.  1.
        -12    1    3    3    0    0 -0.23612626175E+01 -0.12166039033E+02  0.81619386759E+01  0.14839316354E+02  0.00000000000E+00 0.  1.
</event>
<event>
 7    1  0.1338132E-011  0.5930195E+02  0.7816164E-02  0.1266605E+00
        -11   -1    0    0    0    0  0.00000000000E+00  0.00000000000E+00  0.45593999997E+02  0.45594000000E+02  0.51100000000E-03 0.  1.
         11   -1    0    0    0    0 -0.00000000000E+00 -0.00000000000E+00 -0.45593999997E+02  0.45594000000E+02  0.51100000000E-03 0. -1.
    9900012    2    1    2    0    0 -0.24322683389E+02  0.16551412275E+02 -0.12295457491E+02  0.59301945831E+02  0.50000003289E+02 0.  0.
        -12    1    1    2    0    0  0.24322683389E+02 -0.16551412275E+02  0.12295457491E+02  0.31886054169E+02  0.00000000000E+00 0.  1.
         11    1    3    3    0    0 -0.95700036710E+01  0.63993525916E+01 -0.11609810048E+02  0.16350057293E+02  0.51100000000E-03 0. -1.
        -11    1    3    3    0    0  0.10787421240E+02  0.57671485051E+01 -0.95980324335E+01  0.15548333857E+02  0.51100000000E-03 0.  1.
         12    1    3    3    0    0 -0.25540100957E+02  0.43849111783E+01  0.89123849905E+01  0.27403554681E+02  0.00000000000E+00 0. -1.
</event>
<event>
 7    1  0.1338132E-011  0.5930195E+02  0.7816164E-02  0.1266605E+00
        -11   -1    0    0    0    0  0.00000000000E+00  0.00000000000E+00  0.45593999997E+02  0.45594000000E+02  0.51100000000E-03 0. -1.
         11   -1    0    0    0    0 -0.00000000000E+00 -0.00000000000E+00 -0.45593999997E+02  0.45594000000E+02  0.51100000000E-03 0.  1.
    9900012    2    1    2    0    0  0.29855065571E+01  0.31742018063E+02 -0.50139611736E+00  0.59301947279E+02  0.50000005929E+02 0.  0.
        -12    1    1    2    0    0 -0.29855065571E+01 -0.31742018063E+02  0.50139611736E+00  0.31886052721E+02  0.00000000000E+00 0.  1.
         11    1    3    3    0    0  0.10143525554E+01  0.19080542687E+02 -0.86299967537E+01  0.20965993050E+02  0.51100000000E-03 0. -1.
        -11    1    3    3    0    0  0.92507618162E+01  0.42066929468E+01 -0.11753366693E+02  0.15537518740E+02  0.51100000000E-03 0.  1.
         12    1    3    3    0    0 -0.72796078146E+01  0.84547824289E+01  0.19881967329E+02  0.22798435489E+02  0.00000000000E+00 0. -1.
</event>
<event>
 7    1  0.1338132E-011  0.5930194E+02  0.7816164E-02  0.1266605E+00
        -11   -1    0    0    0    0  0.00000000000E+00  0.00000000000E+00  0.45593999997E+02  0.45594000000E+02  0.51100000000E-03 0. -1.
         11   -1    0    0    0    0 -0.00000000000E+00 -0.00000000000E+00 -0.45593999997E+02  0.45594000000E+02  0.51100000000E-03 0.  1.
    9900012    2    1    2    0    0  0.12803025142E+02  0.48377135096E+01  0.28799299629E+02  0.59301943738E+02  0.49999999472E+02 0.  0.
        -12    1    1    2    0    0 -0.12803025142E+02 -0.48377135096E+01 -0.28799299629E+02  0.31886056262E+02  0.00000000000E+00 0.  1.
         11    1    3    3    0    0 -0.11103456741E+02 -0.97476891870E+00  0.41805272180E+01  0.11904357779E+02  0.51100000000E-03 0. -1.
        -11    1    3    3    0    0  0.25833864807E+02 -0.74548899031E+01  0.14124716062E+02  0.30372216884E+02  0.51100000000E-03 0.  1.
         12    1    3    3    0    0 -0.19273829242E+01  0.13267372331E+02  0.10494056349E+02  0.17025369076E+02  0.00000000000E+00 0. -1.
</event>
<event>
 7    1  0.1338132E-011  0.5930194E+02  0.7816164E-02  0.1266605E+00
        -11   -1    0    0    0    0  0.00000000000E+00  0.00000000000E+00  0.45593999997E+02  0.45594000000E+02  0.51100000000E-03 0. -1.
         11   -1    0    0    0    0 -0.00000000000E+00 -0.00000000000E+00 -0.45593999997E+02  0.45594000000E+02  0.51100000000E-03 0.  1.
    9900012    2    1    2    0    0  0.24274119435E+02 -0.12688081411E+02  0.16324836692E+02  0.59301943843E+02  0.49999999663E+02 0.  0.
        -12    1    1    2    0    0 -0.24274119435E+02  0.12688081411E+02 -0.16324836692E+02  0.31886056157E+02  0.00000000000E+00 0.  1.
         11    1    3    3    0    0  0.20795731082E+02  0.57772741581E+01 -0.42994038729E+00  0.21587593125E+02  0.51100000000E-03 0. -1.
        -11    1    3    3    0    0 -0.11941427331E+01 -0.21794004436E+01 -0.76281446935E+01  0.80227398616E+01  0.51100000000E-03 0.  1.
         12    1    3    3    0    0  0.46725310863E+01 -0.16285955125E+02  0.24382921772E+02  0.29691610856E+02  0.00000000000E+00 0. -1.
</event>
<event>
 7    1  0.1338132E-011  0.5930190E+02  0.7816164E-02  0.1266605E+00
        -11   -1    0    0    0    0  0.00000000000E+00  0.00000000000E+00  0.45593999997E+02  0.45594000000E+02  0.51100000000E-03 0. -1.
         11   -1    0    0    0    0 -0.00000000000E+00 -0.00000000000E+00 -0.45593999997E+02  0.45594000000E+02  0.51100000000E-03 0.  1.
    9900012    2    1    2    0    0 -0.22735884420E+01 -0.17791165267E+02  0.26363389783E+02  0.59301904491E+02  0.49999927894E+02 0.  0.
        -12    1    1    2    0    0  0.22735884420E+01  0.17791165267E+02 -0.26363389783E+02  0.31886095509E+02  0.00000000000E+00 0.  1.
         11    1    3    3    0    0  0.52988090431E+01  0.12865654693E+01 -0.46185110664E+01  0.71458570314E+01  0.51100000000E-03 0. -1.
        -11    1    3    3    0    0  0.13377313242E+02 -0.28111770802E+01  0.38224819772E+01  0.14193892872E+02  0.51100000000E-03 0.  1.
         12    1    3    3    0    0 -0.20949710727E+02 -0.16266553656E+02  0.27159418872E+02  0.37962154587E+02  0.00000000000E+00 0. -1.
</event>
<event>
 7    1  0.1338132E-011  0.5930195E+02  0.7816164E-02  0.1266605E+00
        -11   -1    0    0    0    0  0.00000000000E+00  0.00000000000E+00  0.45593999997E+02  0.45594000000E+02  0.51100000000E-03 0. -1.
         11   -1    0    0    0    0 -0.00000000000E+00 -0.00000000000E+00 -0.45593999997E+02  0.45594000000E+02  0.51100000000E-03 0.  1.
    9900012    2    1    2    0    0  0.17371170524E+02 -0.22828812304E+02 -0.13921491229E+02  0.59301950471E+02  0.50000011750E+02 0.  0.
        -12    1    1    2    0    0 -0.17371170524E+02  0.22828812304E+02  0.13921491229E+02  0.31886049529E+02  0.00000000000E+00 0.  1.
         11    1    3    3    0    0 -0.77604125511E+01 -0.11883212829E+02 -0.33119742396E+01  0.14574083976E+02  0.51100000000E-03 0. -1.
        -11    1    3    3    0    0  0.70266962495E+01 -0.21267283923E+02 -0.32843734872E+01  0.22637555856E+02  0.51100000000E-03 0.  1.
        -12    1    3    3    0    0  0.18104886825E+02  0.10321684449E+02 -0.73251435019E+01  0.22090310639E+02  0.00000000000E+00 0.  1.
</event>
<event>
 7    1  0.1338132E-011  0.5930195E+02  0.7816164E-02  0.1266605E+00
        -11   -1    0    0    0    0  0.00000000000E+00  0.00000000000E+00  0.45593999997E+02  0.45594000000E+02  0.51100000000E-03 0. -1.
         11   -1    0    0    0    0 -0.00000000000E+00 -0.00000000000E+00 -0.45593999997E+02  0.45594000000E+02  0.51100000000E-03 0.  1.
    9900012    2    1    2    0    0  0.15244803268E+02 -0.19653574591E+02  0.19951277131E+02  0.59301945367E+02  0.50000002443E+02 0.  0.
        -12    1    1    2    0    0 -0.15244803268E+02  0.19653574591E+02 -0.19951277131E+02  0.31886054633E+02  0.00000000000E+00 0.  1.
         11    1    3    3    0    0  0.14870258680E+01  0.26246095692E+01  0.95799752026E+01  0.10043691874E+02  0.51100000000E-03 0. -1.
        -11    1    3    3    0    0 -0.14073712927E+02 -0.34539624449E+01  0.19750975474E+01  0.14625329490E+02  0.51100000000E-03 0.  1.
        -12    1    3    3    0    0  0.27831490326E+02 -0.18824221715E+02  0.83962043813E+01  0.34632924003E+02  0.00000000000E+00 0.  1.
</event>
<event>
 7    1  0.1338132E-011  0.5930194E+02  0.7816164E-02  0.1266605E+00
        -11   -1    0    0    0    0  0.00000000000E+00  0.00000000000E+00  0.45593999997E+02  0.45594000000E+02  0.51100000000E-03 0.  1.
         11   -1    0    0    0    0 -0.00000000000E+00 -0.00000000000E+00 -0.45593999997E+02  0.45594000000E+02  0.51100000000E-03 0. -1.
    9900012    2    1    2    0    0  0.10809924665E+02  0.17873656105E+02 -0.24091471080E+02  0.59301936702E+02  0.49999986640E+02 0.  0.
        -12    1    1    2    0    0 -0.10809924665E+02 -0.17873656105E+02  0.24091471080E+02  0.31886063298E+02  0.00000000000E+00 0.  1.
         11    1    3    3    0    0  0.26171560744E+01 -0.57775615506E+01 -0.97670642213E+00  0.64174511361E+01  0.51100000000E-03 0.  1.
        -11    1    3    3    0    0 -0.10213155005E+02 -0.24347709445E+01 -0.17588469582E+02  0.20483918258E+02  0.51100000000E-03 0. -1.
         12    1    3    3    0    0  0.18405923595E+02  0.26085988600E+02 -0.55262950758E+01  0.32400567309E+02  0.00000000000E+00 0. -1.
</event>
<event>
 7    1  0.1338132E-011  0.5930193E+02  0.7816164E-02  0.1266605E+00
        -11   -1    0    0    0    0  0.00000000000E+00  0.00000000000E+00  0.45593999997E+02  0.45594000000E+02  0.51100000000E-03 0. -1.
         11   -1    0    0    0    0 -0.00000000000E+00 -0.00000000000E+00 -0.45593999997E+02  0.45594000000E+02  0.51100000000E-03 0.  1.
    9900012    2    1    2    0    0  0.30680711602E+02  0.82683158455E+01  0.26552283854E+01  0.59301931739E+02  0.49999977589E+02 0.  0.
        -12    1    1    2    0    0 -0.30680711602E+02 -0.82683158455E+01 -0.26552283854E+01  0.31886068261E+02  0.00000000000E+00 0.  1.
         11    1    3    3    0    0  0.50124029371E+00 -0.11847518917E+01 -0.40115070325E+01  0.42127268853E+01  0.51100000000E-03 0. -1.
        -11    1    3    3    0    0  0.11001987877E+02 -0.11274967233E+02 -0.13207892694E+02  0.20557651934E+02  0.51100000000E-03 0.  1.
         12    1    3    3    0    0  0.19177483432E+02  0.20728034970E+02  0.19874628112E+02  0.34531552920E+02  0.00000000000E+00 0. -1.
</event>
<event>
 7    1  0.1338132E-011  0.5930196E+02  0.7816164E-02  0.1266605E+00
        -11   -1    0    0    0    0  0.00000000000E+00  0.00000000000E+00  0.45593999997E+02  0.45594000000E+02  0.51100000000E-03 0.  1.
         11   -1    0    0    0    0 -0.00000000000E+00 -0.00000000000E+00 -0.45593999997E+02  0.45594000000E+02  0.51100000000E-03 0. -1.
    9900012    2    1    2    0    0 -0.15730327958E+02 -0.88365960840E+01 -0.26290506333E+02  0.59301962754E+02  0.50000034151E+02 0.  0.
        -12    1    1    2    0    0  0.15730327958E+02  0.88365960840E+01  0.26290506333E+02  0.31886037246E+02  0.00000000000E+00 0.  1.
         11    1    3    3    0    0 -0.65175567913E+01  0.65905454577E+01  0.65882856194E+01  0.11371866321E+02  0.51100000000E-03 0. -1.
        -11    1    3    3    0    0 -0.11319351225E+02 -0.16422636421E+02 -0.58287838222E+01  0.20779928303E+02  0.51100000000E-03 0.  1.
         12    1    3    3    0    0  0.21065800581E+01  0.99549487970E+00 -0.27050008130E+02  0.27150168129E+02  0.00000000000E+00 0. -1.
</event>
<event>
 7    1  0.1338132E-011  0.5930195E+02  0.7816164E-02  0.1266605E+00
        -11   -1    0    0    0    0  0.00000000000E+00  0.00000000000E+00  0.45593999997E+02  0.45594000000E+02  0.51100000000E-03 0.  1.
         11   -1    0    0    0    0 -0.00000000000E+00 -0.00000000000E+00 -0.45593999997E+02  0.45594000000E+02  0.51100000000E-03 0. -1.
    9900012    2    1    2    0    0  0.57009642631E+01  0.14210838215E+02 -0.27969113234E+02  0.59301949580E+02  0.50000010126E+02 0.  0.
        -12    1    1    2    0    0 -0.57009642631E+01 -0.14210838215E+02  0.27969113234E+02  0.31886050420E+02  0.00000000000E+00 0.  1.
         11    1    3    3    0    0  0.87047925454E+00 -0.68599063908E+01  0.33115375117E+01  0.76669635955E+01  0.51100000000E-03 0. -1.
        -11    1    3    3    0    0 -0.20463381194E+01 -0.45969999475E+01  0.47134236203E+01  0.68946552272E+01  0.51100000000E-03 0.  1.
        -12    1    3    3    0    0  0.68768231279E+01  0.25667744553E+02 -0.35994074366E+02  0.44740330757E+02  0.00000000000E+00 0.  1.
</event>
<event>
 7    1  0.1338132E-011  0.5930198E+02  0.7816164E-02  0.1266605E+00
        -11   -1    0    0    0    0  0.00000000000E+00  0.00000000000E+00  0.45593999997E+02  0.45594000000E+02  0.51100000000E-03 0.  1.
         11   -1    0    0    0    0 -0.00000000000E+00 -0.00000000000E+00 -0.45593999997E+02  0.45594000000E+02  0.51100000000E-03 0. -1.
    9900012    2    1    2    0    0  0.17840990046E+01 -0.23859984380E+01 -0.31746534301E+02  0.59301977389E+02  0.50000060843E+02 0.  0.
        -12    1    1    2    0    0 -0.17840990046E+01  0.23859984380E+01  0.31746534301E+02  0.31886022611E+02  0.00000000000E+00 0.  1.
         11    1    3    3    0    0 -0.11132651024E+02 -0.11292839631E+02 -0.13067085322E+02  0.20547818980E+02  0.51100000000E-03 0. -1.
        -11    1    3    3    0    0 -0.27482551321E+01 -0.90762632751E+01 -0.21131850828E+01  0.97158125118E+01  0.51100000000E-03 0.  1.
        -12    1    3    3    0    0  0.15665005161E+02  0.17983104468E+02 -0.16566263896E+02  0.29038345898E+02  0.00000000000E+00 0.  1.
</event>
<event>
 7    1  0.1338132E-011  0.5930196E+02  0.7816164E-02  0.1266605E+00
        -11   -1    0    0    0    0  0.00000000000E+00  0.00000000000E+00  0.45593999997E+02  0.45594000000E+02  0.51100000000E-03 0.  1.
         11   -1    0    0    0    0 -0.00000000000E+00 -0.00000000000E+00 -0.45593999997E+02  0.45594000000E+02  0.51100000000E-03 0. -1.
    9900012    2    1    2    0    0 -0.84263782738E+01 -0.29776645130E+02 -0.76855242094E+01  0.59301957154E+02  0.50000023939E+02 0.  0.
        -12    1    1    2    0    0  0.84263782738E+01  0.29776645130E+02  0.76855242094E+01  0.31886042846E+02  0.00000000000E+00 0.  1.
         11    1    3    3    0    0  0.25144930028E+01 -0.17053157986E+02 -0.53443187311E+01  0.18047011257E+02  0.51100000000E-03 0. -1.
        -11    1    3    3    0    0  0.92375370135E+01 -0.20690905174E+01 -0.12990491134E+02  0.16073770118E+02  0.51100000000E-03 0.  1.
        -12    1    3    3    0    0 -0.20178408290E+02 -0.10654396626E+02  0.10649285656E+02  0.25181175778E+02  0.00000000000E+00 0.  1.
</event>
<event>
 7    1  0.1338132E-011  0.5930196E+02  0.7816164E-02  0.1266605E+00
        -11   -1    0    0    0    0  0.00000000000E+00  0.00000000000E+00  0.45593999997E+02  0.45594000000E+02  0.51100000000E-03 0.  1.
         11   -1    0    0    0    0 -0.00000000000E+00 -0.00000000000E+00 -0.45593999997E+02  0.45594000000E+02  0.51100000000E-03 0. -1.
    9900012    2    1    2    0    0 -0.31370860702E+02  0.27200872976E+01 -0.50189528357E+01  0.59301958169E+02  0.50000025791E+02 0.  0.
        -12    1    1    2    0    0  0.31370860702E+02 -0.27200872976E+01  0.50189528357E+01  0.31886041831E+02  0.00000000000E+00 0.  1.
         11    1    3    3    0    0 -0.35039549979E+01 -0.12229609831E+02 -0.91942508209E+01  0.15696346889E+02  0.51100000000E-03 0. -1.
        -11    1    3    3    0    0 -0.25775154357E+01 -0.52917633536E+01  0.91032599753E+01  0.10840465288E+02  0.51100000000E-03 0.  1.
        -12    1    3    3    0    0 -0.25289390268E+02  0.20241460482E+02 -0.49279619901E+01  0.32765145993E+02  0.00000000000E+00 0.  1.
</event>
<event>
 7    1  0.1338132E-011  0.5930190E+02  0.7816164E-02  0.1266605E+00
        -11   -1    0    0    0    0  0.00000000000E+00  0.00000000000E+00  0.45593999997E+02  0.45594000000E+02  0.51100000000E-03 0.  1.
         11   -1    0    0    0    0 -0.00000000000E+00 -0.00000000000E+00 -0.45593999997E+02  0.45594000000E+02  0.51100000000E-03 0. -1.
    9900012    2    1    2    0    0  0.80084340982E+01 -0.10714444976E+02 -0.28944587940E+02  0.59301897716E+02  0.49999915539E+02 0.  0.
        -12    1    1    2    0    0 -0.80084340982E+01  0.10714444976E+02  0.28944587940E+02  0.31886102284E+02  0.00000000000E+00 0.  1.
         11    1    3    3    0    0 -0.98941947352E+00 -0.10954421474E+02 -0.20117824322E+02  0.22928261086E+02  0.51100000000E-03 0. -1.
        -11    1    3    3    0    0 -0.10069563750E+02  0.43376917392E+01 -0.12393702829E+02  0.16547373018E+02  0.51100000000E-03 0.  1.
        -12    1    3    3    0    0  0.19067417321E+02 -0.40977152412E+01  0.35669392102E+01  0.19826263612E+02  0.00000000000E+00 0.  1.
</event>
<event>
 7    1  0.1419673E-011  0.5930191E+02  0.7816164E-02  0.1266605E+00
        -11   -1    0    0    0    0  0.00000000000E+00  0.00000000000E+00  0.45593999997E+02  0.45594000000E+02  0.51100000000E-03 0. -1.
         11   -1    0    0    0    0 -0.00000000000E+00 -0.00000000000E+00 -0.45593999997E+02  0.45594000000E+02  0.51100000000E-03 0.  1.
    9900012    2    1    2    0    0  0.10419285319E+02  0.10421559735E+02  0.28276351129E+02  0.59301914523E+02  0.49999946191E+02 0.  0.
        -12    1    1    2    0    0 -0.10419285319E+02 -0.10421559735E+02 -0.28276351129E+02  0.31886085477E+02  0.00000000000E+00 0.  1.
         11    1    3    3    0    0  0.23530488146E+02  0.56817511556E+01  0.20894537588E+02  0.31977302417E+02  0.51100000000E-03 0. -1.
        -11    1    3    3    0    0  0.10671998241E+01  0.55355311661E+01 -0.56998660417E+01  0.80168256754E+01  0.51100000000E-03 0.  1.
        -12    1    3    3    0    0 -0.14178402651E+02 -0.79572258695E+00  0.13081679583E+02  0.19307786431E+02  0.00000000000E+00 0.  1.
</event>
<event>
 7    1  0.1338132E-011  0.5930186E+02  0.7816164E-02  0.1266605E+00
        -11   -1    0    0    0    0  0.00000000000E+00  0.00000000000E+00  0.45593999997E+02  0.45594000000E+02  0.51100000000E-03 0. -1.
         11   -1    0    0    0    0 -0.00000000000E+00 -0.00000000000E+00 -0.45593999997E+02  0.45594000000E+02  0.51100000000E-03 0.  1.
    9900012    2    1    2    0    0 -0.19313886855E+02  0.25078596357E+02 -0.38423197984E+01  0.59301864422E+02  0.49999854817E+02 0.  0.
        -12    1    1    2    0    0  0.19313886855E+02 -0.25078596357E+02  0.38423197984E+01  0.31886135578E+02  0.00000000000E+00 0.  1.
         11    1    3    3    0    0 -0.11472099574E+02  0.13919328996E+02  0.65719824099E+01  0.19197597282E+02  0.51100000000E-03 0. -1.
        -11    1    3    3    0    0 -0.10373292561E+02  0.12608081565E+02 -0.22428101989E+02  0.27741461360E+02  0.51100000000E-03 0.  1.
        -12    1    3    3    0    0  0.25315052795E+01 -0.14488142048E+01  0.12013799780E+02  0.12362805780E+02  0.00000000000E+00 0.  1.
</event>
<event>
 7    1  0.1338132E-011  0.5930192E+02  0.7816164E-02  0.1266605E+00
        -11   -1    0    0    0    0  0.00000000000E+00  0.00000000000E+00  0.45593999997E+02  0.45594000000E+02  0.51100000000E-03 0. -1.
         11   -1    0    0    0    0 -0.00000000000E+00 -0.00000000000E+00 -0.45593999997E+02  0.45594000000E+02  0.51100000000E-03 0.  1.
    9900012    2    1    2    0    0  0.71392745489E+00  0.12873872104E+02  0.29162919040E+02  0.59301919615E+02  0.49999955477E+02 0.  0.
        -12    1    1    2    0    0 -0.71392745489E+00 -0.12873872104E+02 -0.29162919040E+02  0.31886080385E+02  0.00000000000E+00 0.  1.
         11    1    3    3    0    0 -0.16973903548E+01 -0.22944622026E+01  0.19184160507E+02  0.19395301118E+02  0.51100000000E-03 0. -1.
        -11    1    3    3    0    0 -0.66034570058E+01  0.24662255930E+02  0.71360514699E+01  0.26509540600E+02  0.51100000000E-03 0.  1.
         12    1    3    3    0    0  0.90147748155E+01 -0.94939216230E+01  0.28427070631E+01  0.13397077898E+02  0.00000000000E+00 0. -1.
</event>
<event>
 7    1  0.1338132E-011  0.5930187E+02  0.7816164E-02  0.1266605E+00
        -11   -1    0    0    0    0  0.00000000000E+00  0.00000000000E+00  0.45593999997E+02  0.45594000000E+02  0.51100000000E-03 0.  1.
         11   -1    0    0    0    0 -0.00000000000E+00 -0.00000000000E+00 -0.45593999997E+02  0.45594000000E+02  0.51100000000E-03 0. -1.
    9900012    2    1    2    0    0 -0.24604147072E+01  0.12400701708E+02 -0.29272754531E+02  0.59301871336E+02  0.49999867427E+02 0.  0.
        -12    1    1    2    0    0  0.24604147072E+01 -0.12400701708E+02  0.29272754531E+02  0.31886128664E+02  0.00000000000E+00 0.  1.
         11    1    3    3    0    0 -0.16015760216E+02  0.49782260726E+01 -0.25825435236E+02  0.30793512556E+02  0.51100000000E-03 0. -1.
        -11    1    3    3    0    0  0.48249904515E+01 -0.21473208847E+01 -0.11914677573E+02  0.13032692039E+02  0.51100000000E-03 0.  1.
        -12    1    3    3    0    0  0.87303550578E+01  0.95697965197E+01  0.84673582787E+01  0.15475666741E+02  0.00000000000E+00 0.  1.
</event>
<event>
 7    1  0.1338132E-011  0.5930203E+02  0.7816164E-02  0.1266604E+00
        -11   -1    0    0    0    0  0.00000000000E+00  0.00000000000E+00  0.45593999997E+02  0.45594000000E+02  0.51100000000E-03 0.  1.
         11   -1    0    0    0    0 -0.00000000000E+00 -0.00000000000E+00 -0.45593999997E+02  0.45594000000E+02  0.51100000000E-03 0. -1.
    9900012    2    1    2    0    0  0.31045859027E+02  0.39167004872E+01  0.61261126016E+01  0.59302028774E+02  0.50000154556E+02 0.  0.
        -12    1    1    2    0    0 -0.31045859027E+02 -0.39167004872E+01 -0.61261126016E+01  0.31885971226E+02  0.00000000000E+00 0.  1.
         11    1    3    3    0    0  0.42212721016E+01 -0.10504441691E+02  0.14264855881E+02  0.18211220359E+02  0.51100000000E-03 0. -1.
        -11    1    3    3    0    0  0.94697205633E+01  0.18826568069E+02  0.77742628035E+00  0.21088377479E+02  0.51100000000E-03 0.  1.
        -12    1    3    3    0    0  0.17354866362E+02 -0.44054258908E+01 -0.89161695594E+01  0.20002430936E+02  0.00000000000E+00 0.  1.
</event>
<event>
 7    1  0.1338132E-011  0.5930195E+02  0.7816164E-02  0.1266605E+00
        -11   -1    0    0    0    0  0.00000000000E+00  0.00000000000E+00  0.45593999997E+02  0.45594000000E+02  0.51100000000E-03 0.  1.
         11   -1    0    0    0    0 -0.00000000000E+00 -0.00000000000E+00 -0.45593999997E+02  0.45594000000E+02  0.51100000000E-03 0. -1.
    9900012    2    1    2    0    0 -0.10158617701E+02  0.18684604404E+02 -0.23757273581E+02  0.59301952842E+02  0.50000016076E+02 0.  0.
        -12    1    1    2    0    0  0.10158617701E+02 -0.18684604404E+02  0.23757273581E+02  0.31886047158E+02  0.00000000000E+00 0.  1.
         11    1    3    3    0    0 -0.28606039002E+01 -0.52103073129E+00 -0.20223262060E+02  0.20431222584E+02  0.51100000000E-03 0. -1.
        -11    1    3    3    0    0  0.48264454325E+01  0.21265671421E+02 -0.11061582890E+02  0.24451625157E+02  0.51100000000E-03 0.  1.
        -12    1    3    3    0    0 -0.12124459233E+02 -0.20600362864E+01  0.75275713688E+01  0.14419105101E+02  0.00000000000E+00 0.  1.
</event>
<event>
 7    1  0.1338132E-011  0.5930195E+02  0.7816164E-02  0.1266605E+00
        -11   -1    0    0    0    0  0.00000000000E+00  0.00000000000E+00  0.45593999997E+02  0.45594000000E+02  0.51100000000E-03 0.  1.
         11   -1    0    0    0    0 -0.00000000000E+00 -0.00000000000E+00 -0.45593999997E+02  0.45594000000E+02  0.51100000000E-03 0. -1.
    9900012    2    1    2    0    0 -0.85817508876E+01 -0.50210682638E+01 -0.30296246775E+02  0.59301950645E+02  0.50000012069E+02 0.  0.
        -12    1    1    2    0    0  0.85817508876E+01  0.50210682638E+01  0.30296246775E+02  0.31886049355E+02  0.00000000000E+00 0.  1.
         11    1    3    3    0    0 -0.23769328289E+01 -0.23332628903E+01 -0.31451288658E+00  0.33455708041E+01  0.51100000000E-03 0. -1.
        -11    1    3    3    0    0 -0.16326115922E+02 -0.12164844682E+02  0.26207733536E+01  0.20527882513E+02  0.51100000000E-03 0.  1.
         12    1    3    3    0    0  0.10121297863E+02  0.94770393086E+01 -0.32602507242E+02  0.35428497328E+02  0.00000000000E+00 0. -1.
</event>
<event>
 7    1  0.1338132E-011  0.5930193E+02  0.7816164E-02  0.1266605E+00
        -11   -1    0    0    0    0  0.00000000000E+00  0.00000000000E+00  0.45593999997E+02  0.45594000000E+02  0.51100000000E-03 0.  1.
         11   -1    0    0    0    0 -0.00000000000E+00 -0.00000000000E+00 -0.45593999997E+02  0.45594000000E+02  0.51100000000E-03 0. -1.
    9900012    2    1    2    0    0 -0.25938143011E+02  0.18543671794E+02  0.25762350999E+00  0.59301930999E+02  0.49999976239E+02 0.  0.
        -12    1    1    2    0    0  0.25938143011E+02 -0.18543671794E+02 -0.25762350999E+00  0.31886069001E+02  0.00000000000E+00 0.  1.
         11    1    3    3    0    0 -0.28486261315E+01 -0.77241388039E+01  0.75175187904E+01  0.11148546099E+02  0.51100000000E-03 0. -1.
        -11    1    3    3    0    0  0.53666576084E+01  0.15500725057E+02  0.15552968352E+01  0.16477027635E+02  0.51100000000E-03 0.  1.
         12    1    3    3    0    0 -0.28456174488E+02  0.10767085540E+02 -0.88151921156E+01  0.31676357265E+02  0.00000000000E+00 0. -1.
</event>
<event>
 7    1  0.1338132E-011  0.5930195E+02  0.7816164E-02  0.1266605E+00
        -11   -1    0    0    0    0  0.00000000000E+00  0.00000000000E+00  0.45593999997E+02  0.45594000000E+02  0.51100000000E-03 0. -1.
         11   -1    0    0    0    0 -0.00000000000E+00 -0.00000000000E+00 -0.45593999997E+02  0.45594000000E+02  0.51100000000E-03 0.  1.
    9900012    2    1    2    0    0 -0.87230211278E+01 -0.28904656372E+02 -0.10254252868E+02  0.59301953530E+02  0.50000017330E+02 0.  0.
        -12    1    1    2    0    0  0.87230211278E+01  0.28904656372E+02  0.10254252868E+02  0.31886046470E+02  0.00000000000E+00 0.  1.
         11    1    3    3    0    0 -0.20485706335E+01 -0.92880118014E+01  0.36454915562E+01  0.10185941970E+02  0.51100000000E-03 0. -1.
        -11    1    3    3    0    0 -0.25432342082E+01 -0.32597631508E+02 -0.56243464669E+01  0.33176903015E+02  0.51100000000E-03 0.  1.
         12    1    3    3    0    0 -0.41312162862E+01  0.12980986938E+02 -0.82753979578E+01  0.15939108546E+02  0.00000000000E+00 0. -1.
</event>
<event>
 7    1  0.1338132E-011  0.5930186E+02  0.7816164E-02  0.1266605E+00
        -11   -1    0    0    0    0  0.00000000000E+00  0.00000000000E+00  0.45593999997E+02  0.45594000000E+02  0.51100000000E-03 0. -1.
         11   -1    0    0    0    0 -0.00000000000E+00 -0.00000000000E+00 -0.45593999997E+02  0.45594000000E+02  0.51100000000E-03 0.  1.
    9900012    2    1    2    0    0 -0.28996075552E+02  0.13222096626E+02  0.10629465730E+01  0.59301857367E+02  0.49999841952E+02 0.  0.
        -12    1    1    2    0    0  0.28996075552E+02 -0.13222096626E+02 -0.10629465730E+01  0.31886142633E+02  0.00000000000E+00 0.  1.
         11    1    3    3    0    0  0.32156400549E+01 -0.10990084718E+02 -0.77646680195E+01  0.13835186041E+02  0.51100000000E-03 0. -1.
        -11    1    3    3    0    0 -0.24721056130E+02  0.74687037082E+01  0.20276679841E+01  0.25904123011E+02  0.51100000000E-03 0.  1.
        -12    1    3    3    0    0 -0.74906594767E+01  0.16743477635E+02  0.67999466084E+01  0.19562548315E+02  0.00000000000E+00 0.  1.
</event>
<event>
 7    1  0.1338132E-011  0.5930195E+02  0.7816164E-02  0.1266605E+00
        -11   -1    0    0    0    0  0.00000000000E+00  0.00000000000E+00  0.45593999997E+02  0.45594000000E+02  0.51100000000E-03 0.  1.
         11   -1    0    0    0    0 -0.00000000000E+00 -0.00000000000E+00 -0.45593999997E+02  0.45594000000E+02  0.51100000000E-03 0. -1.
    9900012    2    1    2    0    0 -0.11480454849E+02 -0.25936743923E+02 -0.14567240855E+02  0.59301952346E+02  0.50000015171E+02 0.  0.
        -12    1    1    2    0    0  0.11480454849E+02  0.25936743923E+02  0.14567240855E+02  0.31886047654E+02  0.00000000000E+00 0.  1.
         11    1    3    3    0    0  0.88652785215E+01 -0.16009441694E+02 -0.15938045058E+02  0.24267605303E+02  0.51100000000E-03 0. -1.
        -11    1    3    3    0    0 -0.25578261200E+02 -0.62240229345E+01 -0.40560629442E+01  0.26635268994E+02  0.51100000000E-03 0.  1.
         12    1    3    3    0    0  0.52325278299E+01 -0.37032792947E+01  0.54268671478E+01  0.83990780485E+01  0.00000000000E+00 0. -1.
</event>
<event>
 7    1  0.1338132E-011  0.5930193E+02  0.7816164E-02  0.1266605E+00
        -11   -1    0    0    0    0  0.00000000000E+00  0.00000000000E+00  0.45593999997E+02  0.45594000000E+02  0.51100000000E-03 0. -1.
         11   -1    0    0    0    0 -0.00000000000E+00 -0.00000000000E+00 -0.45593999997E+02  0.45594000000E+02  0.51100000000E-03 0.  1.
    9900012    2    1    2    0    0 -0.27048198907E+02  0.12677370251E+02  0.11153498780E+02  0.59301932264E+02  0.49999978546E+02 0.  0.
        -12    1    1    2    0    0  0.27048198907E+02 -0.12677370251E+02 -0.11153498780E+02  0.31886067736E+02  0.00000000000E+00 0.  1.
         11    1    3    3    0    0 -0.28349904547E+01  0.15061962714E+01 -0.11335587678E+01  0.34045196177E+01  0.51100000000E-03 0. -1.
        -11    1    3    3    0    0 -0.23245894995E+00 -0.90264003302E+01 -0.12854533889E+02  0.15708882259E+02  0.51100000000E-03 0.  1.
         12    1    3    3    0    0 -0.23980749503E+02  0.20197574309E+02  0.25141591437E+02  0.40188530387E+02  0.00000000000E+00 0. -1.
</event>
<event>
 7    1  0.1338132E-011  0.5930181E+02  0.7816164E-02  0.1266605E+00
        -11   -1    0    0    0    0  0.00000000000E+00  0.00000000000E+00  0.45593999997E+02  0.45594000000E+02  0.51100000000E-03 0.  1.
         11   -1    0    0    0    0 -0.00000000000E+00 -0.00000000000E+00 -0.45593999997E+02  0.45594000000E+02  0.51100000000E-03 0. -1.
    9900012    2    1    2    0    0  0.77967554614E+01 -0.26089662223E+02 -0.16591231625E+02  0.59301814316E+02  0.49999763436E+02 0.  0.
        -12    1    1    2    0    0 -0.77967554614E+01  0.26089662223E+02  0.16591231625E+02  0.31886185684E+02  0.00000000000E+00 0.  1.
         11    1    3    3    0    0 -0.31923460458E+01 -0.15374693353E+02  0.10686316983E+02  0.18993936925E+02  0.51100000000E-03 0. -1.
        -11    1    3    3    0    0 -0.35534269404E+01 -0.25039744133E+01  0.33062062118E+01  0.54614769668E+01  0.51100000000E-03 0.  1.
        -12    1    3    3    0    0  0.14542528448E+02 -0.82109944573E+01 -0.30583754820E+02  0.34846400424E+02  0.00000000000E+00 0.  1.
</event>
<event>
 7    1  0.1338132E-011  0.5930192E+02  0.7816164E-02  0.1266605E+00
        -11   -1    0    0    0    0  0.00000000000E+00  0.00000000000E+00  0.45593999997E+02  0.45594000000E+02  0.51100000000E-03 0. -1.
         11   -1    0    0    0    0 -0.00000000000E+00 -0.00000000000E+00 -0.45593999997E+02  0.45594000000E+02  0.51100000000E-03 0.  1.
    9900012    2    1    2    0    0  0.92146764962E+01  0.30370734607E+02  0.30708404171E+01  0.59301923973E+02  0.49999963425E+02 0.  0.
        -12    1    1    2    0    0 -0.92146764962E+01 -0.30370734607E+02 -0.30708404171E+01  0.31886076027E+02  0.00000000000E+00 0.  1.
         11    1    3    3    0    0  0.54743816747E+01  0.99338860441E+01 -0.73239970211E+01  0.13501550995E+02  0.51100000000E-03 0. -1.
        -11    1    3    3    0    0  0.44407219905E+01  0.84638426424E+01 -0.14959600812E+02  0.17752360428E+02  0.51100000000E-03 0.  1.
         12    1    3    3    0    0 -0.70042716894E+00  0.11973005921E+02  0.25354438250E+02  0.28048012549E+02  0.00000000000E+00 0. -1.
</event>
<event>
 7    1  0.1338132E-011  0.5930194E+02  0.7816164E-02  0.1266605E+00
        -11   -1    0    0    0    0  0.00000000000E+00  0.00000000000E+00  0.45593999997E+02  0.45594000000E+02  0.51100000000E-03 0.  1.
         11   -1    0    0    0    0 -0.00000000000E+00 -0.00000000000E+00 -0.45593999997E+02  0.45594000000E+02  0.51100000000E-03 0. -1.
    9900012    2    1    2    0    0 -0.51561438989E+01 -0.31291398802E+02 -0.33141632903E+01  0.59301935063E+02  0.49999983650E+02 0.  0.
        -12    1    1    2    0    0  0.51561438989E+01  0.31291398802E+02  0.33141632903E+01  0.31886064937E+02  0.00000000000E+00 0.  1.
         11    1    3    3    0    0  0.64525689875E+01 -0.17450642270E+02 -0.10357896176E+02  0.21294285046E+02  0.51100000000E-03 0. -1.
        -11    1    3    3    0    0  0.44277652819E+00 -0.21047581898E+02  0.10530766431E+02  0.23539197027E+02  0.51100000000E-03 0.  1.
        -12    1    3    3    0    0 -0.12051489415E+02  0.72068253661E+01 -0.34870335451E+01  0.14468452990E+02  0.00000000000E+00 0.  1.
</event>
<event>
 7    1  0.1338132E-011  0.5930196E+02  0.7816164E-02  0.1266605E+00
        -11   -1    0    0    0    0  0.00000000000E+00  0.00000000000E+00  0.45593999997E+02  0.45594000000E+02  0.51100000000E-03 0. -1.
         11   -1    0    0    0    0 -0.00000000000E+00 -0.00000000000E+00 -0.45593999997E+02  0.45594000000E+02  0.51100000000E-03 0.  1.
    9900012    2    1    2    0    0 -0.23942423416E+02 -0.21659263893E+01  0.20947282969E+02  0.59301960109E+02  0.50000029328E+02 0.  0.
        -12    1    1    2    0    0  0.23942423416E+02  0.21659263893E+01 -0.20947282969E+02  0.31886039891E+02  0.00000000000E+00 0.  1.
         11    1    3    3    0    0 -0.14738949662E+02  0.13204711010E+02  0.10260866391E+02  0.22290949045E+02  0.51100000000E-03 0. -1.
        -11    1    3    3    0    0  0.70307583323E+01  0.39063559184E+01 -0.26873354992E+01  0.84801504488E+01  0.51100000000E-03 0.  1.
         12    1    3    3    0    0 -0.16234232086E+02 -0.19276993317E+02  0.13373752078E+02  0.28530860615E+02  0.00000000000E+00 0. -1.
</event>
<event>
 7    1  0.1338132E-011  0.5930194E+02  0.7816164E-02  0.1266605E+00
        -11   -1    0    0    0    0  0.00000000000E+00  0.00000000000E+00  0.45593999997E+02  0.45594000000E+02  0.51100000000E-03 0.  1.
         11   -1    0    0    0    0 -0.00000000000E+00 -0.00000000000E+00 -0.45593999997E+02  0.45594000000E+02  0.51100000000E-03 0. -1.
    9900012    2    1    2    0    0 -0.86731632857E+01 -0.10800414619E+02 -0.28720164312E+02  0.59301944185E+02  0.50000000287E+02 0.  0.
        -12    1    1    2    0    0  0.86731632857E+01  0.10800414619E+02  0.28720164312E+02  0.31886055815E+02  0.00000000000E+00 0.  1.
         11    1    3    3    0    0  0.14550466894E+02  0.16739158038E+01 -0.17431857489E+02  0.22768129847E+02  0.51100000000E-03 0. -1.
        -11    1    3    3    0    0 -0.11034685001E+02 -0.17593299340E+01 -0.16107962674E+02  0.19604233641E+02  0.51100000000E-03 0.  1.
        -12    1    3    3    0    0 -0.12188945179E+02 -0.10715000489E+02  0.48196558504E+01  0.16929580697E+02  0.00000000000E+00 0.  1.
</event>
<event>
 7    1  0.1338132E-011  0.5930194E+02  0.7816164E-02  0.1266605E+00
        -11   -1    0    0    0    0  0.00000000000E+00  0.00000000000E+00  0.45593999997E+02  0.45594000000E+02  0.51100000000E-03 0. -1.
         11   -1    0    0    0    0 -0.00000000000E+00 -0.00000000000E+00 -0.45593999997E+02  0.45594000000E+02  0.51100000000E-03 0.  1.
    9900012    2    1    2    0    0 -0.12464571603E+02 -0.21298157677E+01  0.29271468914E+02  0.59301944225E+02  0.50000000361E+02 0.  0.
        -12    1    1    2    0    0  0.12464571603E+02  0.21298157677E+01 -0.29271468914E+02  0.31886055775E+02  0.00000000000E+00 0.  1.
         11    1    3    3    0    0 -0.74383376725E+01  0.11014575163E+02 -0.42870081482E+01  0.13965248744E+02  0.51100000000E-03 0.  1.
        -11    1    3    3    0    0 -0.10842264992E+02  0.46026526495E+01  0.12023539343E+02  0.16831655301E+02  0.51100000000E-03 0. -1.
        -12    1    3    3    0    0  0.58160310613E+01 -0.17747043580E+02  0.21534937719E+02  0.28505040181E+02  0.00000000000E+00 0.  1.
</event>
<event>
 7    1  0.1338132E-011  0.5930174E+02  0.7816164E-02  0.1266605E+00
        -11   -1    0    0    0    0  0.00000000000E+00  0.00000000000E+00  0.45593999997E+02  0.45594000000E+02  0.51100000000E-03 0.  1.
         11   -1    0    0    0    0 -0.00000000000E+00 -0.00000000000E+00 -0.45593999997E+02  0.45594000000E+02  0.51100000000E-03 0. -1.
    9900012    2    1    2    0    0  0.12982927108E+02 -0.93312033355E+01 -0.27588149067E+02  0.59301737740E+02  0.49999623779E+02 0.  0.
        -12    1    1    2    0    0 -0.12982927108E+02  0.93312033355E+01  0.27588149067E+02  0.31886262260E+02  0.00000000000E+00 0.  1.
         11    1    3    3    0    0  0.10971927075E+02 -0.87150425865E+00 -0.13217502293E+02  0.17200147399E+02  0.51100000000E-03 0. -1.
        -11    1    3    3    0    0  0.78708010719E+01  0.12705427531E+02 -0.13472715391E+02  0.20121914882E+02  0.51100000000E-03 0.  1.
        -12    1    3    3    0    0 -0.58598010386E+01 -0.21165126607E+02 -0.89793138276E+00  0.21979675459E+02  0.00000000000E+00 0.  1.
</event>
<event>
 7    1  0.1338132E-011  0.5930197E+02  0.7816164E-02  0.1266605E+00
        -11   -1    0    0    0    0  0.00000000000E+00  0.00000000000E+00  0.45593999997E+02  0.45594000000E+02  0.51100000000E-03 0. -1.
         11   -1    0    0    0    0 -0.00000000000E+00 -0.00000000000E+00 -0.45593999997E+02  0.45594000000E+02  0.51100000000E-03 0.  1.
    9900012    2    1    2    0    0  0.18160405098E+02 -0.18982111381E+02  0.18072023127E+02  0.59301970368E+02  0.50000048038E+02 0.  0.
        -12    1    1    2    0    0 -0.18160405098E+02  0.18982111381E+02 -0.18072023127E+02  0.31886029632E+02  0.00000000000E+00 0.  1.
         11    1    3    3    0    0  0.11313450345E+02 -0.20850190904E+02  0.67961364759E+01  0.24676144162E+02  0.51100000000E-03 0. -1.
        -11    1    3    3    0    0  0.35179290602E+01  0.69381832048E+01 -0.99044527285E+01  0.12594141303E+02  0.51100000000E-03 0.  1.
         12    1    3    3    0    0  0.33290256927E+01 -0.50701036818E+01  0.21180339380E+02  0.22031684903E+02  0.00000000000E+00 0. -1.
</event>
<event>
 7    1  0.1338132E-011  0.5930198E+02  0.7816164E-02  0.1266605E+00
        -11   -1    0    0    0    0  0.00000000000E+00  0.00000000000E+00  0.45593999997E+02  0.45594000000E+02  0.51100000000E-03 0. -1.
         11   -1    0    0    0    0 -0.00000000000E+00 -0.00000000000E+00 -0.45593999997E+02  0.45594000000E+02  0.51100000000E-03 0.  1.
    9900012    2    1    2    0    0  0.31647990947E+02 -0.38856855149E+01 -0.15634463113E+00  0.59301979136E+02  0.50000064030E+02 0.  0.
        -12    1    1    2    0    0 -0.31647990947E+02  0.38856855149E+01  0.15634463113E+00  0.31886020864E+02  0.00000000000E+00 0.  1.
         11    1    3    3    0    0  0.20992166626E+02 -0.22371076299E+01  0.51521830858E+01  0.21730639683E+02  0.51100000000E-03 0. -1.
        -11    1    3    3    0    0  0.12598784292E+02  0.93384125177E+01 -0.15796031558E+02  0.22258704527E+02  0.51100000000E-03 0.  1.
         12    1    3    3    0    0 -0.19429599721E+01 -0.10986990403E+02  0.10487503841E+02  0.15312634926E+02  0.00000000000E+00 0. -1.
</event>
<event>
 7    1  0.1338132E-011  0.5930194E+02  0.7816164E-02  0.1266605E+00
        -11   -1    0    0    0    0  0.00000000000E+00  0.00000000000E+00  0.45593999997E+02  0.45594000000E+02  0.51100000000E-03 0.  1.
         11   -1    0    0    0    0 -0.00000000000E+00 -0.00000000000E+00 -0.45593999997E+02  0.45594000000E+02  0.51100000000E-03 0. -1.
    9900012    2    1    2    0    0  0.25917307984E+02 -0.10207399353E+02 -0.15518464995E+02  0.59301943322E+02  0.49999998713E+02 0.  0.
        -12    1    1    2    0    0 -0.25917307984E+02  0.10207399353E+02  0.15518464995E+02  0.31886056678E+02  0.00000000000E+00 0.  1.
         11    1    3    3    0    0 -0.70707454901E+00  0.69581683701E+01 -0.24737389277E+01  0.74185878729E+01  0.51100000000E-03 0. -1.
        -11    1    3    3    0    0  0.35005076947E+01 -0.14933387506E+02 -0.22140864213E+02  0.26934689248E+02  0.51100000000E-03 0.  1.
        -12    1    3    3    0    0  0.23123874838E+02 -0.22321802166E+01  0.90961381458E+01  0.24948666201E+02  0.00000000000E+00 0.  1.
</event>
<event>
 7    1  0.1338132E-011  0.5930193E+02  0.7816164E-02  0.1266605E+00
        -11   -1    0    0    0    0  0.00000000000E+00  0.00000000000E+00  0.45593999997E+02  0.45594000000E+02  0.51100000000E-03 0.  1.
         11   -1    0    0    0    0 -0.00000000000E+00 -0.00000000000E+00 -0.45593999997E+02  0.45594000000E+02  0.51100000000E-03 0. -1.
    9900012    2    1    2    0    0 -0.26646358859E+01 -0.31279070356E+02  0.55893803302E+01  0.59301926250E+02  0.49999967577E+02 0.  0.
        -12    1    1    2    0    0  0.26646358859E+01  0.31279070356E+02 -0.55893803302E+01  0.31886073750E+02  0.00000000000E+00 0.  1.
         11    1    3    3    0    0 -0.93128672661E+01  0.26952344572E+01  0.93995540545E+01  0.13503532952E+02  0.51100000000E-03 0. -1.
        -11    1    3    3    0    0 -0.35970677053E+01  0.25689168172E+01  0.51661464734E+01  0.67990660635E+01  0.51100000000E-03 0.  1.
        -12    1    3    3    0    0  0.10245299085E+02 -0.36543221630E+02 -0.89763201977E+01  0.38999327235E+02  0.00000000000E+00 0.  1.
</event>
<event>
 7    1  0.1338132E-011  0.5930195E+02  0.7816164E-02  0.1266605E+00
        -11   -1    0    0    0    0  0.00000000000E+00  0.00000000000E+00  0.45593999997E+02  0.45594000000E+02  0.51100000000E-03 0. -1.
         11   -1    0    0    0    0 -0.00000000000E+00 -0.00000000000E+00 -0.45593999997E+02  0.45594000000E+02  0.51100000000E-03 0.  1.
    9900012    2    1    2    0    0  0.30699372675E+02  0.63223331479E+01 -0.58563423914E+01  0.59301950930E+02  0.50000012588E+02 0.  0.
        -12    1    1    2    0    0 -0.30699372675E+02 -0.63223331479E+01  0.58563423914E+01  0.31886049070E+02  0.00000000000E+00 0.  1.
         11    1    3    3    0    0 -0.43937316241E+01  0.11605222466E+02  0.77634482277E+01  0.14637526933E+02  0.51100000000E-03 0. -1.
        -11    1    3    3    0    0  0.15527683078E+02 -0.70001380809E+01  0.48436055236E+01  0.17707947076E+02  0.51100000000E-03 0.  1.
        -12    1    3    3    0    0  0.19565421221E+02  0.17172487631E+01 -0.18463396143E+02  0.26956476921E+02  0.00000000000E+00 0.  1.
</event>
<event>
 7    1  0.1338132E-011  0.5930194E+02  0.7816164E-02  0.1266605E+00
        -11   -1    0    0    0    0  0.00000000000E+00  0.00000000000E+00  0.45593999997E+02  0.45594000000E+02  0.51100000000E-03 0.  1.
         11   -1    0    0    0    0 -0.00000000000E+00 -0.00000000000E+00 -0.45593999997E+02  0.45594000000E+02  0.51100000000E-03 0. -1.
    9900012    2    1    2    0    0 -0.25280323085E+02 -0.14916891034E+02 -0.12454410043E+02  0.59301941872E+02  0.49999996069E+02 0.  0.
        -12    1    1    2    0    0  0.25280323085E+02  0.14916891034E+02  0.12454410043E+02  0.31886058128E+02  0.00000000000E+00 0.  1.
         11    1    3    3    0    0  0.40023348178E+00  0.10474007209E+02 -0.11536185820E+02  0.15586808441E+02  0.51100000000E-03 0. -1.
        -11    1    3    3    0    0 -0.59753651005E+01 -0.12213946408E+02 -0.11449836385E+02  0.17775945219E+02  0.51100000000E-03 0.  1.
        -12    1    3    3    0    0 -0.19705191467E+02 -0.13176951835E+02  0.10531612161E+02  0.25939188212E+02  0.00000000000E+00 0.  1.
</event>
<event>
 7    1  0.1338132E-011  0.5930202E+02  0.7816164E-02  0.1266604E+00
        -11   -1    0    0    0    0  0.00000000000E+00  0.00000000000E+00  0.45593999997E+02  0.45594000000E+02  0.51100000000E-03 0. -1.
         11   -1    0    0    0    0 -0.00000000000E+00 -0.00000000000E+00 -0.45593999997E+02  0.45594000000E+02  0.51100000000E-03 0.  1.
    9900012    2    1    2    0    0 -0.90253430786E+01  0.29740431678E+02  0.71250016206E+01  0.59302019661E+02  0.50000137936E+02 0.  0.
        -12    1    1    2    0    0  0.90253430786E+01 -0.29740431678E+02 -0.71250016206E+01  0.31885980339E+02  0.00000000000E+00 0.  1.
         11    1    3    3    0    0 -0.13271405618E+02  0.90962225098E+01 -0.60890649735E+01  0.17203144583E+02  0.51100000000E-03 0. -1.
        -11    1    3    3    0    0 -0.10823468211E+01  0.20891560559E+02 -0.63169726838E+01  0.21852526659E+02  0.51100000000E-03 0.  1.
        -12    1    3    3    0    0  0.53284093607E+01 -0.24735139027E+00  0.19531039278E+02  0.20246348419E+02  0.00000000000E+00 0.  1.
</event>
<event>
 7    1  0.1338132E-011  0.5930192E+02  0.7816164E-02  0.1266605E+00
        -11   -1    0    0    0    0  0.00000000000E+00  0.00000000000E+00  0.45593999997E+02  0.45594000000E+02  0.51100000000E-03 0.  1.
         11   -1    0    0    0    0 -0.00000000000E+00 -0.00000000000E+00 -0.45593999997E+02  0.45594000000E+02  0.51100000000E-03 0. -1.
    9900012    2    1    2    0    0  0.27727036012E+02 -0.88534133182E+01 -0.13021158012E+02  0.59301921386E+02  0.49999958707E+02 0.  0.
        -12    1    1    2    0    0 -0.27727036012E+02  0.88534133182E+01  0.13021158012E+02  0.31886078614E+02  0.00000000000E+00 0.  1.
         11    1    3    3    0    0  0.12330181346E+02 -0.25465758322E+02 -0.12808509904E+02  0.31057948180E+02  0.51100000000E-03 0. -1.
        -11    1    3    3    0    0  0.22736659210E+01 -0.31078714586E+01 -0.22651072783E+01  0.44675645453E+01  0.51100000000E-03 0.  1.
        -12    1    3    3    0    0  0.13123188745E+02  0.19720216462E+02  0.20524591704E+01  0.23776408661E+02  0.00000000000E+00 0.  1.
</event>
<event>
 7    1  0.1338132E-011  0.5930195E+02  0.7816164E-02  0.1266605E+00
        -11   -1    0    0    0    0  0.00000000000E+00  0.00000000000E+00  0.45593999997E+02  0.45594000000E+02  0.51100000000E-03 0. -1.
         11   -1    0    0    0    0 -0.00000000000E+00 -0.00000000000E+00 -0.45593999997E+02  0.45594000000E+02  0.51100000000E-03 0.  1.
    9900012    2    1    2    0    0 -0.14832775337E+02 -0.15581395945E+02  0.23535695308E+02  0.59301951681E+02  0.50000013957E+02 0.  0.
        -12    1    1    2    0    0  0.14832775337E+02  0.15581395945E+02 -0.23535695308E+02  0.31886048319E+02  0.00000000000E+00 0.  1.
         11    1    3    3    0    0 -0.82022464648E+01 -0.45652630004E+01  0.52977881538E+01  0.10778916129E+02  0.51100000000E-03 0. -1.
        -11    1    3    3    0    0 -0.84205010212E+01  0.11940033392E+02  0.20731397205E+02  0.25362572133E+02  0.51100000000E-03 0.  1.
        -12    1    3    3    0    0  0.17899721490E+01 -0.22956166336E+02 -0.24934900512E+01  0.23160463419E+02  0.00000000000E+00 0.  1.
</event>
<event>
 7    1  0.1338132E-011  0.5930193E+02  0.7816164E-02  0.1266605E+00
        -11   -1    0    0    0    0  0.00000000000E+00  0.00000000000E+00  0.45593999997E+02  0.45594000000E+02  0.51100000000E-03 0.  1.
         11   -1    0    0    0    0 -0.00000000000E+00 -0.00000000000E+00 -0.45593999997E+02  0.45594000000E+02  0.51100000000E-03 0. -1.
    9900012    2    1    2    0    0 -0.11319559701E+02  0.23834851579E+02 -0.17902200724E+02  0.59301931375E+02  0.49999976924E+02 0.  0.
        -12    1    1    2    0    0  0.11319559701E+02 -0.23834851579E+02  0.17902200724E+02  0.31886068625E+02  0.00000000000E+00 0.  1.
         11    1    3    3    0    0  0.65076185656E+01  0.64371296113E+01  0.62460492777E+01  0.11081465105E+02  0.51100000000E-03 0.  1.
        -11    1    3    3    0    0  0.59708748497E+00  0.22494590267E+02 -0.14867263968E+02  0.26970328936E+02  0.51100000000E-03 0. -1.
         12    1    3    3    0    0 -0.18424265752E+02 -0.50968682992E+01 -0.92809860331E+01  0.21250137334E+02  0.00000000000E+00 0. -1.
</event>
<event>
 7    1  0.1338132E-011  0.5930200E+02  0.7816164E-02  0.1266605E+00
        -11   -1    0    0    0    0  0.00000000000E+00  0.00000000000E+00  0.45593999997E+02  0.45594000000E+02  0.51100000000E-03 0. -1.
         11   -1    0    0    0    0 -0.00000000000E+00 -0.00000000000E+00 -0.45593999997E+02  0.45594000000E+02  0.51100000000E-03 0.  1.
    9900012    2    1    2    0    0  0.17411881189E+02  0.88379653798E+01  0.25207810736E+02  0.59302000553E+02  0.50000103089E+02 0.  0.
        -12    1    1    2    0    0 -0.17411881189E+02 -0.88379653798E+01 -0.25207810736E+02  0.31885999447E+02  0.00000000000E+00 0.  1.
         11    1    3    3    0    0 -0.51767931631E+01 -0.33565313366E+01  0.15377690640E+02  0.16569214216E+02  0.51100000000E-03 0. -1.
        -11    1    3    3    0    0 -0.49865466359E+01 -0.42454946329E+01  0.83267543904E+01  0.10593616520E+02  0.51100000000E-03 0.  1.
         12    1    3    3    0    0  0.27575220988E+02  0.16439991349E+02  0.15033657058E+01  0.32139169817E+02  0.00000000000E+00 0. -1.
</event>
<event>
 7    1  0.1338132E-011  0.5930195E+02  0.7816164E-02  0.1266605E+00
        -11   -1    0    0    0    0  0.00000000000E+00  0.00000000000E+00  0.45593999997E+02  0.45594000000E+02  0.51100000000E-03 0.  1.
         11   -1    0    0    0    0 -0.00000000000E+00 -0.00000000000E+00 -0.45593999997E+02  0.45594000000E+02  0.51100000000E-03 0. -1.
    9900012    2    1    2    0    0 -0.29932514953E+02 -0.98637610964E+01 -0.48446562058E+01  0.59301954022E+02  0.50000018227E+02 0.  0.
        -12    1    1    2    0    0  0.29932514953E+02  0.98637610964E+01  0.48446562058E+01  0.31886045978E+02  0.00000000000E+00 0.  1.
         11    1    3    3    0    0 -0.59879430562E+01 -0.63616038901E+01 -0.40684486055E+01  0.96373098121E+01  0.51100000000E-03 0. -1.
        -11    1    3    3    0    0 -0.27060022319E+02 -0.41361813125E+00  0.16596366240E+02  0.31746736218E+02  0.51100000000E-03 0.  1.
         12    1    3    3    0    0  0.31154504222E+01 -0.30885390751E+01 -0.17372573841E+02  0.17917907992E+02  0.00000000000E+00 0. -1.
</event>
<event>
 7    1  0.1338132E-011  0.5930205E+02  0.7816164E-02  0.1266604E+00
        -11   -1    0    0    0    0  0.00000000000E+00  0.00000000000E+00  0.45593999997E+02  0.45594000000E+02  0.51100000000E-03 0.  1.
         11   -1    0    0    0    0 -0.00000000000E+00 -0.00000000000E+00 -0.45593999997E+02  0.45594000000E+02  0.51100000000E-03 0. -1.
    9900012    2    1    2    0    0 -0.21724195286E+02  0.15156737806E+02 -0.17749549056E+02  0.59302049278E+02  0.50000191951E+02 0.  0.
        -12    1    1    2    0    0  0.21724195286E+02 -0.15156737806E+02  0.17749549056E+02  0.31885950722E+02  0.00000000000E+00 0.  1.
         11    1    3    3    0    0 -0.30134977947E+02  0.21081982574E+02 -0.93988766089E+01  0.37959264573E+02  0.51100000000E-03 0. -1.
        -11    1    3    3    0    0  0.14025395431E+00 -0.78627391431E+01 -0.99671332070E+01  0.12695908106E+02  0.51100000000E-03 0.  1.
        -12    1    3    3    0    0  0.82705287066E+01  0.19374943747E+01  0.16164607596E+01  0.86468765994E+01  0.00000000000E+00 0.  1.
</event>
<event>
 7    1  0.1338132E-011  0.5930195E+02  0.7816164E-02  0.1266605E+00
        -11   -1    0    0    0    0  0.00000000000E+00  0.00000000000E+00  0.45593999997E+02  0.45594000000E+02  0.51100000000E-03 0.  1.
         11   -1    0    0    0    0 -0.00000000000E+00 -0.00000000000E+00 -0.45593999997E+02  0.45594000000E+02  0.51100000000E-03 0. -1.
    9900012    2    1    2    0    0 -0.30031007277E+02  0.40618559664E+01  0.99176702772E+01  0.59301948885E+02  0.50000008859E+02 0.  0.
        -12    1    1    2    0    0  0.30031007277E+02 -0.40618559664E+01 -0.99176702772E+01  0.31886051115E+02  0.00000000000E+00 0.  1.
         11    1    3    3    0    0  0.50032006461E+01  0.78047595383E+01  0.13416299364E+02  0.16307770450E+02  0.51100000000E-03 0. -1.
        -11    1    3    3    0    0 -0.26628973834E+01 -0.95561841416E+01 -0.75670789749E-02  0.99202689149E+01  0.51100000000E-03 0.  1.
        -12    1    3    3    0    0 -0.32371310540E+02  0.58132805696E+01 -0.34910620081E+01  0.33073909521E+02  0.00000000000E+00 0.  1.
</event>
<event>
 7    1  0.1338132E-011  0.5930195E+02  0.7816164E-02  0.1266605E+00
        -11   -1    0    0    0    0  0.00000000000E+00  0.00000000000E+00  0.45593999997E+02  0.45594000000E+02  0.51100000000E-03 0. -1.
         11   -1    0    0    0    0 -0.00000000000E+00 -0.00000000000E+00 -0.45593999997E+02  0.45594000000E+02  0.51100000000E-03 0.  1.
    9900012    2    1    2    0    0 -0.26334695023E+02  0.53540472938E+01  0.17162115838E+02  0.59301949689E+02  0.50000010325E+02 0.  0.
        -12    1    1    2    0    0  0.26334695023E+02 -0.53540472938E+01 -0.17162115838E+02  0.31886050311E+02  0.00000000000E+00 0.  1.
         11    1    3    3    0    0 -0.40613660622E+00 -0.20286841711E+01  0.17133743672E+02  0.17258206132E+02  0.51100000000E-03 0. -1.
        -11    1    3    3    0    0 -0.57648173297E+01 -0.99431989092E+01  0.83277364654E+01  0.14193361769E+02  0.51100000000E-03 0.  1.
        -12    1    3    3    0    0 -0.20163741088E+02  0.17325930374E+02 -0.82993642997E+01  0.27850381788E+02  0.00000000000E+00 0.  1.
</event>
<event>
 7    1  0.1338132E-011  0.5930191E+02  0.7816164E-02  0.1266605E+00
        -11   -1    0    0    0    0  0.00000000000E+00  0.00000000000E+00  0.45593999997E+02  0.45594000000E+02  0.51100000000E-03 0. -1.
         11   -1    0    0    0    0 -0.00000000000E+00 -0.00000000000E+00 -0.45593999997E+02  0.45594000000E+02  0.51100000000E-03 0.  1.
    9900012    2    1    2    0    0  0.87448742812E+01 -0.30528874889E+02  0.28701846184E+01  0.59301906042E+02  0.49999930722E+02 0.  0.
        -12    1    1    2    0    0 -0.87448742812E+01  0.30528874889E+02 -0.28701846184E+01  0.31886093958E+02  0.00000000000E+00 0.  1.
         11    1    3    3    0    0 -0.11249222187E+01  0.36605480835E+01 -0.74082378090E+01  0.83394873923E+01  0.51100000000E-03 0. -1.
        -11    1    3    3    0    0 -0.66798704333E+01 -0.38798336198E+01 -0.86372445304E+01  0.11587742285E+02  0.51100000000E-03 0.  1.
         12    1    3    3    0    0  0.16549666933E+02 -0.30309589353E+02  0.18915666958E+02  0.39374676364E+02  0.00000000000E+00 0. -1.
</event>
<event>
 7    1  0.1338132E-011  0.5930196E+02  0.7816164E-02  0.1266605E+00
        -11   -1    0    0    0    0  0.00000000000E+00  0.00000000000E+00  0.45593999997E+02  0.45594000000E+02  0.51100000000E-03 0. -1.
         11   -1    0    0    0    0 -0.00000000000E+00 -0.00000000000E+00 -0.45593999997E+02  0.45594000000E+02  0.51100000000E-03 0.  1.
    9900012    2    1    2    0    0  0.20697484394E+02  0.35338485533E+01  0.23996777199E+02  0.59301964470E+02  0.50000037283E+02 0.  0.
        -12    1    1    2    0    0 -0.20697484394E+02 -0.35338485533E+01 -0.23996777199E+02  0.31886035530E+02  0.00000000000E+00 0.  1.
         11    1    3    3    0    0  0.11322960556E+02  0.14101268938E+02  0.60108905089E+01  0.19057440184E+02  0.51100000000E-03 0. -1.
        -11    1    3    3    0    0  0.41722476894E+01 -0.89892822417E+01 -0.85920262326E+01  0.13116316596E+02  0.51100000000E-03 0.  1.
         12    1    3    3    0    0  0.52022761491E+01 -0.15781381433E+01  0.26577912923E+02  0.27128207690E+02  0.00000000000E+00 0. -1.
</event>
<event>
 7    1  0.1338132E-011  0.5930200E+02  0.7816164E-02  0.1266605E+00
        -11   -1    0    0    0    0  0.00000000000E+00  0.00000000000E+00  0.45593999997E+02  0.45594000000E+02  0.51100000000E-03 0.  1.
         11   -1    0    0    0    0 -0.00000000000E+00 -0.00000000000E+00 -0.45593999997E+02  0.45594000000E+02  0.51100000000E-03 0. -1.
    9900012    2    1    2    0    0 -0.30936204948E+01  0.11592381073E+02 -0.29542567036E+02  0.59301999094E+02  0.50000100427E+02 0.  0.
        -12    1    1    2    0    0  0.30936204948E+01 -0.11592381073E+02  0.29542567036E+02  0.31886000906E+02  0.00000000000E+00 0.  1.
         11    1    3    3    0    0  0.15653751270E+02  0.38894224697E+01 -0.13703902910E+02  0.21165171656E+02  0.51100000000E-03 0. -1.
        -11    1    3    3    0    0 -0.14251083515E+01 -0.52924479256E+01 -0.15541580410E+02  0.16479734851E+02  0.51100000000E-03 0.  1.
        -12    1    3    3    0    0 -0.17322263414E+02  0.12995406529E+02 -0.29708371622E+00  0.21657092588E+02  0.00000000000E+00 0.  1.
</event>
<event>
 7    1  0.1338132E-011  0.5930195E+02  0.7816164E-02  0.1266605E+00
        -11   -1    0    0    0    0  0.00000000000E+00  0.00000000000E+00  0.45593999997E+02  0.45594000000E+02  0.51100000000E-03 0.  1.
         11   -1    0    0    0    0 -0.00000000000E+00 -0.00000000000E+00 -0.45593999997E+02  0.45594000000E+02  0.51100000000E-03 0. -1.
    9900012    2    1    2    0    0  0.26578227081E+02 -0.12879622479E+02 -0.12018029994E+02  0.59301954856E+02  0.50000019749E+02 0.  0.
        -12    1    1    2    0    0 -0.26578227081E+02  0.12879622479E+02  0.12018029994E+02  0.31886045144E+02  0.00000000000E+00 0.  1.
         11    1    3    3    0    0  0.21841100517E+02 -0.52897693512E+01 -0.95650659365E+01  0.24423468595E+02  0.51100000000E-03 0. -1.
        -11    1    3    3    0    0  0.79445668090E+01 -0.19778486084E+02  0.22349860367E+01  0.21431281259E+02  0.51100000000E-03 0.  1.
         12    1    3    3    0    0 -0.32074402446E+01  0.12188632957E+02 -0.46879500942E+01  0.13447205002E+02  0.00000000000E+00 0. -1.
</event>
<event>
 7    1  0.1338132E-011  0.5930192E+02  0.7816164E-02  0.1266605E+00
        -11   -1    0    0    0    0  0.00000000000E+00  0.00000000000E+00  0.45593999997E+02  0.45594000000E+02  0.51100000000E-03 0.  1.
         11   -1    0    0    0    0 -0.00000000000E+00 -0.00000000000E+00 -0.45593999997E+02  0.45594000000E+02  0.51100000000E-03 0. -1.
    9900012    2    1    2    0    0  0.22042334736E+02  0.23386330041E+01 -0.22921355601E+02  0.59301917338E+02  0.49999951324E+02 0.  0.
        -12    1    1    2    0    0 -0.22042334736E+02 -0.23386330041E+01  0.22921355601E+02  0.31886082662E+02  0.00000000000E+00 0.  1.
         11    1    3    3    0    0 -0.44916357159E+01 -0.44775240527E+00 -0.36376760691E+01  0.57972373650E+01  0.51100000000E-03 0. -1.
        -11    1    3    3    0    0  0.14951755785E+00  0.11447298746E+02 -0.22800526008E+02  0.25513270871E+02  0.51100000000E-03 0.  1.
        -12    1    3    3    0    0  0.26384452894E+02 -0.86609133364E+01  0.35168464758E+01  0.27991409102E+02  0.00000000000E+00 0.  1.
</event>
<event>
 7    1  0.1338132E-011  0.5930192E+02  0.7816164E-02  0.1266605E+00
        -11   -1    0    0    0    0  0.00000000000E+00  0.00000000000E+00  0.45593999997E+02  0.45594000000E+02  0.51100000000E-03 0. -1.
         11   -1    0    0    0    0 -0.00000000000E+00 -0.00000000000E+00 -0.45593999997E+02  0.45594000000E+02  0.51100000000E-03 0.  1.
    9900012    2    1    2    0    0  0.55146894164E+01  0.30853043528E+02 -0.58651676016E+01  0.59301917059E+02  0.49999950816E+02 0.  0.
        -12    1    1    2    0    0 -0.55146894164E+01 -0.30853043528E+02  0.58651676016E+01  0.31886082941E+02  0.00000000000E+00 0.  1.
         11    1    3    3    0    0  0.72293784818E+01  0.24901548116E+02 -0.18788409512E+02  0.32021170248E+02  0.51100000000E-03 0.  1.
        -11    1    3    3    0    0  0.28279741021E+01  0.14145166767E+02  0.59604203845E+01  0.15608004094E+02  0.51100000000E-03 0. -1.
        -12    1    3    3    0    0 -0.45426631675E+01 -0.81936713549E+01  0.69628215261E+01  0.11672742717E+02  0.00000000000E+00 0.  1.
</event>
<event>
 7    1  0.1338132E-011  0.5930194E+02  0.7816164E-02  0.1266605E+00
        -11   -1    0    0    0    0  0.00000000000E+00  0.00000000000E+00  0.45593999997E+02  0.45594000000E+02  0.51100000000E-03 0.  1.
         11   -1    0    0    0    0 -0.00000000000E+00 -0.00000000000E+00 -0.45593999997E+02  0.45594000000E+02  0.51100000000E-03 0. -1.
    9900012    2    1    2    0    0 -0.38744704383E+01  0.23674350343E+02 -0.21005576565E+02  0.59301942982E+02  0.49999998093E+02 0.  0.
        -12    1    1    2    0    0  0.38744704383E+01 -0.23674350343E+02  0.21005576565E+02  0.31886057018E+02  0.00000000000E+00 0.  1.
         11    1    3    3    0    0 -0.11858126463E+02 -0.73618903645E+00 -0.13490745296E+02  0.17976577717E+02  0.51100000000E-03 0. -1.
        -11    1    3    3    0    0  0.24430806019E+01  0.41379862398E+01 -0.17435399866E+02  0.18085484282E+02  0.51100000000E-03 0.  1.
        -12    1    3    3    0    0  0.55405754227E+01  0.20272553140E+02  0.99205685974E+01  0.23239880983E+02  0.00000000000E+00 0.  1.
</event>
<event>
 7    1  0.1338132E-011  0.5930194E+02  0.7816164E-02  0.1266605E+00
        -11   -1    0    0    0    0  0.00000000000E+00  0.00000000000E+00  0.45593999997E+02  0.45594000000E+02  0.51100000000E-03 0.  1.
         11   -1    0    0    0    0 -0.00000000000E+00 -0.00000000000E+00 -0.45593999997E+02  0.45594000000E+02  0.51100000000E-03 0. -1.
    9900012    2    1    2    0    0  0.13502255473E+02 -0.62434718422E+01 -0.28203345898E+02  0.59301944061E+02  0.50000000060E+02 0.  0.
        -12    1    1    2    0    0 -0.13502255473E+02  0.62434718422E+01  0.28203345898E+02  0.31886055939E+02  0.00000000000E+00 0.  1.
         11    1    3    3    0    0 -0.12345664498E+02  0.30321063400E+01 -0.17987594856E+02  0.22026408462E+02  0.51100000000E-03 0. -1.
        -11    1    3    3    0    0 -0.41630408242E+01  0.12074828965E+00 -0.26310519730E+01  0.49262484508E+01  0.51100000000E-03 0.  1.
        -12    1    3    3    0    0  0.30010960795E+02 -0.93963264718E+01 -0.75846990690E+01  0.32349287148E+02  0.00000000000E+00 0.  1.
</event>
<event>
 7    1  0.1338132E-011  0.5930166E+02  0.7816164E-02  0.1266606E+00
        -11   -1    0    0    0    0  0.00000000000E+00  0.00000000000E+00  0.45593999997E+02  0.45594000000E+02  0.51100000000E-03 0. -1.
         11   -1    0    0    0    0 -0.00000000000E+00 -0.00000000000E+00 -0.45593999997E+02  0.45594000000E+02  0.51100000000E-03 0.  1.
    9900012    2    1    2    0    0 -0.13068671665E+02 -0.23175973597E+02  0.17573352286E+02  0.59301660577E+02  0.49999483051E+02 0.  0.
        -12    1    1    2    0    0  0.13068671665E+02  0.23175973597E+02 -0.17573352286E+02  0.31886339423E+02  0.00000000000E+00 0.  1.
         11    1    3    3    0    0 -0.70937265154E+01 -0.11961931456E+02  0.64703799182E+01  0.15338662803E+02  0.51100000000E-03 0. -1.
        -11    1    3    3    0    0  0.30639157224E+01 -0.15246376544E+02  0.23450460723E+02  0.28138295714E+02  0.51100000000E-03 0.  1.
        -12    1    3    3    0    0 -0.90388608717E+01  0.40323344035E+01 -0.12347488356E+02  0.15824702060E+02  0.00000000000E+00 0.  1.
</event>
<event>
 7    1  0.1338132E-011  0.5930195E+02  0.7816164E-02  0.1266605E+00
        -11   -1    0    0    0    0  0.00000000000E+00  0.00000000000E+00  0.45593999997E+02  0.45594000000E+02  0.51100000000E-03 0. -1.
         11   -1    0    0    0    0 -0.00000000000E+00 -0.00000000000E+00 -0.45593999997E+02  0.45594000000E+02  0.51100000000E-03 0.  1.
    9900012    2    1    2    0    0  0.27136865786E+02 -0.13083347469E+02  0.10446863961E+02  0.59301946116E+02  0.50000003808E+02 0.  0.
        -12    1    1    2    0    0 -0.27136865786E+02  0.13083347469E+02 -0.10446863961E+02  0.31886053884E+02  0.00000000000E+00 0.  1.
         11    1    3    3    0    0 -0.38433497644E+01 -0.16146061112E+02  0.11098060436E+01  0.16634250706E+02  0.51100000000E-03 0. -1.
        -11    1    3    3    0    0  0.20401035317E+02 -0.11501731475E+02  0.31388370881E+01  0.23629311617E+02  0.51100000000E-03 0.  1.
        -12    1    3    3    0    0  0.10579180234E+02  0.14564445118E+02  0.61982208293E+01  0.19038383793E+02  0.00000000000E+00 0.  1.
</event>
<event>
 7    1  0.1338132E-011  0.5930195E+02  0.7816164E-02  0.1266605E+00
        -11   -1    0    0    0    0  0.00000000000E+00  0.00000000000E+00  0.45593999997E+02  0.45594000000E+02  0.51100000000E-03 0.  1.
         11   -1    0    0    0    0 -0.00000000000E+00 -0.00000000000E+00 -0.45593999997E+02  0.45594000000E+02  0.51100000000E-03 0. -1.
    9900012    2    1    2    0    0  0.26624033997E+02  0.83482677701E+01 -0.15433323431E+02  0.59301949238E+02  0.50000009503E+02 0.  0.
        -12    1    1    2    0    0 -0.26624033997E+02 -0.83482677701E+01  0.15433323431E+02  0.31886050762E+02  0.00000000000E+00 0.  1.
         11    1    3    3    0    0  0.15757296736E+01  0.66403452786E+01 -0.17907204513E+02  0.19163639612E+02  0.51100000000E-03 0.  1.
        -11    1    3    3    0    0  0.29936670302E+02 -0.39017146472E+01  0.75641497173E+01  0.31123045596E+02  0.51100000000E-03 0. -1.
         12    1    3    3    0    0 -0.48883659785E+01  0.56096371386E+01 -0.50902686349E+01  0.90152640306E+01  0.00000000000E+00 0. -1.
</event>
<event>
 7    1  0.1338132E-011  0.5930194E+02  0.7816164E-02  0.1266605E+00
        -11   -1    0    0    0    0  0.00000000000E+00  0.00000000000E+00  0.45593999997E+02  0.45594000000E+02  0.51100000000E-03 0.  1.
         11   -1    0    0    0    0 -0.00000000000E+00 -0.00000000000E+00 -0.45593999997E+02  0.45594000000E+02  0.51100000000E-03 0. -1.
    9900012    2    1    2    0    0  0.21715342533E+02 -0.23123217995E+02  0.32374916980E+01  0.59301942478E+02  0.49999997174E+02 0.  0.
        -12    1    1    2    0    0 -0.21715342533E+02  0.23123217995E+02 -0.32374916980E+01  0.31886057522E+02  0.00000000000E+00 0.  1.
         11    1    3    3    0    0  0.61669572848E+01 -0.31499889859E+02 -0.60253161187E+01  0.32658518917E+02  0.51100000000E-03 0. -1.
        -11    1    3    3    0    0 -0.27009711409E+01  0.28987820903E+01 -0.20739581002E+01  0.44720783953E+01  0.51100000000E-03 0.  1.
        -12    1    3    3    0    0  0.18249356389E+02  0.54778897735E+01  0.11336765917E+02  0.22171345166E+02  0.00000000000E+00 0.  1.
</event>
<event>
 7    1  0.1338132E-011  0.5930195E+02  0.7816164E-02  0.1266605E+00
        -11   -1    0    0    0    0  0.00000000000E+00  0.00000000000E+00  0.45593999997E+02  0.45594000000E+02  0.51100000000E-03 0.  1.
         11   -1    0    0    0    0 -0.00000000000E+00 -0.00000000000E+00 -0.45593999997E+02  0.45594000000E+02  0.51100000000E-03 0. -1.
    9900012    2    1    2    0    0 -0.82760760075E+01  0.25156450857E+02 -0.17758941253E+02  0.59301945867E+02  0.50000003354E+02 0.  0.
        -12    1    1    2    0    0  0.82760760075E+01 -0.25156450857E+02  0.17758941253E+02  0.31886054133E+02  0.00000000000E+00 0.  1.
         11    1    3    3    0    0 -0.84923641004E+01 -0.64605958001E+00 -0.19838860522E+02  0.21589766744E+02  0.51100000000E-03 0. -1.
        -11    1    3    3    0    0 -0.11366107774E+02  0.10572359032E+02 -0.63907381386E+01  0.16787040110E+02  0.51100000000E-03 0.  1.
        -12    1    3    3    0    0  0.11582395867E+02  0.15230151404E+02  0.84706574074E+01  0.20925139013E+02  0.00000000000E+00 0.  1.
</event>
<event>
 7    1  0.1338132E-011  0.5930194E+02  0.7816164E-02  0.1266605E+00
        -11   -1    0    0    0    0  0.00000000000E+00  0.00000000000E+00  0.45593999997E+02  0.45594000000E+02  0.51100000000E-03 0. -1.
         11   -1    0    0    0    0 -0.00000000000E+00 -0.00000000000E+00 -0.45593999997E+02  0.45594000000E+02  0.51100000000E-03 0.  1.
    9900012    2    1    2    0    0 -0.30709426174E+02  0.12308997213E+00  0.85811885245E+01  0.59301940294E+02  0.49999993190E+02 0.  0.
        -12    1    1    2    0    0  0.30709426174E+02 -0.12308997213E+00 -0.85811885245E+01  0.31886059706E+02  0.00000000000E+00 0.  1.
         11    1    3    3    0    0  0.11316530696E+01 -0.94427704086E+01  0.79062089628E+01  0.12367485277E+02  0.51100000000E-03 0. -1.
        -11    1    3    3    0    0  0.38942783820E+01  0.32463477124E+01 -0.81396206458E+01  0.95894526489E+01  0.51100000000E-03 0.  1.
        -12    1    3    3    0    0 -0.35735357626E+02  0.63195126684E+01  0.88146002075E+01  0.37345002368E+02  0.00000000000E+00 0.  1.
</event>
<event>
 7    1  0.1338132E-011  0.5930198E+02  0.7816164E-02  0.1266605E+00
        -11   -1    0    0    0    0  0.00000000000E+00  0.00000000000E+00  0.45593999997E+02  0.45594000000E+02  0.51100000000E-03 0.  1.
         11   -1    0    0    0    0 -0.00000000000E+00 -0.00000000000E+00 -0.45593999997E+02  0.45594000000E+02  0.51100000000E-03 0. -1.
    9900012    2    1    2    0    0  0.83786256120E+01  0.29461815090E+02 -0.88610713980E+01  0.59301976386E+02  0.50000059015E+02 0.  0.
        -12    1    1    2    0    0 -0.83786256120E+01 -0.29461815090E+02  0.88610713980E+01  0.31886023614E+02  0.00000000000E+00 0.  1.
         11    1    3    3    0    0  0.17687876144E+02 -0.48022943046E+00 -0.67964875218E+01  0.18954783715E+02  0.51100000000E-03 0. -1.
        -11    1    3    3    0    0  0.38902486549E+01  0.16980582752E+02  0.81306175410E+01  0.19224493935E+02  0.51100000000E-03 0.  1.
         12    1    3    3    0    0 -0.13199499187E+02  0.12961461769E+02 -0.10195201417E+02  0.21122698737E+02  0.00000000000E+00 0. -1.
</event>
<event>
 7    1  0.1338132E-011  0.5930204E+02  0.7816164E-02  0.1266604E+00
        -11   -1    0    0    0    0  0.00000000000E+00  0.00000000000E+00  0.45593999997E+02  0.45594000000E+02  0.51100000000E-03 0.  1.
         11   -1    0    0    0    0 -0.00000000000E+00 -0.00000000000E+00 -0.45593999997E+02  0.45594000000E+02  0.51100000000E-03 0. -1.
    9900012    2    1    2    0    0 -0.81391168125E+01 -0.90592264512E+01 -0.29468619408E+02  0.59302041708E+02  0.50000178145E+02 0.  0.
        -12    1    1    2    0    0  0.81391168125E+01  0.90592264512E+01  0.29468619408E+02  0.31885958292E+02  0.00000000000E+00 0.  1.
         11    1    3    3    0    0  0.10354893427E+02 -0.92560488721E+01 -0.16911086890E+02  0.21883398243E+02  0.51100000000E-03 0. -1.
        -11    1    3    3    0    0  0.57056146093E+01 -0.78405661086E+01 -0.43789288545E+01  0.10639714900E+02  0.51100000000E-03 0.  1.
        -12    1    3    3    0    0 -0.24199624849E+02  0.80373885294E+01 -0.81786036637E+01  0.26778928565E+02  0.00000000000E+00 0.  1.
</event>
<event>
 7    1  0.1338132E-011  0.5930194E+02  0.7816164E-02  0.1266605E+00
        -11   -1    0    0    0    0  0.00000000000E+00  0.00000000000E+00  0.45593999997E+02  0.45594000000E+02  0.51100000000E-03 0. -1.
         11   -1    0    0    0    0 -0.00000000000E+00 -0.00000000000E+00 -0.45593999997E+02  0.45594000000E+02  0.51100000000E-03 0.  1.
    9900012    2    1    2    0    0  0.27483163488E+01  0.30283413710E+02  0.95959562994E+01  0.59301940883E+02  0.49999994265E+02 0.  0.
        -12    1    1    2    0    0 -0.27483163488E+01 -0.30283413710E+02 -0.95959562994E+01  0.31886059117E+02  0.00000000000E+00 0.  1.
         11    1    3    3    0    0 -0.11439597399E+02  0.11315608321E+02  0.14716498148E+01  0.16157757696E+02  0.51100000000E-03 0. -1.
        -11    1    3    3    0    0 -0.13008592316E+01  0.59248145228E+01  0.19150166097E+02  0.20087919844E+02  0.51100000000E-03 0.  1.
         12    1    3    3    0    0  0.15488772980E+02  0.13042990866E+02 -0.11025859612E+02  0.23056263343E+02  0.00000000000E+00 0. -1.
</event>
<event>
 7    1  0.1338132E-011  0.5930191E+02  0.7816164E-02  0.1266605E+00
        -11   -1    0    0    0    0  0.00000000000E+00  0.00000000000E+00  0.45593999997E+02  0.45594000000E+02  0.51100000000E-03 0. -1.
         11   -1    0    0    0    0 -0.00000000000E+00 -0.00000000000E+00 -0.45593999997E+02  0.45594000000E+02  0.51100000000E-03 0.  1.
    9900012    2    1    2    0    0  0.66937647960E+01  0.14842646741E+02  0.27415540329E+02  0.59301913678E+02  0.49999944649E+02 0.  0.
        -12    1    1    2    0    0 -0.66937647960E+01 -0.14842646741E+02 -0.27415540329E+02  0.31886086322E+02  0.00000000000E+00 0.  1.
         11    1    3    3    0    0  0.50231744489E+01  0.40396446931E+01  0.89196923678E+01  0.11005086233E+02  0.51100000000E-03 0. -1.
        -11    1    3    3    0    0  0.21707761069E+02  0.37737902956E+01  0.15297000061E+02  0.26822874472E+02  0.51100000000E-03 0.  1.
        -12    1    3    3    0    0 -0.20037170722E+02  0.70292117520E+01  0.31988479001E+01  0.21473952973E+02  0.00000000000E+00 0.  1.
</event>
<event>
 7    1  0.1338132E-011  0.5930194E+02  0.7816164E-02  0.1266605E+00
        -11   -1    0    0    0    0  0.00000000000E+00  0.00000000000E+00  0.45593999997E+02  0.45594000000E+02  0.51100000000E-03 0. -1.
         11   -1    0    0    0    0 -0.00000000000E+00 -0.00000000000E+00 -0.45593999997E+02  0.45594000000E+02  0.51100000000E-03 0.  1.
    9900012    2    1    2    0    0 -0.24002921481E+02 -0.20735688824E+02 -0.32575936759E+01  0.59301938042E+02  0.49999989084E+02 0.  0.
        -12    1    1    2    0    0  0.24002921481E+02  0.20735688824E+02  0.32575936759E+01  0.31886061958E+02  0.00000000000E+00 0.  1.
         11    1    3    3    0    0  0.11866024786E+01  0.65739295914E+01  0.56623189860E+01  0.87570789807E+01  0.51100000000E-03 0. -1.
        -11    1    3    3    0    0 -0.94551614135E+01  0.67809535321E+01 -0.54194505280E+01  0.12835569814E+02  0.51100000000E-03 0.  1.
         12    1    3    3    0    0 -0.15734362546E+02 -0.34090571947E+02 -0.35004621339E+01  0.37709289248E+02  0.00000000000E+00 0. -1.
</event>
<event>
 7    1  0.1338132E-011  0.5930193E+02  0.7816164E-02  0.1266605E+00
        -11   -1    0    0    0    0  0.00000000000E+00  0.00000000000E+00  0.45593999997E+02  0.45594000000E+02  0.51100000000E-03 0.  1.
         11   -1    0    0    0    0 -0.00000000000E+00 -0.00000000000E+00 -0.45593999997E+02  0.45594000000E+02  0.51100000000E-03 0. -1.
    9900012    2    1    2    0    0  0.85615542963E+00  0.53020418481E+01 -0.31430507803E+02  0.59301929834E+02  0.49999974114E+02 0.  0.
        -12    1    1    2    0    0 -0.85615542963E+00 -0.53020418481E+01  0.31430507803E+02  0.31886070166E+02  0.00000000000E+00 0.  1.
         11    1    3    3    0    0 -0.26686774002E+00 -0.19982535903E+01  0.50881640471E+01  0.54729927310E+01  0.51100000000E-03 0. -1.
        -11    1    3    3    0    0  0.52869977964E+01 -0.14863025670E+02 -0.86912216560E+01  0.18011085806E+02  0.51100000000E-03 0.  1.
         12    1    3    3    0    0 -0.41639746268E+01  0.22163321108E+02 -0.27827450194E+02  0.35817851297E+02  0.00000000000E+00 0. -1.
</event>
<event>
 7    1  0.1338132E-011  0.5930191E+02  0.7816164E-02  0.1266605E+00
        -11   -1    0    0    0    0  0.00000000000E+00  0.00000000000E+00  0.45593999997E+02  0.45594000000E+02  0.51100000000E-03 0.  1.
         11   -1    0    0    0    0 -0.00000000000E+00 -0.00000000000E+00 -0.45593999997E+02  0.45594000000E+02  0.51100000000E-03 0. -1.
    9900012    2    1    2    0    0 -0.11331469863E+02  0.11993144067E+02 -0.27285248248E+02  0.59301913915E+02  0.49999945081E+02 0.  0.
        -12    1    1    2    0    0  0.11331469863E+02 -0.11993144067E+02  0.27285248248E+02  0.31886086085E+02  0.00000000000E+00 0.  1.
         11    1    3    3    0    0  0.84547209491E+00 -0.95489441329E+01 -0.24551421973E+01  0.98957001059E+01  0.51100000000E-03 0.  1.
        -11    1    3    3    0    0 -0.23195587482E+01  0.78998615424E+01 -0.30542179117E+02  0.31632465453E+02  0.51100000000E-03 0. -1.
         12    1    3    3    0    0 -0.98573832101E+01  0.13642226657E+02  0.57120730659E+01  0.17773748356E+02  0.00000000000E+00 0. -1.
</event>
<event>
 7    1  0.1338132E-011  0.5930190E+02  0.7816164E-02  0.1266605E+00
        -11   -1    0    0    0    0  0.00000000000E+00  0.00000000000E+00  0.45593999997E+02  0.45594000000E+02  0.51100000000E-03 0. -1.
         11   -1    0    0    0    0 -0.00000000000E+00 -0.00000000000E+00 -0.45593999997E+02  0.45594000000E+02  0.51100000000E-03 0.  1.
    9900012    2    1    2    0    0 -0.47027222831E+01 -0.31430780067E+02  0.25911402982E+01  0.59301897376E+02  0.49999914919E+02 0.  0.
        -12    1    1    2    0    0  0.47027222831E+01  0.31430780067E+02 -0.25911402982E+01  0.31886102624E+02  0.00000000000E+00 0.  1.
         11    1    3    3    0    0  0.19832943998E+01 -0.57064650404E+00  0.59263913225E+01  0.62754448829E+01  0.51100000000E-03 0. -1.
        -11    1    3    3    0    0 -0.22425557610E+02 -0.13314871757E+02 -0.10907443284E+02  0.28269484665E+02  0.51100000000E-03 0.  1.
         12    1    3    3    0    0  0.15739540927E+02 -0.17545261806E+02  0.75721922595E+01  0.24756967828E+02  0.00000000000E+00 0. -1.
</event>
<event>
 7    1  0.1338132E-011  0.5930194E+02  0.7816164E-02  0.1266605E+00
        -11   -1    0    0    0    0  0.00000000000E+00  0.00000000000E+00  0.45593999997E+02  0.45594000000E+02  0.51100000000E-03 0. -1.
         11   -1    0    0    0    0 -0.00000000000E+00 -0.00000000000E+00 -0.45593999997E+02  0.45594000000E+02  0.51100000000E-03 0.  1.
    9900012    2    1    2    0    0  0.13584833109E+02  0.19187514893E+02  0.21540943086E+02  0.59301942743E+02  0.49999997656E+02 0.  0.
        -12    1    1    2    0    0 -0.13584833109E+02 -0.19187514893E+02 -0.21540943086E+02  0.31886057257E+02  0.00000000000E+00 0.  1.
         11    1    3    3    0    0  0.32584573006E+01  0.95139455450E+01  0.11215407666E+02  0.15063800091E+02  0.51100000000E-03 0. -1.
        -11    1    3    3    0    0  0.15165457367E+02  0.98043203223E+01  0.23825790416E+02  0.29896221891E+02  0.51100000000E-03 0.  1.
        -12    1    3    3    0    0 -0.48390815587E+01 -0.13075097385E+00 -0.13500254996E+02  0.14341920761E+02  0.00000000000E+00 0.  1.
</event>
<event>
 7    1  0.1338132E-011  0.5930194E+02  0.7816164E-02  0.1266605E+00
        -11   -1    0    0    0    0  0.00000000000E+00  0.00000000000E+00  0.45593999997E+02  0.45594000000E+02  0.51100000000E-03 0.  1.
         11   -1    0    0    0    0 -0.00000000000E+00 -0.00000000000E+00 -0.45593999997E+02  0.45594000000E+02  0.51100000000E-03 0. -1.
    9900012    2    1    2    0    0 -0.11148487264E+02  0.23065317920E+02 -0.18984813710E+02  0.59301940183E+02  0.49999992989E+02 0.  0.
        -12    1    1    2    0    0  0.11148487264E+02 -0.23065317920E+02  0.18984813710E+02  0.31886059817E+02  0.00000000000E+00 0.  1.
         11    1    3    3    0    0 -0.14604145521E+02  0.14654660495E+02  0.54023456631E+01  0.21382831420E+02  0.51100000000E-03 0.  1.
        -11    1    3    3    0    0 -0.87299846710E+01  0.10083681358E+02 -0.36828170828E+01  0.13836777226E+02  0.51100000000E-03 0. -1.
         12    1    3    3    0    0  0.12185642927E+02 -0.16730239320E+01 -0.20704342290E+02  0.24082331538E+02  0.00000000000E+00 0. -1.
</event>
<event>
 7    1  0.1338132E-011  0.5930191E+02  0.7816164E-02  0.1266605E+00
        -11   -1    0    0    0    0  0.00000000000E+00  0.00000000000E+00  0.45593999997E+02  0.45594000000E+02  0.51100000000E-03 0.  1.
         11   -1    0    0    0    0 -0.00000000000E+00 -0.00000000000E+00 -0.45593999997E+02  0.45594000000E+02  0.51100000000E-03 0. -1.
    9900012    2    1    2    0    0 -0.10555686042E+01 -0.30994683428E+02 -0.74120404076E+01  0.59301906340E+02  0.49999931267E+02 0.  0.
        -12    1    1    2    0    0  0.10555686042E+01  0.30994683428E+02  0.74120404076E+01  0.31886093660E+02  0.00000000000E+00 0.  1.
         11    1    3    3    0    0  0.19796880436E+01  0.22728759830E+01  0.57919096869E+01  0.65292685705E+01  0.51100000000E-03 0.  1.
        -11    1    3    3    0    0  0.87329717490E+01 -0.12353351812E+01 -0.16272839525E+02  0.18509353177E+02  0.51100000000E-03 0. -1.
        -12    1    3    3    0    0 -0.11768228397E+02 -0.32032224230E+02  0.30688894303E+01  0.34263284592E+02  0.00000000000E+00 0.  1.
</event>
<event>
 7    1  0.1338132E-011  0.5930195E+02  0.7816164E-02  0.1266605E+00
        -11   -1    0    0    0    0  0.00000000000E+00  0.00000000000E+00  0.45593999997E+02  0.45594000000E+02  0.51100000000E-03 0.  1.
         11   -1    0    0    0    0 -0.00000000000E+00 -0.00000000000E+00 -0.45593999997E+02  0.45594000000E+02  0.51100000000E-03 0. -1.
    9900012    2    1    2    0    0  0.19013972262E+02  0.54382441520E+00 -0.25590887352E+02  0.59301946596E+02  0.50000004685E+02 0.  0.
        -12    1    1    2    0    0 -0.19013972262E+02 -0.54382441520E+00  0.25590887352E+02  0.31886053404E+02  0.00000000000E+00 0.  1.
         11    1    3    3    0    0  0.20904568852E+02  0.85301022230E+01 -0.13256327919E+02  0.26181937915E+02  0.51100000000E-03 0. -1.
        -11    1    3    3    0    0 -0.64922279068E+01 -0.63274512120E+01 -0.21165253884E+02  0.23025065348E+02  0.51100000000E-03 0.  1.
        -12    1    3    3    0    0  0.46016313168E+01 -0.16588265958E+01  0.88306944500E+01  0.10094943334E+02  0.00000000000E+00 0.  1.
</event>
<event>
 7    1  0.1338132E-011  0.5930197E+02  0.7816164E-02  0.1266605E+00
        -11   -1    0    0    0    0  0.00000000000E+00  0.00000000000E+00  0.45593999997E+02  0.45594000000E+02  0.51100000000E-03 0. -1.
         11   -1    0    0    0    0 -0.00000000000E+00 -0.00000000000E+00 -0.45593999997E+02  0.45594000000E+02  0.51100000000E-03 0.  1.
    9900012    2    1    2    0    0  0.29013529126E+01 -0.31610969706E+02  0.30079167371E+01  0.59301971436E+02  0.50000049986E+02 0.  0.
        -12    1    1    2    0    0 -0.29013529126E+01  0.31610969706E+02 -0.30079167371E+01  0.31886028564E+02  0.00000000000E+00 0.  1.
         11    1    3    3    0    0  0.27474204948E+01 -0.72638475186E+01  0.13861264597E+02  0.15888563706E+02  0.51100000000E-03 0. -1.
        -11    1    3    3    0    0 -0.97079251892E+01 -0.27704989322E+02 -0.14710203990E+01  0.29393437126E+02  0.51100000000E-03 0.  1.
         12    1    3    3    0    0  0.98618576070E+01  0.33578671340E+01 -0.93823274611E+01  0.14019970604E+02  0.00000000000E+00 0. -1.
</event>
<event>
 7    1  0.1338132E-011  0.5930194E+02  0.7816164E-02  0.1266605E+00
        -11   -1    0    0    0    0  0.00000000000E+00  0.00000000000E+00  0.45593999997E+02  0.45594000000E+02  0.51100000000E-03 0.  1.
         11   -1    0    0    0    0 -0.00000000000E+00 -0.00000000000E+00 -0.45593999997E+02  0.45594000000E+02  0.51100000000E-03 0. -1.
    9900012    2    1    2    0    0 -0.29923876085E+02  0.11011821118E+02 -0.14915591639E+00  0.59301940165E+02  0.49999992956E+02 0.  0.
        -12    1    1    2    0    0  0.29923876085E+02 -0.11011821118E+02  0.14915591639E+00  0.31886059835E+02  0.00000000000E+00 0.  1.
         11    1    3    3    0    0 -0.36468633257E+01 -0.36496928950E+01 -0.14692949962E+02  0.15572496563E+02  0.51100000000E-03 0. -1.
        -11    1    3    3    0    0  0.45359000832E+01  0.51749049222E+01  0.84852654473E+01  0.10924914667E+02  0.51100000000E-03 0.  1.
        -12    1    3    3    0    0 -0.30812912843E+02  0.94866090908E+01  0.60585285984E+01  0.32804528935E+02  0.00000000000E+00 0.  1.
</event>
<event>
 7    1  0.1338132E-011  0.5930194E+02  0.7816164E-02  0.1266605E+00
        -11   -1    0    0    0    0  0.00000000000E+00  0.00000000000E+00  0.45593999997E+02  0.45594000000E+02  0.51100000000E-03 0.  1.
         11   -1    0    0    0    0 -0.00000000000E+00 -0.00000000000E+00 -0.45593999997E+02  0.45594000000E+02  0.51100000000E-03 0. -1.
    9900012    2    1    2    0    0  0.26014749317E+02 -0.14430796652E+02 -0.11476302868E+02  0.59301943462E+02  0.49999998968E+02 0.  0.
        -12    1    1    2    0    0 -0.26014749317E+02  0.14430796652E+02  0.11476302868E+02  0.31886056538E+02  0.00000000000E+00 0.  1.
         11    1    3    3    0    0  0.52069274939E+01  0.67118149619E+00  0.15878297118E+02  0.16723722616E+02  0.51100000000E-03 0. -1.
        -11    1    3    3    0    0 -0.89808049788E+00 -0.61450827763E+01  0.39992309204E+00  0.62232250199E+01  0.51100000000E-03 0.  1.
         12    1    3    3    0    0  0.21705902321E+02 -0.89568953722E+01 -0.27754523077E+02  0.36354995826E+02  0.00000000000E+00 0. -1.
</event>
<event>
 7    1  0.1338132E-011  0.5930195E+02  0.7816164E-02  0.1266605E+00
        -11   -1    0    0    0    0  0.00000000000E+00  0.00000000000E+00  0.45593999997E+02  0.45594000000E+02  0.51100000000E-03 0.  1.
         11   -1    0    0    0    0 -0.00000000000E+00 -0.00000000000E+00 -0.45593999997E+02  0.45594000000E+02  0.51100000000E-03 0. -1.
    9900012    2    1    2    0    0 -0.27950432668E+02 -0.11741984105E+01 -0.15300800929E+02  0.59301953877E+02  0.50000017964E+02 0.  0.
        -12    1    1    2    0    0  0.27950432668E+02  0.11741984105E+01  0.15300800929E+02  0.31886046123E+02  0.00000000000E+00 0.  1.
         11    1    3    3    0    0 -0.92819182245E+01  0.16931670250E+01 -0.29873257556E+02  0.31327820508E+02  0.51100000000E-03 0. -1.
        -11    1    3    3    0    0  0.15085988624E+01  0.25415226104E+01  0.23122442098E+01  0.37525566289E+01  0.51100000000E-03 0.  1.
        -12    1    3    3    0    0 -0.20177113306E+02 -0.54088880458E+01  0.12260212418E+02  0.24221576740E+02  0.00000000000E+00 0.  1.
</event>
<event>
 7    1  0.1338132E-011  0.5930204E+02  0.7816164E-02  0.1266604E+00
        -11   -1    0    0    0    0  0.00000000000E+00  0.00000000000E+00  0.45593999997E+02  0.45594000000E+02  0.51100000000E-03 0.  1.
         11   -1    0    0    0    0 -0.00000000000E+00 -0.00000000000E+00 -0.45593999997E+02  0.45594000000E+02  0.51100000000E-03 0. -1.
    9900012    2    1    2    0    0  0.18409757463E+02  0.91946406967E+01 -0.24356805940E+02  0.59302037838E+02  0.50000171087E+02 0.  0.
        -12    1    1    2    0    0 -0.18409757463E+02 -0.91946406967E+01  0.24356805940E+02  0.31885962162E+02  0.00000000000E+00 0.  1.
         11    1    3    3    0    0  0.12116622722E+02 -0.61243366248E+01 -0.89121055267E+01  0.16240248473E+02  0.51100000000E-03 0. -1.
        -11    1    3    3    0    0  0.13436919364E+02 -0.73739151113E+01 -0.12966103398E+01  0.15382022776E+02  0.51100000000E-03 0.  1.
        -12    1    3    3    0    0 -0.71437846224E+01  0.22692892433E+02 -0.14148090073E+02  0.27679766589E+02  0.00000000000E+00 0.  1.
</event>
<event>
 7    1  0.1338132E-011  0.5930196E+02  0.7816164E-02  0.1266605E+00
        -11   -1    0    0    0    0  0.00000000000E+00  0.00000000000E+00  0.45593999997E+02  0.45594000000E+02  0.51100000000E-03 0.  1.
         11   -1    0    0    0    0 -0.00000000000E+00 -0.00000000000E+00 -0.45593999997E+02  0.45594000000E+02  0.51100000000E-03 0. -1.
    9900012    2    1    2    0    0 -0.24158212221E+02  0.20423412922E+02 -0.39980790697E+01  0.59301958393E+02  0.50000026200E+02 0.  0.
        -12    1    1    2    0    0  0.24158212221E+02 -0.20423412922E+02  0.39980790697E+01  0.31886041607E+02  0.00000000000E+00 0.  1.
         11    1    3    3    0    0 -0.23897896247E+02  0.17286721093E+02 -0.22926512082E+02  0.37357263386E+02  0.51100000000E-03 0. -1.
        -11    1    3    3    0    0 -0.70466124133E+00 -0.12569040576E+01 -0.85423555914E+00  0.16751340026E+01  0.51100000000E-03 0.  1.
        -12    1    3    3    0    0  0.44434526679E+00  0.43935958864E+01  0.19782668572E+02  0.20269561005E+02  0.00000000000E+00 0.  1.
</event>
<event>
 7    1  0.1338132E-011  0.5930177E+02  0.7816164E-02  0.1266605E+00
        -11   -1    0    0    0    0  0.00000000000E+00  0.00000000000E+00  0.45593999997E+02  0.45594000000E+02  0.51100000000E-03 0. -1.
         11   -1    0    0    0    0 -0.00000000000E+00 -0.00000000000E+00 -0.45593999997E+02  0.45594000000E+02  0.51100000000E-03 0.  1.
    9900012    2    1    2    0    0  0.37392310223E+01 -0.28210027589E+02  0.14385559344E+02  0.59301767503E+02  0.49999678061E+02 0.  0.
        -12    1    1    2    0    0 -0.37392310223E+01  0.28210027589E+02 -0.14385559344E+02  0.31886232497E+02  0.00000000000E+00 0.  1.
         11    1    3    3    0    0 -0.64805682589E+01 -0.50492372454E+01  0.60529707206E+01  0.10204460619E+02  0.51100000000E-03 0.  1.
        -11    1    3    3    0    0  0.93134681262E+01 -0.30948563844E+02  0.17726312167E+02  0.36861584826E+02  0.51100000000E-03 0. -1.
        -12    1    3    3    0    0  0.90633115503E+00  0.77877735012E+01 -0.93937235438E+01  0.12235722058E+02  0.00000000000E+00 0.  1.
</event>
<event>
 7    1  0.1338132E-011  0.5930195E+02  0.7816164E-02  0.1266605E+00
        -11   -1    0    0    0    0  0.00000000000E+00  0.00000000000E+00  0.45593999997E+02  0.45594000000E+02  0.51100000000E-03 0. -1.
         11   -1    0    0    0    0 -0.00000000000E+00 -0.00000000000E+00 -0.45593999997E+02  0.45594000000E+02  0.51100000000E-03 0.  1.
    9900012    2    1    2    0    0 -0.93393513652E+01  0.96675521408E+01 -0.28914267177E+02  0.59301954546E+02  0.50000019182E+02 0.  0.
        -12    1    1    2    0    0  0.93393513652E+01 -0.96675521408E+01  0.28914267177E+02  0.31886045454E+02  0.00000000000E+00 0.  1.
         11    1    3    3    0    0 -0.19143516395E+02 -0.19762199716E+01 -0.69319683886E+01  0.20455606844E+02  0.51100000000E-03 0. -1.
        -11    1    3    3    0    0  0.37639487703E+01  0.24319584031E+01 -0.26546944241E+02  0.26922518100E+02  0.51100000000E-03 0.  1.
         12    1    3    3    0    0  0.60402162596E+01  0.92118137094E+01  0.45646454526E+01  0.11923829602E+02  0.00000000000E+00 0. -1.
</event>
<event>
 7    1  0.1338132E-011  0.5930195E+02  0.7816164E-02  0.1266605E+00
        -11   -1    0    0    0    0  0.00000000000E+00  0.00000000000E+00  0.45593999997E+02  0.45594000000E+02  0.51100000000E-03 0.  1.
         11   -1    0    0    0    0 -0.00000000000E+00 -0.00000000000E+00 -0.45593999997E+02  0.45594000000E+02  0.51100000000E-03 0. -1.
    9900012    2    1    2    0    0  0.69732872253E+01  0.16635057442E+01 -0.31069701542E+02  0.59301947564E+02  0.50000006449E+02 0.  0.
        -12    1    1    2    0    0 -0.69732872253E+01 -0.16635057442E+01  0.31069701542E+02  0.31886052436E+02  0.00000000000E+00 0.  1.
         11    1    3    3    0    0 -0.65876056574E+01  0.10006531498E+02 -0.21145917714E+02  0.24303848607E+02  0.51100000000E-03 0. -1.
        -11    1    3    3    0    0 -0.86006763684E+01 -0.72730754044E+01 -0.46947368860E+01  0.12202860915E+02  0.51100000000E-03 0.  1.
        -12    1    3    3    0    0  0.22161569251E+02 -0.10699503490E+01 -0.52290469419E+01  0.22795238041E+02  0.00000000000E+00 0.  1.
</event>
<event>
 7    1  0.1338132E-011  0.5930187E+02  0.7816164E-02  0.1266605E+00
        -11   -1    0    0    0    0  0.00000000000E+00  0.00000000000E+00  0.45593999997E+02  0.45594000000E+02  0.51100000000E-03 0.  1.
         11   -1    0    0    0    0 -0.00000000000E+00 -0.00000000000E+00 -0.45593999997E+02  0.45594000000E+02  0.51100000000E-03 0. -1.
    9900012    2    1    2    0    0  0.27381329690E+02 -0.13846389871E+02  0.86755862130E+01  0.59301866271E+02  0.49999858190E+02 0.  0.
        -12    1    1    2    0    0 -0.27381329690E+02  0.13846389871E+02 -0.86755862130E+01  0.31886133729E+02  0.00000000000E+00 0.  1.
         11    1    3    3    0    0  0.16160251885E+02  0.37941464773E+01  0.25111521054E+01  0.16788542928E+02  0.51100000000E-03 0. -1.
        -11    1    3    3    0    0  0.18996202755E+02  0.17999182860E+01  0.94938551019E+01  0.21312642021E+02  0.51100000000E-03 0.  1.
         12    1    3    3    0    0 -0.77751249504E+01 -0.19440454634E+02 -0.33294209943E+01  0.21200681323E+02  0.00000000000E+00 0. -1.
</event>
<event>
 7    1  0.1338132E-011  0.5930193E+02  0.7816164E-02  0.1266605E+00
        -11   -1    0    0    0    0  0.00000000000E+00  0.00000000000E+00  0.45593999997E+02  0.45594000000E+02  0.51100000000E-03 0. -1.
         11   -1    0    0    0    0 -0.00000000000E+00 -0.00000000000E+00 -0.45593999997E+02  0.45594000000E+02  0.51100000000E-03 0.  1.
    9900012    2    1    2    0    0  0.97948803732E+01  0.67973503955E+01  0.29573259353E+02  0.59301932154E+02  0.49999978346E+02 0.  0.
        -12    1    1    2    0    0 -0.97948803732E+01 -0.67973503955E+01 -0.29573259353E+02  0.31886067846E+02  0.00000000000E+00 0.  1.
         11    1    3    3    0    0  0.11156780950E+02 -0.18203242508E+02  0.16680072790E+02  0.27093479428E+02  0.51100000000E-03 0.  1.
        -11    1    3    3    0    0 -0.79338646175E+01  0.81859727337E+01  0.60136562561E+01  0.12888771051E+02  0.51100000000E-03 0. -1.
        -12    1    3    3    0    0  0.65719640408E+01  0.16814620170E+02  0.68795303070E+01  0.19319681676E+02  0.00000000000E+00 0.  1.
</event>
<event>
 7    1  0.1338132E-011  0.5930194E+02  0.7816164E-02  0.1266605E+00
        -11   -1    0    0    0    0  0.00000000000E+00  0.00000000000E+00  0.45593999997E+02  0.45594000000E+02  0.51100000000E-03 0. -1.
         11   -1    0    0    0    0 -0.00000000000E+00 -0.00000000000E+00 -0.45593999997E+02  0.45594000000E+02  0.51100000000E-03 0.  1.
    9900012    2    1    2    0    0 -0.16518216508E+02  0.25204016426E+02 -0.10422420393E+02  0.59301940860E+02  0.49999994223E+02 0.  0.
        -12    1    1    2    0    0  0.16518216508E+02 -0.25204016426E+02  0.10422420393E+02  0.31886059140E+02  0.00000000000E+00 0.  1.
         11    1    3    3    0    0 -0.14109410053E+02 -0.76167423093E+01  0.79590069971E+01  0.17900726468E+02  0.51100000000E-03 0. -1.
        -11    1    3    3    0    0 -0.13615394085E+01  0.19584208176E+01 -0.87270257006E+01  0.90471089029E+01  0.51100000000E-03 0.  1.
        -12    1    3    3    0    0 -0.10472670467E+01  0.30862337918E+02 -0.96544016892E+01  0.32354105489E+02  0.00000000000E+00 0.  1.
</event>
<event>
 7    1  0.1338132E-011  0.5930195E+02  0.7816164E-02  0.1266605E+00
        -11   -1    0    0    0    0  0.00000000000E+00  0.00000000000E+00  0.45593999997E+02  0.45594000000E+02  0.51100000000E-03 0.  1.
         11   -1    0    0    0    0 -0.00000000000E+00 -0.00000000000E+00 -0.45593999997E+02  0.45594000000E+02  0.51100000000E-03 0. -1.
    9900012    2    1    2    0    0  0.16106943642E+02 -0.21611257531E+02 -0.17036440967E+02  0.59301946522E+02  0.50000004549E+02 0.  0.
        -12    1    1    2    0    0 -0.16106943642E+02  0.21611257531E+02  0.17036440967E+02  0.31886053478E+02  0.00000000000E+00 0.  1.
         11    1    3    3    0    0 -0.50726410634E+01 -0.90414259339E+01  0.38187465943E+01  0.11048162566E+02  0.51100000000E-03 0. -1.
        -11    1    3    3    0    0 -0.93821230672E+01  0.19981469561E+01 -0.35236374544E+01  0.10219238997E+02  0.51100000000E-03 0.  1.
         12    1    3    3    0    0  0.30561707773E+02 -0.14567978553E+02 -0.17331550107E+02  0.38034544959E+02  0.00000000000E+00 0. -1.
</event>
<event>
 7    1  0.1338132E-011  0.5930194E+02  0.7816164E-02  0.1266605E+00
        -11   -1    0    0    0    0  0.00000000000E+00  0.00000000000E+00  0.45593999997E+02  0.45594000000E+02  0.51100000000E-03 0. -1.
         11   -1    0    0    0    0 -0.00000000000E+00 -0.00000000000E+00 -0.45593999997E+02  0.45594000000E+02  0.51100000000E-03 0.  1.
    9900012    2    1    2    0    0  0.49822994155E+01  0.30134104739E+02  0.91560404142E+01  0.59301942672E+02  0.49999997527E+02 0.  0.
        -12    1    1    2    0    0 -0.49822994155E+01 -0.30134104739E+02 -0.91560404142E+01  0.31886057328E+02  0.00000000000E+00 0.  1.
         11    1    3    3    0    0 -0.15825665668E+02  0.10898190061E+02  0.33825510409E+01  0.19510609736E+02  0.51100000000E-03 0. -1.
        -11    1    3    3    0    0  0.23461171411E+01  0.20441943885E+02  0.61866348494E+00  0.20585433690E+02  0.51100000000E-03 0.  1.
        -12    1    3    3    0    0  0.18461847943E+02 -0.12060292079E+01  0.51548258884E+01  0.19205899246E+02  0.00000000000E+00 0.  1.
</event>
<event>
 7    1  0.1338132E-011  0.5930193E+02  0.7816164E-02  0.1266605E+00
        -11   -1    0    0    0    0  0.00000000000E+00  0.00000000000E+00  0.45593999997E+02  0.45594000000E+02  0.51100000000E-03 0. -1.
         11   -1    0    0    0    0 -0.00000000000E+00 -0.00000000000E+00 -0.45593999997E+02  0.45594000000E+02  0.51100000000E-03 0.  1.
    9900012    2    1    2    0    0  0.18310544987E+02  0.24342579990E+02  0.94278256472E+01  0.59301934787E+02  0.49999983148E+02 0.  0.
        -12    1    1    2    0    0 -0.18310544987E+02 -0.24342579990E+02 -0.94278256472E+01  0.31886065213E+02  0.00000000000E+00 0.  1.
         11    1    3    3    0    0 -0.37831228569E+01 -0.89597896647E+01  0.67288982294E+01  0.11826576894E+02  0.51100000000E-03 0.  1.
        -11    1    3    3    0    0  0.12377700306E+01 -0.28307953857E+01 -0.41737853666E+01  0.51928760540E+01  0.51100000000E-03 0. -1.
         12    1    3    3    0    0  0.20855897814E+02  0.36133165041E+02  0.68727127845E+01  0.42282481839E+02  0.00000000000E+00 0. -1.
</event>
<event>
 7    1  0.1338132E-011  0.5930219E+02  0.7816164E-02  0.1266604E+00
        -11   -1    0    0    0    0  0.00000000000E+00  0.00000000000E+00  0.45593999997E+02  0.45594000000E+02  0.51100000000E-03 0.  1.
         11   -1    0    0    0    0 -0.00000000000E+00 -0.00000000000E+00 -0.45593999997E+02  0.45594000000E+02  0.51100000000E-03 0. -1.
    9900012    2    1    2    0    0  0.54487413118E+01 -0.73830601454E+01 -0.30536974305E+02  0.59302185620E+02  0.50000440604E+02 0.  0.
        -12    1    1    2    0    0 -0.54487413118E+01  0.73830601454E+01  0.30536974305E+02  0.31885814380E+02  0.00000000000E+00 0.  1.
         11    1    3    3    0    0  0.78978878204E+01 -0.25103432857E+01 -0.77523398446E+00  0.83234273846E+01  0.51100000000E-03 0. -1.
        -11    1    3    3    0    0  0.71294529213E+01 -0.10369514767E+01 -0.37433910383E+02  0.38120886849E+02  0.51100000000E-03 0.  1.
        -12    1    3    3    0    0 -0.95785994300E+01 -0.38357653830E+01  0.76721700625E+01  0.12857871386E+02  0.00000000000E+00 0.  1.
</event>
<event>
 7    1  0.1338132E-011  0.5930192E+02  0.7816164E-02  0.1266605E+00
        -11   -1    0    0    0    0  0.00000000000E+00  0.00000000000E+00  0.45593999997E+02  0.45594000000E+02  0.51100000000E-03 0.  1.
         11   -1    0    0    0    0 -0.00000000000E+00 -0.00000000000E+00 -0.45593999997E+02  0.45594000000E+02  0.51100000000E-03 0. -1.
    9900012    2    1    2    0    0 -0.18674889009E+02 -0.24402278438E+02 -0.85146676419E+01  0.59301917808E+02  0.49999952182E+02 0.  0.
        -12    1    1    2    0    0  0.18674889009E+02  0.24402278438E+02  0.85146676419E+01  0.31886082192E+02  0.00000000000E+00 0.  1.
         11    1    3    3    0    0  0.71075739775E+01 -0.72070030361E+01 -0.63208028971E+01  0.11933610105E+02  0.51100000000E-03 0. -1.
        -11    1    3    3    0    0 -0.46369843732E+01 -0.14690766536E+02 -0.15825469257E+02  0.22085418786E+02  0.51100000000E-03 0.  1.
        -12    1    3    3    0    0 -0.21145478613E+02 -0.25045088662E+01  0.13631604512E+02  0.25282888918E+02  0.00000000000E+00 0.  1.
</event>
<event>
 7    1  0.1338132E-011  0.5930195E+02  0.7816164E-02  0.1266605E+00
        -11   -1    0    0    0    0  0.00000000000E+00  0.00000000000E+00  0.45593999997E+02  0.45594000000E+02  0.51100000000E-03 0. -1.
         11   -1    0    0    0    0 -0.00000000000E+00 -0.00000000000E+00 -0.45593999997E+02  0.45594000000E+02  0.51100000000E-03 0.  1.
    9900012    2    1    2    0    0  0.18254986768E+02 -0.18880404933E+02  0.18083314075E+02  0.59301945364E+02  0.50000002436E+02 0.  0.
        -12    1    1    2    0    0 -0.18254986768E+02  0.18880404933E+02 -0.18083314075E+02  0.31886054636E+02  0.00000000000E+00 0.  1.
         11    1    3    3    0    0  0.36189925094E+01 -0.20263678440E+02  0.16973779263E+02  0.26680010371E+02  0.51100000000E-03 0. -1.
        -11    1    3    3    0    0 -0.85935378939E+01 -0.18308935586E+01  0.24841749685E+01  0.91308373270E+01  0.51100000000E-03 0.  1.
         12    1    3    3    0    0  0.23229532153E+02  0.32141670656E+01 -0.13746401559E+01  0.23491097665E+02  0.00000000000E+00 0. -1.
</event>
<event>
 7    1  0.1338132E-011  0.5930194E+02  0.7816164E-02  0.1266605E+00
        -11   -1    0    0    0    0  0.00000000000E+00  0.00000000000E+00  0.45593999997E+02  0.45594000000E+02  0.51100000000E-03 0.  1.
         11   -1    0    0    0    0 -0.00000000000E+00 -0.00000000000E+00 -0.45593999997E+02  0.45594000000E+02  0.51100000000E-03 0. -1.
    9900012    2    1    2    0    0 -0.13334172241E+01  0.23119507031E+02 -0.21918735572E+02  0.59301943863E+02  0.49999999700E+02 0.  0.
        -12    1    1    2    0    0  0.13334172241E+01 -0.23119507031E+02  0.21918735572E+02  0.31886056137E+02  0.00000000000E+00 0.  1.
         11    1    3    3    0    0  0.68754327554E+00  0.14011261121E+02  0.10967551029E+02  0.17806609160E+02  0.51100000000E-03 0. -1.
        -11    1    3    3    0    0  0.22435599522E+01  0.80043301521E+01  0.25404569090E-02  0.83128135525E+01  0.51100000000E-03 0.  1.
         12    1    3    3    0    0 -0.42645204519E+01  0.11039157586E+01 -0.32888827058E+02  0.33182521151E+02  0.00000000000E+00 0. -1.
</event>
<event>
 7    1  0.1338132E-011  0.5930191E+02  0.7816164E-02  0.1266605E+00
        -11   -1    0    0    0    0  0.00000000000E+00  0.00000000000E+00  0.45593999997E+02  0.45594000000E+02  0.51100000000E-03 0.  1.
         11   -1    0    0    0    0 -0.00000000000E+00 -0.00000000000E+00 -0.45593999997E+02  0.45594000000E+02  0.51100000000E-03 0. -1.
    9900012    2    1    2    0    0  0.28710523582E+01  0.61377693001E+01 -0.31157784088E+02  0.59301911138E+02  0.49999940018E+02 0.  0.
        -12    1    1    2    0    0 -0.28710523582E+01 -0.61377693001E+01  0.31157784088E+02  0.31886088862E+02  0.00000000000E+00 0.  1.
         11    1    3    3    0    0 -0.31148997280E+01 -0.12427118932E+02 -0.16056259661E+02  0.20541162572E+02  0.51100000000E-03 0. -1.
        -11    1    3    3    0    0  0.95725988000E+01  0.36344890760E+01 -0.20145516738E+02  0.22598362851E+02  0.51100000000E-03 0.  1.
        -12    1    3    3    0    0 -0.35866467138E+01  0.14930399156E+02  0.50439923105E+01  0.16162385716E+02  0.00000000000E+00 0.  1.
</event>
<event>
 7    1  0.1338132E-011  0.5930195E+02  0.7816164E-02  0.1266605E+00
        -11   -1    0    0    0    0  0.00000000000E+00  0.00000000000E+00  0.45593999997E+02  0.45594000000E+02  0.51100000000E-03 0. -1.
         11   -1    0    0    0    0 -0.00000000000E+00 -0.00000000000E+00 -0.45593999997E+02  0.45594000000E+02  0.51100000000E-03 0.  1.
    9900012    2    1    2    0    0  0.10093313693E+02 -0.96241494532E+01  0.28674392584E+02  0.59301952518E+02  0.50000015484E+02 0.  0.
        -12    1    1    2    0    0 -0.10093313693E+02  0.96241494532E+01 -0.28674392584E+02  0.31886047482E+02  0.00000000000E+00 0.  1.
         11    1    3    3    0    0  0.10523153602E+02 -0.11876852309E+02  0.57300201463E+01  0.16870966589E+02  0.51100000000E-03 0. -1.
        -11    1    3    3    0    0  0.14260699687E+02 -0.45247335488E+01  0.76886168623E+00  0.14981051959E+02  0.51100000000E-03 0.  1.
         12    1    3    3    0    0 -0.14690539596E+02  0.67774364049E+01  0.22175510751E+02  0.27449933969E+02  0.00000000000E+00 0. -1.
</event>
<event>
 7    1  0.1338132E-011  0.5930194E+02  0.7816164E-02  0.1266605E+00
        -11   -1    0    0    0    0  0.00000000000E+00  0.00000000000E+00  0.45593999997E+02  0.45594000000E+02  0.51100000000E-03 0. -1.
         11   -1    0    0    0    0 -0.00000000000E+00 -0.00000000000E+00 -0.45593999997E+02  0.45594000000E+02  0.51100000000E-03 0.  1.
    9900012    2    1    2    0    0  0.47144119780E+01  0.31442778923E+02 -0.24180759022E+01  0.59301935368E+02  0.49999984206E+02 0.  0.
        -12    1    1    2    0    0 -0.47144119780E+01 -0.31442778923E+02  0.24180759022E+01  0.31886064632E+02  0.00000000000E+00 0.  1.
         11    1    3    3    0    0  0.16372009646E+01  0.71826981398E-01  0.11331055051E+01  0.19923640381E+01  0.51100000000E-03 0. -1.
        -11    1    3    3    0    0  0.17324589342E+02  0.70646796358E+01 -0.17723619705E+02  0.25771647017E+02  0.51100000000E-03 0.  1.
         12    1    3    3    0    0 -0.14247378329E+02  0.24306272305E+02  0.14172438298E+02  0.31537924313E+02  0.00000000000E+00 0. -1.
</event>
<event>
 7    1  0.1338132E-011  0.5930194E+02  0.7816164E-02  0.1266605E+00
        -11   -1    0    0    0    0  0.00000000000E+00  0.00000000000E+00  0.45593999997E+02  0.45594000000E+02  0.51100000000E-03 0.  1.
         11   -1    0    0    0    0 -0.00000000000E+00 -0.00000000000E+00 -0.45593999997E+02  0.45594000000E+02  0.51100000000E-03 0. -1.
    9900012    2    1    2    0    0 -0.22726981827E+02  0.52362067731E+01 -0.21743669961E+02  0.59301941170E+02  0.49999994789E+02 0.  0.
        -12    1    1    2    0    0  0.22726981827E+02 -0.52362067731E+01  0.21743669961E+02  0.31886058830E+02  0.00000000000E+00 0.  1.
         11    1    3    3    0    0 -0.23456867891E+02  0.11115298331E+02 -0.21057390284E+02  0.33424365275E+02  0.51100000000E-03 0. -1.
        -11    1    3    3    0    0 -0.36650969665E+01 -0.72106514208E+01 -0.11539909326E+02  0.14092407077E+02  0.51100000000E-03 0.  1.
         12    1    3    3    0    0  0.43949830304E+01  0.13315598633E+01  0.10853629650E+02  0.11785168818E+02  0.00000000000E+00 0. -1.
</event>
<event>
 7    1  0.1338132E-011  0.5930195E+02  0.7816164E-02  0.1266605E+00
        -11   -1    0    0    0    0  0.00000000000E+00  0.00000000000E+00  0.45593999997E+02  0.45594000000E+02  0.51100000000E-03 0. -1.
         11   -1    0    0    0    0 -0.00000000000E+00 -0.00000000000E+00 -0.45593999997E+02  0.45594000000E+02  0.51100000000E-03 0.  1.
    9900012    2    1    2    0    0 -0.15766592786E+02  0.95795486247E+01  0.26007060341E+02  0.59301946818E+02  0.50000005089E+02 0.  0.
        -12    1    1    2    0    0  0.15766592786E+02 -0.95795486247E+01 -0.26007060341E+02  0.31886053182E+02  0.00000000000E+00 0.  1.
         11    1    3    3    0    0 -0.14232768397E+01  0.42112986720E+01  0.64782722351E+00  0.44922637767E+01  0.51100000000E-03 0. -1.
        -11    1    3    3    0    0 -0.86201177058E+01  0.25866168702E+02  0.13087583080E+02  0.30243180120E+02  0.51100000000E-03 0.  1.
         12    1    3    3    0    0 -0.57231982402E+01 -0.20497918750E+02  0.12271650038E+02  0.24566502922E+02  0.00000000000E+00 0. -1.
</event>
<event>
 7    1  0.1338132E-011  0.5930194E+02  0.7816164E-02  0.1266605E+00
        -11   -1    0    0    0    0  0.00000000000E+00  0.00000000000E+00  0.45593999997E+02  0.45594000000E+02  0.51100000000E-03 0. -1.
         11   -1    0    0    0    0 -0.00000000000E+00 -0.00000000000E+00 -0.45593999997E+02  0.45594000000E+02  0.51100000000E-03 0.  1.
    9900012    2    1    2    0    0 -0.31200487201E+02 -0.12806063801E+01  0.64506363446E+01  0.59301936217E+02  0.49999985756E+02 0.  0.
        -12    1    1    2    0    0  0.31200487201E+02  0.12806063801E+01 -0.64506363446E+01  0.31886063783E+02  0.00000000000E+00 0.  1.
         11    1    3    3    0    0 -0.11908184210E+02 -0.40728483308E+01  0.76682293117E+01  0.14737526446E+02  0.51100000000E-03 0. -1.
        -11    1    3    3    0    0  0.66462946611E-01 -0.99168103486E+01 -0.14726588086E+02  0.17754434424E+02  0.51100000000E-03 0.  1.
        -12    1    3    3    0    0 -0.19358765938E+02  0.12709052299E+02  0.13508995119E+02  0.26809975347E+02  0.00000000000E+00 0.  1.
</event>
<event>
 7    1  0.1338132E-011  0.5930196E+02  0.7816164E-02  0.1266605E+00
        -11   -1    0    0    0    0  0.00000000000E+00  0.00000000000E+00  0.45593999997E+02  0.45594000000E+02  0.51100000000E-03 0.  1.
         11   -1    0    0    0    0 -0.00000000000E+00 -0.00000000000E+00 -0.45593999997E+02  0.45594000000E+02  0.51100000000E-03 0. -1.
    9900012    2    1    2    0    0  0.11519513725E+02  0.28250219638E+01 -0.29597963014E+02  0.59301962928E+02  0.50000034470E+02 0.  0.
        -12    1    1    2    0    0 -0.11519513725E+02 -0.28250219638E+01  0.29597963014E+02  0.31886037072E+02  0.00000000000E+00 0.  1.
         11    1    3    3    0    0  0.79819514483E+01 -0.13007832578E+02 -0.16423037952E+02  0.22419443194E+02  0.51100000000E-03 0. -1.
        -11    1    3    3    0    0 -0.38034929671E+01  0.50702138836E+01  0.90927095035E+01  0.11083816759E+02  0.51100000000E-03 0.  1.
         12    1    3    3    0    0  0.73410552440E+01  0.10762640659E+02 -0.22267634565E+02  0.25798702975E+02  0.00000000000E+00 0. -1.
</event>
<event>
 7    1  0.1338132E-011  0.5930194E+02  0.7816164E-02  0.1266605E+00
        -11   -1    0    0    0    0  0.00000000000E+00  0.00000000000E+00  0.45593999997E+02  0.45594000000E+02  0.51100000000E-03 0.  1.
         11   -1    0    0    0    0 -0.00000000000E+00 -0.00000000000E+00 -0.45593999997E+02  0.45594000000E+02  0.51100000000E-03 0. -1.
    9900012    2    1    2    0    0  0.20860967542E+02  0.17577921747E+02 -0.16509308687E+02  0.59301943908E+02  0.49999999783E+02 0.  0.
        -12    1    1    2    0    0 -0.20860967542E+02 -0.17577921747E+02  0.16509308687E+02  0.31886056092E+02  0.00000000000E+00 0.  1.
         11    1    3    3    0    0  0.86374847388E+01 -0.40436392985E+00 -0.62588174649E+00  0.86695663688E+01  0.51100000000E-03 0. -1.
        -11    1    3    3    0    0 -0.11758271599E+02  0.37690507172E+01  0.73267294682E+01  0.14357703830E+02  0.51100000000E-03 0.  1.
         12    1    3    3    0    0  0.23981754402E+02  0.14213234960E+02 -0.23210156409E+02  0.36274673710E+02  0.00000000000E+00 0. -1.
</event>
<event>
 7    1  0.1338132E-011  0.5930196E+02  0.7816164E-02  0.1266605E+00
        -11   -1    0    0    0    0  0.00000000000E+00  0.00000000000E+00  0.45593999997E+02  0.45594000000E+02  0.51100000000E-03 0.  1.
         11   -1    0    0    0    0 -0.00000000000E+00 -0.00000000000E+00 -0.45593999997E+02  0.45594000000E+02  0.51100000000E-03 0. -1.
    9900012    2    1    2    0    0  0.10719760752E+01  0.28218515641E+02 -0.14808307309E+02  0.59301957238E+02  0.50000024092E+02 0.  0.
        -12    1    1    2    0    0 -0.10719760752E+01 -0.28218515641E+02  0.14808307309E+02  0.31886042762E+02  0.00000000000E+00 0.  1.
         11    1    3    3    0    0 -0.66450200082E+01  0.13847728376E+02 -0.10436659307E+01  0.15394970313E+02  0.51100000000E-03 0. -1.
        -11    1    3    3    0    0 -0.35987751377E+01  0.20249096333E+02  0.50509299979E+01  0.21177558379E+02  0.51100000000E-03 0.  1.
         12    1    3    3    0    0  0.11315771221E+02 -0.58783090680E+01 -0.18815571376E+02  0.22729428546E+02  0.00000000000E+00 0. -1.
</event>
<event>
 7    1  0.1338132E-011  0.5930195E+02  0.7816164E-02  0.1266605E+00
        -11   -1    0    0    0    0  0.00000000000E+00  0.00000000000E+00  0.45593999997E+02  0.45594000000E+02  0.51100000000E-03 0. -1.
         11   -1    0    0    0    0 -0.00000000000E+00 -0.00000000000E+00 -0.45593999997E+02  0.45594000000E+02  0.51100000000E-03 0.  1.
    9900012    2    1    2    0    0 -0.25114663528E+02 -0.17906618945E+02  0.80824848434E+01  0.59301954660E+02  0.50000019391E+02 0.  0.
        -12    1    1    2    0    0  0.25114663528E+02  0.17906618945E+02 -0.80824848434E+01  0.31886045340E+02  0.00000000000E+00 0.  1.
         11    1    3    3    0    0 -0.36622032589E+01 -0.29567657467E+01  0.89392061411E+01  0.10102653270E+02  0.51100000000E-03 0. -1.
        -11    1    3    3    0    0  0.58691542209E+01  0.10361872460E+02 -0.10441335882E+01  0.11954312500E+02  0.51100000000E-03 0.  1.
        -12    1    3    3    0    0 -0.27321614490E+02 -0.25311725658E+02  0.18741229056E+00  0.37244988891E+02  0.00000000000E+00 0.  1.
</event>
<event>
 7    1  0.1338132E-011  0.5930197E+02  0.7816164E-02  0.1266605E+00
        -11   -1    0    0    0    0  0.00000000000E+00  0.00000000000E+00  0.45593999997E+02  0.45594000000E+02  0.51100000000E-03 0. -1.
         11   -1    0    0    0    0 -0.00000000000E+00 -0.00000000000E+00 -0.45593999997E+02  0.45594000000E+02  0.51100000000E-03 0.  1.
    9900012    2    1    2    0    0  0.27276548135E+02 -0.12666374905E+02  0.10595849609E+02  0.59301966061E+02  0.50000040184E+02 0.  0.
        -12    1    1    2    0    0 -0.27276548135E+02  0.12666374905E+02 -0.10595849609E+02  0.31886033939E+02  0.00000000000E+00 0.  1.
         11    1    3    3    0    0  0.15167689483E+02 -0.46193760647E+01 -0.65991510764E+01  0.17173998796E+02  0.51100000000E-03 0. -1.
        -11    1    3    3    0    0  0.19309062919E+02  0.56921143540E+01  0.16986537123E+01  0.20202116258E+02  0.51100000000E-03 0.  1.
         12    1    3    3    0    0 -0.72002042664E+01 -0.13739113195E+02  0.15496346973E+02  0.21925851007E+02  0.00000000000E+00 0. -1.
</event>
<event>
 7    1  0.1338132E-011  0.5930195E+02  0.7816164E-02  0.1266605E+00
        -11   -1    0    0    0    0  0.00000000000E+00  0.00000000000E+00  0.45593999997E+02  0.45594000000E+02  0.51100000000E-03 0. -1.
         11   -1    0    0    0    0 -0.00000000000E+00 -0.00000000000E+00 -0.45593999997E+02  0.45594000000E+02  0.51100000000E-03 0.  1.
    9900012    2    1    2    0    0 -0.12465593228E+02  0.28875969480E+02  0.52447843916E+01  0.59301946760E+02  0.50000004983E+02 0.  0.
        -12    1    1    2    0    0  0.12465593228E+02 -0.28875969480E+02 -0.52447843916E+01  0.31886053240E+02  0.00000000000E+00 0.  1.
         11    1    3    3    0    0 -0.12896632940E+02 -0.27074812765E+00 -0.10166496153E+02  0.16424192219E+02  0.51100000000E-03 0. -1.
        -11    1    3    3    0    0  0.95757700285E-01  0.11927931211E-01 -0.64505553983E+01  0.64512771619E+01  0.51100000000E-03 0.  1.
         12    1    3    3    0    0  0.33528201259E+00  0.29134789676E+02  0.21861835943E+02  0.36426477380E+02  0.00000000000E+00 0. -1.
</event>
<event>
 7    1  0.1338132E-011  0.5930197E+02  0.7816164E-02  0.1266605E+00
        -11   -1    0    0    0    0  0.00000000000E+00  0.00000000000E+00  0.45593999997E+02  0.45594000000E+02  0.51100000000E-03 0. -1.
         11   -1    0    0    0    0 -0.00000000000E+00 -0.00000000000E+00 -0.45593999997E+02  0.45594000000E+02  0.51100000000E-03 0.  1.
    9900012    2    1    2    0    0  0.20915839019E+01  0.65454998283E+01  0.31136805932E+02  0.59301968970E+02  0.50000045489E+02 0.  0.
        -12    1    1    2    0    0 -0.20915839019E+01 -0.65454998283E+01 -0.31136805932E+02  0.31886031030E+02  0.00000000000E+00 0.  1.
         11    1    3    3    0    0  0.19961587265E+02  0.67129666884E+01  0.14563499653E+02  0.25605163743E+02  0.51100000000E-03 0. -1.
        -11    1    3    3    0    0  0.22991540251E+01 -0.31505357306E+01 -0.33859707900E+01  0.51649572189E+01  0.51100000000E-03 0.  1.
         12    1    3    3    0    0 -0.20169157388E+02  0.29830688705E+01  0.19959277069E+02  0.28531848008E+02  0.00000000000E+00 0. -1.
</event>
<event>
 7    1  0.1338132E-011  0.5930193E+02  0.7816164E-02  0.1266605E+00
        -11   -1    0    0    0    0  0.00000000000E+00  0.00000000000E+00  0.45593999997E+02  0.45594000000E+02  0.51100000000E-03 0.  1.
         11   -1    0    0    0    0 -0.00000000000E+00 -0.00000000000E+00 -0.45593999997E+02  0.45594000000E+02  0.51100000000E-03 0. -1.
    9900012    2    1    2    0    0 -0.82880931182E+00 -0.16386632678E+02 -0.27340675234E+02  0.59301934428E+02  0.49999982492E+02 0.  0.
        -12    1    1    2    0    0  0.82880931182E+00  0.16386632678E+02  0.27340675234E+02  0.31886065572E+02  0.00000000000E+00 0.  1.
         11    1    3    3    0    0 -0.36643825741E+01 -0.15099227287E+02  0.90965904450E+00  0.15564120411E+02  0.51100000000E-03 0. -1.
        -11    1    3    3    0    0 -0.11978058160E+02 -0.81293552583E+01 -0.49642639908E+01  0.15303731944E+02  0.51100000000E-03 0.  1.
        -12    1    3    3    0    0  0.14813631422E+02  0.68419498670E+01 -0.23286070288E+02  0.28434082073E+02  0.00000000000E+00 0.  1.
</event>
<event>
 7    1  0.1338132E-011  0.5930194E+02  0.7816164E-02  0.1266605E+00
        -11   -1    0    0    0    0  0.00000000000E+00  0.00000000000E+00  0.45593999997E+02  0.45594000000E+02  0.51100000000E-03 0.  1.
         11   -1    0    0    0    0 -0.00000000000E+00 -0.00000000000E+00 -0.45593999997E+02  0.45594000000E+02  0.51100000000E-03 0. -1.
    9900012    2    1    2    0    0  0.23093065458E+02 -0.14701197202E+02 -0.16349490296E+02  0.59301941850E+02  0.49999996028E+02 0.  0.
        -12    1    1    2    0    0 -0.23093065458E+02  0.14701197202E+02  0.16349490296E+02  0.31886058150E+02  0.00000000000E+00 0.  1.
         11    1    3    3    0    0 -0.48805194515E+01 -0.12391046479E+02  0.37377711397E+01  0.13832152266E+02  0.51100000000E-03 0. -1.
        -11    1    3    3    0    0  0.14800128955E+02 -0.41246256453E+01  0.57552012868E+01  0.16406666204E+02  0.51100000000E-03 0.  1.
         12    1    3    3    0    0  0.13173455954E+02  0.18144749221E+01 -0.25842462722E+02  0.29063123380E+02  0.00000000000E+00 0. -1.
</event>
<event>
 7    1  0.1338132E-011  0.5930195E+02  0.7816164E-02  0.1266605E+00
        -11   -1    0    0    0    0  0.00000000000E+00  0.00000000000E+00  0.45593999997E+02  0.45594000000E+02  0.51100000000E-03 0.  1.
         11   -1    0    0    0    0 -0.00000000000E+00 -0.00000000000E+00 -0.45593999997E+02  0.45594000000E+02  0.51100000000E-03 0. -1.
    9900012    2    1    2    0    0  0.20309520904E+02 -0.13558488844E+02 -0.20503928525E+02  0.59301947500E+02  0.50000006333E+02 0.  0.
        -12    1    1    2    0    0 -0.20309520904E+02  0.13558488844E+02  0.20503928525E+02  0.31886052500E+02  0.00000000000E+00 0.  1.
         11    1    3    3    0    0  0.14931652641E+02 -0.66714860808E+01 -0.13706869855E+02  0.21338726734E+02  0.51100000000E-03 0. -1.
        -11    1    3    3    0    0  0.97598105736E+01 -0.38621214602E+01 -0.20626848438E+02  0.23143827716E+02  0.51100000000E-03 0.  1.
        -12    1    3    3    0    0 -0.43819423111E+01 -0.30248813028E+01  0.13829789769E+02  0.14819393050E+02  0.00000000000E+00 0.  1.
</event>
<event>
 7    1  0.1338132E-011  0.5930195E+02  0.7816164E-02  0.1266605E+00
        -11   -1    0    0    0    0  0.00000000000E+00  0.00000000000E+00  0.45593999997E+02  0.45594000000E+02  0.51100000000E-03 0. -1.
         11   -1    0    0    0    0 -0.00000000000E+00 -0.00000000000E+00 -0.45593999997E+02  0.45594000000E+02  0.51100000000E-03 0.  1.
    9900012    2    1    2    0    0  0.26905920074E+02  0.13892080712E+02 -0.99900690712E+01  0.59301954124E+02  0.50000018413E+02 0.  0.
        -12    1    1    2    0    0 -0.26905920074E+02 -0.13892080712E+02  0.99900690712E+01  0.31886045876E+02  0.00000000000E+00 0.  1.
         11    1    3    3    0    0  0.13255067111E+02  0.87489450773E+01 -0.41060265119E+01  0.16404276822E+02  0.51100000000E-03 0. -1.
        -11    1    3    3    0    0 -0.16334190619E+01 -0.67969091138E+01 -0.18488986202E+02  0.19766351266E+02  0.51100000000E-03 0.  1.
         12    1    3    3    0    0  0.15284272025E+02  0.11940044749E+02  0.12604943642E+02  0.23131326036E+02  0.00000000000E+00 0. -1.
</event>
<event>
 7    1  0.1338132E-011  0.5930195E+02  0.7816164E-02  0.1266605E+00
        -11   -1    0    0    0    0  0.00000000000E+00  0.00000000000E+00  0.45593999997E+02  0.45594000000E+02  0.51100000000E-03 0.  1.
         11   -1    0    0    0    0 -0.00000000000E+00 -0.00000000000E+00 -0.45593999997E+02  0.45594000000E+02  0.51100000000E-03 0. -1.
    9900012    2    1    2    0    0  0.89875541041E+01  0.42781146029E+01 -0.30292604602E+02  0.59301948396E+02  0.50000007966E+02 0.  0.
        -12    1    1    2    0    0 -0.89875541041E+01 -0.42781146029E+01  0.30292604602E+02  0.31886051604E+02  0.00000000000E+00 0.  1.
         11    1    3    3    0    0 -0.15359615249E+02  0.38482582740E+01 -0.23061680086E+02  0.27974416187E+02  0.51100000000E-03 0. -1.
        -11    1    3    3    0    0  0.42931665215E+01 -0.75812107390E+01 -0.58029146163E+00  0.87317107998E+01  0.51100000000E-03 0.  1.
        -12    1    3    3    0    0  0.20054002831E+02  0.80110670679E+01 -0.66506330540E+01  0.22595821409E+02  0.00000000000E+00 0.  1.
</event>
<event>
 7    1  0.1338132E-011  0.5930194E+02  0.7816164E-02  0.1266605E+00
        -11   -1    0    0    0    0  0.00000000000E+00  0.00000000000E+00  0.45593999997E+02  0.45594000000E+02  0.51100000000E-03 0.  1.
         11   -1    0    0    0    0 -0.00000000000E+00 -0.00000000000E+00 -0.45593999997E+02  0.45594000000E+02  0.51100000000E-03 0. -1.
    9900012    2    1    2    0    0  0.24771398835E+02 -0.18972753190E+02 -0.65675920954E+01  0.59301939883E+02  0.49999992441E+02 0.  0.
        -12    1    1    2    0    0 -0.24771398835E+02  0.18972753190E+02  0.65675920954E+01  0.31886060117E+02  0.00000000000E+00 0.  1.
         11    1    3    3    0    0 -0.18035327820E+01 -0.10865104122E+01  0.31952400306E+01  0.38265904518E+01  0.51100000000E-03 0. -1.
        -11    1    3    3    0    0  0.10654260237E+02 -0.59702881766E+01  0.17739207083E+02  0.21536876986E+02  0.51100000000E-03 0.  1.
         12    1    3    3    0    0  0.15920671380E+02 -0.11915954601E+02 -0.27502039209E+02  0.33938472445E+02  0.00000000000E+00 0. -1.
</event>
<event>
 7    1  0.1338132E-011  0.5930196E+02  0.7816164E-02  0.1266605E+00
        -11   -1    0    0    0    0  0.00000000000E+00  0.00000000000E+00  0.45593999997E+02  0.45594000000E+02  0.51100000000E-03 0. -1.
         11   -1    0    0    0    0 -0.00000000000E+00 -0.00000000000E+00 -0.45593999997E+02  0.45594000000E+02  0.51100000000E-03 0.  1.
    9900012    2    1    2    0    0 -0.11860063986E+02 -0.45381424366E+01  0.29248315634E+02  0.59301955686E+02  0.50000021263E+02 0.  0.
        -12    1    1    2    0    0  0.11860063986E+02  0.45381424366E+01 -0.29248315634E+02  0.31886044314E+02  0.00000000000E+00 0.  1.
         11    1    3    3    0    0  0.43654691512E+01  0.90324254772E+01  0.26606654720E+02  0.28435121005E+02  0.51100000000E-03 0. -1.
        -11    1    3    3    0    0 -0.36113487169E+01  0.39280306946E+01  0.70581731090E+01  0.88481112443E+01  0.51100000000E-03 0.  1.
        -12    1    3    3    0    0 -0.12614184420E+02 -0.17498598608E+02 -0.44165121946E+01  0.22018723437E+02  0.00000000000E+00 0.  1.
</event>
<event>
 7    1  0.1338132E-011  0.5930218E+02  0.7816164E-02  0.1266604E+00
        -11   -1    0    0    0    0  0.00000000000E+00  0.00000000000E+00  0.45593999997E+02  0.45594000000E+02  0.51100000000E-03 0. -1.
         11   -1    0    0    0    0 -0.00000000000E+00 -0.00000000000E+00 -0.45593999997E+02  0.45594000000E+02  0.51100000000E-03 0.  1.
    9900012    2    1    2    0    0 -0.83298963509E+01 -0.28947587070E+02  0.10457328507E+02  0.59302177290E+02  0.50000425412E+02 0.  0.
        -12    1    1    2    0    0  0.83298963509E+01  0.28947587070E+02 -0.10457328507E+02  0.31885822710E+02  0.00000000000E+00 0.  1.
         11    1    3    3    0    0  0.53296089130E+01  0.38492989857E+01  0.91583896845E+01  0.11273772027E+02  0.51100000000E-03 0. -1.
        -11    1    3    3    0    0 -0.20970819094E+02 -0.86220348393E+01 -0.77324042762E+00  0.22687279239E+02  0.51100000000E-03 0.  1.
         12    1    3    3    0    0  0.73113138304E+01 -0.24174851217E+02  0.20721792503E+01  0.25341126023E+02  0.00000000000E+00 0. -1.
</event>
<event>
 7    1  0.1338132E-011  0.5930200E+02  0.7816164E-02  0.1266605E+00
        -11   -1    0    0    0    0  0.00000000000E+00  0.00000000000E+00  0.45593999997E+02  0.45594000000E+02  0.51100000000E-03 0. -1.
         11   -1    0    0    0    0 -0.00000000000E+00 -0.00000000000E+00 -0.45593999997E+02  0.45594000000E+02  0.51100000000E-03 0.  1.
    9900012    2    1    2    0    0 -0.17921604524E+02  0.81580859666E+01  0.25079451509E+02  0.59301997376E+02  0.50000097295E+02 0.  0.
        -12    1    1    2    0    0  0.17921604524E+02 -0.81580859666E+01 -0.25079451509E+02  0.31886002624E+02  0.00000000000E+00 0.  1.
         11    1    3    3    0    0 -0.50425016085E+01  0.66255102011E+01  0.53430162335E+01  0.98930293960E+01  0.51100000000E-03 0. -1.
        -11    1    3    3    0    0 -0.14248747830E+01  0.20133621077E+02  0.32645009224E+00  0.20186617739E+02  0.51100000000E-03 0.  1.
        -12    1    3    3    0    0 -0.11454228132E+02 -0.18601045312E+02  0.19409985183E+02  0.29222350241E+02  0.00000000000E+00 0.  1.
</event>
<event>
 7    1  0.1338132E-011  0.5930195E+02  0.7816164E-02  0.1266605E+00
        -11   -1    0    0    0    0  0.00000000000E+00  0.00000000000E+00  0.45593999997E+02  0.45594000000E+02  0.51100000000E-03 0.  1.
         11   -1    0    0    0    0 -0.00000000000E+00 -0.00000000000E+00 -0.45593999997E+02  0.45594000000E+02  0.51100000000E-03 0. -1.
    9900012    2    1    2    0    0  0.17321210985E+02 -0.24435789819E+02 -0.10935618410E+02  0.59301954085E+02  0.50000018343E+02 0.  0.
        -12    1    1    2    0    0 -0.17321210985E+02  0.24435789819E+02  0.10935618410E+02  0.31886045915E+02  0.00000000000E+00 0.  1.
         11    1    3    3    0    0  0.14676233687E+02 -0.15596505348E+02 -0.16633983215E+02  0.27117009647E+02  0.51100000000E-03 0. -1.
        -11    1    3    3    0    0  0.87180165538E+01 -0.13876938987E+02 -0.65222185450E+01  0.17638383806E+02  0.51100000000E-03 0.  1.
        -12    1    3    3    0    0 -0.60730392562E+01  0.50376545152E+01  0.12220583351E+02  0.14546560633E+02  0.00000000000E+00 0.  1.
</event>
<event>
 7    1  0.1338132E-011  0.5930194E+02  0.7816164E-02  0.1266605E+00
        -11   -1    0    0    0    0  0.00000000000E+00  0.00000000000E+00  0.45593999997E+02  0.45594000000E+02  0.51100000000E-03 0.  1.
         11   -1    0    0    0    0 -0.00000000000E+00 -0.00000000000E+00 -0.45593999997E+02  0.45594000000E+02  0.51100000000E-03 0. -1.
    9900012    2    1    2    0    0 -0.15211859482E+02 -0.67970879462E-01 -0.28023483033E+02  0.59301938936E+02  0.49999990713E+02 0.  0.
        -12    1    1    2    0    0  0.15211859482E+02  0.67970879462E-01  0.28023483033E+02  0.31886061064E+02  0.00000000000E+00 0.  1.
         11    1    3    3    0    0 -0.22053065129E+01 -0.50844185975E+01 -0.21228667859E+02  0.21940169293E+02  0.51100000000E-03 0. -1.
        -11    1    3    3    0    0 -0.11987994382E+02 -0.31414518795E+01 -0.18976946084E+02  0.22665065898E+02  0.51100000000E-03 0.  1.
        -12    1    3    3    0    0 -0.10185585866E+01  0.81578995975E+01  0.12182130910E+02  0.14696703745E+02  0.00000000000E+00 0.  1.
</event>
<event>
 7    1  0.1338132E-011  0.5930195E+02  0.7816164E-02  0.1266605E+00
        -11   -1    0    0    0    0  0.00000000000E+00  0.00000000000E+00  0.45593999997E+02  0.45594000000E+02  0.51100000000E-03 0.  1.
         11   -1    0    0    0    0 -0.00000000000E+00 -0.00000000000E+00 -0.45593999997E+02  0.45594000000E+02  0.51100000000E-03 0. -1.
    9900012    2    1    2    0    0  0.12122096669E+02  0.10202261992E+02 -0.27671087624E+02  0.59301945561E+02  0.50000002796E+02 0.  0.
        -12    1    1    2    0    0 -0.12122096669E+02 -0.10202261992E+02  0.27671087624E+02  0.31886054439E+02  0.00000000000E+00 0.  1.
         11    1    3    3    0    0 -0.51175917484E+01 -0.39057341071E+00 -0.22506796259E+01  0.56042708654E+01  0.51100000000E-03 0. -1.
        -11    1    3    3    0    0  0.26423714217E+01 -0.13083096378E+02 -0.21920197312E+02  0.25664071930E+02  0.51100000000E-03 0.  1.
        -12    1    3    3    0    0  0.14597316996E+02  0.23675931781E+02 -0.35002106858E+01  0.28033602765E+02  0.00000000000E+00 0.  1.
</event>
<event>
 7    1  0.1338132E-011  0.5930195E+02  0.7816164E-02  0.1266605E+00
        -11   -1    0    0    0    0  0.00000000000E+00  0.00000000000E+00  0.45593999997E+02  0.45594000000E+02  0.51100000000E-03 0.  1.
         11   -1    0    0    0    0 -0.00000000000E+00 -0.00000000000E+00 -0.45593999997E+02  0.45594000000E+02  0.51100000000E-03 0. -1.
    9900012    2    1    2    0    0  0.26956030163E+02 -0.77648306970E+01 -0.15159162448E+02  0.59301947187E+02  0.50000005761E+02 0.  0.
        -12    1    1    2    0    0 -0.26956030163E+02  0.77648306970E+01  0.15159162448E+02  0.31886052813E+02  0.00000000000E+00 0.  1.
         11    1    3    3    0    0  0.88584483417E+00 -0.45820286410E+01 -0.39689986960E+01  0.61263903277E+01  0.51100000000E-03 0. -1.
        -11    1    3    3    0    0  0.34412526503E+02 -0.10869233356E+02 -0.17594672412E+02  0.40148906730E+02  0.51100000000E-03 0.  1.
        -12    1    3    3    0    0 -0.83423411745E+01  0.76864313005E+01  0.64045086596E+01  0.13026650129E+02  0.00000000000E+00 0.  1.
</event>
<event>
 7    1  0.1338132E-011  0.5930196E+02  0.7816164E-02  0.1266605E+00
        -11   -1    0    0    0    0  0.00000000000E+00  0.00000000000E+00  0.45593999997E+02  0.45594000000E+02  0.51100000000E-03 0.  1.
         11   -1    0    0    0    0 -0.00000000000E+00 -0.00000000000E+00 -0.45593999997E+02  0.45594000000E+02  0.51100000000E-03 0. -1.
    9900012    2    1    2    0    0 -0.23358370475E+02  0.21622797993E+02  0.18869218859E+01  0.59301963268E+02  0.50000035089E+02 0.  0.
        -12    1    1    2    0    0  0.23358370475E+02 -0.21622797993E+02 -0.18869218859E+01  0.31886036732E+02  0.00000000000E+00 0.  1.
         11    1    3    3    0    0  0.87069280714E+01  0.16185693292E+02 -0.14882366403E+01  0.18439146193E+02  0.51100000000E-03 0. -1.
        -11    1    3    3    0    0 -0.73941788997E+01 -0.90058316430E+01  0.38472557201E+01  0.12271114946E+02  0.51100000000E-03 0.  1.
        -12    1    3    3    0    0 -0.24671119646E+02  0.14442936344E+02 -0.47209719397E+00  0.28591702129E+02  0.00000000000E+00 0.  1.
</event>
<event>
 7    1  0.1438142E-011  0.5930194E+02  0.7816164E-02  0.1266605E+00
        -11   -1    0    0    0    0  0.00000000000E+00  0.00000000000E+00  0.45593999997E+02  0.45594000000E+02  0.51100000000E-03 0. -1.
         11   -1    0    0    0    0 -0.00000000000E+00 -0.00000000000E+00 -0.45593999997E+02  0.45594000000E+02  0.51100000000E-03 0.  1.
    9900012    2    1    2    0    0 -0.30390460190E+02 -0.59846871476E+01  0.75712919917E+01  0.59301937007E+02  0.49999987195E+02 0.  0.
        -12    1    1    2    0    0  0.30390460190E+02  0.59846871476E+01 -0.75712919917E+01  0.31886062993E+02  0.00000000000E+00 0.  1.
         11    1    3    3    0    0 -0.28103283789E+02 -0.67634523014E+01  0.16395000533E+01  0.28952146854E+02  0.51100000000E-03 0. -1.
        -11    1    3    3    0    0 -0.66369718238E+01 -0.12475122707E+02  0.80151776804E+01  0.16245650342E+02  0.51100000000E-03 0.  1.
        -12    1    3    3    0    0  0.43497954231E+01  0.13253887861E+02 -0.20833857420E+01  0.14104139810E+02  0.00000000000E+00 0.  1.
</event>
<event>
 7    1  0.1338132E-011  0.5930195E+02  0.7816164E-02  0.1266605E+00
        -11   -1    0    0    0    0  0.00000000000E+00  0.00000000000E+00  0.45593999997E+02  0.45594000000E+02  0.51100000000E-03 0. -1.
         11   -1    0    0    0    0 -0.00000000000E+00 -0.00000000000E+00 -0.45593999997E+02  0.45594000000E+02  0.51100000000E-03 0.  1.
    9900012    2    1    2    0    0 -0.77676083884E+01  0.79770268685E+01  0.29878946094E+02  0.59301951054E+02  0.50000012814E+02 0.  0.
        -12    1    1    2    0    0  0.77676083884E+01 -0.79770268685E+01 -0.29878946094E+02  0.31886048946E+02  0.00000000000E+00 0.  1.
         11    1    3    3    0    0  0.47172189058E+01  0.18852827223E+01  0.10961959395E+02  0.12081845852E+02  0.51100000000E-03 0. -1.
        -11    1    3    3    0    0  0.10994978652E+02  0.11526323650E+02 -0.99141669351E+00  0.15960219289E+02  0.51100000000E-03 0.  1.
         12    1    3    3    0    0 -0.23479805946E+02 -0.54345795033E+01  0.19908403392E+02  0.31259885913E+02  0.00000000000E+00 0. -1.
</event>
<event>
 7    1  0.1338132E-011  0.5930188E+02  0.7816164E-02  0.1266605E+00
        -11   -1    0    0    0    0  0.00000000000E+00  0.00000000000E+00  0.45593999997E+02  0.45594000000E+02  0.51100000000E-03 0.  1.
         11   -1    0    0    0    0 -0.00000000000E+00 -0.00000000000E+00 -0.45593999997E+02  0.45594000000E+02  0.51100000000E-03 0. -1.
    9900012    2    1    2    0    0 -0.29653190470E+02  0.78858337902E+00  0.11695759912E+02  0.59301884390E+02  0.49999891235E+02 0.  0.
        -12    1    1    2    0    0  0.29653190470E+02 -0.78858337902E+00 -0.11695759912E+02  0.31886115610E+02  0.00000000000E+00 0.  1.
         11    1    3    3    0    0 -0.26942899113E+02 -0.17355722932E+01  0.18255007207E+02  0.32591061845E+02  0.51100000000E-03 0. -1.
        -11    1    3    3    0    0 -0.31160661215E+01 -0.51482739272E+01  0.81410466195E+01  0.10123795377E+02  0.51100000000E-03 0.  1.
         12    1    3    3    0    0  0.40577476532E+00  0.76724295995E+01 -0.14700293914E+02  0.16587027168E+02  0.00000000000E+00 0. -1.
</event>
<event>
 7    1  0.1338132E-011  0.5930192E+02  0.7816164E-02  0.1266605E+00
        -11   -1    0    0    0    0  0.00000000000E+00  0.00000000000E+00  0.45593999997E+02  0.45594000000E+02  0.51100000000E-03 0.  1.
         11   -1    0    0    0    0 -0.00000000000E+00 -0.00000000000E+00 -0.45593999997E+02  0.45594000000E+02  0.51100000000E-03 0. -1.
    9900012    2    1    2    0    0 -0.15820809002E+02  0.27675697760E+02 -0.69277664845E+00  0.59301918656E+02  0.49999953728E+02 0.  0.
        -12    1    1    2    0    0  0.15820809002E+02 -0.27675697760E+02  0.69277664845E+00  0.31886081344E+02  0.00000000000E+00 0.  1.
         11    1    3    3    0    0 -0.14575019696E+02  0.13920885678E+02  0.15866336599E+02  0.25650787406E+02  0.51100000000E-03 0. -1.
        -11    1    3    3    0    0 -0.11625050979E+02  0.36358970836E+01 -0.75159810345E+00  0.12203542839E+02  0.51100000000E-03 0.  1.
         12    1    3    3    0    0  0.10379261673E+02  0.10118914998E+02 -0.15807515144E+02  0.21447588411E+02  0.00000000000E+00 0. -1.
</event>
<event>
 7    1  0.1338132E-011  0.5930195E+02  0.7816164E-02  0.1266605E+00
        -11   -1    0    0    0    0  0.00000000000E+00  0.00000000000E+00  0.45593999997E+02  0.45594000000E+02  0.51100000000E-03 0.  1.
         11   -1    0    0    0    0 -0.00000000000E+00 -0.00000000000E+00 -0.45593999997E+02  0.45594000000E+02  0.51100000000E-03 0. -1.
    9900012    2    1    2    0    0 -0.39352357013E+01 -0.14486564578E+02 -0.28131366275E+02  0.59301946594E+02  0.50000004681E+02 0.  0.
        -12    1    1    2    0    0  0.39352357013E+01  0.14486564578E+02  0.28131366275E+02  0.31886053406E+02  0.00000000000E+00 0.  1.
         11    1    3    3    0    0 -0.35745574941E+01 -0.14791416151E+02  0.63788434336E+01  0.16500093844E+02  0.51100000000E-03 0. -1.
        -11    1    3    3    0    0 -0.24321773097E+01 -0.10790707522E+00  0.37567520376E+01  0.44766412115E+01  0.51100000000E-03 0.  1.
         12    1    3    3    0    0  0.20714991025E+01  0.41275864879E+00 -0.38266961746E+02  0.38325211539E+02  0.00000000000E+00 0. -1.
</event>
<event>
 7    1  0.1338132E-011  0.5930200E+02  0.7816164E-02  0.1266605E+00
        -11   -1    0    0    0    0  0.00000000000E+00  0.00000000000E+00  0.45593999997E+02  0.45594000000E+02  0.51100000000E-03 0.  1.
         11   -1    0    0    0    0 -0.00000000000E+00 -0.00000000000E+00 -0.45593999997E+02  0.45594000000E+02  0.51100000000E-03 0. -1.
    9900012    2    1    2    0    0 -0.86468875538E+01 -0.28463711412E+02  0.11478904419E+02  0.59302003413E+02  0.50000108304E+02 0.  0.
        -12    1    1    2    0    0  0.86468875538E+01  0.28463711412E+02 -0.11478904419E+02  0.31885996587E+02  0.00000000000E+00 0.  1.
         11    1    3    3    0    0 -0.20556198390E+01  0.23591131868E+01 -0.97924113418E+01  0.10280190081E+02  0.51100000000E-03 0. -1.
        -11    1    3    3    0    0  0.67350270614E+00  0.22688585852E+01  0.14220592145E+02  0.14416191119E+02  0.51100000000E-03 0.  1.
        -12    1    3    3    0    0 -0.72647704210E+01 -0.33091683184E+02  0.70507236156E+01  0.34605622213E+02  0.00000000000E+00 0.  1.
</event>
<event>
 7    1  0.1338132E-011  0.5930194E+02  0.7816164E-02  0.1266605E+00
        -11   -1    0    0    0    0  0.00000000000E+00  0.00000000000E+00  0.45593999997E+02  0.45594000000E+02  0.51100000000E-03 0. -1.
         11   -1    0    0    0    0 -0.00000000000E+00 -0.00000000000E+00 -0.45593999997E+02  0.45594000000E+02  0.51100000000E-03 0.  1.
    9900012    2    1    2    0    0 -0.15470254389E+01 -0.25856649510E+02  0.18594659353E+02  0.59301937715E+02  0.49999988488E+02 0.  0.
        -12    1    1    2    0    0  0.15470254389E+01  0.25856649510E+02 -0.18594659353E+02  0.31886062285E+02  0.00000000000E+00 0.  1.
         11    1    3    3    0    0 -0.66843903712E+01 -0.18620779392E+02  0.19673830114E+02  0.27901148568E+02  0.51100000000E-03 0. -1.
        -11    1    3    3    0    0  0.12708390285E+01 -0.16097345604E+02  0.81035084098E+01  0.18066721234E+02  0.51100000000E-03 0.  1.
        -12    1    3    3    0    0  0.38665259038E+01  0.88614754858E+01 -0.91826791715E+01  0.13334067913E+02  0.00000000000E+00 0.  1.
</event>
<event>
 7    1  0.1338132E-011  0.5930193E+02  0.7816164E-02  0.1266605E+00
        -11   -1    0    0    0    0  0.00000000000E+00  0.00000000000E+00  0.45593999997E+02  0.45594000000E+02  0.51100000000E-03 0.  1.
         11   -1    0    0    0    0 -0.00000000000E+00 -0.00000000000E+00 -0.45593999997E+02  0.45594000000E+02  0.51100000000E-03 0. -1.
    9900012    2    1    2    0    0  0.28136370339E+01  0.31745079482E+02  0.10269284945E+01  0.59301933971E+02  0.49999981659E+02 0.  0.
        -12    1    1    2    0    0 -0.28136370339E+01 -0.31745079482E+02 -0.10269284945E+01  0.31886066029E+02  0.00000000000E+00 0.  1.
         11    1    3    3    0    0  0.14815565787E+02  0.40117262369E+01  0.11102834856E+02  0.18943808463E+02  0.51100000000E-03 0. -1.
        -11    1    3    3    0    0 -0.36987235497E+01 -0.42303278436E+01  0.59911343921E+00  0.56511208389E+01  0.51100000000E-03 0.  1.
         12    1    3    3    0    0 -0.83032052037E+01  0.31963681088E+02 -0.10675019800E+02  0.34707004669E+02  0.00000000000E+00 0. -1.
</event>
<event>
 7    1  0.1338132E-011  0.5930195E+02  0.7816164E-02  0.1266605E+00
        -11   -1    0    0    0    0  0.00000000000E+00  0.00000000000E+00  0.45593999997E+02  0.45594000000E+02  0.51100000000E-03 0. -1.
         11   -1    0    0    0    0 -0.00000000000E+00 -0.00000000000E+00 -0.45593999997E+02  0.45594000000E+02  0.51100000000E-03 0.  1.
    9900012    2    1    2    0    0  0.17842401086E+02 -0.21862068664E+02  0.14846499831E+02  0.59301954776E+02  0.50000019603E+02 0.  0.
        -12    1    1    2    0    0 -0.17842401086E+02  0.21862068664E+02 -0.14846499831E+02  0.31886045224E+02  0.00000000000E+00 0.  1.
         11    1    3    3    0    0  0.15385254951E+02  0.87839662830E-01  0.16571804662E+02  0.22612794956E+02  0.51100000000E-03 0. -1.
        -11    1    3    3    0    0  0.70639010350E+01 -0.15368758930E+02  0.12032571025E+02  0.20757654362E+02  0.51100000000E-03 0.  1.
         12    1    3    3    0    0 -0.46067548995E+01 -0.65811493964E+01 -0.13757875856E+02  0.15931505458E+02  0.00000000000E+00 0. -1.
</event>
<event>
 7    1  0.1338132E-011  0.5930192E+02  0.7816164E-02  0.1266605E+00
        -11   -1    0    0    0    0  0.00000000000E+00  0.00000000000E+00  0.45593999997E+02  0.45594000000E+02  0.51100000000E-03 0.  1.
         11   -1    0    0    0    0 -0.00000000000E+00 -0.00000000000E+00 -0.45593999997E+02  0.45594000000E+02  0.51100000000E-03 0. -1.
    9900012    2    1    2    0    0  0.20193729362E+02 -0.34972796626E+01 -0.24427540057E+02  0.59301915515E+02  0.49999947999E+02 0.  0.
        -12    1    1    2    0    0 -0.20193729362E+02  0.34972796626E+01  0.24427540057E+02  0.31886084485E+02  0.00000000000E+00 0.  1.
         11    1    3    3    0    0  0.18067626904E+02  0.56231646716E+01 -0.30234432170E+02  0.35667632551E+02  0.51100000000E-03 0. -1.
        -11    1    3    3    0    0  0.65630114451E+01 -0.16027665075E+01 -0.59421522201E+01  0.89972858671E+01  0.51100000000E-03 0.  1.
        -12    1    3    3    0    0 -0.44369089875E+01 -0.75176778266E+01  0.11749044333E+02  0.14636997097E+02  0.00000000000E+00 0.  1.
</event>
<event>
 7    1  0.1338132E-011  0.5930190E+02  0.7816164E-02  0.1266605E+00
        -11   -1    0    0    0    0  0.00000000000E+00  0.00000000000E+00  0.45593999997E+02  0.45594000000E+02  0.51100000000E-03 0.  1.
         11   -1    0    0    0    0 -0.00000000000E+00 -0.00000000000E+00 -0.45593999997E+02  0.45594000000E+02  0.51100000000E-03 0. -1.
    9900012    2    1    2    0    0 -0.36341073758E+01  0.15802345378E+02 -0.27455467457E+02  0.59301897241E+02  0.49999914673E+02 0.  0.
        -12    1    1    2    0    0  0.36341073758E+01 -0.15802345378E+02  0.27455467457E+02  0.31886102759E+02  0.00000000000E+00 0.  1.
         11    1    3    3    0    0 -0.13787923716E+02  0.47666628555E+00 -0.57467147753E+01  0.14945192609E+02  0.51100000000E-03 0.  1.
        -11    1    3    3    0    0 -0.21080093571E+01 -0.18425745525E+01 -0.23047418032E+02  0.23216852988E+02  0.51100000000E-03 0. -1.
        -12    1    3    3    0    0  0.12261825697E+02  0.17168253645E+02  0.13386653508E+01  0.21139851645E+02  0.00000000000E+00 0.  1.
</event>
<event>
 7    1  0.1338132E-011  0.5930194E+02  0.7816164E-02  0.1266605E+00
        -11   -1    0    0    0    0  0.00000000000E+00  0.00000000000E+00  0.45593999997E+02  0.45594000000E+02  0.51100000000E-03 0. -1.
         11   -1    0    0    0    0 -0.00000000000E+00 -0.00000000000E+00 -0.45593999997E+02  0.45594000000E+02  0.51100000000E-03 0.  1.
    9900012    2    1    2    0    0 -0.76416269753E+01  0.23576134691E+02  0.20062216999E+02  0.59301935007E+02  0.49999983549E+02 0.  0.
        -12    1    1    2    0    0  0.76416269753E+01 -0.23576134691E+02 -0.20062216999E+02  0.31886064993E+02  0.00000000000E+00 0.  1.
         11    1    3    3    0    0  0.95660223830E+01  0.16220745218E+02 -0.19241012539E+01  0.18929435426E+02  0.51100000000E-03 0. -1.
        -11    1    3    3    0    0  0.35668836327E+01 -0.46631581248E+01  0.13828917923E+02  0.15023537324E+02  0.51100000000E-03 0.  1.
        -12    1    3    3    0    0 -0.20774532991E+02  0.12018547599E+02  0.81574003294E+01  0.25348962257E+02  0.00000000000E+00 0.  1.
</event>
<event>
 7    1  0.1338132E-011  0.5930195E+02  0.7816164E-02  0.1266605E+00
        -11   -1    0    0    0    0  0.00000000000E+00  0.00000000000E+00  0.45593999997E+02  0.45594000000E+02  0.51100000000E-03 0.  1.
         11   -1    0    0    0    0 -0.00000000000E+00 -0.00000000000E+00 -0.45593999997E+02  0.45594000000E+02  0.51100000000E-03 0. -1.
    9900012    2    1    2    0    0  0.15750312820E+02 -0.21077167771E+01 -0.27644269064E+02  0.59301946057E+02  0.50000003701E+02 0.  0.
        -12    1    1    2    0    0 -0.15750312820E+02  0.21077167771E+01  0.27644269064E+02  0.31886053943E+02  0.00000000000E+00 0.  1.
         11    1    3    3    0    0 -0.10174784994E+02 -0.67748214025E+01 -0.13844996463E+02  0.18469119687E+02  0.51100000000E-03 0. -1.
        -11    1    3    3    0    0  0.11782361780E+01 -0.28964410563E+01  0.69781752621E+01  0.76467340436E+01  0.51100000000E-03 0.  1.
         12    1    3    3    0    0  0.24746861636E+02  0.75635456817E+01 -0.20777447864E+02  0.33186092326E+02  0.00000000000E+00 0. -1.
</event>
<event>
 7    1  0.1338132E-011  0.5930194E+02  0.7816164E-02  0.1266605E+00
        -11   -1    0    0    0    0  0.00000000000E+00  0.00000000000E+00  0.45593999997E+02  0.45594000000E+02  0.51100000000E-03 0.  1.
         11   -1    0    0    0    0 -0.00000000000E+00 -0.00000000000E+00 -0.45593999997E+02  0.45594000000E+02  0.51100000000E-03 0. -1.
    9900012    2    1    2    0    0 -0.16298767181E+02 -0.15054162896E+02 -0.22900719642E+02  0.59301943608E+02  0.49999999234E+02 0.  0.
        -12    1    1    2    0    0  0.16298767181E+02  0.15054162896E+02  0.22900719642E+02  0.31886056392E+02  0.00000000000E+00 0.  1.
         11    1    3    3    0    0  0.19935550912E+01 -0.17947922297E+02 -0.20788259919E+02  0.27536410939E+02  0.51100000000E-03 0. -1.
        -11    1    3    3    0    0  0.30959472814E+01  0.76510570191E+00  0.75527922456E+01  0.81984722523E+01  0.51100000000E-03 0.  1.
         12    1    3    3    0    0 -0.21388269553E+02  0.21286536990E+01 -0.96652519686E+01  0.23567060416E+02  0.00000000000E+00 0. -1.
</event>
<event>
 7    1  0.1338132E-011  0.5930196E+02  0.7816164E-02  0.1266605E+00
        -11   -1    0    0    0    0  0.00000000000E+00  0.00000000000E+00  0.45593999997E+02  0.45594000000E+02  0.51100000000E-03 0. -1.
         11   -1    0    0    0    0 -0.00000000000E+00 -0.00000000000E+00 -0.45593999997E+02  0.45594000000E+02  0.51100000000E-03 0.  1.
    9900012    2    1    2    0    0  0.21013643972E+02 -0.23629804704E+02  0.40961391388E+01  0.59301964511E+02  0.50000037357E+02 0.  0.
        -12    1    1    2    0    0 -0.21013643972E+02  0.23629804704E+02 -0.40961391388E+01  0.31886035489E+02  0.00000000000E+00 0.  1.
         11    1    3    3    0    0 -0.58466800325E+01 -0.62761442942E+01  0.10448019153E+02  0.13517942117E+02  0.51100000000E-03 0. -1.
        -11    1    3    3    0    0 -0.32399768714E+01 -0.98200122064E+00  0.79604394073E+01  0.86504550367E+01  0.51100000000E-03 0.  1.
        -12    1    3    3    0    0  0.30100300876E+02 -0.16371659189E+02 -0.14312319421E+02  0.37133567357E+02  0.00000000000E+00 0.  1.
</event>
<event>
 7    1  0.1338132E-011  0.5930198E+02  0.7816164E-02  0.1266605E+00
        -11   -1    0    0    0    0  0.00000000000E+00  0.00000000000E+00  0.45593999997E+02  0.45594000000E+02  0.51100000000E-03 0.  1.
         11   -1    0    0    0    0 -0.00000000000E+00 -0.00000000000E+00 -0.45593999997E+02  0.45594000000E+02  0.51100000000E-03 0. -1.
    9900012    2    1    2    0    0  0.11281901385E+01 -0.24698499504E+02 -0.20135286827E+02  0.59301976944E+02  0.50000060031E+02 0.  0.
        -12    1    1    2    0    0 -0.11281901385E+01  0.24698499504E+02  0.20135286827E+02  0.31886023056E+02  0.00000000000E+00 0.  1.
         11    1    3    3    0    0  0.49196861596E+01  0.56955547108E+01 -0.10512619755E+02  0.12928953158E+02  0.51100000000E-03 0. -1.
        -11    1    3    3    0    0 -0.13176441011E+00  0.32678081316E+01 -0.11992042451E+02  0.12430004596E+02  0.51100000000E-03 0.  1.
        -12    1    3    3    0    0 -0.36597316110E+01 -0.33661862346E+02  0.23693753793E+01  0.33943019190E+02  0.00000000000E+00 0.  1.
</event>
<event>
 7    1  0.1338132E-011  0.5930196E+02  0.7816164E-02  0.1266605E+00
        -11   -1    0    0    0    0  0.00000000000E+00  0.00000000000E+00  0.45593999997E+02  0.45594000000E+02  0.51100000000E-03 0.  1.
         11   -1    0    0    0    0 -0.00000000000E+00 -0.00000000000E+00 -0.45593999997E+02  0.45594000000E+02  0.51100000000E-03 0. -1.
    9900012    2    1    2    0    0 -0.27744797276E+02 -0.47577074794E+01 -0.14976978024E+02  0.59301961879E+02  0.50000032556E+02 0.  0.
        -12    1    1    2    0    0  0.27744797276E+02  0.47577074794E+01  0.14976978024E+02  0.31886038121E+02  0.00000000000E+00 0.  1.
         11    1    3    3    0    0 -0.45082821296E+01  0.84953639810E+01 -0.10764478188E+02  0.14435020189E+02  0.51100000000E-03 0. -1.
        -11    1    3    3    0    0 -0.39084791360E+00 -0.63875091877E+01  0.13643209330E+02  0.15069512162E+02  0.51100000000E-03 0.  1.
         12    1    3    3    0    0 -0.22845667233E+02 -0.68655622727E+01 -0.17855709166E+02  0.29797429528E+02  0.00000000000E+00 0. -1.
</event>
<event>
 7    1  0.1338132E-011  0.5930198E+02  0.7816164E-02  0.1266605E+00
        -11   -1    0    0    0    0  0.00000000000E+00  0.00000000000E+00  0.45593999997E+02  0.45594000000E+02  0.51100000000E-03 0.  1.
         11   -1    0    0    0    0 -0.00000000000E+00 -0.00000000000E+00 -0.45593999997E+02  0.45594000000E+02  0.51100000000E-03 0. -1.
    9900012    2    1    2    0    0  0.25205976178E+02  0.56530415149E+01 -0.18692791543E+02  0.59301975332E+02  0.50000057091E+02 0.  0.
        -12    1    1    2    0    0 -0.25205976178E+02 -0.56530415149E+01  0.18692791543E+02  0.31886024668E+02  0.00000000000E+00 0.  1.
         11    1    3    3    0    0  0.13889835690E+02  0.15419185629E+02 -0.14593279006E+02  0.25370112600E+02  0.51100000000E-03 0. -1.
        -11    1    3    3    0    0 -0.29396080086E+01  0.36085761823E+01  0.91853047023E+01  0.10297229727E+02  0.51100000000E-03 0.  1.
         12    1    3    3    0    0  0.14255748497E+02 -0.13374720296E+02 -0.13284817240E+02  0.23634633005E+02  0.00000000000E+00 0. -1.
</event>
<event>
 7    1  0.1338132E-011  0.5930194E+02  0.7816164E-02  0.1266605E+00
        -11   -1    0    0    0    0  0.00000000000E+00  0.00000000000E+00  0.45593999997E+02  0.45594000000E+02  0.51100000000E-03 0.  1.
         11   -1    0    0    0    0 -0.00000000000E+00 -0.00000000000E+00 -0.45593999997E+02  0.45594000000E+02  0.51100000000E-03 0. -1.
    9900012    2    1    2    0    0  0.22353173201E+02 -0.22714603629E+02 -0.10503538436E+01  0.59301940140E+02  0.49999992910E+02 0.  0.
        -12    1    1    2    0    0 -0.22353173201E+02  0.22714603629E+02  0.10503538436E+01  0.31886059860E+02  0.00000000000E+00 0.  1.
         11    1    3    3    0    0  0.21829782170E+02 -0.34914603340E+01 -0.11856578257E+02  0.25086014691E+02  0.51100000000E-03 0. -1.
        -11    1    3    3    0    0 -0.35238942387E+01  0.59715254833E+01  0.27120678186E+01  0.74452843678E+01  0.51100000000E-03 0.  1.
         12    1    3    3    0    0  0.40472852703E+01 -0.25194668779E+02  0.80941565949E+01  0.26770641081E+02  0.00000000000E+00 0. -1.
</event>
<event>
 7    1  0.1338132E-011  0.5930192E+02  0.7816164E-02  0.1266605E+00
        -11   -1    0    0    0    0  0.00000000000E+00  0.00000000000E+00  0.45593999997E+02  0.45594000000E+02  0.51100000000E-03 0.  1.
         11   -1    0    0    0    0 -0.00000000000E+00 -0.00000000000E+00 -0.45593999997E+02  0.45594000000E+02  0.51100000000E-03 0. -1.
    9900012    2    1    2    0    0 -0.29621986062E+02  0.14116548615E+01 -0.11716116040E+02  0.59301918354E+02  0.49999953177E+02 0.  0.
        -12    1    1    2    0    0  0.29621986062E+02 -0.14116548615E+01  0.11716116040E+02  0.31886081646E+02  0.00000000000E+00 0.  1.
         11    1    3    3    0    0 -0.16213106388E+01  0.12319187402E+01 -0.10384717850E+02  0.10582468382E+02  0.51100000000E-03 0. -1.
        -11    1    3    3    0    0  0.52218089344E+01  0.12271711099E+02  0.78436441006E-01  0.13336728773E+02  0.51100000000E-03 0.  1.
        -12    1    3    3    0    0 -0.33222484357E+02 -0.12091974978E+02 -0.14098346302E+01  0.35382721198E+02  0.00000000000E+00 0.  1.
</event>
<event>
 7    1  0.1338132E-011  0.5930194E+02  0.7816164E-02  0.1266605E+00
        -11   -1    0    0    0    0  0.00000000000E+00  0.00000000000E+00  0.45593999997E+02  0.45594000000E+02  0.51100000000E-03 0.  1.
         11   -1    0    0    0    0 -0.00000000000E+00 -0.00000000000E+00 -0.45593999997E+02  0.45594000000E+02  0.51100000000E-03 0. -1.
    9900012    2    1    2    0    0 -0.21875299998E+02 -0.22556438040E+02 -0.54221181180E+01  0.59301937027E+02  0.49999987232E+02 0.  0.
        -12    1    1    2    0    0  0.21875299998E+02  0.22556438040E+02  0.54221181180E+01  0.31886062973E+02  0.00000000000E+00 0.  1.
         11    1    3    3    0    0 -0.52123239137E+01  0.61393022844E+01  0.10928278999E+02  0.13575221371E+02  0.51100000000E-03 0. -1.
        -11    1    3    3    0    0 -0.20561637227E+02 -0.11625081647E+02 -0.32168852488E+01  0.23838452125E+02  0.51100000000E-03 0.  1.
         12    1    3    3    0    0  0.38986611426E+01 -0.17070658678E+02 -0.13133511869E+02  0.21888263531E+02  0.00000000000E+00 0. -1.
</event>
<event>
 7    1  0.1338132E-011  0.5930195E+02  0.7816164E-02  0.1266605E+00
        -11   -1    0    0    0    0  0.00000000000E+00  0.00000000000E+00  0.45593999997E+02  0.45594000000E+02  0.51100000000E-03 0. -1.
         11   -1    0    0    0    0 -0.00000000000E+00 -0.00000000000E+00 -0.45593999997E+02  0.45594000000E+02  0.51100000000E-03 0.  1.
    9900012    2    1    2    0    0  0.17142269176E+02  0.98669121917E+01  0.25010136325E+02  0.59301948697E+02  0.50000008516E+02 0.  0.
        -12    1    1    2    0    0 -0.17142269176E+02 -0.98669121917E+01 -0.25010136325E+02  0.31886051303E+02  0.00000000000E+00 0.  1.
         11    1    3    3    0    0  0.87536701636E+01 -0.10524151987E+02  0.28752124054E+02  0.31844452488E+02  0.51100000000E-03 0. -1.
        -11    1    3    3    0    0 -0.35788918905E+01  0.96366087650E+01 -0.47750821147E+01  0.11334641817E+02  0.51100000000E-03 0.  1.
        -12    1    3    3    0    0  0.11967490903E+02  0.10754455413E+02  0.10330943850E+01  0.16122854392E+02  0.00000000000E+00 0.  1.
</event>
<event>
 7    1  0.1338132E-011  0.5930194E+02  0.7816164E-02  0.1266605E+00
        -11   -1    0    0    0    0  0.00000000000E+00  0.00000000000E+00  0.45593999997E+02  0.45594000000E+02  0.51100000000E-03 0.  1.
         11   -1    0    0    0    0 -0.00000000000E+00 -0.00000000000E+00 -0.45593999997E+02  0.45594000000E+02  0.51100000000E-03 0. -1.
    9900012    2    1    2    0    0  0.27923319254E+02  0.13846491025E+02  0.67293139330E+01  0.59301941324E+02  0.49999995069E+02 0.  0.
        -12    1    1    2    0    0 -0.27923319254E+02 -0.13846491025E+02 -0.67293139330E+01  0.31886058676E+02  0.00000000000E+00 0.  1.
         11    1    3    3    0    0 -0.58146145138E+01  0.15467907042E+02 -0.94812821519E+01  0.19051524918E+02  0.51100000000E-03 0. -1.
        -11    1    3    3    0    0  0.49073732357E+01 -0.58928513405E+01  0.40193123266E+01  0.86581106967E+01  0.51100000000E-03 0.  1.
        -12    1    3    3    0    0  0.28830560532E+02  0.42714353234E+01  0.12191283758E+02  0.31592305709E+02  0.00000000000E+00 0.  1.
</event>
<event>
 7    1  0.1338132E-011  0.5930197E+02  0.7816164E-02  0.1266605E+00
        -11   -1    0    0    0    0  0.00000000000E+00  0.00000000000E+00  0.45593999997E+02  0.45594000000E+02  0.51100000000E-03 0.  1.
         11   -1    0    0    0    0 -0.00000000000E+00 -0.00000000000E+00 -0.45593999997E+02  0.45594000000E+02  0.51100000000E-03 0. -1.
    9900012    2    1    2    0    0 -0.99978672369E+01 -0.23014509821E+02 -0.19674706130E+02  0.59301967433E+02  0.50000042685E+02 0.  0.
        -12    1    1    2    0    0  0.99978672369E+01  0.23014509821E+02  0.19674706130E+02  0.31886032567E+02  0.00000000000E+00 0.  1.
         11    1    3    3    0    0 -0.70386339354E+01  0.21722317382E+01 -0.17592996973E+02  0.19072873438E+02  0.51100000000E-03 0. -1.
        -11    1    3    3    0    0 -0.10005693479E+02 -0.11319240443E+02  0.11963892341E+02  0.19271061891E+02  0.51100000000E-03 0.  1.
         12    1    3    3    0    0  0.70464601779E+01 -0.13867501116E+02 -0.14045601497E+02  0.20958032104E+02  0.00000000000E+00 0. -1.
</event>
<event>
 7    1  0.1338132E-011  0.5930194E+02  0.7816164E-02  0.1266605E+00
        -11   -1    0    0    0    0  0.00000000000E+00  0.00000000000E+00  0.45593999997E+02  0.45594000000E+02  0.51100000000E-03 0. -1.
         11   -1    0    0    0    0 -0.00000000000E+00 -0.00000000000E+00 -0.45593999997E+02  0.45594000000E+02  0.51100000000E-03 0.  1.
    9900012    2    1    2    0    0 -0.28848414490E+02  0.11769127133E+02 -0.67806509470E+01  0.59301943497E+02  0.49999999032E+02 0.  0.
        -12    1    1    2    0    0  0.28848414490E+02 -0.11769127133E+02  0.67806509470E+01  0.31886056503E+02  0.00000000000E+00 0.  1.
         11    1    3    3    0    0 -0.56857212442E+01 -0.53203080363E+01 -0.14403111784E+00  0.77880580950E+01  0.51100000000E-03 0. -1.
        -11    1    3    3    0    0 -0.24356826499E+01  0.18666286474E+01 -0.21562422009E+02  0.21779689980E+02  0.51100000000E-03 0.  1.
         12    1    3    3    0    0 -0.20727010596E+02  0.15222806522E+02  0.14925802180E+02  0.29734195421E+02  0.00000000000E+00 0. -1.
</event>
<event>
 7    1  0.1338132E-011  0.5930191E+02  0.7816164E-02  0.1266605E+00
        -11   -1    0    0    0    0  0.00000000000E+00  0.00000000000E+00  0.45593999997E+02  0.45594000000E+02  0.51100000000E-03 0.  1.
         11   -1    0    0    0    0 -0.00000000000E+00 -0.00000000000E+00 -0.45593999997E+02  0.45594000000E+02  0.51100000000E-03 0. -1.
    9900012    2    1    2    0    0  0.13500502874E+02 -0.38238411334E+01 -0.28632803138E+02  0.59301909703E+02  0.49999937400E+02 0.  0.
        -12    1    1    2    0    0 -0.13500502874E+02  0.38238411334E+01  0.28632803138E+02  0.31886090297E+02  0.00000000000E+00 0.  1.
         11    1    3    3    0    0  0.11222188913E+02 -0.29683045745E+01 -0.24426710695E+02  0.27044639981E+02  0.51100000000E-03 0. -1.
        -11    1    3    3    0    0  0.28282066888E+01 -0.16091730232E+02 -0.47071173530E+01  0.17002925894E+02  0.51100000000E-03 0.  1.
        -12    1    3    3    0    0 -0.54989272787E+00  0.15236193673E+02  0.50102491002E+00  0.15254343828E+02  0.00000000000E+00 0.  1.
</event>
<event>
 7    1  0.1338132E-011  0.5930194E+02  0.7816164E-02  0.1266605E+00
        -11   -1    0    0    0    0  0.00000000000E+00  0.00000000000E+00  0.45593999997E+02  0.45594000000E+02  0.51100000000E-03 0. -1.
         11   -1    0    0    0    0 -0.00000000000E+00 -0.00000000000E+00 -0.45593999997E+02  0.45594000000E+02  0.51100000000E-03 0.  1.
    9900012    2    1    2    0    0  0.30185625069E+02 -0.10265066282E+02 -0.42131105305E+00  0.59301936436E+02  0.49999986155E+02 0.  0.
        -12    1    1    2    0    0 -0.30185625069E+02  0.10265066282E+02  0.42131105305E+00  0.31886063564E+02  0.00000000000E+00 0.  1.
         11    1    3    3    0    0  0.19250411937E+02  0.35597874710E+01 -0.14839255716E+02  0.24565299857E+02  0.51100000000E-03 0. -1.
        -11    1    3    3    0    0 -0.73913115831E+01 -0.68714482196E+00 -0.89886613185E+00  0.74774070044E+01  0.51100000000E-03 0.  1.
         12    1    3    3    0    0  0.18326524715E+02 -0.13137708931E+02  0.15316810795E+02  0.27259229575E+02  0.00000000000E+00 0. -1.
</event>
<event>
 7    1  0.1338132E-011  0.5930194E+02  0.7816164E-02  0.1266605E+00
        -11   -1    0    0    0    0  0.00000000000E+00  0.00000000000E+00  0.45593999997E+02  0.45594000000E+02  0.51100000000E-03 0. -1.
         11   -1    0    0    0    0 -0.00000000000E+00 -0.00000000000E+00 -0.45593999997E+02  0.45594000000E+02  0.51100000000E-03 0.  1.
    9900012    2    1    2    0    0 -0.70764324527E+01 -0.27247790444E+02  0.14973398834E+02  0.59301942655E+02  0.49999997497E+02 0.  0.
        -12    1    1    2    0    0  0.70764324527E+01  0.27247790444E+02 -0.14973398834E+02  0.31886057345E+02  0.00000000000E+00 0.  1.
         11    1    3    3    0    0  0.41061409990E+01  0.61787119890E+00  0.13120521566E+02  0.13761912845E+02  0.51100000000E-03 0. -1.
        -11    1    3    3    0    0 -0.55074060315E+01  0.17436901731E+01  0.12335580876E+02  0.13621252968E+02  0.51100000000E-03 0.  1.
        -12    1    3    3    0    0 -0.56751674202E+01 -0.29609351816E+02 -0.10482703608E+02  0.31918776843E+02  0.00000000000E+00 0.  1.
</event>
<event>
 7    1  0.1338132E-011  0.5930194E+02  0.7816164E-02  0.1266605E+00
        -11   -1    0    0    0    0  0.00000000000E+00  0.00000000000E+00  0.45593999997E+02  0.45594000000E+02  0.51100000000E-03 0. -1.
         11   -1    0    0    0    0 -0.00000000000E+00 -0.00000000000E+00 -0.45593999997E+02  0.45594000000E+02  0.51100000000E-03 0.  1.
    9900012    2    1    2    0    0  0.27578237964E+02  0.12137264705E+02 -0.10433036937E+02  0.59301942491E+02  0.49999997197E+02 0.  0.
        -12    1    1    2    0    0 -0.27578237964E+02 -0.12137264705E+02  0.10433036937E+02  0.31886057509E+02  0.00000000000E+00 0.  1.
         11    1    3    3    0    0  0.10129820193E+02  0.64013467552E+00  0.10984562436E+02  0.14956057024E+02  0.51100000000E-03 0. -1.
        -11    1    3    3    0    0  0.11013670459E+02  0.39883864952E+01  0.74159256333E+01  0.13863769944E+02  0.51100000000E-03 0.  1.
        -12    1    3    3    0    0  0.64347473122E+01  0.75087435345E+01 -0.28833525006E+02  0.30482115523E+02  0.00000000000E+00 0.  1.
</event>
<event>
 7    1  0.1338132E-011  0.5930195E+02  0.7816164E-02  0.1266605E+00
        -11   -1    0    0    0    0  0.00000000000E+00  0.00000000000E+00  0.45593999997E+02  0.45594000000E+02  0.51100000000E-03 0. -1.
         11   -1    0    0    0    0 -0.00000000000E+00 -0.00000000000E+00 -0.45593999997E+02  0.45594000000E+02  0.51100000000E-03 0.  1.
    9900012    2    1    2    0    0  0.16522266240E+02 -0.24294736558E+02  0.12389538946E+02  0.59301950050E+02  0.50000010984E+02 0.  0.
        -12    1    1    2    0    0 -0.16522266240E+02  0.24294736558E+02 -0.12389538946E+02  0.31886049950E+02  0.00000000000E+00 0.  1.
         11    1    3    3    0    0  0.11358812157E+02 -0.47563871649E+01  0.18293856719E+02  0.22052460778E+02  0.51100000000E-03 0. -1.
        -11    1    3    3    0    0 -0.45512148130E+01  0.70694372805E+01 -0.21299754080E+01  0.86733670069E+01  0.51100000000E-03 0.  1.
         12    1    3    3    0    0  0.97146688960E+01 -0.26607786673E+02 -0.37743423650E+01  0.28576122265E+02  0.00000000000E+00 0. -1.
</event>
<event>
 7    1  0.1338132E-011  0.5930192E+02  0.7816164E-02  0.1266605E+00
        -11   -1    0    0    0    0  0.00000000000E+00  0.00000000000E+00  0.45593999997E+02  0.45594000000E+02  0.51100000000E-03 0.  1.
         11   -1    0    0    0    0 -0.00000000000E+00 -0.00000000000E+00 -0.45593999997E+02  0.45594000000E+02  0.51100000000E-03 0. -1.
    9900012    2    1    2    0    0 -0.86774957633E+01  0.19970689785E+02 -0.23293660195E+02  0.59301921713E+02  0.49999959304E+02 0.  0.
        -12    1    1    2    0    0  0.86774957633E+01 -0.19970689785E+02  0.23293660195E+02  0.31886078287E+02  0.00000000000E+00 0.  1.
         11    1    3    3    0    0 -0.17827157595E+02  0.93732446472E+00 -0.30268373435E+02  0.35140582746E+02  0.51100000000E-03 0. -1.
        -11    1    3    3    0    0  0.28663631791E+01  0.18615940580E+01  0.45878137755E+01  0.57209794450E+01  0.51100000000E-03 0.  1.
        -12    1    3    3    0    0  0.62832986528E+01  0.17171771262E+02  0.23868994647E+01  0.18440359522E+02  0.00000000000E+00 0.  1.
</event>
<event>
 7    1  0.1338132E-011  0.5930194E+02  0.7816164E-02  0.1266605E+00
        -11   -1    0    0    0    0  0.00000000000E+00  0.00000000000E+00  0.45593999997E+02  0.45594000000E+02  0.51100000000E-03 0.  1.
         11   -1    0    0    0    0 -0.00000000000E+00 -0.00000000000E+00 -0.45593999997E+02  0.45594000000E+02  0.51100000000E-03 0. -1.
    9900012    2    1    2    0    0 -0.29016367755E+02 -0.36594869792E+01 -0.12703520120E+02  0.59301939314E+02  0.49999991402E+02 0.  0.
        -12    1    1    2    0    0  0.29016367755E+02  0.36594869792E+01  0.12703520120E+02  0.31886060686E+02  0.00000000000E+00 0.  1.
         11    1    3    3    0    0  0.97648723473E+01  0.91773208510E+01 -0.53148206377E+01  0.14416076742E+02  0.51100000000E-03 0. -1.
        -11    1    3    3    0    0 -0.50318983137E+00  0.28377531707E+01 -0.87278983722E-01  0.28833419752E+01  0.51100000000E-03 0.  1.
        -12    1    3    3    0    0 -0.38278050271E+02 -0.15674561001E+02 -0.73014204982E+01  0.42002520596E+02  0.00000000000E+00 0.  1.
</event>
<event>
 7    1  0.1338132E-011  0.5930195E+02  0.7816164E-02  0.1266605E+00
        -11   -1    0    0    0    0  0.00000000000E+00  0.00000000000E+00  0.45593999997E+02  0.45594000000E+02  0.51100000000E-03 0.  1.
         11   -1    0    0    0    0 -0.00000000000E+00 -0.00000000000E+00 -0.45593999997E+02  0.45594000000E+02  0.51100000000E-03 0. -1.
    9900012    2    1    2    0    0 -0.44646350954E+01 -0.30554571454E+02 -0.79501710406E+01  0.59301952536E+02  0.50000015518E+02 0.  0.
        -12    1    1    2    0    0  0.44646350954E+01  0.30554571454E+02  0.79501710406E+01  0.31886047464E+02  0.00000000000E+00 0.  1.
         11    1    3    3    0    0 -0.15193769248E+02 -0.18696983872E+02 -0.22614849212E+02  0.33043293344E+02  0.51100000000E-03 0. -1.
        -11    1    3    3    0    0 -0.25699245791E+01  0.14481482059E+01  0.16128535191E+01  0.33619848756E+01  0.51100000000E-03 0.  1.
        -12    1    3    3    0    0  0.13299058732E+02 -0.13305735788E+02  0.13051824652E+02  0.22896674317E+02  0.00000000000E+00 0.  1.
</event>
<event>
 7    1  0.1338132E-011  0.5930193E+02  0.7816164E-02  0.1266605E+00
        -11   -1    0    0    0    0  0.00000000000E+00  0.00000000000E+00  0.45593999997E+02  0.45594000000E+02  0.51100000000E-03 0. -1.
         11   -1    0    0    0    0 -0.00000000000E+00 -0.00000000000E+00 -0.45593999997E+02  0.45594000000E+02  0.51100000000E-03 0.  1.
    9900012    2    1    2    0    0 -0.16417501469E+02 -0.15697755165E+02  0.22377832816E+02  0.59301932929E+02  0.49999979759E+02 0.  0.
        -12    1    1    2    0    0  0.16417501469E+02  0.15697755165E+02 -0.22377832816E+02  0.31886067071E+02  0.00000000000E+00 0.  1.
         11    1    3    3    0    0 -0.51028565613E+01  0.37805634275E+01 -0.11908279285E+02  0.13495885325E+02  0.51100000000E-03 0. -1.
        -11    1    3    3    0    0 -0.42659084351E+01  0.17757029080E+00 -0.13711726832E+01  0.44843751820E+01  0.51100000000E-03 0.  1.
         12    1    3    3    0    0 -0.70487364722E+01 -0.19655888883E+02  0.35657284784E+02  0.41321672423E+02  0.00000000000E+00 0. -1.
</event>
<event>
 7    1  0.1338132E-011  0.5930191E+02  0.7816164E-02  0.1266605E+00
        -11   -1    0    0    0    0  0.00000000000E+00  0.00000000000E+00  0.45593999997E+02  0.45594000000E+02  0.51100000000E-03 0.  1.
         11   -1    0    0    0    0 -0.00000000000E+00 -0.00000000000E+00 -0.45593999997E+02  0.45594000000E+02  0.51100000000E-03 0. -1.
    9900012    2    1    2    0    0 -0.10396915811E-01  0.18937842176E+02 -0.25653083975E+02  0.59301910685E+02  0.49999939191E+02 0.  0.
        -12    1    1    2    0    0  0.10396915811E-01 -0.18937842176E+02  0.25653083975E+02  0.31886089315E+02  0.00000000000E+00 0.  1.
         11    1    3    3    0    0  0.59437756166E+01 -0.46196523523E+00 -0.10741480388E+01  0.60576954966E+01  0.51100000000E-03 0.  1.
        -11    1    3    3    0    0  0.17767910717E+02  0.81884886158E+01 -0.17040662107E+02  0.25944829203E+02  0.51100000000E-03 0. -1.
        -12    1    3    3    0    0 -0.23722083250E+02  0.11211318795E+02 -0.75382738291E+01  0.27299385985E+02  0.00000000000E+00 0.  1.
</event>
<event>
 7    1  0.1338132E-011  0.5930200E+02  0.7816164E-02  0.1266605E+00
        -11   -1    0    0    0    0  0.00000000000E+00  0.00000000000E+00  0.45593999997E+02  0.45594000000E+02  0.51100000000E-03 0. -1.
         11   -1    0    0    0    0 -0.00000000000E+00 -0.00000000000E+00 -0.45593999997E+02  0.45594000000E+02  0.51100000000E-03 0.  1.
    9900012    2    1    2    0    0 -0.62386691308E+01 -0.23957404945E+02 -0.20095734315E+02  0.59302003357E+02  0.50000108203E+02 0.  0.
        -12    1    1    2    0    0  0.62386691308E+01  0.23957404945E+02  0.20095734315E+02  0.31885996643E+02  0.00000000000E+00 0.  1.
         11    1    3    3    0    0  0.20620749443E+00 -0.64008511557E+01 -0.14396822152E+01  0.65640004715E+01  0.51100000000E-03 0. -1.
        -11    1    3    3    0    0  0.22428451078E+01  0.13008930408E+02  0.39059730864E+01  0.13766599092E+02  0.51100000000E-03 0.  1.
         12    1    3    3    0    0 -0.86877217330E+01 -0.30565484198E+02 -0.22562025186E+02  0.38971403794E+02  0.00000000000E+00 0. -1.
</event>
<event>
 7    1  0.1338132E-011  0.5930195E+02  0.7816164E-02  0.1266605E+00
        -11   -1    0    0    0    0  0.00000000000E+00  0.00000000000E+00  0.45593999997E+02  0.45594000000E+02  0.51100000000E-03 0. -1.
         11   -1    0    0    0    0 -0.00000000000E+00 -0.00000000000E+00 -0.45593999997E+02  0.45594000000E+02  0.51100000000E-03 0.  1.
    9900012    2    1    2    0    0 -0.20813320049E+02 -0.11061841184E+02  0.21474675617E+02  0.59301947960E+02  0.50000007171E+02 0.  0.
        -12    1    1    2    0    0  0.20813320049E+02  0.11061841184E+02 -0.21474675617E+02  0.31886052040E+02  0.00000000000E+00 0.  1.
         11    1    3    3    0    0 -0.13413072956E+02 -0.12675267310E+01  0.23280608037E+02  0.26898027083E+02  0.51100000000E-03 0. -1.
        -11    1    3    3    0    0  0.35476374582E+01  0.85330597773E+01  0.43100744082E+01  0.10196841784E+02  0.51100000000E-03 0.  1.
         12    1    3    3    0    0 -0.10947884552E+02 -0.18327374230E+02 -0.61160068281E+01  0.22207079093E+02  0.00000000000E+00 0. -1.
</event>
<event>
 7    1  0.1338132E-011  0.5930192E+02  0.7816164E-02  0.1266605E+00
        -11   -1    0    0    0    0  0.00000000000E+00  0.00000000000E+00  0.45593999997E+02  0.45594000000E+02  0.51100000000E-03 0. -1.
         11   -1    0    0    0    0 -0.00000000000E+00 -0.00000000000E+00 -0.45593999997E+02  0.45594000000E+02  0.51100000000E-03 0.  1.
    9900012    2    1    2    0    0 -0.63406999942E+01  0.31033945381E+02 -0.36621864007E+01  0.59301923861E+02  0.49999963220E+02 0.  0.
        -12    1    1    2    0    0  0.63406999942E+01 -0.31033945381E+02  0.36621864007E+01  0.31886076139E+02  0.00000000000E+00 0.  1.
         11    1    3    3    0    0 -0.44824589070E+01  0.10957998803E+02  0.74043299144E+01  0.13964035139E+02  0.51100000000E-03 0. -1.
        -11    1    3    3    0    0 -0.20413474505E+02  0.10473496337E+02 -0.75331020417E+01  0.24148533983E+02  0.51100000000E-03 0.  1.
         12    1    3    3    0    0  0.18555233418E+02  0.96024502406E+01 -0.35334142733E+01  0.21189354739E+02  0.00000000000E+00 0. -1.
</event>
<event>
 7    1  0.1338132E-011  0.5930196E+02  0.7816164E-02  0.1266605E+00
        -11   -1    0    0    0    0  0.00000000000E+00  0.00000000000E+00  0.45593999997E+02  0.45594000000E+02  0.51100000000E-03 0.  1.
         11   -1    0    0    0    0 -0.00000000000E+00 -0.00000000000E+00 -0.45593999997E+02  0.45594000000E+02  0.51100000000E-03 0. -1.
    9900012    2    1    2    0    0  0.14353995370E+02 -0.28452320940E+02  0.10712681788E+01  0.59301962845E+02  0.50000034318E+02 0.  0.
        -12    1    1    2    0    0 -0.14353995370E+02  0.28452320940E+02 -0.10712681788E+01  0.31886037155E+02  0.00000000000E+00 0.  1.
         11    1    3    3    0    0  0.25883322336E+01 -0.11739278753E+02  0.14551451713E+02  0.18874715272E+02  0.51100000000E-03 0. -1.
        -11    1    3    3    0    0 -0.47255205605E+01 -0.16914063086E+02  0.21648984200E+01  0.17694712771E+02  0.51100000000E-03 0.  1.
         12    1    3    3    0    0  0.16491183697E+02  0.20102089803E+00 -0.15645081955E+02  0.22732534801E+02  0.00000000000E+00 0. -1.
</event>
<event>
 7    1  0.1338132E-011  0.5930195E+02  0.7816164E-02  0.1266605E+00
        -11   -1    0    0    0    0  0.00000000000E+00  0.00000000000E+00  0.45593999997E+02  0.45594000000E+02  0.51100000000E-03 0.  1.
         11   -1    0    0    0    0 -0.00000000000E+00 -0.00000000000E+00 -0.45593999997E+02  0.45594000000E+02  0.51100000000E-03 0. -1.
    9900012    2    1    2    0    0  0.78431861940E+00 -0.23327513158E+02 -0.21723996770E+02  0.59301951930E+02  0.50000014413E+02 0.  0.
        -12    1    1    2    0    0 -0.78431861940E+00  0.23327513158E+02  0.21723996770E+02  0.31886048070E+02  0.00000000000E+00 0.  1.
         11    1    3    3    0    0 -0.40153935579E+01 -0.95689991701E+01  0.94400125369E+01  0.14028648100E+02  0.51100000000E-03 0. -1.
        -11    1    3    3    0    0 -0.10356456006E+02  0.19712013674E+01 -0.67706489664E+01  0.12529305788E+02  0.51100000000E-03 0.  1.
         12    1    3    3    0    0  0.15156168183E+02 -0.15729715355E+02 -0.24393360341E+02  0.32743998043E+02  0.00000000000E+00 0. -1.
</event>
<event>
 7    1  0.1338132E-011  0.5930192E+02  0.7816164E-02  0.1266605E+00
        -11   -1    0    0    0    0  0.00000000000E+00  0.00000000000E+00  0.45593999997E+02  0.45594000000E+02  0.51100000000E-03 0.  1.
         11   -1    0    0    0    0 -0.00000000000E+00 -0.00000000000E+00 -0.45593999997E+02  0.45594000000E+02  0.51100000000E-03 0. -1.
    9900012    2    1    2    0    0  0.94018561763E+01 -0.13642998617E+02 -0.27243267053E+02  0.59301922936E+02  0.49999961534E+02 0.  0.
        -12    1    1    2    0    0 -0.94018561763E+01  0.13642998617E+02  0.27243267053E+02  0.31886077064E+02  0.00000000000E+00 0.  1.
         11    1    3    3    0    0  0.21639574548E+02  0.53649026676E+01 -0.23312268470E+02  0.32257018286E+02  0.51100000000E-03 0. -1.
        -11    1    3    3    0    0  0.70498640081E+00 -0.11853292046E+02 -0.28831464341E+01  0.12219250049E+02  0.51100000000E-03 0.  1.
        -12    1    3    3    0    0 -0.12942704773E+02 -0.71546092392E+01 -0.10478521488E+01  0.14825654600E+02  0.00000000000E+00 0.  1.
</event>
<event>
 7    1  0.1338132E-011  0.5930186E+02  0.7816164E-02  0.1266605E+00
        -11   -1    0    0    0    0  0.00000000000E+00  0.00000000000E+00  0.45593999997E+02  0.45594000000E+02  0.51100000000E-03 0.  1.
         11   -1    0    0    0    0 -0.00000000000E+00 -0.00000000000E+00 -0.45593999997E+02  0.45594000000E+02  0.51100000000E-03 0. -1.
    9900012    2    1    2    0    0 -0.16945234375E+02  0.22668072334E+02 -0.14688204514E+02  0.59301861582E+02  0.49999849638E+02 0.  0.
        -12    1    1    2    0    0  0.16945234375E+02 -0.22668072334E+02  0.14688204514E+02  0.31886138418E+02  0.00000000000E+00 0.  1.
         11    1    3    3    0    0 -0.15891735680E+01  0.19358937505E+02 -0.21813222747E+01  0.19546153102E+02  0.51100000000E-03 0. -1.
        -11    1    3    3    0    0  0.65943830331E+01  0.10111317379E+02 -0.11624256959E+02  0.16758519530E+02  0.51100000000E-03 0.  1.
         12    1    3    3    0    0 -0.21950443840E+02 -0.68021825495E+01 -0.88262528075E+00  0.22997188950E+02  0.00000000000E+00 0. -1.
</event>
<event>
 7    1  0.1338132E-011  0.5930177E+02  0.7816164E-02  0.1266605E+00
        -11   -1    0    0    0    0  0.00000000000E+00  0.00000000000E+00  0.45593999997E+02  0.45594000000E+02  0.51100000000E-03 0. -1.
         11   -1    0    0    0    0 -0.00000000000E+00 -0.00000000000E+00 -0.45593999997E+02  0.45594000000E+02  0.51100000000E-03 0.  1.
    9900012    2    1    2    0    0 -0.78064346407E+01 -0.16562715956E+02  0.26104937088E+02  0.59301769084E+02  0.49999680943E+02 0.  0.
        -12    1    1    2    0    0  0.78064346407E+01  0.16562715956E+02 -0.26104937088E+02  0.31886230916E+02  0.00000000000E+00 0.  1.
         11    1    3    3    0    0  0.50960533144E+01  0.53602191439E+00  0.50423343573E+00  0.51489154678E+01  0.51100000000E-03 0. -1.
        -11    1    3    3    0    0  0.28327662884E+01  0.79165821631E+01 -0.64199918173E+01  0.10578900377E+02  0.51100000000E-03 0.  1.
         12    1    3    3    0    0 -0.15735254244E+02 -0.25015320034E+02  0.32020695470E+02  0.43573953239E+02  0.00000000000E+00 0. -1.
</event>
<event>
 7    1  0.1338132E-011  0.5930190E+02  0.7816164E-02  0.1266605E+00
        -11   -1    0    0    0    0  0.00000000000E+00  0.00000000000E+00  0.45593999997E+02  0.45594000000E+02  0.51100000000E-03 0. -1.
         11   -1    0    0    0    0 -0.00000000000E+00 -0.00000000000E+00 -0.45593999997E+02  0.45594000000E+02  0.51100000000E-03 0.  1.
    9900012    2    1    2    0    0 -0.45306212406E+01 -0.18620579064E+02  0.25484712832E+02  0.59301904572E+02  0.49999928043E+02 0.  0.
        -12    1    1    2    0    0  0.45306212406E+01  0.18620579064E+02 -0.25484712832E+02  0.31886095428E+02  0.00000000000E+00 0.  1.
         11    1    3    3    0    0  0.41761635161E+01 -0.24049336541E+02  0.23143338763E+02  0.33636662426E+02  0.51100000000E-03 0. -1.
        -11    1    3    3    0    0  0.52962556222E+01 -0.49800522075E+01  0.37136502247E+01  0.81634822140E+01  0.51100000000E-03 0.  1.
        -12    1    3    3    0    0 -0.14003040379E+02  0.10408809684E+02 -0.13722761563E+01  0.17501759933E+02  0.00000000000E+00 0.  1.
</event>
<event>
 7    1  0.1338132E-011  0.5930192E+02  0.7816164E-02  0.1266605E+00
        -11   -1    0    0    0    0  0.00000000000E+00  0.00000000000E+00  0.45593999997E+02  0.45594000000E+02  0.51100000000E-03 0.  1.
         11   -1    0    0    0    0 -0.00000000000E+00 -0.00000000000E+00 -0.45593999997E+02  0.45594000000E+02  0.51100000000E-03 0. -1.
    9900012    2    1    2    0    0 -0.79108735501E+01 -0.28090625803E+02 -0.12847436627E+02  0.59301924572E+02  0.49999964518E+02 0.  0.
        -12    1    1    2    0    0  0.79108735501E+01  0.28090625803E+02  0.12847436627E+02  0.31886075428E+02  0.00000000000E+00 0.  1.
         11    1    3    3    0    0  0.11949879019E+02 -0.27618075478E+02 -0.19921812487E+01  0.30158356853E+02  0.51100000000E-03 0. -1.
        -11    1    3    3    0    0 -0.46852821538E+01  0.82810902119E+01 -0.33962602370E+01  0.10102618859E+02  0.51100000000E-03 0.  1.
        -12    1    3    3    0    0 -0.15175470416E+02 -0.87536405361E+01 -0.74589951409E+01  0.19040948860E+02  0.00000000000E+00 0.  1.
</event>
<event>
 7    1  0.1338132E-011  0.5930197E+02  0.7816164E-02  0.1266605E+00
        -11   -1    0    0    0    0  0.00000000000E+00  0.00000000000E+00  0.45593999997E+02  0.45594000000E+02  0.51100000000E-03 0.  1.
         11   -1    0    0    0    0 -0.00000000000E+00 -0.00000000000E+00 -0.45593999997E+02  0.45594000000E+02  0.51100000000E-03 0. -1.
    9900012    2    1    2    0    0  0.12575377036E+02  0.41804343895E+01 -0.29001777164E+02  0.59301965158E+02  0.50000038537E+02 0.  0.
        -12    1    1    2    0    0 -0.12575377036E+02 -0.41804343895E+01  0.29001777164E+02  0.31886034842E+02  0.00000000000E+00 0.  1.
         11    1    3    3    0    0  0.58755773851E+01 -0.64689656542E+00 -0.25567696581E+02  0.26242103450E+02  0.51100000000E-03 0. -1.
        -11    1    3    3    0    0  0.13959004452E+02  0.25512044849E+01 -0.14070002612E+02  0.19983178510E+02  0.51100000000E-03 0.  1.
        -12    1    3    3    0    0 -0.72592048010E+01  0.22761264700E+01  0.10635922029E+02  0.13076683198E+02  0.00000000000E+00 0.  1.
</event>
<event>
 7    1  0.1338132E-011  0.5930185E+02  0.7816164E-02  0.1266605E+00
        -11   -1    0    0    0    0  0.00000000000E+00  0.00000000000E+00  0.45593999997E+02  0.45594000000E+02  0.51100000000E-03 0.  1.
         11   -1    0    0    0    0 -0.00000000000E+00 -0.00000000000E+00 -0.45593999997E+02  0.45594000000E+02  0.51100000000E-03 0. -1.
    9900012    2    1    2    0    0  0.34009878979E+01 -0.19868169898E+02 -0.24706595659E+02  0.59301846848E+02  0.49999822767E+02 0.  0.
        -12    1    1    2    0    0 -0.34009878979E+01  0.19868169898E+02  0.24706595659E+02  0.31886153152E+02  0.00000000000E+00 0.  1.
         11    1    3    3    0    0 -0.93605095668E+01 -0.94234185279E+01  0.63664270215E+01  0.14729268461E+02  0.51100000000E-03 0.  1.
        -11    1    3    3    0    0 -0.86093354203E+01 -0.47444480170E+01 -0.10020014895E+02  0.14036778196E+02  0.51100000000E-03 0. -1.
         12    1    3    3    0    0  0.21370832885E+02 -0.57003033529E+01 -0.21053007786E+02  0.30535800192E+02  0.00000000000E+00 0. -1.
</event>
<event>
 7    1  0.1338132E-011  0.5930187E+02  0.7816164E-02  0.1266605E+00
        -11   -1    0    0    0    0  0.00000000000E+00  0.00000000000E+00  0.45593999997E+02  0.45594000000E+02  0.51100000000E-03 0.  1.
         11   -1    0    0    0    0 -0.00000000000E+00 -0.00000000000E+00 -0.45593999997E+02  0.45594000000E+02  0.51100000000E-03 0. -1.
    9900012    2    1    2    0    0  0.20659845411E+02 -0.14399087235E+01 -0.24245058732E+02  0.59301867866E+02  0.49999861099E+02 0.  0.
        -12    1    1    2    0    0 -0.20659845411E+02  0.14399087235E+01  0.24245058732E+02  0.31886132134E+02  0.00000000000E+00 0.  1.
         11    1    3    3    0    0  0.62397434114E+01  0.14231104093E+02 -0.16161974504E+01  0.15622765952E+02  0.51100000000E-03 0. -1.
        -11    1    3    3    0    0 -0.62825104232E+00 -0.79295607286E+00  0.71089165058E+01  0.71805412646E+01  0.51100000000E-03 0.  1.
         12    1    3    3    0    0  0.15048353042E+02 -0.14878056743E+02 -0.29737777788E+02  0.36498560649E+02  0.00000000000E+00 0. -1.
</event>
<event>
 7    1  0.1338132E-011  0.5930194E+02  0.7816164E-02  0.1266605E+00
        -11   -1    0    0    0    0  0.00000000000E+00  0.00000000000E+00  0.45593999997E+02  0.45594000000E+02  0.51100000000E-03 0.  1.
         11   -1    0    0    0    0 -0.00000000000E+00 -0.00000000000E+00 -0.45593999997E+02  0.45594000000E+02  0.51100000000E-03 0. -1.
    9900012    2    1    2    0    0 -0.30070774806E+02  0.68070894522E+01  0.81322024119E+01  0.59301942227E+02  0.49999996715E+02 0.  0.
        -12    1    1    2    0    0  0.30070774806E+02 -0.68070894522E+01 -0.81322024119E+01  0.31886057773E+02  0.00000000000E+00 0.  1.
         11    1    3    3    0    0 -0.19825759927E+02  0.58871853079E+01  0.11598633670E+02  0.23711769457E+02  0.51100000000E-03 0.  1.
        -11    1    3    3    0    0 -0.41494212279E+01  0.15315078494E+02  0.63945635629E+01  0.17107301635E+02  0.51100000000E-03 0. -1.
        -12    1    3    3    0    0 -0.60955936515E+01 -0.14395174349E+02 -0.98609948213E+01  0.18482871135E+02  0.00000000000E+00 0.  1.
</event>
<event>
 7    1  0.1338132E-011  0.5930193E+02  0.7816164E-02  0.1266605E+00
        -11   -1    0    0    0    0  0.00000000000E+00  0.00000000000E+00  0.45593999997E+02  0.45594000000E+02  0.51100000000E-03 0.  1.
         11   -1    0    0    0    0 -0.00000000000E+00 -0.00000000000E+00 -0.45593999997E+02  0.45594000000E+02  0.51100000000E-03 0. -1.
    9900012    2    1    2    0    0 -0.29266955155E+02 -0.11031140591E+02 -0.62032716800E+01  0.59301932410E+02  0.49999978812E+02 0.  0.
        -12    1    1    2    0    0  0.29266955155E+02  0.11031140591E+02  0.62032716800E+01  0.31886067590E+02  0.00000000000E+00 0.  1.
         11    1    3    3    0    0 -0.22464933624E+02 -0.42338449051E+00 -0.67044315046E+01  0.23447854896E+02  0.51100000000E-03 0. -1.
        -11    1    3    3    0    0 -0.13757520210E+02  0.56161314074E+01 -0.72989329450E+01  0.16555504122E+02  0.51100000000E-03 0.  1.
        -12    1    3    3    0    0  0.69554986795E+01 -0.16223887508E+02  0.78000927697E+01  0.19298573392E+02  0.00000000000E+00 0.  1.
</event>
<event>
 7    1  0.1338132E-011  0.5930196E+02  0.7816164E-02  0.1266605E+00
        -11   -1    0    0    0    0  0.00000000000E+00  0.00000000000E+00  0.45593999997E+02  0.45594000000E+02  0.51100000000E-03 0.  1.
         11   -1    0    0    0    0 -0.00000000000E+00 -0.00000000000E+00 -0.45593999997E+02  0.45594000000E+02  0.51100000000E-03 0. -1.
    9900012    2    1    2    0    0 -0.17430271214E+02 -0.25177690325E+02  0.88875686066E+01  0.59301963551E+02  0.50000035606E+02 0.  0.
        -12    1    1    2    0    0  0.17430271214E+02  0.25177690325E+02 -0.88875686066E+01  0.31886036449E+02  0.00000000000E+00 0.  1.
         11    1    3    3    0    0  0.25797768283E+01 -0.58915329876E+00  0.55603028410E+01  0.61578663543E+01  0.51100000000E-03 0. -1.
        -11    1    3    3    0    0  0.74097114863E+01 -0.24520901968E+02  0.12803391167E+01  0.25647957544E+02  0.51100000000E-03 0.  1.
         12    1    3    3    0    0 -0.27419759529E+02 -0.67635057736E-01  0.20469266489E+01  0.27496139653E+02  0.00000000000E+00 0. -1.
</event>
<event>
 7    1  0.1338132E-011  0.5930194E+02  0.7816164E-02  0.1266605E+00
        -11   -1    0    0    0    0  0.00000000000E+00  0.00000000000E+00  0.45593999997E+02  0.45594000000E+02  0.51100000000E-03 0.  1.
         11   -1    0    0    0    0 -0.00000000000E+00 -0.00000000000E+00 -0.45593999997E+02  0.45594000000E+02  0.51100000000E-03 0. -1.
    9900012    2    1    2    0    0  0.12446140499E+02  0.44060773448E+01 -0.29024148419E+02  0.59301935296E+02  0.49999984076E+02 0.  0.
        -12    1    1    2    0    0 -0.12446140499E+02 -0.44060773448E+01  0.29024148419E+02  0.31886064704E+02  0.00000000000E+00 0.  1.
         11    1    3    3    0    0 -0.19580183511E+01 -0.24831287389E+01 -0.84544354211E+00  0.32733070802E+01  0.51100000000E-03 0. -1.
        -11    1    3    3    0    0  0.92946519872E+01  0.11312173325E+02  0.96929576415E+01  0.17558737113E+02  0.51100000000E-03 0.  1.
         12    1    3    3    0    0  0.51095068625E+01 -0.44229672413E+01 -0.37871662518E+02  0.38469891103E+02  0.00000000000E+00 0. -1.
</event>
<event>
 7    1  0.1338132E-011  0.5930195E+02  0.7816164E-02  0.1266605E+00
        -11   -1    0    0    0    0  0.00000000000E+00  0.00000000000E+00  0.45593999997E+02  0.45594000000E+02  0.51100000000E-03 0. -1.
         11   -1    0    0    0    0 -0.00000000000E+00 -0.00000000000E+00 -0.45593999997E+02  0.45594000000E+02  0.51100000000E-03 0.  1.
    9900012    2    1    2    0    0 -0.20242987132E+02 -0.10246099247E+02  0.22404448388E+02  0.59301946851E+02  0.50000005150E+02 0.  0.
        -12    1    1    2    0    0  0.20242987132E+02  0.10246099247E+02 -0.22404448388E+02  0.31886053149E+02  0.00000000000E+00 0.  1.
         11    1    3    3    0    0 -0.29653819851E+02 -0.38159502393E+01 -0.45411342841E+00  0.29901784684E+02  0.51100000000E-03 0. -1.
        -11    1    3    3    0    0 -0.93032522368E+00 -0.14504361636E+01 -0.16195095517E+01  0.23647582404E+01  0.51100000000E-03 0.  1.
        -12    1    3    3    0    0  0.10341157943E+02 -0.49797128446E+01  0.24478071368E+02  0.27035403927E+02  0.00000000000E+00 0.  1.
</event>
<event>
 7    1  0.1338132E-011  0.5930194E+02  0.7816164E-02  0.1266605E+00
        -11   -1    0    0    0    0  0.00000000000E+00  0.00000000000E+00  0.45593999997E+02  0.45594000000E+02  0.51100000000E-03 0.  1.
         11   -1    0    0    0    0 -0.00000000000E+00 -0.00000000000E+00 -0.45593999997E+02  0.45594000000E+02  0.51100000000E-03 0. -1.
    9900012    2    1    2    0    0 -0.12442922698E+02  0.26885193905E+02 -0.11793248535E+02  0.59301942112E+02  0.49999996506E+02 0.  0.
        -12    1    1    2    0    0  0.12442922698E+02 -0.26885193905E+02  0.11793248535E+02  0.31886057888E+02  0.00000000000E+00 0.  1.
         11    1    3    3    0    0  0.52898272648E+01  0.18594641170E+02 -0.84970157394E+01  0.21117344281E+02  0.51100000000E-03 0. -1.
        -11    1    3    3    0    0  0.83130155284E+01  0.12617170112E+01  0.52175914241E+01  0.98955251261E+01  0.51100000000E-03 0.  1.
         12    1    3    3    0    0 -0.26045765492E+02  0.70288357242E+01 -0.85138242201E+01  0.28289072705E+02  0.00000000000E+00 0. -1.
</event>
<event>
 7    1  0.1338132E-011  0.5930193E+02  0.7816164E-02  0.1266605E+00
        -11   -1    0    0    0    0  0.00000000000E+00  0.00000000000E+00  0.45593999997E+02  0.45594000000E+02  0.51100000000E-03 0. -1.
         11   -1    0    0    0    0 -0.00000000000E+00 -0.00000000000E+00 -0.45593999997E+02  0.45594000000E+02  0.51100000000E-03 0.  1.
    9900012    2    1    2    0    0  0.18121874627E+02 -0.24853210460E+02  0.84045759941E+01  0.59301932387E+02  0.49999978770E+02 0.  0.
        -12    1    1    2    0    0 -0.18121874627E+02  0.24853210460E+02 -0.84045759941E+01  0.31886067613E+02  0.00000000000E+00 0.  1.
         11    1    3    3    0    0  0.67185133893E+01 -0.31804893809E+01 -0.49566280394E+01  0.89343212751E+01  0.51100000000E-03 0. -1.
        -11    1    3    3    0    0  0.71336837121E+01 -0.31592607189E+02 -0.99441150082E+00  0.32403257965E+02  0.51100000000E-03 0.  1.
         12    1    3    3    0    0  0.42696775260E+01  0.99198861098E+01  0.14355615534E+02  0.17964353147E+02  0.00000000000E+00 0. -1.
</event>
<event>
 7    1  0.1338132E-011  0.5930192E+02  0.7816164E-02  0.1266605E+00
        -11   -1    0    0    0    0  0.00000000000E+00  0.00000000000E+00  0.45593999997E+02  0.45594000000E+02  0.51100000000E-03 0. -1.
         11   -1    0    0    0    0 -0.00000000000E+00 -0.00000000000E+00 -0.45593999997E+02  0.45594000000E+02  0.51100000000E-03 0.  1.
    9900012    2    1    2    0    0 -0.18107253028E+02 -0.22482329029E+02  0.13542326476E+02  0.59301916246E+02  0.49999949333E+02 0.  0.
        -12    1    1    2    0    0  0.18107253028E+02  0.22482329029E+02 -0.13542326476E+02  0.31886083754E+02  0.00000000000E+00 0.  1.
         11    1    3    3    0    0 -0.62643387973E+01  0.42985175086E+01 -0.50713116688E+01  0.91344072409E+01  0.51100000000E-03 0.  1.
        -11    1    3    3    0    0 -0.10147266608E+02 -0.14900178888E+02  0.29099347209E+02  0.34230897721E+02  0.51100000000E-03 0. -1.
         12    1    3    3    0    0 -0.16956476222E+01 -0.11880667649E+02 -0.10485709064E+02  0.15936611284E+02  0.00000000000E+00 0. -1.
</event>
<event>
 7    1  0.1338132E-011  0.5930195E+02  0.7816164E-02  0.1266605E+00
        -11   -1    0    0    0    0  0.00000000000E+00  0.00000000000E+00  0.45593999997E+02  0.45594000000E+02  0.51100000000E-03 0. -1.
         11   -1    0    0    0    0 -0.00000000000E+00 -0.00000000000E+00 -0.45593999997E+02  0.45594000000E+02  0.51100000000E-03 0.  1.
    9900012    2    1    2    0    0 -0.10053037613E+02  0.17263300736E+02  0.24852265318E+02  0.59301949618E+02  0.50000010196E+02 0.  0.
        -12    1    1    2    0    0  0.10053037613E+02 -0.17263300736E+02 -0.24852265318E+02  0.31886050382E+02  0.00000000000E+00 0.  1.
         11    1    3    3    0    0  0.37806261006E+01  0.11540624431E+02 -0.23225262436E+01  0.12364193236E+02  0.51100000000E-03 0. -1.
        -11    1    3    3    0    0 -0.13875940313E+02  0.15273986231E+02  0.28837312760E+01  0.20836321203E+02  0.51100000000E-03 0.  1.
         12    1    3    3    0    0  0.42276599472E-01 -0.95513099262E+01  0.24291060285E+02  0.26101435179E+02  0.00000000000E+00 0. -1.
</event>
<event>
 7    1  0.1338132E-011  0.5930201E+02  0.7816164E-02  0.1266605E+00
        -11   -1    0    0    0    0  0.00000000000E+00  0.00000000000E+00  0.45593999997E+02  0.45594000000E+02  0.51100000000E-03 0.  1.
         11   -1    0    0    0    0 -0.00000000000E+00 -0.00000000000E+00 -0.45593999997E+02  0.45594000000E+02  0.51100000000E-03 0. -1.
    9900012    2    1    2    0    0  0.24189505950E+02 -0.20346541852E+02 -0.41954956228E+01  0.59302013314E+02  0.50000126362E+02 0.  0.
        -12    1    1    2    0    0 -0.24189505950E+02  0.20346541852E+02  0.41954956228E+01  0.31885986686E+02  0.00000000000E+00 0.  1.
         11    1    3    3    0    0 -0.12910494508E+01 -0.88567382668E+01 -0.14183819237E+02  0.16771682976E+02  0.51100000000E-03 0. -1.
        -11    1    3    3    0    0  0.22464796099E+02 -0.56124065620E+01 -0.70920524955E+01  0.24217006009E+02  0.51100000000E-03 0.  1.
        -12    1    3    3    0    0  0.30157593016E+01 -0.58773970227E+01  0.17080376110E+02  0.18313324329E+02  0.00000000000E+00 0.  1.
</event>
<event>
 7    1  0.1338132E-011  0.5930196E+02  0.7816164E-02  0.1266605E+00
        -11   -1    0    0    0    0  0.00000000000E+00  0.00000000000E+00  0.45593999997E+02  0.45594000000E+02  0.51100000000E-03 0.  1.
         11   -1    0    0    0    0 -0.00000000000E+00 -0.00000000000E+00 -0.45593999997E+02  0.45594000000E+02  0.51100000000E-03 0. -1.
    9900012    2    1    2    0    0  0.10129998929E+01 -0.64813732131E+01 -0.31203931239E+02  0.59301957720E+02  0.50000024971E+02 0.  0.
        -12    1    1    2    0    0 -0.10129998929E+01  0.64813732131E+01  0.31203931239E+02  0.31886042280E+02  0.00000000000E+00 0.  1.
         11    1    3    3    0    0 -0.71504190974E+01  0.52268373115E+01  0.65759566658E+01  0.11031388303E+02  0.51100000000E-03 0. -1.
        -11    1    3    3    0    0  0.74750594029E+01  0.38576628805E+01 -0.11825429021E+01  0.84944972749E+01  0.51100000000E-03 0.  1.
         12    1    3    3    0    0  0.68835958749E+00 -0.15565873405E+02 -0.36597345003E+02  0.39776072142E+02  0.00000000000E+00 0. -1.
</event>
<event>
 7    1  0.1338132E-011  0.5930195E+02  0.7816164E-02  0.1266605E+00
        -11   -1    0    0    0    0  0.00000000000E+00  0.00000000000E+00  0.45593999997E+02  0.45594000000E+02  0.51100000000E-03 0.  1.
         11   -1    0    0    0    0 -0.00000000000E+00 -0.00000000000E+00 -0.45593999997E+02  0.45594000000E+02  0.51100000000E-03 0. -1.
    9900012    2    1    2    0    0 -0.25667993892E+02  0.15780806885E+02  0.10432658900E+02  0.59301950572E+02  0.50000011935E+02 0.  0.
        -12    1    1    2    0    0  0.25667993892E+02 -0.15780806885E+02 -0.10432658900E+02  0.31886049428E+02  0.00000000000E+00 0.  1.
         11    1    3    3    0    0 -0.25618061198E+01  0.13768096486E+02  0.18807849652E+02  0.23449062672E+02  0.51100000000E-03 0. -1.
        -11    1    3    3    0    0  0.43983550507E+01 -0.26416620485E+01  0.27493908291E+01  0.58209153681E+01  0.51100000000E-03 0.  1.
         12    1    3    3    0    0 -0.27504542823E+02  0.46543724483E+01 -0.11124581581E+02  0.30031972532E+02  0.00000000000E+00 0. -1.
</event>
<event>
 7    1  0.1338132E-011  0.5930194E+02  0.7816164E-02  0.1266605E+00
        -11   -1    0    0    0    0  0.00000000000E+00  0.00000000000E+00  0.45593999997E+02  0.45594000000E+02  0.51100000000E-03 0.  1.
         11   -1    0    0    0    0 -0.00000000000E+00 -0.00000000000E+00 -0.45593999997E+02  0.45594000000E+02  0.51100000000E-03 0. -1.
    9900012    2    1    2    0    0 -0.17508133706E+02 -0.17961206774E+02 -0.19687083600E+02  0.59301937915E+02  0.49999988851E+02 0.  0.
        -12    1    1    2    0    0  0.17508133706E+02  0.17961206774E+02  0.19687083600E+02  0.31886062085E+02  0.00000000000E+00 0.  1.
         11    1    3    3    0    0 -0.33449100472E+01 -0.11877431052E+02  0.38046891858E+01  0.12912685688E+02  0.51100000000E-03 0. -1.
        -11    1    3    3    0    0  0.50147289107E+01  0.76304335827E+01  0.41743483742E+01  0.10039731437E+02  0.51100000000E-03 0.  1.
         12    1    3    3    0    0 -0.19177952569E+02 -0.13714209304E+02 -0.27666121160E+02  0.36349520790E+02  0.00000000000E+00 0. -1.
</event>
<event>
 7    1  0.1338132E-011  0.5930197E+02  0.7816164E-02  0.1266605E+00
        -11   -1    0    0    0    0  0.00000000000E+00  0.00000000000E+00  0.45593999997E+02  0.45594000000E+02  0.51100000000E-03 0.  1.
         11   -1    0    0    0    0 -0.00000000000E+00 -0.00000000000E+00 -0.45593999997E+02  0.45594000000E+02  0.51100000000E-03 0. -1.
    9900012    2    1    2    0    0  0.14356618082E+02 -0.44097506775E+01 -0.28127572885E+02  0.59301972650E+02  0.50000052200E+02 0.  0.
        -12    1    1    2    0    0 -0.14356618082E+02  0.44097506775E+01  0.28127572885E+02  0.31886027350E+02  0.00000000000E+00 0.  1.
         11    1    3    3    0    0 -0.44156020542E+01  0.44665903754E+00  0.55174968126E+01  0.70809474744E+01  0.51100000000E-03 0. -1.
        -11    1    3    3    0    0 -0.17116704693E+01 -0.93764612537E+01  0.30038101143E+01  0.99935337544E+01  0.51100000000E-03 0.  1.
         12    1    3    3    0    0  0.20483890606E+02  0.45200515387E+01 -0.36648879812E+02  0.42227491421E+02  0.00000000000E+00 0. -1.
</event>
<event>
 7    1  0.1338132E-011  0.5930196E+02  0.7816164E-02  0.1266605E+00
        -11   -1    0    0    0    0  0.00000000000E+00  0.00000000000E+00  0.45593999997E+02  0.45594000000E+02  0.51100000000E-03 0.  1.
         11   -1    0    0    0    0 -0.00000000000E+00 -0.00000000000E+00 -0.45593999997E+02  0.45594000000E+02  0.51100000000E-03 0. -1.
    9900012    2    1    2    0    0 -0.73554747228E+01 -0.76660134369E+01 -0.30064081290E+02  0.59301956749E+02  0.50000023200E+02 0.  0.
        -12    1    1    2    0    0  0.73554747228E+01  0.76660134369E+01  0.30064081290E+02  0.31886043251E+02  0.00000000000E+00 0.  1.
         11    1    3    3    0    0  0.24801004389E+01  0.71727612112E+00 -0.37545367773E+01  0.45565260774E+01  0.51100000000E-03 0. -1.
        -11    1    3    3    0    0  0.36695899527E+01 -0.63406772169E+01 -0.36800561565E+02  0.37522678605E+02  0.51100000000E-03 0.  1.
         12    1    3    3    0    0 -0.13505165114E+02 -0.20426123411E+01  0.10491017052E+02  0.17222752066E+02  0.00000000000E+00 0. -1.
</event>
<event>
 7    1  0.1338132E-011  0.5930194E+02  0.7816164E-02  0.1266605E+00
        -11   -1    0    0    0    0  0.00000000000E+00  0.00000000000E+00  0.45593999997E+02  0.45594000000E+02  0.51100000000E-03 0.  1.
         11   -1    0    0    0    0 -0.00000000000E+00 -0.00000000000E+00 -0.45593999997E+02  0.45594000000E+02  0.51100000000E-03 0. -1.
    9900012    2    1    2    0    0  0.26679676226E+02  0.14501395123E+02 -0.97275650932E+01  0.59301935541E+02  0.49999984522E+02 0.  0.
        -12    1    1    2    0    0 -0.26679676226E+02 -0.14501395123E+02  0.97275650932E+01  0.31886064459E+02  0.00000000000E+00 0.  1.
         11    1    3    3    0    0  0.90117666976E+01 -0.38454834520E+01 -0.19366594720E+02  0.21704024357E+02  0.51100000000E-03 0. -1.
        -11    1    3    3    0    0 -0.10698265669E+01  0.12218956948E+02 -0.47895320823E+01  0.13167651864E+02  0.51100000000E-03 0.  1.
        -12    1    3    3    0    0  0.18737736095E+02  0.61279216266E+01  0.14428561709E+02  0.24430259320E+02  0.00000000000E+00 0.  1.
</event>
<event>
 7    1  0.1338132E-011  0.5930195E+02  0.7816164E-02  0.1266605E+00
        -11   -1    0    0    0    0  0.00000000000E+00  0.00000000000E+00  0.45593999997E+02  0.45594000000E+02  0.51100000000E-03 0.  1.
         11   -1    0    0    0    0 -0.00000000000E+00 -0.00000000000E+00 -0.45593999997E+02  0.45594000000E+02  0.51100000000E-03 0. -1.
    9900012    2    1    2    0    0  0.15393200326E+02  0.18239399643E+02 -0.21144601143E+02  0.59301945476E+02  0.50000002642E+02 0.  0.
        -12    1    1    2    0    0 -0.15393200326E+02 -0.18239399643E+02  0.21144601143E+02  0.31886054524E+02  0.00000000000E+00 0.  1.
         11    1    3    3    0    0  0.17575891484E+02  0.15726590386E+01 -0.17131631827E+02  0.24594268179E+02  0.51100000000E-03 0. -1.
        -11    1    3    3    0    0  0.88102653656E+01 -0.36387930324E+01  0.39001009803E+01  0.10299144550E+02  0.51100000000E-03 0.  1.
         12    1    3    3    0    0 -0.10992956524E+02  0.20305533636E+02 -0.79130702958E+01  0.24408532748E+02  0.00000000000E+00 0. -1.
</event>
<event>
 7    1  0.1338132E-011  0.5930193E+02  0.7816164E-02  0.1266605E+00
        -11   -1    0    0    0    0  0.00000000000E+00  0.00000000000E+00  0.45593999997E+02  0.45594000000E+02  0.51100000000E-03 0.  1.
         11   -1    0    0    0    0 -0.00000000000E+00 -0.00000000000E+00 -0.45593999997E+02  0.45594000000E+02  0.51100000000E-03 0. -1.
    9900012    2    1    2    0    0 -0.17421659728E+02  0.13296287373E+02 -0.23160658546E+02  0.59301927964E+02  0.49999970703E+02 0.  0.
        -12    1    1    2    0    0  0.17421659728E+02 -0.13296287373E+02  0.23160658546E+02  0.31886072036E+02  0.00000000000E+00 0.  1.
         11    1    3    3    0    0  0.52652593494E-01  0.17490046390E+02 -0.11911806021E+02  0.21161181866E+02  0.51100000000E-03 0. -1.
        -11    1    3    3    0    0 -0.12433975750E+02  0.49048717362E+01  0.84859272817E+01  0.15832639760E+02  0.51100000000E-03 0.  1.
        -12    1    3    3    0    0 -0.50403365724E+01 -0.90986307531E+01 -0.19734779806E+02  0.22308106337E+02  0.00000000000E+00 0.  1.
</event>
<event>
 7    1  0.1338132E-011  0.5930193E+02  0.7816164E-02  0.1266605E+00
        -11   -1    0    0    0    0  0.00000000000E+00  0.00000000000E+00  0.45593999997E+02  0.45594000000E+02  0.51100000000E-03 0.  1.
         11   -1    0    0    0    0 -0.00000000000E+00 -0.00000000000E+00 -0.45593999997E+02  0.45594000000E+02  0.51100000000E-03 0. -1.
    9900012    2    1    2    0    0  0.12825855871E+02  0.88158731599E+01 -0.27829823726E+02  0.59301932713E+02  0.49999979364E+02 0.  0.
        -12    1    1    2    0    0 -0.12825855871E+02 -0.88158731599E+01  0.27829823726E+02  0.31886067287E+02  0.00000000000E+00 0.  1.
         11    1    3    3    0    0  0.78704161457E+01  0.12427510546E+02 -0.20170594291E+02  0.24964762025E+02  0.51100000000E-03 0. -1.
        -11    1    3    3    0    0 -0.13873637484E+02 -0.68812913707E+00 -0.62453741417E+01  0.15230102993E+02  0.51100000000E-03 0.  1.
         12    1    3    3    0    0  0.18829077210E+02 -0.29235082490E+01 -0.14138552936E+01  0.19107067694E+02  0.00000000000E+00 0. -1.
</event>
<event>
 7    1  0.1338132E-011  0.5930190E+02  0.7816164E-02  0.1266605E+00
        -11   -1    0    0    0    0  0.00000000000E+00  0.00000000000E+00  0.45593999997E+02  0.45594000000E+02  0.51100000000E-03 0.  1.
         11   -1    0    0    0    0 -0.00000000000E+00 -0.00000000000E+00 -0.45593999997E+02  0.45594000000E+02  0.51100000000E-03 0. -1.
    9900012    2    1    2    0    0  0.19226770253E+02  0.22832079168E+02 -0.11213873657E+02  0.59301898077E+02  0.49999916196E+02 0.  0.
        -12    1    1    2    0    0 -0.19226770253E+02 -0.22832079168E+02  0.11213873657E+02  0.31886101923E+02  0.00000000000E+00 0.  1.
         11    1    3    3    0    0  0.13961922980E+02  0.17857258346E+02 -0.15676020762E+02  0.27560018072E+02  0.51100000000E-03 0. -1.
        -11    1    3    3    0    0  0.62401597192E-02  0.16892427430E+02  0.73128428989E+01  0.18407384793E+02  0.51100000000E-03 0.  1.
         12    1    3    3    0    0  0.52586071133E+01 -0.11917606608E+02 -0.28506957937E+01  0.13334495211E+02  0.00000000000E+00 0. -1.
</event>
<event>
 7    1  0.1338132E-011  0.5930197E+02  0.7816164E-02  0.1266605E+00
        -11   -1    0    0    0    0  0.00000000000E+00  0.00000000000E+00  0.45593999997E+02  0.45594000000E+02  0.51100000000E-03 0.  1.
         11   -1    0    0    0    0 -0.00000000000E+00 -0.00000000000E+00 -0.45593999997E+02  0.45594000000E+02  0.51100000000E-03 0. -1.
    9900012    2    1    2    0    0  0.27092517535E+02  0.16548351698E+02  0.29776176518E+01  0.59301973951E+02  0.50000054573E+02 0.  0.
        -12    1    1    2    0    0 -0.27092517535E+02 -0.16548351698E+02 -0.29776176518E+01  0.31886026049E+02  0.00000000000E+00 0.  1.
         11    1    3    3    0    0  0.12252856803E+02  0.25617391523E+02  0.14734162761E+01  0.28435087551E+02  0.51100000000E-03 0. -1.
        -11    1    3    3    0    0 -0.37107644087E+01  0.10004287463E+01  0.79224662584E+01  0.88054586508E+01  0.51100000000E-03 0.  1.
        -12    1    3    3    0    0  0.18550425141E+02 -0.10069468571E+02 -0.64182648827E+01  0.22061427749E+02  0.00000000000E+00 0.  1.
</event>
<event>
 7    1  0.1338132E-011  0.5930191E+02  0.7816164E-02  0.1266605E+00
        -11   -1    0    0    0    0  0.00000000000E+00  0.00000000000E+00  0.45593999997E+02  0.45594000000E+02  0.51100000000E-03 0. -1.
         11   -1    0    0    0    0 -0.00000000000E+00 -0.00000000000E+00 -0.45593999997E+02  0.45594000000E+02  0.51100000000E-03 0.  1.
    9900012    2    1    2    0    0 -0.29996843823E+02  0.75776381884E+01  0.77130675056E+01  0.59301911337E+02  0.49999940381E+02 0.  0.
        -12    1    1    2    0    0  0.29996843823E+02 -0.75776381884E+01 -0.77130675056E+01  0.31886088663E+02  0.00000000000E+00 0.  1.
         11    1    3    3    0    0 -0.32591799022E+02  0.15986143424E+02  0.77274017522E+01  0.37114618187E+02  0.51100000000E-03 0. -1.
        -11    1    3    3    0    0 -0.77393099819E+01  0.11997321207E+01  0.15707923134E+01  0.79877196315E+01  0.51100000000E-03 0.  1.
        -12    1    3    3    0    0  0.10334265181E+02 -0.96082373564E+01 -0.15851265600E+01  0.14199573519E+02  0.00000000000E+00 0.  1.
</event>
<event>
 7    1  0.1338132E-011  0.5930194E+02  0.7816164E-02  0.1266605E+00
        -11   -1    0    0    0    0  0.00000000000E+00  0.00000000000E+00  0.45593999997E+02  0.45594000000E+02  0.51100000000E-03 0.  1.
         11   -1    0    0    0    0 -0.00000000000E+00 -0.00000000000E+00 -0.45593999997E+02  0.45594000000E+02  0.51100000000E-03 0. -1.
    9900012    2    1    2    0    0 -0.98548845345E+01 -0.11664226591E+02 -0.27991928180E+02  0.59301937615E+02  0.49999988305E+02 0.  0.
        -12    1    1    2    0    0  0.98548845345E+01  0.11664226591E+02  0.27991928180E+02  0.31886062385E+02  0.00000000000E+00 0.  1.
         11    1    3    3    0    0  0.48969263825E+01 -0.46886961152E+01  0.98348896088E+01  0.11945242280E+02  0.51100000000E-03 0.  1.
        -11    1    3    3    0    0  0.19396610580E+01  0.56351273901E+01 -0.16228075311E+02  0.17287781069E+02  0.51100000000E-03 0. -1.
        -12    1    3    3    0    0 -0.16691471975E+02 -0.12610657866E+02 -0.21598742478E+02  0.30068914266E+02  0.00000000000E+00 0.  1.
</event>
<event>
 7    1  0.1338132E-011  0.5930194E+02  0.7816164E-02  0.1266605E+00
        -11   -1    0    0    0    0  0.00000000000E+00  0.00000000000E+00  0.45593999997E+02  0.45594000000E+02  0.51100000000E-03 0.  1.
         11   -1    0    0    0    0 -0.00000000000E+00 -0.00000000000E+00 -0.45593999997E+02  0.45594000000E+02  0.51100000000E-03 0. -1.
    9900012    2    1    2    0    0 -0.17154736443E+01  0.19323486438E+02 -0.25305746125E+02  0.59301940901E+02  0.49999994298E+02 0.  0.
        -12    1    1    2    0    0  0.17154736443E+01 -0.19323486438E+02  0.25305746125E+02  0.31886059099E+02  0.00000000000E+00 0.  1.
         11    1    3    3    0    0 -0.42437656564E+01  0.26756620021E+01 -0.14385981314E+02  0.15235654654E+02  0.51100000000E-03 0. -1.
        -11    1    3    3    0    0  0.78167350807E+01 -0.93086965238E+01 -0.12620099041E+02  0.17521988425E+02  0.51100000000E-03 0.  1.
        -12    1    3    3    0    0 -0.52884430686E+01  0.25956520959E+02  0.17003342301E+01  0.26544297823E+02  0.00000000000E+00 0.  1.
</event>
<event>
 7    1  0.1338132E-011  0.5930193E+02  0.7816164E-02  0.1266605E+00
        -11   -1    0    0    0    0  0.00000000000E+00  0.00000000000E+00  0.45593999997E+02  0.45594000000E+02  0.51100000000E-03 0.  1.
         11   -1    0    0    0    0 -0.00000000000E+00 -0.00000000000E+00 -0.45593999997E+02  0.45594000000E+02  0.51100000000E-03 0. -1.
    9900012    2    1    2    0    0 -0.97465163299E+01 -0.29962426176E+02 -0.48969463638E+01  0.59301927075E+02  0.49999969082E+02 0.  0.
        -12    1    1    2    0    0  0.97465163299E+01  0.29962426176E+02  0.48969463638E+01  0.31886072925E+02  0.00000000000E+00 0.  1.
         11    1    3    3    0    0 -0.31502688860E+01 -0.22587733863E+01 -0.72960823782E+00  0.39444365512E+01  0.51100000000E-03 0. -1.
        -11    1    3    3    0    0 -0.25019800825E+02 -0.21754491469E+02  0.56781183242E+01  0.33637618233E+02  0.51100000000E-03 0.  1.
         12    1    3    3    0    0  0.18423553381E+02 -0.59491613203E+01 -0.98454564502E+01  0.21719872291E+02  0.00000000000E+00 0. -1.
</event>
<event>
 7    1  0.1338132E-011  0.5930215E+02  0.7816164E-02  0.1266604E+00
        -11   -1    0    0    0    0  0.00000000000E+00  0.00000000000E+00  0.45593999997E+02  0.45594000000E+02  0.51100000000E-03 0.  1.
         11   -1    0    0    0    0 -0.00000000000E+00 -0.00000000000E+00 -0.45593999997E+02  0.45594000000E+02  0.51100000000E-03 0. -1.
    9900012    2    1    2    0    0  0.66196062524E+01  0.31104419774E+02 -0.23245675212E+01  0.59302145290E+02  0.50000367053E+02 0.  0.
        -12    1    1    2    0    0 -0.66196062524E+01 -0.31104419774E+02  0.23245675212E+01  0.31885854710E+02  0.00000000000E+00 0.  1.
         11    1    3    3    0    0 -0.47995651934E+00  0.24428924957E+02 -0.69731885078E+01  0.25409212720E+02  0.51100000000E-03 0. -1.
        -11    1    3    3    0    0  0.57149558600E+01  0.16968279825E+02  0.11655910528E+02  0.21364538170E+02  0.51100000000E-03 0.  1.
        -12    1    3    3    0    0  0.13846069118E+01 -0.10292785009E+02 -0.70072895409E+01  0.12528394400E+02  0.00000000000E+00 0.  1.
</event>
<event>
 7    1  0.1338132E-011  0.5930199E+02  0.7816164E-02  0.1266605E+00
        -11   -1    0    0    0    0  0.00000000000E+00  0.00000000000E+00  0.45593999997E+02  0.45594000000E+02  0.51100000000E-03 0.  1.
         11   -1    0    0    0    0 -0.00000000000E+00 -0.00000000000E+00 -0.45593999997E+02  0.45594000000E+02  0.51100000000E-03 0. -1.
    9900012    2    1    2    0    0 -0.10031174803E+02  0.14377756629E+02 -0.26634065988E+02  0.59301987006E+02  0.50000078382E+02 0.  0.
        -12    1    1    2    0    0  0.10031174803E+02 -0.14377756629E+02  0.26634065988E+02  0.31886012994E+02  0.00000000000E+00 0.  1.
         11    1    3    3    0    0  0.35021463209E+01 -0.62764704624E+01 -0.15854023786E+02  0.17407158894E+02  0.51100000000E-03 0. -1.
        -11    1    3    3    0    0 -0.38650211448E+01  0.30616675875E+00 -0.17863385716E+02  0.18279296377E+02  0.51100000000E-03 0.  1.
        -12    1    3    3    0    0 -0.96682999791E+01  0.20348060332E+02  0.70833435134E+01  0.23615531734E+02  0.00000000000E+00 0.  1.
</event>
<event>
 7    1  0.1338132E-011  0.5930190E+02  0.7816164E-02  0.1266605E+00
        -11   -1    0    0    0    0  0.00000000000E+00  0.00000000000E+00  0.45593999997E+02  0.45594000000E+02  0.51100000000E-03 0. -1.
         11   -1    0    0    0    0 -0.00000000000E+00 -0.00000000000E+00 -0.45593999997E+02  0.45594000000E+02  0.51100000000E-03 0.  1.
    9900012    2    1    2    0    0 -0.41618814274E+00 -0.78381213560E+00  0.31873742973E+02  0.59301904830E+02  0.49999928513E+02 0.  0.
        -12    1    1    2    0    0  0.41618814274E+00  0.78381213560E+00 -0.31873742973E+02  0.31886095170E+02  0.00000000000E+00 0.  1.
         11    1    3    3    0    0  0.89012411897E+01 -0.16101680000E+01  0.24199781179E+01  0.93638149308E+01  0.51100000000E-03 0. -1.
        -11    1    3    3    0    0  0.97289756824E+01  0.96464522582E+01 -0.85617953576E-01  0.13700888281E+02  0.51100000000E-03 0.  1.
        -12    1    3    3    0    0 -0.19046405015E+02 -0.88200963938E+01  0.29539382809E+02  0.36237201618E+02  0.00000000000E+00 0.  1.
</event>
<event>
 7    1  0.1338132E-011  0.5930192E+02  0.7816164E-02  0.1266605E+00
        -11   -1    0    0    0    0  0.00000000000E+00  0.00000000000E+00  0.45593999997E+02  0.45594000000E+02  0.51100000000E-03 0.  1.
         11   -1    0    0    0    0 -0.00000000000E+00 -0.00000000000E+00 -0.45593999997E+02  0.45594000000E+02  0.51100000000E-03 0. -1.
    9900012    2    1    2    0    0 -0.20847004720E+01 -0.23073010232E+02 -0.21909188785E+02  0.59301916351E+02  0.49999949525E+02 0.  0.
        -12    1    1    2    0    0  0.20847004720E+01  0.23073010232E+02  0.21909188785E+02  0.31886083649E+02  0.00000000000E+00 0.  1.
         11    1    3    3    0    0  0.30580765348E+01 -0.29805993717E+02 -0.11302719028E+02  0.32023437531E+02  0.51100000000E-03 0. -1.
        -11    1    3    3    0    0  0.32652786034E+01  0.35163803065E+01  0.64220247893E+01  0.80168184134E+01  0.51100000000E-03 0.  1.
        -12    1    3    3    0    0 -0.84080556101E+01  0.32166031786E+01 -0.17028494546E+02  0.19261660407E+02  0.00000000000E+00 0.  1.
</event>
<event>
 7    1  0.1338132E-011  0.5930197E+02  0.7816164E-02  0.1266605E+00
        -11   -1    0    0    0    0  0.00000000000E+00  0.00000000000E+00  0.45593999997E+02  0.45594000000E+02  0.51100000000E-03 0.  1.
         11   -1    0    0    0    0 -0.00000000000E+00 -0.00000000000E+00 -0.45593999997E+02  0.45594000000E+02  0.51100000000E-03 0. -1.
    9900012    2    1    2    0    0 -0.17876821333E+01  0.30138930171E+02 -0.10255151963E+02  0.59301967618E+02  0.50000043023E+02 0.  0.
        -12    1    1    2    0    0  0.17876821333E+01 -0.30138930171E+02  0.10255151963E+02  0.31886032382E+02  0.00000000000E+00 0.  1.
         11    1    3    3    0    0 -0.74467948462E+01  0.57166057631E+01 -0.16356796488E+02  0.18859457218E+02  0.51100000000E-03 0. -1.
        -11    1    3    3    0    0  0.13467929108E+02 -0.64362621195E+00  0.41879623332E+01  0.14118725082E+02  0.51100000000E-03 0.  1.
        -12    1    3    3    0    0 -0.78088163952E+01  0.25065950620E+02  0.19136821923E+01  0.26323785319E+02  0.00000000000E+00 0.  1.
</event>
<event>
 7    1  0.1338132E-011  0.5930197E+02  0.7816164E-02  0.1266605E+00
        -11   -1    0    0    0    0  0.00000000000E+00  0.00000000000E+00  0.45593999997E+02  0.45594000000E+02  0.51100000000E-03 0. -1.
         11   -1    0    0    0    0 -0.00000000000E+00 -0.00000000000E+00 -0.45593999997E+02  0.45594000000E+02  0.51100000000E-03 0.  1.
    9900012    2    1    2    0    0  0.53386177636E-02 -0.10603451877E+02  0.30071346666E+02  0.59301966843E+02  0.50000041609E+02 0.  0.
        -12    1    1    2    0    0 -0.53386177636E-02  0.10603451877E+02 -0.30071346666E+02  0.31886033157E+02  0.00000000000E+00 0.  1.
         11    1    3    3    0    0  0.99612158199E+01  0.65844412545E+01  0.25808502348E+01  0.12216442831E+02  0.51100000000E-03 0.  1.
        -11    1    3    3    0    0 -0.90671287768E+01  0.38936664550E+01  0.23666794812E+02  0.25641580288E+02  0.51100000000E-03 0. -1.
        -12    1    3    3    0    0 -0.88874842532E+00 -0.21081559586E+02  0.38237016192E+01  0.21443943724E+02  0.00000000000E+00 0.  1.
</event>
<event>
 7    1  0.1338132E-011  0.5930191E+02  0.7816164E-02  0.1266605E+00
        -11   -1    0    0    0    0  0.00000000000E+00  0.00000000000E+00  0.45593999997E+02  0.45594000000E+02  0.51100000000E-03 0.  1.
         11   -1    0    0    0    0 -0.00000000000E+00 -0.00000000000E+00 -0.45593999997E+02  0.45594000000E+02  0.51100000000E-03 0. -1.
    9900012    2    1    2    0    0  0.31836861332E+01  0.12351757719E+02 -0.29223634444E+02  0.59301912340E+02  0.49999942209E+02 0.  0.
        -12    1    1    2    0    0 -0.31836861332E+01 -0.12351757719E+02  0.29223634444E+02  0.31886087660E+02  0.00000000000E+00 0.  1.
         11    1    3    3    0    0 -0.98178201565E+01  0.11831622483E+01 -0.18511817171E+02  0.20987540132E+02  0.51100000000E-03 0. -1.
        -11    1    3    3    0    0  0.59338720878E+01  0.22281858801E+02 -0.99748725007E+01  0.25123497990E+02  0.51100000000E-03 0.  1.
        -12    1    3    3    0    0  0.70676342018E+01 -0.11113263330E+02 -0.73694477223E+00  0.13190874219E+02  0.00000000000E+00 0.  1.
</event>
<event>
 7    1  0.1338132E-011  0.5930217E+02  0.7816164E-02  0.1266604E+00
        -11   -1    0    0    0    0  0.00000000000E+00  0.00000000000E+00  0.45593999997E+02  0.45594000000E+02  0.51100000000E-03 0. -1.
         11   -1    0    0    0    0 -0.00000000000E+00 -0.00000000000E+00 -0.45593999997E+02  0.45594000000E+02  0.51100000000E-03 0.  1.
    9900012    2    1    2    0    0  0.52669121332E+01 -0.27122808513E+02 -0.15916001825E+02  0.59302168991E+02  0.50000410278E+02 0.  0.
        -12    1    1    2    0    0 -0.52669121332E+01  0.27122808513E+02  0.15916001825E+02  0.31885831009E+02  0.00000000000E+00 0.  1.
         11    1    3    3    0    0  0.53654568888E+01 -0.11241959804E+01  0.66634856976E+01  0.86286723272E+01  0.51100000000E-03 0. -1.
        -11    1    3    3    0    0 -0.49992342903E+01  0.78931548928E+01 -0.11205768569E+02  0.14589841916E+02  0.51100000000E-03 0.  1.
        -12    1    3    3    0    0  0.49006895346E+01 -0.33891767425E+02 -0.11373718953E+02  0.36083654748E+02  0.00000000000E+00 0.  1.
</event>
<event>
 7    1  0.1338132E-011  0.5930204E+02  0.7816164E-02  0.1266604E+00
        -11   -1    0    0    0    0  0.00000000000E+00  0.00000000000E+00  0.45593999997E+02  0.45594000000E+02  0.51100000000E-03 0.  1.
         11   -1    0    0    0    0 -0.00000000000E+00 -0.00000000000E+00 -0.45593999997E+02  0.45594000000E+02  0.51100000000E-03 0. -1.
    9900012    2    1    2    0    0  0.22857942344E+02  0.13639896824E+02 -0.17555111983E+02  0.59302042741E+02  0.50000180030E+02 0.  0.
        -12    1    1    2    0    0 -0.22857942344E+02 -0.13639896824E+02  0.17555111983E+02  0.31885957259E+02  0.00000000000E+00 0.  1.
         11    1    3    3    0    0  0.20969495299E+02 -0.89725370136E+00 -0.11820279421E+02  0.24088250314E+02  0.51100000000E-03 0.  1.
        -11    1    3    3    0    0  0.11738133030E+02 -0.50717154873E+01 -0.25778383300E+01  0.13044206214E+02  0.51100000000E-03 0. -1.
        -12    1    3    3    0    0 -0.98496859859E+01  0.19608866013E+02 -0.31569942318E+01  0.22169586214E+02  0.00000000000E+00 0.  1.
</event>
<event>
 7    1  0.1338132E-011  0.5930195E+02  0.7816164E-02  0.1266605E+00
        -11   -1    0    0    0    0  0.00000000000E+00  0.00000000000E+00  0.45593999997E+02  0.45594000000E+02  0.51100000000E-03 0.  1.
         11   -1    0    0    0    0 -0.00000000000E+00 -0.00000000000E+00 -0.45593999997E+02  0.45594000000E+02  0.51100000000E-03 0. -1.
    9900012    2    1    2    0    0 -0.78729261953E+01  0.29487883330E+02 -0.92304936725E+01  0.59301949075E+02  0.50000009205E+02 0.  0.
        -12    1    1    2    0    0  0.78729261953E+01 -0.29487883330E+02  0.92304936725E+01  0.31886050925E+02  0.00000000000E+00 0.  1.
         11    1    3    3    0    0 -0.21115418041E+01  0.31288078694E+02 -0.23233365408E+01  0.31445196296E+02  0.51100000000E-03 0. -1.
        -11    1    3    3    0    0 -0.11988855065E+02  0.43137249277E+01  0.44835961524E+01  0.13507164885E+02  0.51100000000E-03 0.  1.
        -12    1    3    3    0    0  0.62274706738E+01 -0.61139202918E+01 -0.11390753284E+02  0.14349587893E+02  0.00000000000E+00 0.  1.
</event>
<event>
 7    1  0.1338132E-011  0.5930192E+02  0.7816164E-02  0.1266605E+00
        -11   -1    0    0    0    0  0.00000000000E+00  0.00000000000E+00  0.45593999997E+02  0.45594000000E+02  0.51100000000E-03 0.  1.
         11   -1    0    0    0    0 -0.00000000000E+00 -0.00000000000E+00 -0.45593999997E+02  0.45594000000E+02  0.51100000000E-03 0. -1.
    9900012    2    1    2    0    0  0.22295623807E+02 -0.16482739139E+02 -0.15746313025E+02  0.59301923032E+02  0.49999961709E+02 0.  0.
        -12    1    1    2    0    0 -0.22295623807E+02  0.16482739139E+02  0.15746313025E+02  0.31886076968E+02  0.00000000000E+00 0.  1.
         11    1    3    3    0    0  0.16023272250E+02 -0.21680065069E+02 -0.24214176544E+02  0.36236677841E+02  0.51100000000E-03 0. -1.
        -11    1    3    3    0    0 -0.51378125802E+01 -0.29479283219E+01 -0.11894587259E+01  0.60417060357E+01  0.51100000000E-03 0.  1.
        -12    1    3    3    0    0  0.11410164137E+02  0.81452542510E+01  0.96573222442E+01  0.17023539156E+02  0.00000000000E+00 0.  1.
</event>
<event>
 7    1  0.1338132E-011  0.5930193E+02  0.7816164E-02  0.1266605E+00
        -11   -1    0    0    0    0  0.00000000000E+00  0.00000000000E+00  0.45593999997E+02  0.45594000000E+02  0.51100000000E-03 0.  1.
         11   -1    0    0    0    0 -0.00000000000E+00 -0.00000000000E+00 -0.45593999997E+02  0.45594000000E+02  0.51100000000E-03 0. -1.
    9900012    2    1    2    0    0  0.13722068046E+02  0.14385834849E+02 -0.24929380757E+02  0.59301930617E+02  0.49999975543E+02 0.  0.
        -12    1    1    2    0    0 -0.13722068046E+02 -0.14385834849E+02  0.24929380757E+02  0.31886069383E+02  0.00000000000E+00 0.  1.
         11    1    3    3    0    0 -0.70752721766E+01  0.17646071572E+02 -0.12122887276E+02  0.22547898227E+02  0.51100000000E-03 0. -1.
        -11    1    3    3    0    0 -0.29448364141E+01  0.67769588972E+01  0.10916221353E+01  0.74693287882E+01  0.51100000000E-03 0.  1.
        -12    1    3    3    0    0  0.23742176637E+02 -0.10037195621E+02 -0.13898115616E+02  0.29284703602E+02  0.00000000000E+00 0.  1.
</event>
<event>
 7    1  0.1338132E-011  0.5930197E+02  0.7816164E-02  0.1266605E+00
        -11   -1    0    0    0    0  0.00000000000E+00  0.00000000000E+00  0.45593999997E+02  0.45594000000E+02  0.51100000000E-03 0.  1.
         11   -1    0    0    0    0 -0.00000000000E+00 -0.00000000000E+00 -0.45593999997E+02  0.45594000000E+02  0.51100000000E-03 0. -1.
    9900012    2    1    2    0    0 -0.10515320445E+01  0.60004820805E+01 -0.31298683090E+02  0.59301967509E+02  0.50000042824E+02 0.  0.
        -12    1    1    2    0    0  0.10515320445E+01 -0.60004820805E+01  0.31298683090E+02  0.31886032491E+02  0.00000000000E+00 0.  1.
         11    1    3    3    0    0 -0.58696230193E+01 -0.20090603574E+01 -0.20547247687E+02  0.21463415051E+02  0.51100000000E-03 0. -1.
        -11    1    3    3    0    0  0.11220025766E+02 -0.71745563505E+01  0.57609903747E+01  0.14510418580E+02  0.51100000000E-03 0.  1.
         12    1    3    3    0    0 -0.64019347914E+01  0.15184098788E+02 -0.16512425779E+02  0.23328133877E+02  0.00000000000E+00 0. -1.
</event>
<event>
 7    1  0.1338132E-011  0.5930193E+02  0.7816164E-02  0.1266605E+00
        -11   -1    0    0    0    0  0.00000000000E+00  0.00000000000E+00  0.45593999997E+02  0.45594000000E+02  0.51100000000E-03 0. -1.
         11   -1    0    0    0    0 -0.00000000000E+00 -0.00000000000E+00 -0.45593999997E+02  0.45594000000E+02  0.51100000000E-03 0.  1.
    9900012    2    1    2    0    0 -0.24371134101E+02  0.20545929609E+02 -0.79609961424E+00  0.59301934463E+02  0.49999982556E+02 0.  0.
        -12    1    1    2    0    0  0.24371134101E+02 -0.20545929609E+02  0.79609961424E+00  0.31886065537E+02  0.00000000000E+00 0.  1.
         11    1    3    3    0    0 -0.89034150765E+01 -0.73204750895E+01 -0.56653367159E+01  0.12843527394E+02  0.51100000000E-03 0. -1.
        -11    1    3    3    0    0 -0.16566564659E+02  0.10647112085E+02 -0.11390593444E+02  0.22749894057E+02  0.51100000000E-03 0.  1.
         12    1    3    3    0    0  0.10988456344E+01  0.17219292613E+02  0.16259830546E+02  0.23708513011E+02  0.00000000000E+00 0. -1.
</event>
<event>
 7    1  0.1338132E-011  0.5930194E+02  0.7816164E-02  0.1266605E+00
        -11   -1    0    0    0    0  0.00000000000E+00  0.00000000000E+00  0.45593999997E+02  0.45594000000E+02  0.51100000000E-03 0.  1.
         11   -1    0    0    0    0 -0.00000000000E+00 -0.00000000000E+00 -0.45593999997E+02  0.45594000000E+02  0.51100000000E-03 0. -1.
    9900012    2    1    2    0    0 -0.26102994380E+01 -0.71741036843E+01 -0.30958674135E+02  0.59301938296E+02  0.49999989546E+02 0.  0.
        -12    1    1    2    0    0  0.26102994380E+01  0.71741036843E+01  0.30958674135E+02  0.31886061704E+02  0.00000000000E+00 0.  1.
         11    1    3    3    0    0 -0.19524161040E+02  0.73662735761E+01 -0.74647479574E+01  0.22162520457E+02  0.51100000000E-03 0. -1.
        -11    1    3    3    0    0  0.41243560638E+01  0.39534043034E+01 -0.20550713999E+01  0.60714938233E+01  0.51100000000E-03 0.  1.
        -12    1    3    3    0    0  0.12789505538E+02 -0.18493781564E+02 -0.21438854778E+02  0.31067924015E+02  0.00000000000E+00 0.  1.
</event>
<event>
 7    1  0.1338132E-011  0.5930193E+02  0.7816164E-02  0.1266605E+00
        -11   -1    0    0    0    0  0.00000000000E+00  0.00000000000E+00  0.45593999997E+02  0.45594000000E+02  0.51100000000E-03 0.  1.
         11   -1    0    0    0    0 -0.00000000000E+00 -0.00000000000E+00 -0.45593999997E+02  0.45594000000E+02  0.51100000000E-03 0. -1.
    9900012    2    1    2    0    0  0.29978308977E+02 -0.73990883371E+01 -0.79546247859E+01  0.59301928231E+02  0.49999971191E+02 0.  0.
        -12    1    1    2    0    0 -0.29978308977E+02  0.73990883371E+01  0.79546247859E+01  0.31886071769E+02  0.00000000000E+00 0.  1.
         11    1    3    3    0    0  0.12387622565E+02  0.93336343825E+01  0.44322995873E+01  0.16131187294E+02  0.51100000000E-03 0. -1.
        -11    1    3    3    0    0 -0.87414141342E+01 -0.46791658195E+01  0.30238896871E+01  0.10365848877E+02  0.51100000000E-03 0.  1.
         12    1    3    3    0    0  0.26332100546E+02 -0.12053556900E+02 -0.15410814060E+02  0.32804892061E+02  0.00000000000E+00 0. -1.
</event>
<event>
 7    1  0.1338132E-011  0.5930194E+02  0.7816164E-02  0.1266605E+00
        -11   -1    0    0    0    0  0.00000000000E+00  0.00000000000E+00  0.45593999997E+02  0.45594000000E+02  0.51100000000E-03 0.  1.
         11   -1    0    0    0    0 -0.00000000000E+00 -0.00000000000E+00 -0.45593999997E+02  0.45594000000E+02  0.51100000000E-03 0. -1.
    9900012    2    1    2    0    0  0.71050608265E+01  0.30094999051E+02  0.77801178031E+01  0.59301935799E+02  0.49999984992E+02 0.  0.
        -12    1    1    2    0    0 -0.71050608265E+01 -0.30094999051E+02 -0.77801178031E+01  0.31886064201E+02  0.00000000000E+00 0.  1.
         11    1    3    3    0    0  0.76940775242E+01  0.43516697492E+01  0.10203693999E+02  0.13500045557E+02  0.51100000000E-03 0. -1.
        -11    1    3    3    0    0  0.49036040523E+01  0.10723570622E+01  0.14526647539E+02  0.15369410247E+02  0.51100000000E-03 0.  1.
         12    1    3    3    0    0 -0.54926207499E+01  0.24670972239E+02 -0.16950223735E+02  0.30432479994E+02  0.00000000000E+00 0. -1.
</event>
<event>
 7    1  0.1338132E-011  0.5930194E+02  0.7816164E-02  0.1266605E+00
        -11   -1    0    0    0    0  0.00000000000E+00  0.00000000000E+00  0.45593999997E+02  0.45594000000E+02  0.51100000000E-03 0. -1.
         11   -1    0    0    0    0 -0.00000000000E+00 -0.00000000000E+00 -0.45593999997E+02  0.45594000000E+02  0.51100000000E-03 0.  1.
    9900012    2    1    2    0    0 -0.17236875975E+02  0.23725937857E+02  0.12517620471E+02  0.59301939679E+02  0.49999992069E+02 0.  0.
        -12    1    1    2    0    0  0.17236875975E+02 -0.23725937857E+02 -0.12517620471E+02  0.31886060321E+02  0.00000000000E+00 0.  1.
         11    1    3    3    0    0  0.59058383260E+01  0.16867529365E+02  0.72852884310E+01  0.19299427478E+02  0.51100000000E-03 0. -1.
        -11    1    3    3    0    0  0.20934282237E+01  0.12947977420E+02 -0.14494019317E+01  0.13195958746E+02  0.51100000000E-03 0.  1.
         12    1    3    3    0    0 -0.25236142524E+02 -0.60895689285E+01  0.66817339713E+01  0.26806553454E+02  0.00000000000E+00 0. -1.
</event>
<event>
 7    1  0.1338132E-011  0.5930184E+02  0.7816164E-02  0.1266605E+00
        -11   -1    0    0    0    0  0.00000000000E+00  0.00000000000E+00  0.45593999997E+02  0.45594000000E+02  0.51100000000E-03 0. -1.
         11   -1    0    0    0    0 -0.00000000000E+00 -0.00000000000E+00 -0.45593999997E+02  0.45594000000E+02  0.51100000000E-03 0.  1.
    9900012    2    1    2    0    0  0.28498800224E+02  0.10106127321E+02  0.10119880365E+02  0.59301836822E+02  0.49999804481E+02 0.  0.
        -12    1    1    2    0    0 -0.28498800224E+02 -0.10106127321E+02 -0.10119880365E+02  0.31886163178E+02  0.00000000000E+00 0.  1.
         11    1    3    3    0    0  0.24944192249E+02  0.34999048954E+00  0.23942051538E+02  0.34576828259E+02  0.51100000000E-03 0. -1.
        -11    1    3    3    0    0  0.14155759957E+00  0.50903583515E-01  0.40770635928E+01  0.40798379294E+01  0.51100000000E-03 0.  1.
        -12    1    3    3    0    0  0.34130503753E+01  0.97052332478E+01 -0.17899234766E+02  0.20645170633E+02  0.00000000000E+00 0.  1.
</event>
<event>
 7    1  0.1338132E-011  0.5930192E+02  0.7816164E-02  0.1266605E+00
        -11   -1    0    0    0    0  0.00000000000E+00  0.00000000000E+00  0.45593999997E+02  0.45594000000E+02  0.51100000000E-03 0. -1.
         11   -1    0    0    0    0 -0.00000000000E+00 -0.00000000000E+00 -0.45593999997E+02  0.45594000000E+02  0.51100000000E-03 0.  1.
    9900012    2    1    2    0    0 -0.20335515616E+02  0.24220559509E+02  0.40686133900E+01  0.59301916621E+02  0.49999950017E+02 0.  0.
        -12    1    1    2    0    0  0.20335515616E+02 -0.24220559509E+02 -0.40686133900E+01  0.31886083379E+02  0.00000000000E+00 0.  1.
         11    1    3    3    0    0  0.73860840882E+01  0.13031685173E+02  0.77448634097E+01  0.16863035495E+02  0.51100000000E-03 0. -1.
        -11    1    3    3    0    0 -0.62282357349E+01 -0.94428868511E+01  0.34097260418E+01  0.11814620789E+02  0.51100000000E-03 0.  1.
         12    1    3    3    0    0 -0.21493363970E+02  0.20631761187E+02 -0.70859760615E+01  0.30624260337E+02  0.00000000000E+00 0. -1.
</event>
<event>
 7    1  0.1338132E-011  0.5930194E+02  0.7816164E-02  0.1266605E+00
        -11   -1    0    0    0    0  0.00000000000E+00  0.00000000000E+00  0.45593999997E+02  0.45594000000E+02  0.51100000000E-03 0.  1.
         11   -1    0    0    0    0 -0.00000000000E+00 -0.00000000000E+00 -0.45593999997E+02  0.45594000000E+02  0.51100000000E-03 0. -1.
    9900012    2    1    2    0    0  0.31434101315E+02 -0.44308112014E+00 -0.53311803367E+01  0.59301944582E+02  0.50000001011E+02 0.  0.
        -12    1    1    2    0    0 -0.31434101315E+02  0.44308112014E+00  0.53311803367E+01  0.31886055418E+02  0.00000000000E+00 0.  1.
         11    1    3    3    0    0  0.16427109163E+02 -0.11295571147E+02 -0.70280472097E+01  0.21138431608E+02  0.51100000000E-03 0. -1.
        -11    1    3    3    0    0 -0.61642475757E+01 -0.75970557475E+01  0.23968491524E+01  0.10072640683E+02  0.51100000000E-03 0.  1.
         12    1    3    3    0    0  0.21171239728E+02  0.18449545775E+02 -0.69998227930E+00  0.28090872291E+02  0.00000000000E+00 0. -1.
</event>
<event>
 7    1  0.1338132E-011  0.5930190E+02  0.7816164E-02  0.1266605E+00
        -11   -1    0    0    0    0  0.00000000000E+00  0.00000000000E+00  0.45593999997E+02  0.45594000000E+02  0.51100000000E-03 0.  1.
         11   -1    0    0    0    0 -0.00000000000E+00 -0.00000000000E+00 -0.45593999997E+02  0.45594000000E+02  0.51100000000E-03 0. -1.
    9900012    2    1    2    0    0  0.19308852785E+02  0.24643481874E+02 -0.60489973939E+01  0.59301900141E+02  0.49999919961E+02 0.  0.
        -12    1    1    2    0    0 -0.19308852785E+02 -0.24643481874E+02  0.60489973939E+01  0.31886099859E+02  0.00000000000E+00 0.  1.
         11    1    3    3    0    0  0.15544376682E+02 -0.44103309606E+01  0.32393901111E+01  0.16479451270E+02  0.51100000000E-03 0. -1.
        -11    1    3    3    0    0  0.10995158035E+02  0.19993772843E+02  0.60410066004E+01  0.23603775412E+02  0.51100000000E-03 0.  1.
         12    1    3    3    0    0 -0.72306819319E+01  0.90600399919E+01 -0.15329394105E+02  0.19218673458E+02  0.00000000000E+00 0. -1.
</event>
<event>
 7    1  0.1338132E-011  0.5930197E+02  0.7816164E-02  0.1266605E+00
        -11   -1    0    0    0    0  0.00000000000E+00  0.00000000000E+00  0.45593999997E+02  0.45594000000E+02  0.51100000000E-03 0. -1.
         11   -1    0    0    0    0 -0.00000000000E+00 -0.00000000000E+00 -0.45593999997E+02  0.45594000000E+02  0.51100000000E-03 0.  1.
    9900012    2    1    2    0    0  0.22171354826E+02  0.11124676934E+02  0.20034760290E+02  0.59301968081E+02  0.50000043867E+02 0.  0.
        -12    1    1    2    0    0 -0.22171354826E+02 -0.11124676934E+02 -0.20034760290E+02  0.31886031919E+02  0.00000000000E+00 0.  1.
         11    1    3    3    0    0  0.13719877699E+02  0.18913645101E+01 -0.44139726620E-01  0.13849702248E+02  0.51100000000E-03 0. -1.
        -11    1    3    3    0    0  0.13794827752E+02 -0.62687293152E+01 -0.45888257221E+01  0.15831979084E+02  0.51100000000E-03 0.  1.
         12    1    3    3    0    0 -0.53433506254E+01  0.15502041739E+02  0.24667725738E+02  0.29620286749E+02  0.00000000000E+00 0. -1.
</event>
<event>
 7    1  0.1338132E-011  0.5930194E+02  0.7816164E-02  0.1266605E+00
        -11   -1    0    0    0    0  0.00000000000E+00  0.00000000000E+00  0.45593999997E+02  0.45594000000E+02  0.51100000000E-03 0. -1.
         11   -1    0    0    0    0 -0.00000000000E+00 -0.00000000000E+00 -0.45593999997E+02  0.45594000000E+02  0.51100000000E-03 0.  1.
    9900012    2    1    2    0    0  0.23637352148E+02 -0.17962356414E+02 -0.11634000838E+02  0.59301942858E+02  0.49999997868E+02 0.  0.
        -12    1    1    2    0    0 -0.23637352148E+02  0.17962356414E+02  0.11634000838E+02  0.31886057142E+02  0.00000000000E+00 0.  1.
         11    1    3    3    0    0 -0.70080531761E+01 -0.31028059396E+01 -0.10472998504E+02  0.12977823852E+02  0.51100000000E-03 0. -1.
        -11    1    3    3    0    0  0.18578862183E+02 -0.15231465094E+02 -0.14715481531E+02  0.28172984327E+02  0.51100000000E-03 0.  1.
         12    1    3    3    0    0  0.12066543141E+02  0.37191461946E+00  0.13554479196E+02  0.18151134679E+02  0.00000000000E+00 0. -1.
</event>
<event>
 7    1  0.1338132E-011  0.5930193E+02  0.7816164E-02  0.1266605E+00
        -11   -1    0    0    0    0  0.00000000000E+00  0.00000000000E+00  0.45593999997E+02  0.45594000000E+02  0.51100000000E-03 0.  1.
         11   -1    0    0    0    0 -0.00000000000E+00 -0.00000000000E+00 -0.45593999997E+02  0.45594000000E+02  0.51100000000E-03 0. -1.
    9900012    2    1    2    0    0  0.15536829981E+02  0.20563623562E+01 -0.27768681502E+02  0.59301931187E+02  0.49999976582E+02 0.  0.
        -12    1    1    2    0    0 -0.15536829981E+02 -0.20563623562E+01  0.27768681502E+02  0.31886068813E+02  0.00000000000E+00 0.  1.
         11    1    3    3    0    0  0.44899416392E+01  0.22514057232E+00 -0.81281357972E+00  0.45684713392E+01  0.51100000000E-03 0. -1.
        -11    1    3    3    0    0 -0.16228897719E+00 -0.95976012442E+01  0.10363284738E+02  0.14125790533E+02  0.51100000000E-03 0.  1.
         12    1    3    3    0    0  0.11209177319E+02  0.11428823028E+02 -0.37319152660E+02  0.40607669315E+02  0.00000000000E+00 0. -1.
</event>
<event>
 7    1  0.1338132E-011  0.5930196E+02  0.7816164E-02  0.1266605E+00
        -11   -1    0    0    0    0  0.00000000000E+00  0.00000000000E+00  0.45593999997E+02  0.45594000000E+02  0.51100000000E-03 0.  1.
         11   -1    0    0    0    0 -0.00000000000E+00 -0.00000000000E+00 -0.45593999997E+02  0.45594000000E+02  0.51100000000E-03 0. -1.
    9900012    2    1    2    0    0 -0.93853675460E+01  0.23835379923E+02 -0.18987084873E+02  0.59301955215E+02  0.50000020403E+02 0.  0.
        -12    1    1    2    0    0  0.93853675460E+01 -0.23835379923E+02  0.18987084873E+02  0.31886044785E+02  0.00000000000E+00 0.  1.
         11    1    3    3    0    0  0.14018864240E+02 -0.29899821730E+01  0.49716460898E+00  0.14342793343E+02  0.51100000000E-03 0.  1.
        -11    1    3    3    0    0 -0.55625773147E+00 -0.27220266852E+01  0.11071141776E+00  0.27804872267E+01  0.51100000000E-03 0. -1.
         12    1    3    3    0    0 -0.22847974054E+02  0.29547388782E+02 -0.19594960899E+02  0.42178674645E+02  0.00000000000E+00 0. -1.
</event>
<event>
 7    1  0.1380213E-011  0.5930197E+02  0.7816164E-02  0.1266605E+00
        -11   -1    0    0    0    0  0.00000000000E+00  0.00000000000E+00  0.45593999997E+02  0.45594000000E+02  0.51100000000E-03 0. -1.
         11   -1    0    0    0    0 -0.00000000000E+00 -0.00000000000E+00 -0.45593999997E+02  0.45594000000E+02  0.51100000000E-03 0.  1.
    9900012    2    1    2    0    0 -0.10014829474E+02  0.19499282253E+02  0.23156000909E+02  0.59301965504E+02  0.50000039168E+02 0.  0.
        -12    1    1    2    0    0  0.10014829474E+02 -0.19499282253E+02 -0.23156000909E+02  0.31886034496E+02  0.00000000000E+00 0.  1.
         11    1    3    3    0    0  0.99072720688E+01  0.56935249320E+01  0.16137660903E+02  0.19773577463E+02  0.51100000000E-03 0. -1.
        -11    1    3    3    0    0  0.78867992210E+00 -0.51686763380E+01 -0.65117124625E+01  0.83510257192E+01  0.51100000000E-03 0.  1.
         12    1    3    3    0    0 -0.20710781465E+02  0.18974433658E+02  0.13530052469E+02  0.31177362322E+02  0.00000000000E+00 0. -1.
</event>
<event>
 7    1  0.1338132E-011  0.5930194E+02  0.7816164E-02  0.1266605E+00
        -11   -1    0    0    0    0  0.00000000000E+00  0.00000000000E+00  0.45593999997E+02  0.45594000000E+02  0.51100000000E-03 0.  1.
         11   -1    0    0    0    0 -0.00000000000E+00 -0.00000000000E+00 -0.45593999997E+02  0.45594000000E+02  0.51100000000E-03 0. -1.
    9900012    2    1    2    0    0 -0.10191989834E+02  0.16434336691E+02 -0.25352645954E+02  0.59301941352E+02  0.49999995120E+02 0.  0.
        -12    1    1    2    0    0  0.10191989834E+02 -0.16434336691E+02  0.25352645954E+02  0.31886058648E+02  0.00000000000E+00 0.  1.
         11    1    3    3    0    0 -0.21588408196E+02  0.11866754825E+02 -0.18163190077E+02  0.30606873616E+02  0.51100000000E-03 0.  1.
        -11    1    3    3    0    0 -0.76229483006E+01  0.54697524686E-01 -0.47845737920E+01  0.90002488435E+01  0.51100000000E-03 0. -1.
        -12    1    3    3    0    0  0.19019366663E+02  0.45128843417E+01 -0.24048820853E+01  0.19694818892E+02  0.00000000000E+00 0.  1.
</event>
<event>
 7    1  0.1338132E-011  0.5930194E+02  0.7816164E-02  0.1266605E+00
        -11   -1    0    0    0    0  0.00000000000E+00  0.00000000000E+00  0.45593999997E+02  0.45594000000E+02  0.51100000000E-03 0. -1.
         11   -1    0    0    0    0 -0.00000000000E+00 -0.00000000000E+00 -0.45593999997E+02  0.45594000000E+02  0.51100000000E-03 0.  1.
    9900012    2    1    2    0    0 -0.23395373127E+02 -0.21665081852E+02 -0.36338624849E-01  0.59301943864E+02  0.49999999701E+02 0.  0.
        -12    1    1    2    0    0  0.23395373127E+02  0.21665081852E+02  0.36338624849E-01  0.31886056136E+02  0.00000000000E+00 0.  1.
         11    1    3    3    0    0  0.40513410313E+00  0.18934708739E+01 -0.10340314800E+02  0.10520051142E+02  0.51100000000E-03 0. -1.
        -11    1    3    3    0    0  0.66888079019E+01  0.19022410805E+01 -0.19327508335E+01  0.72176310742E+01  0.51100000000E-03 0.  1.
         12    1    3    3    0    0 -0.30489315132E+02 -0.25460793807E+02  0.12236727009E+02  0.41564261648E+02  0.00000000000E+00 0. -1.
</event>
<event>
 7    1  0.1338132E-011  0.5930195E+02  0.7816164E-02  0.1266605E+00
        -11   -1    0    0    0    0  0.00000000000E+00  0.00000000000E+00  0.45593999997E+02  0.45594000000E+02  0.51100000000E-03 0. -1.
         11   -1    0    0    0    0 -0.00000000000E+00 -0.00000000000E+00 -0.45593999997E+02  0.45594000000E+02  0.51100000000E-03 0.  1.
    9900012    2    1    2    0    0  0.30303452661E+02  0.98549928253E+01 -0.11403353640E+01  0.59301945187E+02  0.50000002114E+02 0.  0.
        -12    1    1    2    0    0 -0.30303452661E+02 -0.98549928253E+01  0.11403353640E+01  0.31886054813E+02  0.00000000000E+00 0.  1.
         11    1    3    3    0    0  0.44394431623E+01 -0.78494563746E+01 -0.21290156809E+01  0.92658150747E+01  0.51100000000E-03 0. -1.
        -11    1    3    3    0    0 -0.91023942085E+01  0.46248161174E+01 -0.63020192029E+01  0.11998247820E+02  0.51100000000E-03 0.  1.
         12    1    3    3    0    0  0.34966403708E+02  0.13079633083E+02  0.72906995198E+01  0.38037882293E+02  0.00000000000E+00 0. -1.
</event>
<event>
 7    1  0.1338132E-011  0.5930194E+02  0.7816164E-02  0.1266605E+00
        -11   -1    0    0    0    0  0.00000000000E+00  0.00000000000E+00  0.45593999997E+02  0.45594000000E+02  0.51100000000E-03 0.  1.
         11   -1    0    0    0    0 -0.00000000000E+00 -0.00000000000E+00 -0.45593999997E+02  0.45594000000E+02  0.51100000000E-03 0. -1.
    9900012    2    1    2    0    0 -0.25985298616E+02 -0.10394682729E+01 -0.18450061059E+02  0.59301937347E+02  0.49999987816E+02 0.  0.
        -12    1    1    2    0    0  0.25985298616E+02  0.10394682729E+01  0.18450061059E+02  0.31886062653E+02  0.00000000000E+00 0.  1.
         11    1    3    3    0    0 -0.32446054542E+01 -0.16598666160E+02 -0.22544786776E+01  0.17062410651E+02  0.51100000000E-03 0. -1.
        -11    1    3    3    0    0 -0.13653469178E+02 -0.42219853696E+01  0.12458013820E+01  0.14345535975E+02  0.51100000000E-03 0.  1.
        -12    1    3    3    0    0 -0.90872239835E+01  0.19781183257E+02 -0.17441383763E+02  0.27893990721E+02  0.00000000000E+00 0.  1.
</event>
<event>
 7    1  0.1338132E-011  0.5930199E+02  0.7816164E-02  0.1266605E+00
        -11   -1    0    0    0    0  0.00000000000E+00  0.00000000000E+00  0.45593999997E+02  0.45594000000E+02  0.51100000000E-03 0.  1.
         11   -1    0    0    0    0 -0.00000000000E+00 -0.00000000000E+00 -0.45593999997E+02  0.45594000000E+02  0.51100000000E-03 0. -1.
    9900012    2    1    2    0    0 -0.13101729023E+02  0.21606990269E+02  0.19447379410E+02  0.59301985859E+02  0.50000076289E+02 0.  0.
        -12    1    1    2    0    0  0.13101729023E+02 -0.21606990269E+02 -0.19447379410E+02  0.31886014141E+02  0.00000000000E+00 0.  1.
         11    1    3    3    0    0 -0.48700712049E+01 -0.90105259438E+01  0.99199509585E+01  0.14258772689E+02  0.51100000000E-03 0. -1.
        -11    1    3    3    0    0  0.18449733787E+01  0.22628838728E+02  0.18563286857E+02  0.29326845861E+02  0.51100000000E-03 0.  1.
         12    1    3    3    0    0 -0.10076631197E+02  0.79886774853E+01 -0.90358584056E+01  0.15716367308E+02  0.00000000000E+00 0. -1.
</event>
<event>
 7    1  0.1338132E-011  0.5930196E+02  0.7816164E-02  0.1266605E+00
        -11   -1    0    0    0    0  0.00000000000E+00  0.00000000000E+00  0.45593999997E+02  0.45594000000E+02  0.51100000000E-03 0.  1.
         11   -1    0    0    0    0 -0.00000000000E+00 -0.00000000000E+00 -0.45593999997E+02  0.45594000000E+02  0.51100000000E-03 0. -1.
    9900012    2    1    2    0    0 -0.98612949843E+01  0.18124493076E+02 -0.24310018632E+02  0.59301962399E+02  0.50000033504E+02 0.  0.
        -12    1    1    2    0    0  0.98612949843E+01 -0.18124493076E+02  0.24310018632E+02  0.31886037601E+02  0.00000000000E+00 0.  1.
         11    1    3    3    0    0  0.65974922415E+01  0.14200343524E+00 -0.25886269621E+01  0.70885865066E+01  0.51100000000E-03 0. -1.
        -11    1    3    3    0    0  0.11912419309E+02 -0.26915442128E+01 -0.37471537995E+01  0.12774635255E+02  0.51100000000E-03 0.  1.
         12    1    3    3    0    0 -0.28371206535E+02  0.20674033853E+02 -0.17974237870E+02  0.39438740637E+02  0.00000000000E+00 0. -1.
</event>
<event>
 7    1  0.1338132E-011  0.5930200E+02  0.7816164E-02  0.1266605E+00
        -11   -1    0    0    0    0  0.00000000000E+00  0.00000000000E+00  0.45593999997E+02  0.45594000000E+02  0.51100000000E-03 0. -1.
         11   -1    0    0    0    0 -0.00000000000E+00 -0.00000000000E+00 -0.45593999997E+02  0.45594000000E+02  0.51100000000E-03 0.  1.
    9900012    2    1    2    0    0 -0.15176702103E+02  0.54541556902E+01  0.27507030887E+02  0.59302002302E+02  0.50000106278E+02 0.  0.
        -12    1    1    2    0    0  0.15176702103E+02 -0.54541556902E+01 -0.27507030887E+02  0.31885997698E+02  0.00000000000E+00 0.  1.
         11    1    3    3    0    0 -0.11619492026E+02  0.64347629702E+01  0.24830493445E+01  0.13512375947E+02  0.51100000000E-03 0. -1.
        -11    1    3    3    0    0  0.16431164797E+02  0.28380704674E+01  0.54204459844E+01  0.17533369770E+02  0.51100000000E-03 0.  1.
         12    1    3    3    0    0 -0.19988374873E+02 -0.38186777473E+01  0.19603535558E+02  0.28256256584E+02  0.00000000000E+00 0. -1.
</event>
<event>
 7    1  0.1338132E-011  0.5930201E+02  0.7816164E-02  0.1266605E+00
        -11   -1    0    0    0    0  0.00000000000E+00  0.00000000000E+00  0.45593999997E+02  0.45594000000E+02  0.51100000000E-03 0. -1.
         11   -1    0    0    0    0 -0.00000000000E+00 -0.00000000000E+00 -0.45593999997E+02  0.45594000000E+02  0.51100000000E-03 0.  1.
    9900012    2    1    2    0    0 -0.22340144515E+02  0.16878336028E+02  0.15256343208E+02  0.59302011038E+02  0.50000122210E+02 0.  0.
        -12    1    1    2    0    0  0.22340144515E+02 -0.16878336028E+02 -0.15256343208E+02  0.31885988962E+02  0.00000000000E+00 0.  1.
         11    1    3    3    0    0 -0.83282970658E+01  0.10679909557E+02  0.82679723605E+01  0.15867588581E+02  0.51100000000E-03 0. -1.
        -11    1    3    3    0    0 -0.11504259753E+02  0.22138829312E+02  0.10247819160E+02  0.26972088416E+02  0.51100000000E-03 0.  1.
        -12    1    3    3    0    0 -0.25075876960E+01 -0.15940402840E+02 -0.32594483123E+01  0.16462334041E+02  0.00000000000E+00 0.  1.
</event>
<event>
 7    1  0.1338132E-011  0.5930194E+02  0.7816164E-02  0.1266605E+00
        -11   -1    0    0    0    0  0.00000000000E+00  0.00000000000E+00  0.45593999997E+02  0.45594000000E+02  0.51100000000E-03 0.  1.
         11   -1    0    0    0    0 -0.00000000000E+00 -0.00000000000E+00 -0.45593999997E+02  0.45594000000E+02  0.51100000000E-03 0. -1.
    9900012    2    1    2    0    0 -0.28403287648E+02  0.67428093875E+01 -0.12826097475E+02  0.59301937150E+02  0.49999987457E+02 0.  0.
        -12    1    1    2    0    0  0.28403287648E+02 -0.67428093875E+01  0.12826097475E+02  0.31886062850E+02  0.00000000000E+00 0.  1.
         11    1    3    3    0    0 -0.37600103667E+01  0.47028316793E+01  0.60867619212E+01  0.85617156405E+01  0.51100000000E-03 0. -1.
        -11    1    3    3    0    0  0.70138814378E+00  0.12049626186E+02  0.63003420510E+01  0.13615423121E+02  0.51100000000E-03 0.  1.
         12    1    3    3    0    0 -0.25344665425E+02 -0.10009648478E+02 -0.25213201448E+02  0.37124798388E+02  0.00000000000E+00 0. -1.
</event>
<event>
 7    1  0.1338132E-011  0.5930202E+02  0.7816164E-02  0.1266604E+00
        -11   -1    0    0    0    0  0.00000000000E+00  0.00000000000E+00  0.45593999997E+02  0.45594000000E+02  0.51100000000E-03 0. -1.
         11   -1    0    0    0    0 -0.00000000000E+00 -0.00000000000E+00 -0.45593999997E+02  0.45594000000E+02  0.51100000000E-03 0.  1.
    9900012    2    1    2    0    0 -0.58867157134E+01  0.31286347379E+02 -0.17962956326E+01  0.59302021386E+02  0.50000141082E+02 0.  0.
        -12    1    1    2    0    0  0.58867157134E+01 -0.31286347379E+02  0.17962956326E+01  0.31885978614E+02  0.00000000000E+00 0.  1.
         11    1    3    3    0    0  0.15146944405E+02  0.18629363766E+02  0.29467014694E+01  0.24190208121E+02  0.51100000000E-03 0. -1.
        -11    1    3    3    0    0 -0.26473272133E+01  0.92812224227E+01 -0.11698671947E+02  0.15166026395E+02  0.51100000000E-03 0.  1.
        -12    1    3    3    0    0 -0.18386332905E+02  0.33757611903E+01  0.69556748453E+01  0.19945786870E+02  0.00000000000E+00 0.  1.
</event>
<event>
 7    1  0.1338132E-011  0.5930193E+02  0.7816164E-02  0.1266605E+00
        -11   -1    0    0    0    0  0.00000000000E+00  0.00000000000E+00  0.45593999997E+02  0.45594000000E+02  0.51100000000E-03 0.  1.
         11   -1    0    0    0    0 -0.00000000000E+00 -0.00000000000E+00 -0.45593999997E+02  0.45594000000E+02  0.51100000000E-03 0. -1.
    9900012    2    1    2    0    0  0.23512870455E+02  0.36453459982E+01 -0.21226818881E+02  0.59301929934E+02  0.49999974296E+02 0.  0.
        -12    1    1    2    0    0 -0.23512870455E+02 -0.36453459982E+01  0.21226818881E+02  0.31886070066E+02  0.00000000000E+00 0.  1.
         11    1    3    3    0    0  0.12239588973E+02 -0.15513754807E+02  0.29929253962E+01  0.19986038355E+02  0.51100000000E-03 0.  1.
        -11    1    3    3    0    0  0.12375111726E+02  0.10588910036E+01 -0.67497978712E+01  0.14135926285E+02  0.51100000000E-03 0. -1.
         12    1    3    3    0    0 -0.11018302432E+01  0.18100209802E+02 -0.17469946406E+02  0.25179965293E+02  0.00000000000E+00 0. -1.
</event>
<event>
 7    1  0.1338132E-011  0.5930194E+02  0.7816164E-02  0.1266605E+00
        -11   -1    0    0    0    0  0.00000000000E+00  0.00000000000E+00  0.45593999997E+02  0.45594000000E+02  0.51100000000E-03 0. -1.
         11   -1    0    0    0    0 -0.00000000000E+00 -0.00000000000E+00 -0.45593999997E+02  0.45594000000E+02  0.51100000000E-03 0.  1.
    9900012    2    1    2    0    0  0.25333290388E+02 -0.19013718963E+02  0.36638650550E+01  0.59301936934E+02  0.49999987063E+02 0.  0.
        -12    1    1    2    0    0 -0.25333290388E+02  0.19013718963E+02 -0.36638650550E+01  0.31886063066E+02  0.00000000000E+00 0.  1.
         11    1    3    3    0    0  0.10552972910E+02 -0.23286642546E+01  0.16718733032E+02  0.19907384280E+02  0.51100000000E-03 0. -1.
        -11    1    3    3    0    0 -0.68656983982E+01 -0.26208271600E+00 -0.98864154514E+01  0.12039423266E+02  0.51100000000E-03 0.  1.
        -12    1    3    3    0    0  0.21646015877E+02 -0.16422971993E+02 -0.31684525252E+01  0.27355129388E+02  0.00000000000E+00 0.  1.
</event>
<event>
 7    1  0.1338132E-011  0.5930193E+02  0.7816164E-02  0.1266605E+00
        -11   -1    0    0    0    0  0.00000000000E+00  0.00000000000E+00  0.45593999997E+02  0.45594000000E+02  0.51100000000E-03 0.  1.
         11   -1    0    0    0    0 -0.00000000000E+00 -0.00000000000E+00 -0.45593999997E+02  0.45594000000E+02  0.51100000000E-03 0. -1.
    9900012    2    1    2    0    0  0.11814901342E+02  0.16006215473E+02 -0.24918481998E+02  0.59301928236E+02  0.49999971199E+02 0.  0.
        -12    1    1    2    0    0 -0.11814901342E+02 -0.16006215473E+02  0.24918481998E+02  0.31886071764E+02  0.00000000000E+00 0.  1.
         11    1    3    3    0    0  0.95352784809E+01  0.99357703981E+01 -0.20573672632E+02  0.24757162094E+02  0.51100000000E-03 0. -1.
        -11    1    3    3    0    0  0.65733751077E+01  0.14366285490E+02 -0.14000909122E+02  0.21109828886E+02  0.51100000000E-03 0.  1.
        -12    1    3    3    0    0 -0.42937522462E+01 -0.82958404153E+01  0.96560997569E+01  0.13434937256E+02  0.00000000000E+00 0.  1.
</event>
<event>
 7    1  0.1338132E-011  0.5930195E+02  0.7816164E-02  0.1266605E+00
        -11   -1    0    0    0    0  0.00000000000E+00  0.00000000000E+00  0.45593999997E+02  0.45594000000E+02  0.51100000000E-03 0.  1.
         11   -1    0    0    0    0 -0.00000000000E+00 -0.00000000000E+00 -0.45593999997E+02  0.45594000000E+02  0.51100000000E-03 0. -1.
    9900012    2    1    2    0    0 -0.12055323950E+02  0.27706619312E+02 -0.10184919847E+02  0.59301950048E+02  0.50000010980E+02 0.  0.
        -12    1    1    2    0    0  0.12055323950E+02 -0.27706619312E+02  0.10184919847E+02  0.31886049952E+02  0.00000000000E+00 0.  1.
         11    1    3    3    0    0  0.34099791064E+01  0.11325378023E+01 -0.16767418347E+02  0.17148087872E+02  0.51100000000E-03 0. -1.
        -11    1    3    3    0    0  0.78683636085E+01  0.65625493260E+01 -0.15357663195E+01  0.10360346422E+02  0.51100000000E-03 0.  1.
        -12    1    3    3    0    0 -0.23333666665E+02  0.20011532184E+02  0.81182648196E+01  0.31793515755E+02  0.00000000000E+00 0.  1.
</event>
<event>
 7    1  0.1338132E-011  0.5930195E+02  0.7816164E-02  0.1266605E+00
        -11   -1    0    0    0    0  0.00000000000E+00  0.00000000000E+00  0.45593999997E+02  0.45594000000E+02  0.51100000000E-03 0.  1.
         11   -1    0    0    0    0 -0.00000000000E+00 -0.00000000000E+00 -0.45593999997E+02  0.45594000000E+02  0.51100000000E-03 0. -1.
    9900012    2    1    2    0    0  0.12705458609E+02  0.18868702075E+02 -0.22344205950E+02  0.59301950762E+02  0.50000012282E+02 0.  0.
        -12    1    1    2    0    0 -0.12705458609E+02 -0.18868702075E+02  0.22344205950E+02  0.31886049238E+02  0.00000000000E+00 0.  1.
         11    1    3    3    0    0 -0.65710833213E+01  0.64153771041E+01 -0.85374545710E+01  0.12538912641E+02  0.51100000000E-03 0. -1.
        -11    1    3    3    0    0 -0.88689431527E+01 -0.76671149341E+00 -0.12875773100E+02  0.15653483074E+02  0.51100000000E-03 0.  1.
        -12    1    3    3    0    0  0.28145485083E+02  0.13220036464E+02 -0.93097827897E+00  0.31109555047E+02  0.00000000000E+00 0.  1.
</event>
<event>
 7    1  0.1338132E-011  0.5930196E+02  0.7816164E-02  0.1266605E+00
        -11   -1    0    0    0    0  0.00000000000E+00  0.00000000000E+00  0.45593999997E+02  0.45594000000E+02  0.51100000000E-03 0.  1.
         11   -1    0    0    0    0 -0.00000000000E+00 -0.00000000000E+00 -0.45593999997E+02  0.45594000000E+02  0.51100000000E-03 0. -1.
    9900012    2    1    2    0    0  0.13321119855E+01 -0.31154213053E+02  0.66603535393E+01  0.59301955677E+02  0.50000021246E+02 0.  0.
        -12    1    1    2    0    0 -0.13321119855E+01  0.31154213053E+02 -0.66603535393E+01  0.31886044323E+02  0.00000000000E+00 0.  1.
         11    1    3    3    0    0  0.19693032796E+01 -0.94859336655E+01 -0.75660803595E+01  0.12292545106E+02  0.51100000000E-03 0. -1.
        -11    1    3    3    0    0 -0.60578181366E+01 -0.27405172631E+02 -0.28362571381E+01  0.28209661507E+02  0.51100000000E-03 0.  1.
        -12    1    3    3    0    0  0.54206268425E+01  0.57368932439E+01  0.17062691037E+02  0.18799749064E+02  0.00000000000E+00 0.  1.
</event>
<event>
 7    1  0.1338132E-011  0.5930206E+02  0.7816164E-02  0.1266604E+00
        -11   -1    0    0    0    0  0.00000000000E+00  0.00000000000E+00  0.45593999997E+02  0.45594000000E+02  0.51100000000E-03 0.  1.
         11   -1    0    0    0    0 -0.00000000000E+00 -0.00000000000E+00 -0.45593999997E+02  0.45594000000E+02  0.51100000000E-03 0. -1.
    9900012    2    1    2    0    0 -0.24815147530E+02  0.19741676254E+02 -0.33448528799E+01  0.59302056874E+02  0.50000205804E+02 0.  0.
        -12    1    1    2    0    0  0.24815147530E+02 -0.19741676254E+02  0.33448528799E+01  0.31885943126E+02  0.00000000000E+00 0.  1.
         11    1    3    3    0    0 -0.22337684342E+02  0.16219496437E+02 -0.37476886235E+00  0.27607692015E+02  0.51100000000E-03 0. -1.
        -11    1    3    3    0    0 -0.12737438119E+02 -0.29565462861E+01 -0.11046947348E+02  0.17117784370E+02  0.51100000000E-03 0.  1.
        -12    1    3    3    0    0  0.10259974931E+02  0.64787261033E+01  0.80768633304E+01  0.14576580489E+02  0.00000000000E+00 0.  1.
</event>
<event>
 7    1  0.1338132E-011  0.5930197E+02  0.7816164E-02  0.1266605E+00
        -11   -1    0    0    0    0  0.00000000000E+00  0.00000000000E+00  0.45593999997E+02  0.45594000000E+02  0.51100000000E-03 0. -1.
         11   -1    0    0    0    0 -0.00000000000E+00 -0.00000000000E+00 -0.45593999997E+02  0.45594000000E+02  0.51100000000E-03 0.  1.
    9900012    2    1    2    0    0 -0.13007495075E+02 -0.20660573784E+02  0.20510103753E+02  0.59301974955E+02  0.50000056403E+02 0.  0.
        -12    1    1    2    0    0  0.13007495075E+02  0.20660573784E+02 -0.20510103753E+02  0.31886025045E+02  0.00000000000E+00 0.  1.
         11    1    3    3    0    0 -0.13681261026E+02 -0.20465402124E+02  0.16261355562E+02  0.29503241726E+02  0.51100000000E-03 0. -1.
        -11    1    3    3    0    0  0.10386990616E+01 -0.44043329059E+01  0.16358643647E+02  0.16972986370E+02  0.51100000000E-03 0.  1.
        -12    1    3    3    0    0 -0.36493311095E+00  0.42091612455E+01 -0.12109895455E+02  0.12825746859E+02  0.00000000000E+00 0.  1.
</event>
<event>
 7    1  0.1338132E-011  0.5930191E+02  0.7816164E-02  0.1266605E+00
        -11   -1    0    0    0    0  0.00000000000E+00  0.00000000000E+00  0.45593999997E+02  0.45594000000E+02  0.51100000000E-03 0.  1.
         11   -1    0    0    0    0 -0.00000000000E+00 -0.00000000000E+00 -0.45593999997E+02  0.45594000000E+02  0.51100000000E-03 0. -1.
    9900012    2    1    2    0    0 -0.18414402732E+02  0.15498038404E+01 -0.25985195451E+02  0.59301913653E+02  0.49999944604E+02 0.  0.
        -12    1    1    2    0    0  0.18414402732E+02 -0.15498038404E+01  0.25985195451E+02  0.31886086347E+02  0.00000000000E+00 0.  1.
         11    1    3    3    0    0 -0.14250932820E+02  0.38484334479E+01 -0.13848252206E+02  0.20240395641E+02  0.51100000000E-03 0. -1.
        -11    1    3    3    0    0 -0.12592783653E+02  0.13299671646E+02 -0.14805087533E+01  0.18375292445E+02  0.51100000000E-03 0.  1.
        -12    1    3    3    0    0  0.84293137418E+01 -0.15598301253E+02 -0.10656434491E+02  0.20686225567E+02  0.00000000000E+00 0.  1.
</event>
<event>
 7    1  0.1338132E-011  0.5930196E+02  0.7816164E-02  0.1266605E+00
        -11   -1    0    0    0    0  0.00000000000E+00  0.00000000000E+00  0.45593999997E+02  0.45594000000E+02  0.51100000000E-03 0.  1.
         11   -1    0    0    0    0 -0.00000000000E+00 -0.00000000000E+00 -0.45593999997E+02  0.45594000000E+02  0.51100000000E-03 0. -1.
    9900012    2    1    2    0    0  0.24315794446E+02 -0.14799225836E+02  0.14368191057E+02  0.59301955104E+02  0.50000020200E+02 0.  0.
        -12    1    1    2    0    0 -0.24315794446E+02  0.14799225836E+02 -0.14368191057E+02  0.31886044896E+02  0.00000000000E+00 0.  1.
         11    1    3    3    0    0  0.79284853200E+01 -0.50499960773E+01  0.63877414161E+01  0.11365147624E+02  0.51100000000E-03 0. -1.
        -11    1    3    3    0    0  0.25566531238E+02 -0.16062010899E+02 -0.52440112954E+01  0.30645315603E+02  0.51100000000E-03 0.  1.
        -12    1    3    3    0    0 -0.91792221122E+01  0.63127811400E+01  0.13224460936E+02  0.17291491878E+02  0.00000000000E+00 0.  1.
</event>
<event>
 7    1  0.1338132E-011  0.5930193E+02  0.7816164E-02  0.1266605E+00
        -11   -1    0    0    0    0  0.00000000000E+00  0.00000000000E+00  0.45593999997E+02  0.45594000000E+02  0.51100000000E-03 0.  1.
         11   -1    0    0    0    0 -0.00000000000E+00 -0.00000000000E+00 -0.45593999997E+02  0.45594000000E+02  0.51100000000E-03 0. -1.
    9900012    2    1    2    0    0 -0.26487238430E+02 -0.56938442138E+01 -0.16814509534E+02  0.59301931060E+02  0.49999976351E+02 0.  0.
        -12    1    1    2    0    0  0.26487238430E+02  0.56938442138E+01  0.16814509534E+02  0.31886068940E+02  0.00000000000E+00 0.  1.
         11    1    3    3    0    0 -0.11175587777E+02 -0.10028853682E+01 -0.54598319485E+01  0.12478353512E+02  0.51100000000E-03 0. -1.
        -11    1    3    3    0    0  0.99178476862E+00 -0.19631644178E+02 -0.14582680939E+02  0.24475287001E+02  0.51100000000E-03 0.  1.
         12    1    3    3    0    0 -0.16303435422E+02  0.14940685332E+02  0.32280033533E+01  0.22348290547E+02  0.00000000000E+00 0. -1.
</event>
<event>
 7    1  0.1338132E-011  0.5930192E+02  0.7816164E-02  0.1266605E+00
        -11   -1    0    0    0    0  0.00000000000E+00  0.00000000000E+00  0.45593999997E+02  0.45594000000E+02  0.51100000000E-03 0.  1.
         11   -1    0    0    0    0 -0.00000000000E+00 -0.00000000000E+00 -0.45593999997E+02  0.45594000000E+02  0.51100000000E-03 0. -1.
    9900012    2    1    2    0    0  0.28390600525E+02 -0.88895317706E+01 -0.11474838207E+02  0.59301923335E+02  0.49999962261E+02 0.  0.
        -12    1    1    2    0    0 -0.28390600525E+02  0.88895317706E+01  0.11474838207E+02  0.31886076665E+02  0.00000000000E+00 0.  1.
         11    1    3    3    0    0  0.98596109916E+01 -0.12554716269E+02 -0.74083994690E+01  0.17598784403E+02  0.51100000000E-03 0. -1.
        -11    1    3    3    0    0 -0.88164550810E+01 -0.35013448600E+01 -0.89168524908E+01  0.13019199462E+02  0.51100000000E-03 0.  1.
        -12    1    3    3    0    0  0.27347444614E+02  0.71665293581E+01  0.48504137533E+01  0.28683939470E+02  0.00000000000E+00 0.  1.
</event>
<event>
 7    1  0.1338132E-011  0.5930196E+02  0.7816164E-02  0.1266605E+00
        -11   -1    0    0    0    0  0.00000000000E+00  0.00000000000E+00  0.45593999997E+02  0.45594000000E+02  0.51100000000E-03 0. -1.
         11   -1    0    0    0    0 -0.00000000000E+00 -0.00000000000E+00 -0.45593999997E+02  0.45594000000E+02  0.51100000000E-03 0.  1.
    9900012    2    1    2    0    0  0.20945544314E+02  0.17481404650E+02  0.16504675359E+02  0.59301958479E+02  0.50000026356E+02 0.  0.
        -12    1    1    2    0    0 -0.20945544314E+02 -0.17481404650E+02 -0.16504675359E+02  0.31886041521E+02  0.00000000000E+00 0.  1.
         11    1    3    3    0    0  0.80034968176E+01 -0.37242721490E+01 -0.10959241973E+02  0.14072354076E+02  0.51100000000E-03 0. -1.
        -11    1    3    3    0    0  0.49924705770E+01  0.18990314090E+02  0.35788693856E+01  0.19959085602E+02  0.51100000000E-03 0.  1.
         12    1    3    3    0    0  0.79495769197E+01  0.22153627090E+01  0.23885047946E+02  0.25270518802E+02  0.00000000000E+00 0. -1.
</event>
<event>
 7    1  0.1338132E-011  0.5930196E+02  0.7816164E-02  0.1266605E+00
        -11   -1    0    0    0    0  0.00000000000E+00  0.00000000000E+00  0.45593999997E+02  0.45594000000E+02  0.51100000000E-03 0. -1.
         11   -1    0    0    0    0 -0.00000000000E+00 -0.00000000000E+00 -0.45593999997E+02  0.45594000000E+02  0.51100000000E-03 0.  1.
    9900012    2    1    2    0    0 -0.31758927101E+02 -0.26481139856E+01  0.10379969278E+01  0.59301962367E+02  0.50000033447E+02 0.  0.
        -12    1    1    2    0    0  0.31758927101E+02  0.26481139856E+01 -0.10379969278E+01  0.31886037633E+02  0.00000000000E+00 0.  1.
         11    1    3    3    0    0 -0.19500478707E+02  0.15969734949E+02  0.59224621820E+01  0.25891633064E+02  0.51100000000E-03 0. -1.
        -11    1    3    3    0    0 -0.17206582123E+01  0.96372317498E+00 -0.10329770847E+02  0.10516348846E+02  0.51100000000E-03 0.  1.
         12    1    3    3    0    0 -0.10537790182E+02 -0.19581572109E+02  0.54453055926E+01  0.22893980458E+02  0.00000000000E+00 0. -1.
</event>
<event>
 7    1  0.1338132E-011  0.5930196E+02  0.7816164E-02  0.1266605E+00
        -11   -1    0    0    0    0  0.00000000000E+00  0.00000000000E+00  0.45593999997E+02  0.45594000000E+02  0.51100000000E-03 0. -1.
         11   -1    0    0    0    0 -0.00000000000E+00 -0.00000000000E+00 -0.45593999997E+02  0.45594000000E+02  0.51100000000E-03 0.  1.
    9900012    2    1    2    0    0  0.27205924086E+01  0.30736424568E+02 -0.80368157031E+01  0.59301955640E+02  0.50000021177E+02 0.  0.
        -12    1    1    2    0    0 -0.27205924086E+01 -0.30736424568E+02  0.80368157031E+01  0.31886044360E+02  0.00000000000E+00 0.  1.
         11    1    3    3    0    0 -0.63199948076E+01 -0.58846706335E+01  0.83549920060E+01  0.12015721972E+02  0.51100000000E-03 0. -1.
        -11    1    3    3    0    0  0.28553268338E+00 -0.33824677129E+01 -0.15153715373E+01  0.37173872409E+01  0.51100000000E-03 0.  1.
         12    1    3    3    0    0  0.87550545328E+01  0.40003562915E+02 -0.14876436172E+02  0.43568846426E+02  0.00000000000E+00 0. -1.
</event>
<event>
 7    1  0.1338132E-011  0.5930194E+02  0.7816164E-02  0.1266605E+00
        -11   -1    0    0    0    0  0.00000000000E+00  0.00000000000E+00  0.45593999997E+02  0.45594000000E+02  0.51100000000E-03 0.  1.
         11   -1    0    0    0    0 -0.00000000000E+00 -0.00000000000E+00 -0.45593999997E+02  0.45594000000E+02  0.51100000000E-03 0. -1.
    9900012    2    1    2    0    0  0.21912442160E+02 -0.11490519199E+02 -0.20113016477E+02  0.59301943726E+02  0.49999999450E+02 0.  0.
        -12    1    1    2    0    0 -0.21912442160E+02  0.11490519199E+02  0.20113016477E+02  0.31886056274E+02  0.00000000000E+00 0.  1.
         11    1    3    3    0    0  0.37373090096E+01 -0.38020040331E+00 -0.12079567329E+02  0.12650216524E+02  0.51100000000E-03 0. -1.
        -11    1    3    3    0    0  0.35342644640E+01  0.13029479754E+02 -0.12098096789E+02  0.18127942910E+02  0.51100000000E-03 0.  1.
         12    1    3    3    0    0  0.14640868687E+02 -0.24139798550E+02  0.40646476412E+01  0.28523784293E+02  0.00000000000E+00 0. -1.
</event>
<event>
 7    1  0.1338132E-011  0.5930197E+02  0.7816164E-02  0.1266605E+00
        -11   -1    0    0    0    0  0.00000000000E+00  0.00000000000E+00  0.45593999997E+02  0.45594000000E+02  0.51100000000E-03 0. -1.
         11   -1    0    0    0    0 -0.00000000000E+00 -0.00000000000E+00 -0.45593999997E+02  0.45594000000E+02  0.51100000000E-03 0.  1.
    9900012    2    1    2    0    0  0.19004059340E+02 -0.25273410304E+02  0.41011244705E+01  0.59301972312E+02  0.50000051584E+02 0.  0.
        -12    1    1    2    0    0 -0.19004059340E+02  0.25273410304E+02 -0.41011244705E+01  0.31886027688E+02  0.00000000000E+00 0.  1.
         11    1    3    3    0    0  0.49150478117E+00 -0.11913243205E+02  0.24469169184E+02  0.27219610237E+02  0.51100000000E-03 0. -1.
        -11    1    3    3    0    0  0.52823940821E+01 -0.15683245544E-01 -0.15892622969E+01  0.55163110964E+01  0.51100000000E-03 0.  1.
        -12    1    3    3    0    0  0.13230160477E+02 -0.13344483853E+02 -0.18778782417E+02  0.26566050979E+02  0.00000000000E+00 0.  1.
</event>
<event>
 7    1  0.1338132E-011  0.5930196E+02  0.7816164E-02  0.1266605E+00
        -11   -1    0    0    0    0  0.00000000000E+00  0.00000000000E+00  0.45593999997E+02  0.45594000000E+02  0.51100000000E-03 0. -1.
         11   -1    0    0    0    0 -0.00000000000E+00 -0.00000000000E+00 -0.45593999997E+02  0.45594000000E+02  0.51100000000E-03 0.  1.
    9900012    2    1    2    0    0  0.39972707389E+01 -0.37101217345E+01  0.31416175701E+02  0.59301964306E+02  0.50000036982E+02 0.  0.
        -12    1    1    2    0    0 -0.39972707389E+01  0.37101217345E+01 -0.31416175701E+02  0.31886035694E+02  0.00000000000E+00 0.  1.
         11    1    3    3    0    0  0.95385784274E+00  0.38039722104E+00 -0.29684799854E+01  0.31410858814E+01  0.51100000000E-03 0. -1.
        -11    1    3    3    0    0  0.15989895328E+02 -0.93497322083E+01 -0.55428919596E+00  0.18531094996E+02  0.51100000000E-03 0.  1.
         12    1    3    3    0    0 -0.12946482432E+02  0.52592132527E+01  0.34938944882E+02  0.37629783428E+02  0.00000000000E+00 0. -1.
</event>
<event>
 7    1  0.1338132E-011  0.5930194E+02  0.7816164E-02  0.1266605E+00
        -11   -1    0    0    0    0  0.00000000000E+00  0.00000000000E+00  0.45593999997E+02  0.45594000000E+02  0.51100000000E-03 0.  1.
         11   -1    0    0    0    0 -0.00000000000E+00 -0.00000000000E+00 -0.45593999997E+02  0.45594000000E+02  0.51100000000E-03 0. -1.
    9900012    2    1    2    0    0 -0.75410321248E+01 -0.14080564458E+02 -0.27596949981E+02  0.59301935502E+02  0.49999984450E+02 0.  0.
        -12    1    1    2    0    0  0.75410321248E+01  0.14080564458E+02  0.27596949981E+02  0.31886064498E+02  0.00000000000E+00 0.  1.
         11    1    3    3    0    0 -0.18518626092E+02  0.37673656299E+01  0.36166247666E+01  0.19240907752E+02  0.51100000000E-03 0.  1.
        -11    1    3    3    0    0  0.64952219381E-01 -0.58759958042E+00  0.14350783507E+01  0.15520767351E+01  0.51100000000E-03 0. -1.
         12    1    3    3    0    0  0.10912641748E+02 -0.17260330508E+02 -0.32648653098E+02  0.38508951015E+02  0.00000000000E+00 0. -1.
</event>
<event>
 7    1  0.1338132E-011  0.5930177E+02  0.7816164E-02  0.1266605E+00
        -11   -1    0    0    0    0  0.00000000000E+00  0.00000000000E+00  0.45593999997E+02  0.45594000000E+02  0.51100000000E-03 0.  1.
         11   -1    0    0    0    0 -0.00000000000E+00 -0.00000000000E+00 -0.45593999997E+02  0.45594000000E+02  0.51100000000E-03 0. -1.
    9900012    2    1    2    0    0 -0.30762473532E+02 -0.69194324966E+01 -0.47458988347E+01  0.59301766612E+02  0.49999676436E+02 0.  0.
        -12    1    1    2    0    0  0.30762473532E+02  0.69194324966E+01  0.47458988347E+01  0.31886233388E+02  0.00000000000E+00 0.  1.
         11    1    3    3    0    0 -0.15728586534E+01 -0.11163902053E+02 -0.90051437725E+01  0.14429109745E+02  0.51100000000E-03 0. -1.
        -11    1    3    3    0    0 -0.24550648518E+02 -0.12175372831E+02  0.53890157535E+00  0.27409203954E+02  0.51100000000E-03 0.  1.
         12    1    3    3    0    0 -0.46389663608E+01  0.16419842387E+02  0.37203433624E+01  0.17463452913E+02  0.00000000000E+00 0. -1.
</event>
<event>
 7    1  0.1338132E-011  0.5930195E+02  0.7816164E-02  0.1266605E+00
        -11   -1    0    0    0    0  0.00000000000E+00  0.00000000000E+00  0.45593999997E+02  0.45594000000E+02  0.51100000000E-03 0.  1.
         11   -1    0    0    0    0 -0.00000000000E+00 -0.00000000000E+00 -0.45593999997E+02  0.45594000000E+02  0.51100000000E-03 0. -1.
    9900012    2    1    2    0    0 -0.18142405648E+02  0.22717947924E+02  0.13094595350E+02  0.59301945557E+02  0.50000002788E+02 0.  0.
        -12    1    1    2    0    0  0.18142405648E+02 -0.22717947924E+02 -0.13094595350E+02  0.31886054443E+02  0.00000000000E+00 0.  1.
         11    1    3    3    0    0 -0.17299385686E+02 -0.52086948952E+01  0.40868292136E+01  0.18522997082E+02  0.51100000000E-03 0. -1.
        -11    1    3    3    0    0 -0.47925109892E+01 -0.38235040170E+01 -0.27136785918E+01  0.67045802486E+01  0.51100000000E-03 0.  1.
         12    1    3    3    0    0  0.39494910267E+01  0.31750146836E+02  0.11721444729E+02  0.34074368226E+02  0.00000000000E+00 0. -1.
</event>
<event>
 7    1  0.1338132E-011  0.5930193E+02  0.7816164E-02  0.1266605E+00
        -11   -1    0    0    0    0  0.00000000000E+00  0.00000000000E+00  0.45593999997E+02  0.45594000000E+02  0.51100000000E-03 0.  1.
         11   -1    0    0    0    0 -0.00000000000E+00 -0.00000000000E+00 -0.45593999997E+02  0.45594000000E+02  0.51100000000E-03 0. -1.
    9900012    2    1    2    0    0  0.28200764560E+02 -0.13761354915E+02 -0.56624428667E+01  0.59301932979E+02  0.49999979850E+02 0.  0.
        -12    1    1    2    0    0 -0.28200764560E+02  0.13761354915E+02  0.56624428667E+01  0.31886067021E+02  0.00000000000E+00 0.  1.
         11    1    3    3    0    0 -0.15226204258E+00 -0.20886652388E+02  0.26044797967E+00  0.20888831109E+02  0.51100000000E-03 0. -1.
        -11    1    3    3    0    0  0.16033861880E+02 -0.53175152173E+01 -0.11028957131E+02  0.20174206070E+02  0.51100000000E-03 0.  1.
        -12    1    3    3    0    0  0.12319164722E+02  0.12442812690E+02  0.51060662850E+01  0.18238895800E+02  0.00000000000E+00 0.  1.
</event>
<event>
 7    1  0.1338132E-011  0.5930193E+02  0.7816164E-02  0.1266605E+00
        -11   -1    0    0    0    0  0.00000000000E+00  0.00000000000E+00  0.45593999997E+02  0.45594000000E+02  0.51100000000E-03 0. -1.
         11   -1    0    0    0    0 -0.00000000000E+00 -0.00000000000E+00 -0.45593999997E+02  0.45594000000E+02  0.51100000000E-03 0.  1.
    9900012    2    1    2    0    0 -0.25651887297E+02 -0.21321998441E+00  0.18938224914E+02  0.59301934900E+02  0.49999983353E+02 0.  0.
        -12    1    1    2    0    0  0.25651887297E+02  0.21321998441E+00 -0.18938224914E+02  0.31886065100E+02  0.00000000000E+00 0.  1.
         11    1    3    3    0    0 -0.62584415324E-01 -0.11540345922E+01  0.16339230088E+01  0.20013538690E+01  0.51100000000E-03 0. -1.
        -11    1    3    3    0    0  0.10328670347E+02 -0.43830677296E+01  0.17736609601E+02  0.20987616212E+02  0.51100000000E-03 0.  1.
        -12    1    3    3    0    0 -0.35917973229E+02  0.53238823374E+01 -0.43230769547E+00  0.36312964819E+02  0.00000000000E+00 0.  1.
</event>
<event>
 7    1  0.1338132E-011  0.5930195E+02  0.7816164E-02  0.1266605E+00
        -11   -1    0    0    0    0  0.00000000000E+00  0.00000000000E+00  0.45593999997E+02  0.45594000000E+02  0.51100000000E-03 0. -1.
         11   -1    0    0    0    0 -0.00000000000E+00 -0.00000000000E+00 -0.45593999997E+02  0.45594000000E+02  0.51100000000E-03 0.  1.
    9900012    2    1    2    0    0 -0.27058337376E+02 -0.65196194557E+01  0.15558315841E+02  0.59301948956E+02  0.50000008988E+02 0.  0.
        -12    1    1    2    0    0  0.27058337376E+02  0.65196194557E+01 -0.15558315841E+02  0.31886051044E+02  0.00000000000E+00 0.  1.
         11    1    3    3    0    0 -0.13994422405E+01  0.74181853597E+01  0.33195604093E+01  0.82466595776E+01  0.51100000000E-03 0. -1.
        -11    1    3    3    0    0 -0.24191788860E+02  0.95495595087E+01  0.56128994322E+01  0.26607167744E+02  0.51100000000E-03 0.  1.
         12    1    3    3    0    0 -0.14671062747E+01 -0.23487364324E+02  0.66258559991E+01  0.24448121634E+02  0.00000000000E+00 0. -1.
</event>
<event>
 7    1  0.1338132E-011  0.5930196E+02  0.7816164E-02  0.1266605E+00
        -11   -1    0    0    0    0  0.00000000000E+00  0.00000000000E+00  0.45593999997E+02  0.45594000000E+02  0.51100000000E-03 0.  1.
         11   -1    0    0    0    0 -0.00000000000E+00 -0.00000000000E+00 -0.45593999997E+02  0.45594000000E+02  0.51100000000E-03 0. -1.
    9900012    2    1    2    0    0 -0.16463252603E+02  0.21683924807E+02 -0.16597843764E+02  0.59301957616E+02  0.50000024782E+02 0.  0.
        -12    1    1    2    0    0  0.16463252603E+02 -0.21683924807E+02  0.16597843764E+02  0.31886042384E+02  0.00000000000E+00 0.  1.
         11    1    3    3    0    0 -0.11842011010E+01  0.41626126678E+01 -0.28282063553E+02  0.28611270428E+02  0.51100000000E-03 0. -1.
        -11    1    3    3    0    0  0.31891900948E+01  0.14169375403E+01 -0.12039568114E+00  0.34918678146E+01  0.51100000000E-03 0.  1.
        -12    1    3    3    0    0 -0.18468241597E+02  0.16104374599E+02  0.11804615470E+02  0.27198819373E+02  0.00000000000E+00 0.  1.
</event>
<event>
 7    1  0.1338132E-011  0.5930194E+02  0.7816164E-02  0.1266605E+00
        -11   -1    0    0    0    0  0.00000000000E+00  0.00000000000E+00  0.45593999997E+02  0.45594000000E+02  0.51100000000E-03 0.  1.
         11   -1    0    0    0    0 -0.00000000000E+00 -0.00000000000E+00 -0.45593999997E+02  0.45594000000E+02  0.51100000000E-03 0. -1.
    9900012    2    1    2    0    0  0.75929234749E+01  0.13256182240E+02 -0.27988248079E+02  0.59301939017E+02  0.49999990861E+02 0.  0.
        -12    1    1    2    0    0 -0.75929234749E+01 -0.13256182240E+02  0.27988248079E+02  0.31886060983E+02  0.00000000000E+00 0.  1.
         11    1    3    3    0    0  0.78806906388E+01 -0.51538886681E+00 -0.10593214301E+02  0.13213141190E+02  0.51100000000E-03 0. -1.
        -11    1    3    3    0    0  0.37922221331E+01  0.26205170261E+02 -0.19434449386E+02  0.32844934470E+02  0.51100000000E-03 0.  1.
        -12    1    3    3    0    0 -0.40799892970E+01 -0.12433599154E+02  0.20394156072E+01  0.13243863357E+02  0.00000000000E+00 0.  1.
</event>
<event>
 7    1  0.1338132E-011  0.5930195E+02  0.7816164E-02  0.1266605E+00
        -11   -1    0    0    0    0  0.00000000000E+00  0.00000000000E+00  0.45593999997E+02  0.45594000000E+02  0.51100000000E-03 0.  1.
         11   -1    0    0    0    0 -0.00000000000E+00 -0.00000000000E+00 -0.45593999997E+02  0.45594000000E+02  0.51100000000E-03 0. -1.
    9900012    2    1    2    0    0 -0.29226146748E+02 -0.78412551279E+01  0.10053221512E+02  0.59301949782E+02  0.50000010495E+02 0.  0.
        -12    1    1    2    0    0  0.29226146748E+02  0.78412551279E+01 -0.10053221512E+02  0.31886050218E+02  0.00000000000E+00 0.  1.
         11    1    3    3    0    0  0.40622117902E+01  0.14903965147E+01 -0.94126050124E+01  0.10359535693E+02  0.51100000000E-03 0. -1.
        -11    1    3    3    0    0 -0.17319525724E+02 -0.17337182165E+01 -0.55835205361E+01  0.18279700544E+02  0.51100000000E-03 0.  1.
        -12    1    3    3    0    0 -0.15968832814E+02 -0.75979334261E+01  0.25049347060E+02  0.30662713545E+02  0.00000000000E+00 0.  1.
</event>
<event>
 7    1  0.1338132E-011  0.5930187E+02  0.7816164E-02  0.1266605E+00
        -11   -1    0    0    0    0  0.00000000000E+00  0.00000000000E+00  0.45593999997E+02  0.45594000000E+02  0.51100000000E-03 0. -1.
         11   -1    0    0    0    0 -0.00000000000E+00 -0.00000000000E+00 -0.45593999997E+02  0.45594000000E+02  0.51100000000E-03 0.  1.
    9900012    2    1    2    0    0 -0.11601093319E+02 -0.26284794997E+02  0.13829302148E+02  0.59301868028E+02  0.49999861395E+02 0.  0.
        -12    1    1    2    0    0  0.11601093319E+02  0.26284794997E+02 -0.13829302148E+02  0.31886131972E+02  0.00000000000E+00 0.  1.
         11    1    3    3    0    0 -0.11912087753E+02  0.20604104980E+01  0.46012864149E+01  0.12935028527E+02  0.51100000000E-03 0. -1.
        -11    1    3    3    0    0 -0.38156393936E+00 -0.15357789620E+01 -0.12037101943E+02  0.12140676732E+02  0.51100000000E-03 0.  1.
         12    1    3    3    0    0  0.69255837413E+00 -0.26809426533E+02  0.21265117676E+02  0.34226162769E+02  0.00000000000E+00 0. -1.
</event>
<event>
 7    1  0.1338132E-011  0.5930198E+02  0.7816164E-02  0.1266605E+00
        -11   -1    0    0    0    0  0.00000000000E+00  0.00000000000E+00  0.45593999997E+02  0.45594000000E+02  0.51100000000E-03 0.  1.
         11   -1    0    0    0    0 -0.00000000000E+00 -0.00000000000E+00 -0.45593999997E+02  0.45594000000E+02  0.51100000000E-03 0. -1.
    9900012    2    1    2    0    0  0.62526375408E+00  0.78231518045E+01 -0.30905105532E+02  0.59301981013E+02  0.50000067452E+02 0.  0.
        -12    1    1    2    0    0 -0.62526375408E+00 -0.78231518045E+01  0.30905105532E+02  0.31886018987E+02  0.00000000000E+00 0.  1.
         11    1    3    3    0    0  0.10613951147E+02  0.11577164143E+02 -0.40176480937E+01  0.16211976592E+02  0.51100000000E-03 0. -1.
        -11    1    3    3    0    0  0.91048961932E+01 -0.45062429632E+01 -0.67591669394E-01  0.10159228771E+02  0.51100000000E-03 0.  1.
         12    1    3    3    0    0 -0.19093583586E+02  0.75223062498E+00 -0.26819865769E+02  0.32930775650E+02  0.00000000000E+00 0. -1.
</event>
<event>
 7    1  0.1338132E-011  0.5930196E+02  0.7816164E-02  0.1266605E+00
        -11   -1    0    0    0    0  0.00000000000E+00  0.00000000000E+00  0.45593999997E+02  0.45594000000E+02  0.51100000000E-03 0.  1.
         11   -1    0    0    0    0 -0.00000000000E+00 -0.00000000000E+00 -0.45593999997E+02  0.45594000000E+02  0.51100000000E-03 0. -1.
    9900012    2    1    2    0    0 -0.31267892667E+02  0.53005699342E+01  0.33079751544E+01  0.59301955198E+02  0.50000020373E+02 0.  0.
        -12    1    1    2    0    0  0.31267892667E+02 -0.53005699342E+01 -0.33079751544E+01  0.31886044802E+02  0.00000000000E+00 0.  1.
         11    1    3    3    0    0  0.38324519261E+01 -0.55955933005E+01 -0.10505577369E+02  0.12504619477E+02  0.51100000000E-03 0. -1.
        -11    1    3    3    0    0 -0.94836651541E+01  0.12647832904E+02 -0.30204969580E+01  0.16094439538E+02  0.51100000000E-03 0.  1.
        -12    1    3    3    0    0 -0.25616679439E+02 -0.17516696694E+01  0.16834049481E+02  0.30702896183E+02  0.00000000000E+00 0.  1.
</event>
<event>
 7    1  0.1338132E-011  0.5930194E+02  0.7816164E-02  0.1266605E+00
        -11   -1    0    0    0    0  0.00000000000E+00  0.00000000000E+00  0.45593999997E+02  0.45594000000E+02  0.51100000000E-03 0. -1.
         11   -1    0    0    0    0 -0.00000000000E+00 -0.00000000000E+00 -0.45593999997E+02  0.45594000000E+02  0.51100000000E-03 0.  1.
    9900012    2    1    2    0    0  0.23084399555E+02 -0.20756460918E+02  0.72801716521E+01  0.59301936086E+02  0.49999985515E+02 0.  0.
        -12    1    1    2    0    0 -0.23084399555E+02  0.20756460918E+02 -0.72801716521E+01  0.31886063914E+02  0.00000000000E+00 0.  1.
         11    1    3    3    0    0  0.68606177396E+01 -0.22043045722E+02  0.99388725682E+01  0.25134540550E+02  0.51100000000E-03 0. -1.
        -11    1    3    3    0    0  0.24688486729E+02  0.20888101213E+01  0.12524784865E+01  0.24808329394E+02  0.51100000000E-03 0.  1.
         12    1    3    3    0    0 -0.84647049134E+01 -0.80222531750E+00 -0.39111794025E+01  0.93590661419E+01  0.00000000000E+00 0. -1.
</event>
<event>
 7    1  0.1338132E-011  0.5930194E+02  0.7816164E-02  0.1266605E+00
        -11   -1    0    0    0    0  0.00000000000E+00  0.00000000000E+00  0.45593999997E+02  0.45594000000E+02  0.51100000000E-03 0.  1.
         11   -1    0    0    0    0 -0.00000000000E+00 -0.00000000000E+00 -0.45593999997E+02  0.45594000000E+02  0.51100000000E-03 0. -1.
    9900012    2    1    2    0    0 -0.18137566487E+02 -0.25616949176E+02  0.56143670140E+01  0.59301944739E+02  0.50000001297E+02 0.  0.
        -12    1    1    2    0    0  0.18137566487E+02  0.25616949176E+02 -0.56143670140E+01  0.31886055261E+02  0.00000000000E+00 0.  1.
         11    1    3    3    0    0 -0.74781698432E+01 -0.17263035772E+02  0.92812184192E+01  0.20977999044E+02  0.51100000000E-03 0. -1.
        -11    1    3    3    0    0  0.13012634644E+01 -0.20843351179E+01  0.15047048962E+02  0.15246357670E+02  0.51100000000E-03 0.  1.
        -12    1    3    3    0    0 -0.11960660108E+02 -0.62695782859E+01 -0.18713900367E+02  0.23077588025E+02  0.00000000000E+00 0.  1.
</event>
<event>
 7    1  0.1338132E-011  0.5930195E+02  0.7816164E-02  0.1266605E+00
        -11   -1    0    0    0    0  0.00000000000E+00  0.00000000000E+00  0.45593999997E+02  0.45594000000E+02  0.51100000000E-03 0. -1.
         11   -1    0    0    0    0 -0.00000000000E+00 -0.00000000000E+00 -0.45593999997E+02  0.45594000000E+02  0.51100000000E-03 0.  1.
    9900012    2    1    2    0    0  0.22955103709E+01 -0.29957060645E+02  0.10678253579E+02  0.59301953681E+02  0.50000017605E+02 0.  0.
        -12    1    1    2    0    0 -0.22955103709E+01  0.29957060645E+02 -0.10678253579E+02  0.31886046319E+02  0.00000000000E+00 0.  1.
         11    1    3    3    0    0 -0.58388568564E+01  0.59949891052E+01  0.59019555466E+01  0.10240372225E+02  0.51100000000E-03 0. -1.
        -11    1    3    3    0    0  0.16548311989E+02 -0.11519686604E+02  0.10293497079E+02  0.22638592967E+02  0.51100000000E-03 0.  1.
        -12    1    3    3    0    0 -0.84139447617E+01 -0.24432363147E+02 -0.55171990472E+01  0.26422988489E+02  0.00000000000E+00 0.  1.
</event>
<event>
 7    1  0.1338132E-011  0.5930194E+02  0.7816164E-02  0.1266605E+00
        -11   -1    0    0    0    0  0.00000000000E+00  0.00000000000E+00  0.45593999997E+02  0.45594000000E+02  0.51100000000E-03 0. -1.
         11   -1    0    0    0    0 -0.00000000000E+00 -0.00000000000E+00 -0.45593999997E+02  0.45594000000E+02  0.51100000000E-03 0.  1.
    9900012    2    1    2    0    0  0.14448823841E+02 -0.15606304503E+02  0.23757005405E+02  0.59301944169E+02  0.50000000257E+02 0.  0.
        -12    1    1    2    0    0 -0.14448823841E+02  0.15606304503E+02 -0.23757005405E+02  0.31886055831E+02  0.00000000000E+00 0.  1.
         11    1    3    3    0    0 -0.18185055842E+01  0.65590748257E+00  0.56731399177E+00  0.20147016185E+01  0.51100000000E-03 0. -1.
        -11    1    3    3    0    0 -0.78342347109E+01  0.37966408291E+01 -0.88797026184E+01  0.12435386361E+02  0.51100000000E-03 0.  1.
         12    1    3    3    0    0  0.24101564136E+02 -0.20058852815E+02  0.32069394032E+02  0.44851856189E+02  0.00000000000E+00 0. -1.
</event>
<event>
 7    1  0.1338132E-011  0.5930195E+02  0.7816164E-02  0.1266605E+00
        -11   -1    0    0    0    0  0.00000000000E+00  0.00000000000E+00  0.45593999997E+02  0.45594000000E+02  0.51100000000E-03 0.  1.
         11   -1    0    0    0    0 -0.00000000000E+00 -0.00000000000E+00 -0.45593999997E+02  0.45594000000E+02  0.51100000000E-03 0. -1.
    9900012    2    1    2    0    0  0.39065980056E+01  0.31150091496E+02 -0.55794601496E+01  0.59301951582E+02  0.50000013776E+02 0.  0.
        -12    1    1    2    0    0 -0.39065980056E+01 -0.31150091496E+02  0.55794601496E+01  0.31886048418E+02  0.00000000000E+00 0.  1.
         11    1    3    3    0    0 -0.97185484159E+01  0.84827859431E+01 -0.39200545439E+01  0.13482383638E+02  0.51100000000E-03 0. -1.
        -11    1    3    3    0    0  0.15419614917E+02  0.43208030868E+01  0.14275540482E+02  0.21452853419E+02  0.51100000000E-03 0.  1.
         12    1    3    3    0    0 -0.17944684955E+01  0.18346502466E+02 -0.15934946088E+02  0.24366714525E+02  0.00000000000E+00 0. -1.
</event>
<event>
 7    1  0.1338132E-011  0.5930193E+02  0.7816164E-02  0.1266605E+00
        -11   -1    0    0    0    0  0.00000000000E+00  0.00000000000E+00  0.45593999997E+02  0.45594000000E+02  0.51100000000E-03 0.  1.
         11   -1    0    0    0    0 -0.00000000000E+00 -0.00000000000E+00 -0.45593999997E+02  0.45594000000E+02  0.51100000000E-03 0. -1.
    9900012    2    1    2    0    0 -0.91252747826E+01 -0.84688809060E+01 -0.29355214584E+02  0.59301933969E+02  0.49999981655E+02 0.  0.
        -12    1    1    2    0    0  0.91252747826E+01  0.84688809060E+01  0.29355214584E+02  0.31886066031E+02  0.00000000000E+00 0.  1.
         11    1    3    3    0    0 -0.51351693348E+01  0.59488044558E+01 -0.11310285935E+02  0.13772465529E+02  0.51100000000E-03 0. -1.
        -11    1    3    3    0    0  0.14160763025E+02 -0.17512266552E+02 -0.14480562217E+02  0.26774864549E+02  0.51100000000E-03 0.  1.
         12    1    3    3    0    0 -0.18150868472E+02  0.30945811907E+01 -0.35643664322E+01  0.18754603891E+02  0.00000000000E+00 0. -1.
</event>
<event>
 7    1  0.1338132E-011  0.5930195E+02  0.7816164E-02  0.1266605E+00
        -11   -1    0    0    0    0  0.00000000000E+00  0.00000000000E+00  0.45593999997E+02  0.45594000000E+02  0.51100000000E-03 0. -1.
         11   -1    0    0    0    0 -0.00000000000E+00 -0.00000000000E+00 -0.45593999997E+02  0.45594000000E+02  0.51100000000E-03 0.  1.
    9900012    2    1    2    0    0 -0.23850532807E+02 -0.21038410533E+02 -0.22929494603E+01  0.59301948972E+02  0.50000009017E+02 0.  0.
        -12    1    1    2    0    0  0.23850532807E+02  0.21038410533E+02  0.22929494603E+01  0.31886051028E+02  0.00000000000E+00 0.  1.
         11    1    3    3    0    0  0.91989308472E+01 -0.49806072679E+01 -0.10385818311E+02  0.14740827647E+02  0.51100000000E-03 0. -1.
        -11    1    3    3    0    0  0.24641055463E+01 -0.11711718989E+01  0.52895975609E+01  0.59517478422E+01  0.51100000000E-03 0.  1.
         12    1    3    3    0    0 -0.35513569200E+02 -0.14886631366E+02  0.28032712894E+01  0.38609373482E+02  0.00000000000E+00 0. -1.
</event>
<event>
 7    1  0.1338132E-011  0.5930192E+02  0.7816164E-02  0.1266605E+00
        -11   -1    0    0    0    0  0.00000000000E+00  0.00000000000E+00  0.45593999997E+02  0.45594000000E+02  0.51100000000E-03 0. -1.
         11   -1    0    0    0    0 -0.00000000000E+00 -0.00000000000E+00 -0.45593999997E+02  0.45594000000E+02  0.51100000000E-03 0.  1.
    9900012    2    1    2    0    0 -0.18483191438E+02 -0.24628844635E+02  0.82772951948E+01  0.59301922011E+02  0.49999959846E+02 0.  0.
        -12    1    1    2    0    0  0.18483191438E+02  0.24628844635E+02 -0.82772951948E+01  0.31886077989E+02  0.00000000000E+00 0.  1.
         11    1    3    3    0    0 -0.78943828351E+01 -0.12277752378E+02  0.22930127912E+02  0.27181891953E+02  0.51100000000E-03 0. -1.
        -11    1    3    3    0    0 -0.50362319252E+01 -0.29227729165E+01  0.62403340390E+01  0.85351041414E+01  0.51100000000E-03 0.  1.
        -12    1    3    3    0    0 -0.55525766778E+01 -0.94283193409E+01 -0.20893166757E+02  0.23584925916E+02  0.00000000000E+00 0.  1.
</event>
<event>
 7    1  0.1338132E-011  0.5930186E+02  0.7816164E-02  0.1266605E+00
        -11   -1    0    0    0    0  0.00000000000E+00  0.00000000000E+00  0.45593999997E+02  0.45594000000E+02  0.51100000000E-03 0.  1.
         11   -1    0    0    0    0 -0.00000000000E+00 -0.00000000000E+00 -0.45593999997E+02  0.45594000000E+02  0.51100000000E-03 0. -1.
    9900012    2    1    2    0    0  0.17792879502E+02  0.92699959667E+01 -0.24783189422E+02  0.59301860940E+02  0.49999848468E+02 0.  0.
        -12    1    1    2    0    0 -0.17792879502E+02 -0.92699959667E+01  0.24783189422E+02  0.31886139060E+02  0.00000000000E+00 0.  1.
         11    1    3    3    0    0  0.12991734591E+02  0.11448952819E+02 -0.11795297709E+02  0.20952153509E+02  0.51100000000E-03 0. -1.
        -11    1    3    3    0    0  0.51637090529E+01  0.16213368459E+02 -0.99301951988E+01  0.19701420886E+02  0.51100000000E-03 0.  1.
        -12    1    3    3    0    0 -0.36256414177E+00 -0.18392325312E+02 -0.30576965141E+01  0.18648286546E+02  0.00000000000E+00 0.  1.
</event>
<event>
 7    1  0.1338132E-011  0.5930198E+02  0.7816164E-02  0.1266605E+00
        -11   -1    0    0    0    0  0.00000000000E+00  0.00000000000E+00  0.45593999997E+02  0.45594000000E+02  0.51100000000E-03 0.  1.
         11   -1    0    0    0    0 -0.00000000000E+00 -0.00000000000E+00 -0.45593999997E+02  0.45594000000E+02  0.51100000000E-03 0. -1.
    9900012    2    1    2    0    0 -0.11719020795E+02 -0.44044757625E+01 -0.29325473411E+02  0.59301980400E+02  0.50000066334E+02 0.  0.
        -12    1    1    2    0    0  0.11719020795E+02  0.44044757625E+01  0.29325473411E+02  0.31886019600E+02  0.00000000000E+00 0.  1.
         11    1    3    3    0    0 -0.15941944107E+02 -0.11408985759E+02 -0.21964303695E+02  0.29440468322E+02  0.51100000000E-03 0. -1.
        -11    1    3    3    0    0 -0.77627731401E+01 -0.41554611105E+01 -0.99442396993E+01  0.13282183831E+02  0.51100000000E-03 0.  1.
        -12    1    3    3    0    0  0.11985696453E+02  0.11159971107E+02  0.25830699831E+01  0.16579328246E+02  0.00000000000E+00 0.  1.
</event>
<event>
 7    1  0.1338132E-011  0.5930202E+02  0.7816164E-02  0.1266604E+00
        -11   -1    0    0    0    0  0.00000000000E+00  0.00000000000E+00  0.45593999997E+02  0.45594000000E+02  0.51100000000E-03 0. -1.
         11   -1    0    0    0    0 -0.00000000000E+00 -0.00000000000E+00 -0.45593999997E+02  0.45594000000E+02  0.51100000000E-03 0.  1.
    9900012    2    1    2    0    0  0.22757674532E+02  0.16134877350E+02 -0.15442462587E+02  0.59302020825E+02  0.50000140059E+02 0.  0.
        -12    1    1    2    0    0 -0.22757674532E+02 -0.16134877350E+02  0.15442462587E+02  0.31885979175E+02  0.00000000000E+00 0.  1.
         11    1    3    3    0    0 -0.59157704293E+01  0.15083356025E+02  0.64918292053E+01  0.17454163270E+02  0.51100000000E-03 0. -1.
        -11    1    3    3    0    0  0.13782217392E+02 -0.66376612408E+01 -0.14273469732E+01  0.15363768503E+02  0.51100000000E-03 0.  1.
        -12    1    3    3    0    0  0.14891227570E+02  0.76891825649E+01 -0.20506944819E+02  0.26484089051E+02  0.00000000000E+00 0.  1.
</event>
<event>
 7    1  0.1338132E-011  0.5930193E+02  0.7816164E-02  0.1266605E+00
        -11   -1    0    0    0    0  0.00000000000E+00  0.00000000000E+00  0.45593999997E+02  0.45594000000E+02  0.51100000000E-03 0.  1.
         11   -1    0    0    0    0 -0.00000000000E+00 -0.00000000000E+00 -0.45593999997E+02  0.45594000000E+02  0.51100000000E-03 0. -1.
    9900012    2    1    2    0    0  0.12752290433E+02 -0.14975594149E+02 -0.25096454184E+02  0.59301931820E+02  0.49999977735E+02 0.  0.
        -12    1    1    2    0    0 -0.12752290433E+02  0.14975594149E+02  0.25096454184E+02  0.31886068180E+02  0.00000000000E+00 0.  1.
         11    1    3    3    0    0 -0.25808770820E+01 -0.11301441193E+02 -0.19581604494E+01  0.11756610572E+02  0.51100000000E-03 0. -1.
        -11    1    3    3    0    0 -0.61336789636E+01 -0.10643440692E+02  0.33622915049E+01  0.12736163152E+02  0.51100000000E-03 0.  1.
         12    1    3    3    0    0  0.21466846479E+02  0.69692877362E+01 -0.26500585239E+02  0.34809158096E+02  0.00000000000E+00 0. -1.
</event>
<event>
 7    1  0.1338132E-011  0.5930197E+02  0.7816164E-02  0.1266605E+00
        -11   -1    0    0    0    0  0.00000000000E+00  0.00000000000E+00  0.45593999997E+02  0.45594000000E+02  0.51100000000E-03 0. -1.
         11   -1    0    0    0    0 -0.00000000000E+00 -0.00000000000E+00 -0.45593999997E+02  0.45594000000E+02  0.51100000000E-03 0.  1.
    9900012    2    1    2    0    0  0.14999249317E+02  0.27831807417E+02  0.41390772451E+01  0.59301969444E+02  0.50000046353E+02 0.  0.
        -12    1    1    2    0    0 -0.14999249317E+02 -0.27831807417E+02 -0.41390772451E+01  0.31886030556E+02  0.00000000000E+00 0.  1.
         11    1    3    3    0    0  0.22449207241E+02  0.18402971522E+02  0.59620611997E+01  0.29634143156E+02  0.51100000000E-03 0. -1.
        -11    1    3    3    0    0  0.75634040311E+01  0.12169842852E+02 -0.31670290363E+00  0.14332147660E+02  0.51100000000E-03 0.  1.
        -12    1    3    3    0    0 -0.15013361956E+02 -0.27410069561E+01 -0.15062810510E+01  0.15335678627E+02  0.00000000000E+00 0.  1.
</event>
<event>
 7    1  0.1338132E-011  0.5930193E+02  0.7816164E-02  0.1266605E+00
        -11   -1    0    0    0    0  0.00000000000E+00  0.00000000000E+00  0.45593999997E+02  0.45594000000E+02  0.51100000000E-03 0. -1.
         11   -1    0    0    0    0 -0.00000000000E+00 -0.00000000000E+00 -0.45593999997E+02  0.45594000000E+02  0.51100000000E-03 0.  1.
    9900012    2    1    2    0    0 -0.41025904075E+01  0.27980297473E+02  0.14730687850E+02  0.59301930012E+02  0.49999974439E+02 0.  0.
        -12    1    1    2    0    0  0.41025904075E+01 -0.27980297473E+02 -0.14730687850E+02  0.31886069988E+02  0.00000000000E+00 0.  1.
         11    1    3    3    0    0 -0.22816508121E+01  0.36907515197E+01  0.23330326733E+02  0.23730396603E+02  0.51100000000E-03 0. -1.
        -11    1    3    3    0    0  0.19988371140E+01  0.15085738564E+02  0.72446715679E+01  0.16854083310E+02  0.51100000000E-03 0.  1.
        -12    1    3    3    0    0 -0.38197767094E+01  0.92038073891E+01 -0.15844310451E+02  0.18717450100E+02  0.00000000000E+00 0.  1.
</event>
<event>
 7    1  0.1338132E-011  0.5930193E+02  0.7816164E-02  0.1266605E+00
        -11   -1    0    0    0    0  0.00000000000E+00  0.00000000000E+00  0.45593999997E+02  0.45594000000E+02  0.51100000000E-03 0. -1.
         11   -1    0    0    0    0 -0.00000000000E+00 -0.00000000000E+00 -0.45593999997E+02  0.45594000000E+02  0.51100000000E-03 0.  1.
    9900012    2    1    2    0    0 -0.15622594047E+02  0.99982768611E+01  0.25936277877E+02  0.59301929451E+02  0.49999973416E+02 0.  0.
        -12    1    1    2    0    0  0.15622594047E+02 -0.99982768611E+01 -0.25936277877E+02  0.31886070549E+02  0.00000000000E+00 0.  1.
         11    1    3    3    0    0 -0.17193060537E+02  0.15606261494E+02  0.15656819099E+02  0.28005226530E+02  0.51100000000E-03 0. -1.
        -11    1    3    3    0    0  0.59987066258E+01  0.16093247902E+01 -0.85983218694E+01  0.10606863188E+02  0.51100000000E-03 0.  1.
         12    1    3    3    0    0 -0.44282401363E+01 -0.72173094227E+01  0.18877780648E+02  0.20689839733E+02  0.00000000000E+00 0. -1.
</event>
<event>
 7    1  0.1338132E-011  0.5930206E+02  0.7816164E-02  0.1266604E+00
        -11   -1    0    0    0    0  0.00000000000E+00  0.00000000000E+00  0.45593999997E+02  0.45594000000E+02  0.51100000000E-03 0.  1.
         11   -1    0    0    0    0 -0.00000000000E+00 -0.00000000000E+00 -0.45593999997E+02  0.45594000000E+02  0.51100000000E-03 0. -1.
    9900012    2    1    2    0    0 -0.14677919105E+02 -0.78453527397E+00 -0.28295867161E+02  0.59302064178E+02  0.50000219126E+02 0.  0.
        -12    1    1    2    0    0  0.14677919105E+02  0.78453527397E+00  0.28295867161E+02  0.31885935822E+02  0.00000000000E+00 0.  1.
         11    1    3    3    0    0 -0.33766191358E+01  0.16004575673E+01  0.74719532853E+01  0.83542269165E+01  0.51100000000E-03 0. -1.
        -11    1    3    3    0    0 -0.16614682981E+02  0.63494153158E+01 -0.49266293693E+01  0.18456284638E+02  0.51100000000E-03 0.  1.
         12    1    3    3    0    0  0.53133830126E+01 -0.87344081570E+01 -0.30841191077E+02  0.32491552624E+02  0.00000000000E+00 0. -1.
</event>
<event>
 7    1  0.1338132E-011  0.5930191E+02  0.7816164E-02  0.1266605E+00
        -11   -1    0    0    0    0  0.00000000000E+00  0.00000000000E+00  0.45593999997E+02  0.45594000000E+02  0.51100000000E-03 0. -1.
         11   -1    0    0    0    0 -0.00000000000E+00 -0.00000000000E+00 -0.45593999997E+02  0.45594000000E+02  0.51100000000E-03 0.  1.
    9900012    2    1    2    0    0 -0.12839703199E+02 -0.27437536168E+01  0.29057465195E+02  0.59301914544E+02  0.49999946229E+02 0.  0.
        -12    1    1    2    0    0  0.12839703199E+02  0.27437536168E+01 -0.29057465195E+02  0.31886085456E+02  0.00000000000E+00 0.  1.
         11    1    3    3    0    0 -0.62442362443E+00  0.10346020229E+02  0.53472070349E+01  0.11662875408E+02  0.51100000000E-03 0. -1.
        -11    1    3    3    0    0  0.71301638380E+00  0.10837543993E+02 -0.98207604803E+00  0.10905284306E+02  0.51100000000E-03 0.  1.
         12    1    3    3    0    0 -0.12928295958E+02 -0.23927317839E+02  0.24692334208E+02  0.36733754831E+02  0.00000000000E+00 0. -1.
</event>
<event>
 7    1  0.1338132E-011  0.5930197E+02  0.7816164E-02  0.1266605E+00
        -11   -1    0    0    0    0  0.00000000000E+00  0.00000000000E+00  0.45593999997E+02  0.45594000000E+02  0.51100000000E-03 0.  1.
         11   -1    0    0    0    0 -0.00000000000E+00 -0.00000000000E+00 -0.45593999997E+02  0.45594000000E+02  0.51100000000E-03 0. -1.
    9900012    2    1    2    0    0  0.26767893403E+02  0.12085633182E+02 -0.12415155119E+02  0.59301972915E+02  0.50000052684E+02 0.  0.
        -12    1    1    2    0    0 -0.26767893403E+02 -0.12085633182E+02  0.12415155119E+02  0.31886027085E+02  0.00000000000E+00 0.  1.
         11    1    3    3    0    0 -0.10983096338E+01  0.65222634899E+01 -0.24289425376E+02  0.25173843378E+02  0.51100000000E-03 0. -1.
        -11    1    3    3    0    0  0.76151111679E+01 -0.50028220949E+01  0.25986038163E+01  0.94747500794E+01  0.51100000000E-03 0.  1.
        -12    1    3    3    0    0  0.20251091869E+02  0.10566191787E+02  0.92756664410E+01  0.24653379457E+02  0.00000000000E+00 0.  1.
</event>
<event>
 7    1  0.1338132E-011  0.5930192E+02  0.7816164E-02  0.1266605E+00
        -11   -1    0    0    0    0  0.00000000000E+00  0.00000000000E+00  0.45593999997E+02  0.45594000000E+02  0.51100000000E-03 0.  1.
         11   -1    0    0    0    0 -0.00000000000E+00 -0.00000000000E+00 -0.45593999997E+02  0.45594000000E+02  0.51100000000E-03 0. -1.
    9900012    2    1    2    0    0  0.20277307274E+02  0.68639675861E+01 -0.23631317556E+02  0.59301915093E+02  0.49999947229E+02 0.  0.
        -12    1    1    2    0    0 -0.20277307274E+02 -0.68639675861E+01  0.23631317556E+02  0.31886084907E+02  0.00000000000E+00 0.  1.
         11    1    3    3    0    0  0.54881972733E+01  0.15900474662E+02 -0.13888099306E+02  0.21813406574E+02  0.51100000000E-03 0. -1.
        -11    1    3    3    0    0  0.77950183001E+01  0.11843721234E+02 -0.39561640473E+01  0.14720301532E+02  0.51100000000E-03 0.  1.
         12    1    3    3    0    0  0.69940917003E+01 -0.20880228310E+02 -0.57870542026E+01  0.22768206986E+02  0.00000000000E+00 0. -1.
</event>
<event>
 7    1  0.1338132E-011  0.5930196E+02  0.7816164E-02  0.1266605E+00
        -11   -1    0    0    0    0  0.00000000000E+00  0.00000000000E+00  0.45593999997E+02  0.45594000000E+02  0.51100000000E-03 0.  1.
         11   -1    0    0    0    0 -0.00000000000E+00 -0.00000000000E+00 -0.45593999997E+02  0.45594000000E+02  0.51100000000E-03 0. -1.
    9900012    2    1    2    0    0 -0.68033292204E+00  0.19015725017E+02 -0.25586308881E+02  0.59301955200E+02  0.50000020376E+02 0.  0.
        -12    1    1    2    0    0  0.68033292204E+00 -0.19015725017E+02  0.25586308881E+02  0.31886044800E+02  0.00000000000E+00 0.  1.
         11    1    3    3    0    0  0.19743311634E+01 -0.22567971103E+01 -0.22088214215E+01  0.37242461080E+01  0.51100000000E-03 0. -1.
        -11    1    3    3    0    0  0.21458798227E+01 -0.14128833315E+02 -0.99443576040E+01  0.17410312447E+02  0.51100000000E-03 0.  1.
         12    1    3    3    0    0 -0.48005439081E+01  0.35401355443E+02 -0.13433129856E+02  0.38167396646E+02  0.00000000000E+00 0. -1.
</event>
<event>
 7    1  0.1338132E-011  0.5930194E+02  0.7816164E-02  0.1266605E+00
        -11   -1    0    0    0    0  0.00000000000E+00  0.00000000000E+00  0.45593999997E+02  0.45594000000E+02  0.51100000000E-03 0.  1.
         11   -1    0    0    0    0 -0.00000000000E+00 -0.00000000000E+00 -0.45593999997E+02  0.45594000000E+02  0.51100000000E-03 0. -1.
    9900012    2    1    2    0    0 -0.76593921184E+01 -0.28939613640E+02 -0.10979665013E+02  0.59301943972E+02  0.49999999898E+02 0.  0.
        -12    1    1    2    0    0  0.76593921184E+01  0.28939613640E+02  0.10979665013E+02  0.31886056028E+02  0.00000000000E+00 0.  1.
         11    1    3    3    0    0 -0.11811914024E+01 -0.37139085015E+01  0.70075429594E+01  0.80183532022E+01  0.51100000000E-03 0. -1.
        -11    1    3    3    0    0 -0.17575219195E+01  0.62757858993E+01  0.78973304045E+01  0.10239248006E+02  0.51100000000E-03 0.  1.
         12    1    3    3    0    0 -0.47206787965E+01 -0.31501491038E+02 -0.25884538377E+02  0.41044342763E+02  0.00000000000E+00 0. -1.
</event>
<event>
 7    1  0.1461325E-011  0.5930197E+02  0.7816164E-02  0.1266605E+00
        -11   -1    0    0    0    0  0.00000000000E+00  0.00000000000E+00  0.45593999997E+02  0.45594000000E+02  0.51100000000E-03 0. -1.
         11   -1    0    0    0    0 -0.00000000000E+00 -0.00000000000E+00 -0.45593999997E+02  0.45594000000E+02  0.51100000000E-03 0.  1.
    9900012    2    1    2    0    0  0.25985087726E+02 -0.13209937029E+02 -0.12922526800E+02  0.59301969840E+02  0.50000047076E+02 0.  0.
        -12    1    1    2    0    0 -0.25985087726E+02  0.13209937029E+02  0.12922526800E+02  0.31886030160E+02  0.00000000000E+00 0.  1.
         11    1    3    3    0    0  0.21267063686E+02 -0.20187129972E+01  0.80942365117E+00  0.21377987906E+02  0.51100000000E-03 0. -1.
        -11    1    3    3    0    0  0.11756099266E+02 -0.55571671015E+00 -0.20385767118E+02  0.23539205429E+02  0.51100000000E-03 0.  1.
        -12    1    3    3    0    0 -0.70380752256E+01 -0.10635507321E+02  0.66538166663E+01  0.14384776505E+02  0.00000000000E+00 0.  1.
</event>
<event>
 7    1  0.1338132E-011  0.5930200E+02  0.7816164E-02  0.1266605E+00
        -11   -1    0    0    0    0  0.00000000000E+00  0.00000000000E+00  0.45593999997E+02  0.45594000000E+02  0.51100000000E-03 0.  1.
         11   -1    0    0    0    0 -0.00000000000E+00 -0.00000000000E+00 -0.45593999997E+02  0.45594000000E+02  0.51100000000E-03 0. -1.
    9900012    2    1    2    0    0 -0.20628849451E+02  0.22873061800E+02 -0.82456549821E+01  0.59301996615E+02  0.50000095907E+02 0.  0.
        -12    1    1    2    0    0  0.20628849451E+02 -0.22873061800E+02  0.82456549821E+01  0.31886003385E+02  0.00000000000E+00 0.  1.
         11    1    3    3    0    0 -0.26719850726E+02  0.28159791494E+02  0.17542279809E+01  0.38858738990E+02  0.51100000000E-03 0. -1.
        -11    1    3    3    0    0  0.35350037312E+01  0.10268603845E+01  0.36527266897E+01  0.51858563574E+01  0.51100000000E-03 0.  1.
        -12    1    3    3    0    0  0.25559975438E+01 -0.63135900790E+01 -0.13652609653E+02  0.15257401268E+02  0.00000000000E+00 0.  1.
</event>
<event>
 7    1  0.1338132E-011  0.5930193E+02  0.7816164E-02  0.1266605E+00
        -11   -1    0    0    0    0  0.00000000000E+00  0.00000000000E+00  0.45593999997E+02  0.45594000000E+02  0.51100000000E-03 0.  1.
         11   -1    0    0    0    0 -0.00000000000E+00 -0.00000000000E+00 -0.45593999997E+02  0.45594000000E+02  0.51100000000E-03 0. -1.
    9900012    2    1    2    0    0 -0.11769039729E+02 -0.19788817447E+02 -0.22059331807E+02  0.59301926051E+02  0.49999967215E+02 0.  0.
        -12    1    1    2    0    0  0.11769039729E+02  0.19788817447E+02  0.22059331807E+02  0.31886073949E+02  0.00000000000E+00 0.  1.
         11    1    3    3    0    0 -0.13615201158E+02 -0.21440372843E+02  0.70639716651E+01  0.26362150636E+02  0.51100000000E-03 0. -1.
        -11    1    3    3    0    0 -0.64187494408E+01 -0.51415710356E+00 -0.16350546443E+02  0.17572850399E+02  0.51100000000E-03 0.  1.
        -12    1    3    3    0    0  0.82649108693E+01  0.21657124997E+01 -0.12772757029E+02  0.15366925015E+02  0.00000000000E+00 0.  1.
</event>
<event>
 7    1  0.1338132E-011  0.5930195E+02  0.7816164E-02  0.1266605E+00
        -11   -1    0    0    0    0  0.00000000000E+00  0.00000000000E+00  0.45593999997E+02  0.45594000000E+02  0.51100000000E-03 0.  1.
         11   -1    0    0    0    0 -0.00000000000E+00 -0.00000000000E+00 -0.45593999997E+02  0.45594000000E+02  0.51100000000E-03 0. -1.
    9900012    2    1    2    0    0  0.18066294633E+02  0.26061770137E+02 -0.33336521645E+01  0.59301951307E+02  0.50000013277E+02 0.  0.
        -12    1    1    2    0    0 -0.18066294633E+02 -0.26061770137E+02  0.33336521645E+01  0.31886048693E+02  0.00000000000E+00 0.  1.
         11    1    3    3    0    0  0.52356653691E+01  0.62309065766E+01 -0.17868494487E+02  0.19634650089E+02  0.51100000000E-03 0. -1.
        -11    1    3    3    0    0  0.56997456985E+01  0.76437171744E+01 -0.84179385645E+01  0.12719088144E+02  0.51100000000E-03 0.  1.
        -12    1    3    3    0    0  0.71308835659E+01  0.12187146386E+02  0.22952780887E+02  0.26948213075E+02  0.00000000000E+00 0.  1.
</event>
<event>
 7    1  0.1338132E-011  0.5930185E+02  0.7816164E-02  0.1266605E+00
        -11   -1    0    0    0    0  0.00000000000E+00  0.00000000000E+00  0.45593999997E+02  0.45594000000E+02  0.51100000000E-03 0. -1.
         11   -1    0    0    0    0 -0.00000000000E+00 -0.00000000000E+00 -0.45593999997E+02  0.45594000000E+02  0.51100000000E-03 0.  1.
    9900012    2    1    2    0    0 -0.23621930391E+02  0.20036118485E+02  0.75686618621E+01  0.59301854392E+02  0.49999836526E+02 0.  0.
        -12    1    1    2    0    0  0.23621930391E+02 -0.20036118485E+02 -0.75686618621E+01  0.31886145608E+02  0.00000000000E+00 0.  1.
         11    1    3    3    0    0 -0.18864448927E+02  0.18103154955E+02  0.44699514542E+01  0.26524933909E+02  0.51100000000E-03 0. -1.
        -11    1    3    3    0    0 -0.51299224501E+01 -0.99074141922E+00  0.17403920076E+02  0.18171243964E+02  0.51100000000E-03 0.  1.
         12    1    3    3    0    0  0.37244098565E+00  0.29237049493E+01 -0.14305209668E+02  0.14605676519E+02  0.00000000000E+00 0. -1.
</event>
<event>
 7    1  0.1338132E-011  0.5930192E+02  0.7816164E-02  0.1266605E+00
        -11   -1    0    0    0    0  0.00000000000E+00  0.00000000000E+00  0.45593999997E+02  0.45594000000E+02  0.51100000000E-03 0.  1.
         11   -1    0    0    0    0 -0.00000000000E+00 -0.00000000000E+00 -0.45593999997E+02  0.45594000000E+02  0.51100000000E-03 0. -1.
    9900012    2    1    2    0    0 -0.15395234405E+02  0.20143190044E+02  0.19338072036E+02  0.59301915612E+02  0.49999948176E+02 0.  0.
        -12    1    1    2    0    0  0.15395234405E+02 -0.20143190044E+02 -0.19338072036E+02  0.31886084388E+02  0.00000000000E+00 0.  1.
         11    1    3    3    0    0 -0.51309557319E+01 -0.80690522261E+01 -0.70967699423E+01  0.11907999598E+02  0.51100000000E-03 0. -1.
        -11    1    3    3    0    0 -0.11149242650E+01 -0.48785474076E+01  0.33284930547E+01  0.60101703138E+01  0.51100000000E-03 0.  1.
        -12    1    3    3    0    0 -0.91493544085E+01  0.33090789678E+02  0.23106348923E+02  0.41383745700E+02  0.00000000000E+00 0.  1.
</event>
<event>
 7    1  0.1338132E-011  0.5930198E+02  0.7816164E-02  0.1266605E+00
        -11   -1    0    0    0    0  0.00000000000E+00  0.00000000000E+00  0.45593999997E+02  0.45594000000E+02  0.51100000000E-03 0.  1.
         11   -1    0    0    0    0 -0.00000000000E+00 -0.00000000000E+00 -0.45593999997E+02  0.45594000000E+02  0.51100000000E-03 0. -1.
    9900012    2    1    2    0    0 -0.21487742733E+02 -0.18397260659E+02 -0.14715156696E+02  0.59301982310E+02  0.50000069818E+02 0.  0.
        -12    1    1    2    0    0  0.21487742733E+02  0.18397260659E+02  0.14715156696E+02  0.31886017690E+02  0.00000000000E+00 0.  1.
         11    1    3    3    0    0 -0.42177720694E+01 -0.87490527694E+01 -0.24483607901E+02  0.26339752879E+02  0.51100000000E-03 0. -1.
        -11    1    3    3    0    0 -0.15575634053E+01 -0.83411932294E+01 -0.62096298680E+01  0.10514799647E+02  0.51100000000E-03 0.  1.
        -12    1    3    3    0    0 -0.15712407258E+02 -0.13070146603E+01  0.15978081073E+02  0.22447429785E+02  0.00000000000E+00 0.  1.
</event>
<event>
 7    1  0.1338132E-011  0.5930194E+02  0.7816164E-02  0.1266605E+00
        -11   -1    0    0    0    0  0.00000000000E+00  0.00000000000E+00  0.45593999997E+02  0.45594000000E+02  0.51100000000E-03 0.  1.
         11   -1    0    0    0    0 -0.00000000000E+00 -0.00000000000E+00 -0.45593999997E+02  0.45594000000E+02  0.51100000000E-03 0. -1.
    9900012    2    1    2    0    0 -0.10721000593E+02 -0.70933937787E+01 -0.29179871883E+02  0.59301937024E+02  0.49999987227E+02 0.  0.
        -12    1    1    2    0    0  0.10721000593E+02  0.70933937787E+01  0.29179871883E+02  0.31886062976E+02  0.00000000000E+00 0.  1.
         11    1    3    3    0    0 -0.12770334750E+02  0.56322646657E+01  0.60646513014E+01  0.15217879305E+02  0.51100000000E-03 0.  1.
        -11    1    3    3    0    0  0.82595092348E+01  0.35693419356E+01 -0.10801740935E+02  0.14058353465E+02  0.51100000000E-03 0. -1.
        -12    1    3    3    0    0 -0.62101750782E+01 -0.16295000380E+02 -0.24442782249E+02  0.30025704254E+02  0.00000000000E+00 0.  1.
</event>
<event>
 7    1  0.1338132E-011  0.5930190E+02  0.7816164E-02  0.1266605E+00
        -11   -1    0    0    0    0  0.00000000000E+00  0.00000000000E+00  0.45593999997E+02  0.45594000000E+02  0.51100000000E-03 0.  1.
         11   -1    0    0    0    0 -0.00000000000E+00 -0.00000000000E+00 -0.45593999997E+02  0.45594000000E+02  0.51100000000E-03 0. -1.
    9900012    2    1    2    0    0 -0.16444044110E+02 -0.24352229340E+02 -0.12380864001E+02  0.59301898734E+02  0.49999917396E+02 0.  0.
        -12    1    1    2    0    0  0.16444044110E+02  0.24352229340E+02  0.12380864001E+02  0.31886101266E+02  0.00000000000E+00 0.  1.
         11    1    3    3    0    0 -0.56519354877E+01 -0.20420486060E+02 -0.71737871699E+01  0.22369708275E+02  0.51100000000E-03 0. -1.
        -11    1    3    3    0    0 -0.22107358867E+01 -0.15966720341E+02 -0.12549162206E+02  0.20428044056E+02  0.51100000000E-03 0.  1.
        -12    1    3    3    0    0 -0.85813727355E+01  0.12034977061E+02  0.73420853745E+01  0.16504146404E+02  0.00000000000E+00 0.  1.
</event>
<event>
 7    1  0.1474934E-011  0.5930194E+02  0.7816164E-02  0.1266605E+00
        -11   -1    0    0    0    0  0.00000000000E+00  0.00000000000E+00  0.45593999997E+02  0.45594000000E+02  0.51100000000E-03 0. -1.
         11   -1    0    0    0    0 -0.00000000000E+00 -0.00000000000E+00 -0.45593999997E+02  0.45594000000E+02  0.51100000000E-03 0.  1.
    9900012    2    1    2    0    0  0.17372771325E+02  0.19170343589E+02  0.18638826555E+02  0.59301935455E+02  0.49999984366E+02 0.  0.
        -12    1    1    2    0    0 -0.17372771325E+02 -0.19170343589E+02 -0.18638826555E+02  0.31886064545E+02  0.00000000000E+00 0.  1.
         11    1    3    3    0    0  0.57871747489E+01  0.43452780027E+01  0.30970354959E+02  0.31804649331E+02  0.51100000000E-03 0. -1.
        -11    1    3    3    0    0  0.11959088484E+02  0.36279455806E+01 -0.28449022792E+01  0.12816990900E+02  0.51100000000E-03 0.  1.
        -12    1    3    3    0    0 -0.37349190776E+00  0.11197120005E+02 -0.94866261255E+01  0.14680295224E+02  0.00000000000E+00 0.  1.
</event>
<event>
 7    1  0.1338132E-011  0.5930196E+02  0.7816164E-02  0.1266605E+00
        -11   -1    0    0    0    0  0.00000000000E+00  0.00000000000E+00  0.45593999997E+02  0.45594000000E+02  0.51100000000E-03 0. -1.
         11   -1    0    0    0    0 -0.00000000000E+00 -0.00000000000E+00 -0.45593999997E+02  0.45594000000E+02  0.51100000000E-03 0.  1.
    9900012    2    1    2    0    0 -0.29125382070E+02  0.75292623407E+01 -0.10570798710E+02  0.59301961402E+02  0.50000031686E+02 0.  0.
        -12    1    1    2    0    0  0.29125382070E+02 -0.75292623407E+01  0.10570798710E+02  0.31886038598E+02  0.00000000000E+00 0.  1.
         11    1    3    3    0    0 -0.71158910029E+01  0.33678383422E+01 -0.20579826912E+00  0.78753154256E+01  0.51100000000E-03 0. -1.
        -11    1    3    3    0    0 -0.22711851728E+02 -0.13353295910E+02  0.64630255457E+01  0.27127650470E+02  0.51100000000E-03 0.  1.
         12    1    3    3    0    0  0.70236066063E+00  0.17514719909E+02 -0.16828025987E+02  0.24298995506E+02  0.00000000000E+00 0. -1.
</event>
<event>
 7    1  0.1338132E-011  0.5930194E+02  0.7816164E-02  0.1266605E+00
        -11   -1    0    0    0    0  0.00000000000E+00  0.00000000000E+00  0.45593999997E+02  0.45594000000E+02  0.51100000000E-03 0. -1.
         11   -1    0    0    0    0 -0.00000000000E+00 -0.00000000000E+00 -0.45593999997E+02  0.45594000000E+02  0.51100000000E-03 0.  1.
    9900012    2    1    2    0    0 -0.22664146952E+02  0.19376439791E+02  0.11296489063E+02  0.59301942841E+02  0.49999997835E+02 0.  0.
        -12    1    1    2    0    0  0.22664146952E+02 -0.19376439791E+02 -0.11296489063E+02  0.31886057159E+02  0.00000000000E+00 0.  1.
         11    1    3    3    0    0 -0.27163387314E+02  0.13623643154E+02  0.15920455923E+01  0.30430048843E+02  0.51100000000E-03 0. -1.
        -11    1    3    3    0    0 -0.42433440807E+01 -0.73372762426E+01  0.10024483512E+02  0.13127523056E+02  0.51100000000E-03 0.  1.
        -12    1    3    3    0    0  0.87425844431E+01  0.13090072879E+02 -0.32004004056E+00  0.15744370942E+02  0.00000000000E+00 0.  1.
</event>
<event>
 7    1  0.1338132E-011  0.5930200E+02  0.7816164E-02  0.1266605E+00
        -11   -1    0    0    0    0  0.00000000000E+00  0.00000000000E+00  0.45593999997E+02  0.45594000000E+02  0.51100000000E-03 0. -1.
         11   -1    0    0    0    0 -0.00000000000E+00 -0.00000000000E+00 -0.45593999997E+02  0.45594000000E+02  0.51100000000E-03 0.  1.
    9900012    2    1    2    0    0  0.34203642865E+01  0.28473351278E+02  0.13938667322E+02  0.59301998815E+02  0.50000099919E+02 0.  0.
        -12    1    1    2    0    0 -0.34203642865E+01 -0.28473351278E+02 -0.13938667322E+02  0.31886001185E+02  0.00000000000E+00 0.  1.
         11    1    3    3    0    0  0.20139860690E+02  0.21551538671E+02 -0.69425376075E+01  0.30303162152E+02  0.51100000000E-03 0. -1.
        -11    1    3    3    0    0 -0.93881071295E+01 -0.80010463535E+00  0.87634602448E+01  0.12867593350E+02  0.51100000000E-03 0.  1.
        -12    1    3    3    0    0 -0.73313892743E+01  0.77219172418E+01  0.12117744685E+02  0.16131243313E+02  0.00000000000E+00 0.  1.
</event>
<event>
 7    1  0.1338132E-011  0.5930209E+02  0.7816164E-02  0.1266604E+00
        -11   -1    0    0    0    0  0.00000000000E+00  0.00000000000E+00  0.45593999997E+02  0.45594000000E+02  0.51100000000E-03 0. -1.
         11   -1    0    0    0    0 -0.00000000000E+00 -0.00000000000E+00 -0.45593999997E+02  0.45594000000E+02  0.51100000000E-03 0.  1.
    9900012    2    1    2    0    0  0.61236138920E+01 -0.16294461137E+01  0.31249921998E+02  0.59302088273E+02  0.50000263068E+02 0.  0.
        -12    1    1    2    0    0 -0.61236138920E+01  0.16294461137E+01 -0.31249921998E+02  0.31885911727E+02  0.00000000000E+00 0.  1.
         11    1    3    3    0    0  0.90209430419E+00 -0.10709547079E+02  0.12661023301E+02  0.16607518901E+02  0.51100000000E-03 0. -1.
        -11    1    3    3    0    0  0.81412024738E+01 -0.12493647756E+02  0.14406639749E+01  0.14981519446E+02  0.51100000000E-03 0.  1.
        -12    1    3    3    0    0 -0.29196828860E+01  0.21573748722E+02  0.17148234723E+02  0.27713049926E+02  0.00000000000E+00 0.  1.
</event>
<event>
 7    1  0.1338132E-011  0.5930194E+02  0.7816164E-02  0.1266605E+00
        -11   -1    0    0    0    0  0.00000000000E+00  0.00000000000E+00  0.45593999997E+02  0.45594000000E+02  0.51100000000E-03 0.  1.
         11   -1    0    0    0    0 -0.00000000000E+00 -0.00000000000E+00 -0.45593999997E+02  0.45594000000E+02  0.51100000000E-03 0. -1.
    9900012    2    1    2    0    0  0.24040698613E+02  0.20932459984E+02 -0.77323905035E+00  0.59301937693E+02  0.49999988448E+02 0.  0.
        -12    1    1    2    0    0 -0.24040698613E+02 -0.20932459984E+02  0.77323905035E+00  0.31886062307E+02  0.00000000000E+00 0.  1.
         11    1    3    3    0    0  0.17411277486E+02 -0.99993397482E+01 -0.98008504859E+01  0.22342695665E+02  0.51100000000E-03 0. -1.
        -11    1    3    3    0    0 -0.22809415829E+01 -0.65325585055E+00 -0.10986203487E+01  0.26146519162E+01  0.51100000000E-03 0.  1.
        -12    1    3    3    0    0  0.89103627099E+01  0.31585055583E+02  0.10126231784E+02  0.34344590112E+02  0.00000000000E+00 0.  1.
</event>
<event>
 7    1  0.1338132E-011  0.5930196E+02  0.7816164E-02  0.1266605E+00
        -11   -1    0    0    0    0  0.00000000000E+00  0.00000000000E+00  0.45593999997E+02  0.45594000000E+02  0.51100000000E-03 0. -1.
         11   -1    0    0    0    0 -0.00000000000E+00 -0.00000000000E+00 -0.45593999997E+02  0.45594000000E+02  0.51100000000E-03 0.  1.
    9900012    2    1    2    0    0  0.12344551676E+02  0.77028462343E+01 -0.28372487166E+02  0.59301955652E+02  0.50000021199E+02 0.  0.
        -12    1    1    2    0    0 -0.12344551676E+02 -0.77028462343E+01  0.28372487166E+02  0.31886044348E+02  0.00000000000E+00 0.  1.
         11    1    3    3    0    0  0.88923186509E+01  0.20352877415E+00  0.35968604472E-01  0.88947202852E+01  0.51100000000E-03 0. -1.
        -11    1    3    3    0    0  0.17802126923E+01  0.20030718734E+02 -0.31518965272E+02  0.37387752303E+02  0.51100000000E-03 0.  1.
         12    1    3    3    0    0  0.16720203330E+01 -0.12531401273E+02  0.31105095015E+01  0.13019483063E+02  0.00000000000E+00 0. -1.
</event>
<event>
 7    1  0.1338132E-011  0.5930195E+02  0.7816164E-02  0.1266605E+00
        -11   -1    0    0    0    0  0.00000000000E+00  0.00000000000E+00  0.45593999997E+02  0.45594000000E+02  0.51100000000E-03 0.  1.
         11   -1    0    0    0    0 -0.00000000000E+00 -0.00000000000E+00 -0.45593999997E+02  0.45594000000E+02  0.51100000000E-03 0. -1.
    9900012    2    1    2    0    0  0.27555340769E+02 -0.21377317764E+00 -0.16042998658E+02  0.59301948036E+02  0.50000007311E+02 0.  0.
        -12    1    1    2    0    0 -0.27555340769E+02  0.21377317764E+00  0.16042998658E+02  0.31886051964E+02  0.00000000000E+00 0.  1.
         11    1    3    3    0    0 -0.23789367161E+01 -0.34624940008E+01  0.74188297334E+01  0.85256811739E+01  0.51100000000E-03 0. -1.
        -11    1    3    3    0    0 -0.52602647949E+01  0.42905570285E+01  0.22790193590E+01  0.71605303454E+01  0.51100000000E-03 0.  1.
         12    1    3    3    0    0  0.35194542280E+02 -0.10418362053E+01 -0.25740847750E+02  0.43615736517E+02  0.00000000000E+00 0. -1.
</event>
<event>
 7    1  0.1338132E-011  0.5930194E+02  0.7816164E-02  0.1266605E+00
        -11   -1    0    0    0    0  0.00000000000E+00  0.00000000000E+00  0.45593999997E+02  0.45594000000E+02  0.51100000000E-03 0.  1.
         11   -1    0    0    0    0 -0.00000000000E+00 -0.00000000000E+00 -0.45593999997E+02  0.45594000000E+02  0.51100000000E-03 0. -1.
    9900012    2    1    2    0    0  0.24332363433E+02 -0.16239562786E+02 -0.12685944841E+02  0.59301944957E+02  0.50000001695E+02 0.  0.
        -12    1    1    2    0    0 -0.24332363433E+02  0.16239562786E+02  0.12685944841E+02  0.31886055043E+02  0.00000000000E+00 0.  1.
         11    1    3    3    0    0 -0.17826852782E+01 -0.26736578002E+01 -0.43017752056E+01  0.53695142252E+01  0.51100000000E-03 0. -1.
        -11    1    3    3    0    0  0.96923752400E+01 -0.29085318940E+02 -0.40344458524E+01  0.30922074142E+02  0.51100000000E-03 0.  1.
         12    1    3    3    0    0  0.16422673471E+02  0.15519413954E+02 -0.43497237826E+01  0.23010356590E+02  0.00000000000E+00 0. -1.
</event>
<event>
 7    1  0.1338132E-011  0.5930187E+02  0.7816164E-02  0.1266605E+00
        -11   -1    0    0    0    0  0.00000000000E+00  0.00000000000E+00  0.45593999997E+02  0.45594000000E+02  0.51100000000E-03 0. -1.
         11   -1    0    0    0    0 -0.00000000000E+00 -0.00000000000E+00 -0.45593999997E+02  0.45594000000E+02  0.51100000000E-03 0.  1.
    9900012    2    1    2    0    0  0.80673006257E+01 -0.12014819344E+01  0.30825317620E+02  0.59301872851E+02  0.49999870190E+02 0.  0.
        -12    1    1    2    0    0 -0.80673006257E+01  0.12014819344E+01 -0.30825317620E+02  0.31886127149E+02  0.00000000000E+00 0.  1.
         11    1    3    3    0    0  0.55683243305E+00  0.73692521387E+01  0.18249698416E+02  0.19689272002E+02  0.51100000000E-03 0. -1.
        -11    1    3    3    0    0  0.72453552487E+01  0.53575945307E+01  0.21332821774E+02  0.23157898803E+02  0.51100000000E-03 0.  1.
        -12    1    3    3    0    0  0.26511294393E+00 -0.13928328604E+02 -0.87572025703E+01  0.16454702046E+02  0.00000000000E+00 0.  1.
</event>
<event>
 7    1  0.1338132E-011  0.5930193E+02  0.7816164E-02  0.1266605E+00
        -11   -1    0    0    0    0  0.00000000000E+00  0.00000000000E+00  0.45593999997E+02  0.45594000000E+02  0.51100000000E-03 0. -1.
         11   -1    0    0    0    0 -0.00000000000E+00 -0.00000000000E+00 -0.45593999997E+02  0.45594000000E+02  0.51100000000E-03 0.  1.
    9900012    2    1    2    0    0  0.89434599666E+01 -0.26019993930E+02  0.16115092042E+02  0.59301925425E+02  0.49999966072E+02 0.  0.
        -12    1    1    2    0    0 -0.89434599666E+01  0.26019993930E+02 -0.16115092042E+02  0.31886074575E+02  0.00000000000E+00 0.  1.
         11    1    3    3    0    0 -0.24174463731E+01 -0.49841153410E+01  0.18082220604E+01  0.58271021941E+01  0.51100000000E-03 0. -1.
        -11    1    3    3    0    0  0.11427192634E+01 -0.29563201750E+01 -0.16234876994E+02  0.16541368370E+02  0.51100000000E-03 0.  1.
         12    1    3    3    0    0  0.10218187076E+02 -0.18079558414E+02  0.30541746976E+02  0.36933454860E+02  0.00000000000E+00 0. -1.
</event>
<event>
 7    1  0.1338132E-011  0.5930195E+02  0.7816164E-02  0.1266605E+00
        -11   -1    0    0    0    0  0.00000000000E+00  0.00000000000E+00  0.45593999997E+02  0.45594000000E+02  0.51100000000E-03 0. -1.
         11   -1    0    0    0    0 -0.00000000000E+00 -0.00000000000E+00 -0.45593999997E+02  0.45594000000E+02  0.51100000000E-03 0.  1.
    9900012    2    1    2    0    0  0.11226709372E+02 -0.21876467089E+02  0.20300278687E+02  0.59301950851E+02  0.50000012443E+02 0.  0.
        -12    1    1    2    0    0 -0.11226709372E+02  0.21876467089E+02 -0.20300278687E+02  0.31886049149E+02  0.00000000000E+00 0.  1.
         11    1    3    3    0    0 -0.50607862688E+01 -0.60239835294E+01 -0.31637056208E+01  0.84799156091E+01  0.51100000000E-03 0. -1.
        -11    1    3    3    0    0  0.21068310220E+01 -0.12140431224E+02 -0.89622456128E+01  0.15236490867E+02  0.51100000000E-03 0.  1.
         12    1    3    3    0    0  0.14180664619E+02 -0.37120523350E+01  0.32426229920E+02  0.35585544374E+02  0.00000000000E+00 0. -1.
</event>
<event>
 7    1  0.1338132E-011  0.5930193E+02  0.7816164E-02  0.1266605E+00
        -11   -1    0    0    0    0  0.00000000000E+00  0.00000000000E+00  0.45593999997E+02  0.45594000000E+02  0.51100000000E-03 0. -1.
         11   -1    0    0    0    0 -0.00000000000E+00 -0.00000000000E+00 -0.45593999997E+02  0.45594000000E+02  0.51100000000E-03 0.  1.
    9900012    2    1    2    0    0  0.39128319046E+01  0.30857649403E+02  0.70154587055E+01  0.59301930298E+02  0.49999974960E+02 0.  0.
        -12    1    1    2    0    0 -0.39128319046E+01 -0.30857649403E+02 -0.70154587055E+01  0.31886069702E+02  0.00000000000E+00 0.  1.
         11    1    3    3    0    0 -0.88335058386E+01  0.17362152216E+02 -0.14689018800E+02  0.24397590630E+02  0.51100000000E-03 0. -1.
        -11    1    3    3    0    0 -0.30776225401E+00  0.22068109791E+01 -0.36245454210E+01  0.42546518157E+01  0.51100000000E-03 0.  1.
         12    1    3    3    0    0  0.13054099997E+02  0.11288686208E+02  0.25329022927E+02  0.30649687853E+02  0.00000000000E+00 0. -1.
</event>
<event>
 7    1  0.1338132E-011  0.5930196E+02  0.7816164E-02  0.1266605E+00
        -11   -1    0    0    0    0  0.00000000000E+00  0.00000000000E+00  0.45593999997E+02  0.45594000000E+02  0.51100000000E-03 0.  1.
         11   -1    0    0    0    0 -0.00000000000E+00 -0.00000000000E+00 -0.45593999997E+02  0.45594000000E+02  0.51100000000E-03 0. -1.
    9900012    2    1    2    0    0 -0.18672595632E+02  0.13514577642E+02 -0.22032019039E+02  0.59301960744E+02  0.50000030487E+02 0.  0.
        -12    1    1    2    0    0  0.18672595632E+02 -0.13514577642E+02  0.22032019039E+02  0.31886039256E+02  0.00000000000E+00 0.  1.
         11    1    3    3    0    0 -0.15445135496E+02 -0.16980308393E+00 -0.49895646120E+01  0.16231968422E+02  0.51100000000E-03 0. -1.
        -11    1    3    3    0    0 -0.12695300693E+02  0.19801559741E+02 -0.20581985889E+02  0.31255248699E+02  0.51100000000E-03 0.  1.
        -12    1    3    3    0    0  0.94678405572E+01 -0.61171790148E+01  0.35395314612E+01  0.11814743623E+02  0.00000000000E+00 0.  1.
</event>
<event>
 7    1  0.1338132E-011  0.5930194E+02  0.7816164E-02  0.1266605E+00
        -11   -1    0    0    0    0  0.00000000000E+00  0.00000000000E+00  0.45593999997E+02  0.45594000000E+02  0.51100000000E-03 0. -1.
         11   -1    0    0    0    0 -0.00000000000E+00 -0.00000000000E+00 -0.45593999997E+02  0.45594000000E+02  0.51100000000E-03 0.  1.
    9900012    2    1    2    0    0 -0.19703476396E+02 -0.25061806190E+02  0.63239132043E+00  0.59301936738E+02  0.49999986705E+02 0.  0.
        -12    1    1    2    0    0  0.19703476396E+02  0.25061806190E+02 -0.63239132043E+00  0.31886063262E+02  0.00000000000E+00 0.  1.
         11    1    3    3    0    0 -0.95435183043E+01 -0.86239444897E+01  0.26318455267E+01  0.13129271546E+02  0.51100000000E-03 0. -1.
        -11    1    3    3    0    0 -0.19093277290E+02 -0.25489133491E+02 -0.68254234324E+01  0.32570470814E+02  0.51100000000E-03 0.  1.
        -12    1    3    3    0    0  0.89333191978E+01  0.90512717908E+01  0.48259692261E+01  0.13602194378E+02  0.00000000000E+00 0.  1.
</event>
<event>
 7    1  0.1338132E-011  0.5930198E+02  0.7816164E-02  0.1266605E+00
        -11   -1    0    0    0    0  0.00000000000E+00  0.00000000000E+00  0.45593999997E+02  0.45594000000E+02  0.51100000000E-03 0.  1.
         11   -1    0    0    0    0 -0.00000000000E+00 -0.00000000000E+00 -0.45593999997E+02  0.45594000000E+02  0.51100000000E-03 0. -1.
    9900012    2    1    2    0    0  0.63050028912E+01 -0.97447787069E+01 -0.29698563932E+02  0.59301976837E+02  0.50000059837E+02 0.  0.
        -12    1    1    2    0    0 -0.63050028912E+01  0.97447787069E+01  0.29698563932E+02  0.31886023163E+02  0.00000000000E+00 0.  1.
         11    1    3    3    0    0 -0.14563619430E+01  0.17834341949E+01  0.61428454723E+01  0.65601965210E+01  0.51100000000E-03 0. -1.
        -11    1    3    3    0    0  0.15762879252E+02 -0.18217216519E+02 -0.12420019800E+02  0.27103362008E+02  0.51100000000E-03 0.  1.
         12    1    3    3    0    0 -0.80015144178E+01  0.66890036177E+01 -0.23421389604E+02  0.25638418309E+02  0.00000000000E+00 0. -1.
</event>
<event>
 7    1  0.1338132E-011  0.5930198E+02  0.7816164E-02  0.1266605E+00
        -11   -1    0    0    0    0  0.00000000000E+00  0.00000000000E+00  0.45593999997E+02  0.45594000000E+02  0.51100000000E-03 0.  1.
         11   -1    0    0    0    0 -0.00000000000E+00 -0.00000000000E+00 -0.45593999997E+02  0.45594000000E+02  0.51100000000E-03 0. -1.
    9900012    2    1    2    0    0 -0.10566106549E+02  0.28953568774E+02 -0.81710592918E+01  0.59301984847E+02  0.50000074445E+02 0.  0.
        -12    1    1    2    0    0  0.10566106549E+02 -0.28953568774E+02  0.81710592918E+01  0.31886015153E+02  0.00000000000E+00 0.  1.
         11    1    3    3    0    0 -0.22479614732E+01  0.75240715546E+01 -0.12587027634E+02  0.14835708560E+02  0.51100000000E-03 0. -1.
        -11    1    3    3    0    0 -0.10013264652E+02  0.55131659124E+00 -0.13558742075E+02  0.16864427232E+02  0.51100000000E-03 0.  1.
        -12    1    3    3    0    0  0.16951195757E+01  0.20878180628E+02  0.17974710417E+02  0.27601849056E+02  0.00000000000E+00 0.  1.
</event>
<event>
 7    1  0.1338132E-011  0.5930193E+02  0.7816164E-02  0.1266605E+00
        -11   -1    0    0    0    0  0.00000000000E+00  0.00000000000E+00  0.45593999997E+02  0.45594000000E+02  0.51100000000E-03 0.  1.
         11   -1    0    0    0    0 -0.00000000000E+00 -0.00000000000E+00 -0.45593999997E+02  0.45594000000E+02  0.51100000000E-03 0. -1.
    9900012    2    1    2    0    0  0.30072943858E+02  0.55231019349E+01 -0.90462483202E+01  0.59301933827E+02  0.49999981397E+02 0.  0.
        -12    1    1    2    0    0 -0.30072943858E+02 -0.55231019349E+01  0.90462483202E+01  0.31886066173E+02  0.00000000000E+00 0.  1.
         11    1    3    3    0    0  0.12578040896E+02 -0.30509866861E+01 -0.15678280075E+02  0.20330373801E+02  0.51100000000E-03 0. -1.
        -11    1    3    3    0    0 -0.83866271935E+01  0.43561213731E+01 -0.45199470268E+01  0.10475744865E+02  0.51100000000E-03 0.  1.
         12    1    3    3    0    0  0.25881530156E+02  0.42179672478E+01  0.11151978781E+02  0.28495815161E+02  0.00000000000E+00 0. -1.
</event>
<event>
 7    1  0.1338132E-011  0.5930192E+02  0.7816164E-02  0.1266605E+00
        -11   -1    0    0    0    0  0.00000000000E+00  0.00000000000E+00  0.45593999997E+02  0.45594000000E+02  0.51100000000E-03 0.  1.
         11   -1    0    0    0    0 -0.00000000000E+00 -0.00000000000E+00 -0.45593999997E+02  0.45594000000E+02  0.51100000000E-03 0. -1.
    9900012    2    1    2    0    0 -0.15085668541E+02  0.27915922688E+02  0.31378580941E+01  0.59301917013E+02  0.49999950731E+02 0.  0.
        -12    1    1    2    0    0  0.15085668541E+02 -0.27915922688E+02 -0.31378580941E+01  0.31886082987E+02  0.00000000000E+00 0.  1.
         11    1    3    3    0    0 -0.23220977187E+01  0.17225458431E+02 -0.12569670047E+02  0.21450062035E+02  0.51100000000E-03 0. -1.
        -11    1    3    3    0    0  0.27890723236E+01 -0.88216488465E+01  0.62611513477E+01  0.11171500761E+02  0.51100000000E-03 0.  1.
         12    1    3    3    0    0 -0.15552643146E+02  0.19512113103E+02  0.94463767932E+01  0.26680354216E+02  0.00000000000E+00 0. -1.
</event>
<event>
 7    1  0.1338132E-011  0.5930194E+02  0.7816164E-02  0.1266605E+00
        -11   -1    0    0    0    0  0.00000000000E+00  0.00000000000E+00  0.45593999997E+02  0.45594000000E+02  0.51100000000E-03 0.  1.
         11   -1    0    0    0    0 -0.00000000000E+00 -0.00000000000E+00 -0.45593999997E+02  0.45594000000E+02  0.51100000000E-03 0. -1.
    9900012    2    1    2    0    0  0.11886306621E+02  0.11436765219E+02 -0.27288037798E+02  0.59301938929E+02  0.49999990701E+02 0.  0.
        -12    1    1    2    0    0 -0.11886306621E+02 -0.11436765219E+02  0.27288037798E+02  0.31886061071E+02  0.00000000000E+00 0.  1.
         11    1    3    3    0    0  0.14191990357E+02  0.45179262340E+01 -0.22025852299E+02  0.26588764874E+02  0.51100000000E-03 0. -1.
        -11    1    3    3    0    0  0.86149634491E+01  0.73094575022E+01  0.92116823897E+01  0.14577409129E+02  0.51100000000E-03 0.  1.
         12    1    3    3    0    0 -0.10920647185E+02 -0.39061851757E+00 -0.14473867889E+02  0.18135764926E+02  0.00000000000E+00 0. -1.
</event>
<event>
 7    1  0.1338132E-011  0.5930193E+02  0.7816164E-02  0.1266605E+00
        -11   -1    0    0    0    0  0.00000000000E+00  0.00000000000E+00  0.45593999997E+02  0.45594000000E+02  0.51100000000E-03 0.  1.
         11   -1    0    0    0    0 -0.00000000000E+00 -0.00000000000E+00 -0.45593999997E+02  0.45594000000E+02  0.51100000000E-03 0. -1.
    9900012    2    1    2    0    0  0.38782934671E+01 -0.30613670664E+02 -0.80301459042E+01  0.59301933529E+02  0.49999980852E+02 0.  0.
        -12    1    1    2    0    0 -0.38782934671E+01  0.30613670664E+02  0.80301459042E+01  0.31886066471E+02  0.00000000000E+00 0.  1.
         11    1    3    3    0    0  0.13188660527E+01 -0.62909425527E+01 -0.12106781362E+02  0.13707279857E+02  0.51100000000E-03 0. -1.
        -11    1    3    3    0    0  0.60253111546E+01  0.87705198235E+01 -0.39768798590E+01  0.11359663998E+02  0.51100000000E-03 0.  1.
        -12    1    3    3    0    0 -0.34658837401E+01 -0.33093247935E+02  0.80535153164E+01  0.34234989674E+02  0.00000000000E+00 0.  1.
</event>
<event>
 7    1  0.1338132E-011  0.5930194E+02  0.7816164E-02  0.1266605E+00
        -11   -1    0    0    0    0  0.00000000000E+00  0.00000000000E+00  0.45593999997E+02  0.45594000000E+02  0.51100000000E-03 0. -1.
         11   -1    0    0    0    0 -0.00000000000E+00 -0.00000000000E+00 -0.45593999997E+02  0.45594000000E+02  0.51100000000E-03 0.  1.
    9900012    2    1    2    0    0 -0.17249767671E+02  0.74541272056E+01  0.25760473775E+02  0.59301944957E+02  0.50000001694E+02 0.  0.
        -12    1    1    2    0    0  0.17249767671E+02 -0.74541272056E+01 -0.25760473775E+02  0.31886055043E+02  0.00000000000E+00 0.  1.
         11    1    3    3    0    0 -0.17177700116E+01  0.14611948798E+02  0.20921755557E+02  0.25576935652E+02  0.51100000000E-03 0. -1.
        -11    1    3    3    0    0 -0.93683813226E+01  0.10318608511E+01 -0.11232813753E+02  0.14663130992E+02  0.51100000000E-03 0.  1.
         12    1    3    3    0    0 -0.61636163365E+01 -0.81896824439E+01  0.16071531972E+02  0.19061878312E+02  0.00000000000E+00 0. -1.
</event>
<event>
 7    1  0.1338132E-011  0.5930194E+02  0.7816164E-02  0.1266605E+00
        -11   -1    0    0    0    0  0.00000000000E+00  0.00000000000E+00  0.45593999997E+02  0.45594000000E+02  0.51100000000E-03 0.  1.
         11   -1    0    0    0    0 -0.00000000000E+00 -0.00000000000E+00 -0.45593999997E+02  0.45594000000E+02  0.51100000000E-03 0. -1.
    9900012    2    1    2    0    0  0.42727927807E+01 -0.31577593871E+02  0.11488395432E+01  0.59301936820E+02  0.49999986855E+02 0.  0.
        -12    1    1    2    0    0 -0.42727927807E+01  0.31577593871E+02 -0.11488395432E+01  0.31886063180E+02  0.00000000000E+00 0.  1.
         11    1    3    3    0    0 -0.81833258121E+00 -0.28154833119E+01 -0.10933187225E+02  0.11319505186E+02  0.51100000000E-03 0. -1.
        -11    1    3    3    0    0 -0.26054511762E+01 -0.13311285883E+02 -0.12164124917E+02  0.18219348039E+02  0.51100000000E-03 0.  1.
        -12    1    3    3    0    0  0.76965765382E+01 -0.15450824675E+02  0.24246151685E+02  0.29763083595E+02  0.00000000000E+00 0.  1.
</event>
<event>
 7    1  0.1338132E-011  0.5930194E+02  0.7816164E-02  0.1266605E+00
        -11   -1    0    0    0    0  0.00000000000E+00  0.00000000000E+00  0.45593999997E+02  0.45594000000E+02  0.51100000000E-03 0. -1.
         11   -1    0    0    0    0 -0.00000000000E+00 -0.00000000000E+00 -0.45593999997E+02  0.45594000000E+02  0.51100000000E-03 0.  1.
    9900012    2    1    2    0    0  0.29458873213E+02 -0.11494152495E+02  0.40963288417E+01  0.59301942506E+02  0.49999997224E+02 0.  0.
        -12    1    1    2    0    0 -0.29458873213E+02  0.11494152495E+02 -0.40963288417E+01  0.31886057494E+02  0.00000000000E+00 0.  1.
         11    1    3    3    0    0 -0.25248364677E+01 -0.10318997181E+02 -0.66770946096E+01  0.12547513487E+02  0.51100000000E-03 0. -1.
        -11    1    3    3    0    0 -0.30452656551E+01  0.73104225582E+01 -0.25634450219E+01  0.83238916098E+01  0.51100000000E-03 0.  1.
         12    1    3    3    0    0  0.35028975336E+02 -0.84855778723E+01  0.13336868473E+02  0.38430537409E+02  0.00000000000E+00 0. -1.
</event>
<event>
 7    1  0.1338132E-011  0.5930194E+02  0.7816164E-02  0.1266605E+00
        -11   -1    0    0    0    0  0.00000000000E+00  0.00000000000E+00  0.45593999997E+02  0.45594000000E+02  0.51100000000E-03 0.  1.
         11   -1    0    0    0    0 -0.00000000000E+00 -0.00000000000E+00 -0.45593999997E+02  0.45594000000E+02  0.51100000000E-03 0. -1.
    9900012    2    1    2    0    0  0.95309447126E+01 -0.12834803727E+02 -0.27588938810E+02  0.59301942882E+02  0.49999997911E+02 0.  0.
        -12    1    1    2    0    0 -0.95309447126E+01  0.12834803727E+02  0.27588938810E+02  0.31886057118E+02  0.00000000000E+00 0.  1.
         11    1    3    3    0    0 -0.62654147871E+01  0.50268531942E+01 -0.11272243772E+02  0.13841537321E+02  0.51100000000E-03 0. -1.
        -11    1    3    3    0    0  0.30263921574E+01 -0.64560119617E+01  0.11066676081E+02  0.13164743054E+02  0.51100000000E-03 0.  1.
         12    1    3    3    0    0  0.12769967342E+02 -0.11405644960E+02 -0.27383371119E+02  0.32295662507E+02  0.00000000000E+00 0. -1.
</event>
<event>
 7    1  0.1338132E-011  0.5930197E+02  0.7816164E-02  0.1266605E+00
        -11   -1    0    0    0    0  0.00000000000E+00  0.00000000000E+00  0.45593999997E+02  0.45594000000E+02  0.51100000000E-03 0. -1.
         11   -1    0    0    0    0 -0.00000000000E+00 -0.00000000000E+00 -0.45593999997E+02  0.45594000000E+02  0.51100000000E-03 0.  1.
    9900012    2    1    2    0    0 -0.29691964536E+01 -0.24559832441E+02  0.20117585612E+02  0.59301972528E+02  0.50000051977E+02 0.  0.
        -12    1    1    2    0    0  0.29691964536E+01  0.24559832441E+02 -0.20117585612E+02  0.31886027472E+02  0.00000000000E+00 0.  1.
         11    1    3    3    0    0  0.11697884214E+02 -0.30163411107E+02  0.60694910286E+01  0.32916721986E+02  0.51100000000E-03 0. -1.
        -11    1    3    3    0    0 -0.52951160245E+01  0.67189836244E-01  0.14554948541E+02  0.15488360000E+02  0.51100000000E-03 0.  1.
        -12    1    3    3    0    0 -0.93719646431E+01  0.55363888296E+01 -0.50685395774E+00  0.10896890542E+02  0.00000000000E+00 0.  1.
</event>
<event>
 7    1  0.1338132E-011  0.5930193E+02  0.7816164E-02  0.1266605E+00
        -11   -1    0    0    0    0  0.00000000000E+00  0.00000000000E+00  0.45593999997E+02  0.45594000000E+02  0.51100000000E-03 0.  1.
         11   -1    0    0    0    0 -0.00000000000E+00 -0.00000000000E+00 -0.45593999997E+02  0.45594000000E+02  0.51100000000E-03 0. -1.
    9900012    2    1    2    0    0  0.55966522957E+01  0.18713351759E+02 -0.25203360960E+02  0.59301930085E+02  0.49999974572E+02 0.  0.
        -12    1    1    2    0    0 -0.55966522957E+01 -0.18713351759E+02  0.25203360960E+02  0.31886069915E+02  0.00000000000E+00 0.  1.
         11    1    3    3    0    0 -0.76548815932E+01 -0.44435303417E+01 -0.70107170663E+01  0.11291250070E+02  0.51100000000E-03 0. -1.
        -11    1    3    3    0    0 -0.13467478898E+01 -0.26385628360E+01  0.79532117169E+01  0.84870089309E+01  0.51100000000E-03 0.  1.
         12    1    3    3    0    0  0.14598281779E+02  0.25795444937E+02 -0.26145855610E+02  0.39523671084E+02  0.00000000000E+00 0. -1.
</event>
<event>
 7    1  0.1338132E-011  0.5930196E+02  0.7816164E-02  0.1266605E+00
        -11   -1    0    0    0    0  0.00000000000E+00  0.00000000000E+00  0.45593999997E+02  0.45594000000E+02  0.51100000000E-03 0.  1.
         11   -1    0    0    0    0 -0.00000000000E+00 -0.00000000000E+00 -0.45593999997E+02  0.45594000000E+02  0.51100000000E-03 0. -1.
    9900012    2    1    2    0    0  0.27145918119E+02 -0.37675782209E+01 -0.16297981566E+02  0.59301957297E+02  0.50000024200E+02 0.  0.
        -12    1    1    2    0    0 -0.27145918119E+02  0.37675782209E+01  0.16297981566E+02  0.31886042703E+02  0.00000000000E+00 0.  1.
         11    1    3    3    0    0  0.19863896658E+02  0.13589159730E+02 -0.87316488307E+01  0.25602369894E+02  0.51100000000E-03 0. -1.
        -11    1    3    3    0    0  0.16807646429E+02 -0.14277842131E+02 -0.85231065458E+01  0.23643119503E+02  0.51100000000E-03 0.  1.
        -12    1    3    3    0    0 -0.95256249680E+01 -0.30788958202E+01  0.95677381090E+00  0.10056467900E+02  0.00000000000E+00 0.  1.
</event>
<event>
 7    1  0.1338132E-011  0.5930194E+02  0.7816164E-02  0.1266605E+00
        -11   -1    0    0    0    0  0.00000000000E+00  0.00000000000E+00  0.45593999997E+02  0.45594000000E+02  0.51100000000E-03 0.  1.
         11   -1    0    0    0    0 -0.00000000000E+00 -0.00000000000E+00 -0.45593999997E+02  0.45594000000E+02  0.51100000000E-03 0. -1.
    9900012    2    1    2    0    0 -0.15810528116E+02 -0.20133634223E+02 -0.19010124949E+02  0.59301939144E+02  0.49999991093E+02 0.  0.
        -12    1    1    2    0    0  0.15810528116E+02  0.20133634223E+02  0.19010124949E+02  0.31886060856E+02  0.00000000000E+00 0.  1.
         11    1    3    3    0    0  0.77563449032E+01 -0.11231160418E+02 -0.78123571486E-01  0.13649393911E+02  0.51100000000E-03 0.  1.
        -11    1    3    3    0    0 -0.49006306571E+01  0.10751952690E+02 -0.13619836002E+02  0.18031100922E+02  0.51100000000E-03 0. -1.
         12    1    3    3    0    0 -0.18666242362E+02 -0.19654426496E+02 -0.53121653758E+01  0.27621444310E+02  0.00000000000E+00 0. -1.
</event>
<event>
 7    1  0.1338132E-011  0.5930193E+02  0.7816164E-02  0.1266605E+00
        -11   -1    0    0    0    0  0.00000000000E+00  0.00000000000E+00  0.45593999997E+02  0.45594000000E+02  0.51100000000E-03 0. -1.
         11   -1    0    0    0    0 -0.00000000000E+00 -0.00000000000E+00 -0.45593999997E+02  0.45594000000E+02  0.51100000000E-03 0.  1.
    9900012    2    1    2    0    0  0.91281967136E+00  0.82535773584E+01  0.30785814921E+02  0.59301934402E+02  0.49999982446E+02 0.  0.
        -12    1    1    2    0    0 -0.91281967136E+00 -0.82535773584E+01 -0.30785814921E+02  0.31886065598E+02  0.00000000000E+00 0.  1.
         11    1    3    3    0    0  0.11873581715E+02  0.40696337596E+00  0.77185093182E+01  0.14167672649E+02  0.51100000000E-03 0. -1.
        -11    1    3    3    0    0 -0.62225581677E+01 -0.50104655348E+01 -0.79219004787E+01  0.11250844523E+02  0.51100000000E-03 0.  1.
         12    1    3    3    0    0 -0.47382038756E+01  0.12857079517E+02  0.30989206081E+02  0.33883417231E+02  0.00000000000E+00 0. -1.
</event>
<event>
 7    1  0.1338132E-011  0.5930197E+02  0.7816164E-02  0.1266605E+00
        -11   -1    0    0    0    0  0.00000000000E+00  0.00000000000E+00  0.45593999997E+02  0.45594000000E+02  0.51100000000E-03 0.  1.
         11   -1    0    0    0    0 -0.00000000000E+00 -0.00000000000E+00 -0.45593999997E+02  0.45594000000E+02  0.51100000000E-03 0. -1.
    9900012    2    1    2    0    0 -0.26595167711E+02  0.90030304823E+01 -0.15111638176E+02  0.59301966822E+02  0.50000041571E+02 0.  0.
        -12    1    1    2    0    0  0.26595167711E+02 -0.90030304823E+01  0.15111638176E+02  0.31886033178E+02  0.00000000000E+00 0.  1.
         11    1    3    3    0    0 -0.11740158671E+02  0.14764794430E+02 -0.28197904200E+02  0.33925687638E+02  0.51100000000E-03 0. -1.
        -11    1    3    3    0    0  0.30207356716E+01 -0.11548597065E+01  0.13697023026E+01  0.35120691334E+01  0.51100000000E-03 0.  1.
        -12    1    3    3    0    0 -0.17875744712E+02 -0.46069042411E+01  0.11716563722E+02  0.21864210050E+02  0.00000000000E+00 0.  1.
</event>
<event>
 7    1  0.1338132E-011  0.5930194E+02  0.7816164E-02  0.1266605E+00
        -11   -1    0    0    0    0  0.00000000000E+00  0.00000000000E+00  0.45593999997E+02  0.45594000000E+02  0.51100000000E-03 0.  1.
         11   -1    0    0    0    0 -0.00000000000E+00 -0.00000000000E+00 -0.45593999997E+02  0.45594000000E+02  0.51100000000E-03 0. -1.
    9900012    2    1    2    0    0 -0.19983828628E+00  0.30806348690E+02 -0.82249478081E+01  0.59301940015E+02  0.49999992682E+02 0.  0.
        -12    1    1    2    0    0  0.19983828628E+00 -0.30806348690E+02  0.82249478081E+01  0.31886059985E+02  0.00000000000E+00 0.  1.
         11    1    3    3    0    0 -0.10111432984E+02  0.20873273246E+02 -0.79439455682E+01  0.24516135186E+02  0.51100000000E-03 0. -1.
        -11    1    3    3    0    0  0.15102840509E+02  0.19037097864E+02 -0.44533799566E+00  0.24304427842E+02  0.51100000000E-03 0.  1.
        -12    1    3    3    0    0 -0.51912458114E+01 -0.91040224205E+01  0.16433575574E+00  0.10481376987E+02  0.00000000000E+00 0.  1.
</event>
<event>
 7    1  0.1338132E-011  0.5930208E+02  0.7816164E-02  0.1266604E+00
        -11   -1    0    0    0    0  0.00000000000E+00  0.00000000000E+00  0.45593999997E+02  0.45594000000E+02  0.51100000000E-03 0. -1.
         11   -1    0    0    0    0 -0.00000000000E+00 -0.00000000000E+00 -0.45593999997E+02  0.45594000000E+02  0.51100000000E-03 0.  1.
    9900012    2    1    2    0    0 -0.10850872375E+02 -0.21261427573E+02  0.21140530390E+02  0.59302082122E+02  0.50000251850E+02 0.  0.
        -12    1    1    2    0    0  0.10850872375E+02  0.21261427573E+02 -0.21140530390E+02  0.31885917878E+02  0.00000000000E+00 0.  1.
         11    1    3    3    0    0 -0.11276961815E+00 -0.42588792164E+01  0.10710288062E+02  0.11526536331E+02  0.51100000000E-03 0. -1.
        -11    1    3    3    0    0 -0.85190297289E+01 -0.20344120253E+02  0.24605465033E+02  0.33043698433E+02  0.51100000000E-03 0.  1.
        -12    1    3    3    0    0 -0.22190730283E+01  0.33415718962E+01 -0.14175222705E+02  0.14731847358E+02  0.00000000000E+00 0.  1.
</event>
<event>
 7    1  0.1338132E-011  0.5930192E+02  0.7816164E-02  0.1266605E+00
        -11   -1    0    0    0    0  0.00000000000E+00  0.00000000000E+00  0.45593999997E+02  0.45594000000E+02  0.51100000000E-03 0. -1.
         11   -1    0    0    0    0 -0.00000000000E+00 -0.00000000000E+00 -0.45593999997E+02  0.45594000000E+02  0.51100000000E-03 0.  1.
    9900012    2    1    2    0    0 -0.11956675057E+02  0.28257465418E+02  0.86761389380E+01  0.59301924401E+02  0.49999964205E+02 0.  0.
        -12    1    1    2    0    0  0.11956675057E+02 -0.28257465418E+02 -0.86761389380E+01  0.31886075599E+02  0.00000000000E+00 0.  1.
         11    1    3    3    0    0  0.23229924759E+01 -0.81899854250E+01  0.35967562794E+01  0.92416887687E+01  0.51100000000E-03 0. -1.
        -11    1    3    3    0    0  0.62680411373E+01  0.15779810181E+02 -0.71904475377E+01  0.18438906831E+02  0.51100000000E-03 0.  1.
        -12    1    3    3    0    0 -0.20547708671E+02  0.20667640661E+02  0.12269830196E+02  0.31621328801E+02  0.00000000000E+00 0.  1.
</event>
<event>
 7    1  0.1338132E-011  0.5930191E+02  0.7816164E-02  0.1266605E+00
        -11   -1    0    0    0    0  0.00000000000E+00  0.00000000000E+00  0.45593999997E+02  0.45594000000E+02  0.51100000000E-03 0.  1.
         11   -1    0    0    0    0 -0.00000000000E+00 -0.00000000000E+00 -0.45593999997E+02  0.45594000000E+02  0.51100000000E-03 0. -1.
    9900012    2    1    2    0    0 -0.28306901570E+01 -0.29402272639E+02 -0.12009002126E+02  0.59301912514E+02  0.49999942527E+02 0.  0.
        -12    1    1    2    0    0  0.28306901570E+01  0.29402272639E+02  0.12009002126E+02  0.31886087486E+02  0.00000000000E+00 0.  1.
         11    1    3    3    0    0 -0.29907075495E+01 -0.32164948214E+02 -0.37383216759E+01  0.32519275430E+02  0.51100000000E-03 0. -1.
        -11    1    3    3    0    0 -0.61494201584E+01 -0.66688954320E+01  0.41355800869E+01  0.99695816103E+01  0.51100000000E-03 0.  1.
        -12    1    3    3    0    0  0.63094375510E+01  0.94315710074E+01 -0.12406260537E+02  0.16813055474E+02  0.00000000000E+00 0.  1.
</event>
<event>
 7    1  0.1338132E-011  0.5930202E+02  0.7816164E-02  0.1266604E+00
        -11   -1    0    0    0    0  0.00000000000E+00  0.00000000000E+00  0.45593999997E+02  0.45594000000E+02  0.51100000000E-03 0.  1.
         11   -1    0    0    0    0 -0.00000000000E+00 -0.00000000000E+00 -0.45593999997E+02  0.45594000000E+02  0.51100000000E-03 0. -1.
    9900012    2    1    2    0    0 -0.58769851515E+01 -0.23599826135E+02 -0.20620976099E+02  0.59302024974E+02  0.50000147626E+02 0.  0.
        -12    1    1    2    0    0  0.58769851515E+01  0.23599826135E+02  0.20620976099E+02  0.31885975026E+02  0.00000000000E+00 0.  1.
         11    1    3    3    0    0 -0.18890706325E+01  0.27883015325E+00  0.32972365311E+01  0.38102628665E+01  0.51100000000E-03 0. -1.
        -11    1    3    3    0    0 -0.10164757706E+02  0.36574675379E+01  0.75829944045E+01  0.13198529176E+02  0.51100000000E-03 0.  1.
         12    1    3    3    0    0  0.61768431867E+01 -0.27536123827E+02 -0.31501207035E+02  0.42293232931E+02  0.00000000000E+00 0. -1.
</event>
<event>
 7    1  0.1338132E-011  0.5930194E+02  0.7816164E-02  0.1266605E+00
        -11   -1    0    0    0    0  0.00000000000E+00  0.00000000000E+00  0.45593999997E+02  0.45594000000E+02  0.51100000000E-03 0.  1.
         11   -1    0    0    0    0 -0.00000000000E+00 -0.00000000000E+00 -0.45593999997E+02  0.45594000000E+02  0.51100000000E-03 0. -1.
    9900012    2    1    2    0    0 -0.74155577253E+01 -0.18812763098E+01 -0.30954663403E+02  0.59301939044E+02  0.49999990910E+02 0.  0.
        -12    1    1    2    0    0  0.74155577253E+01  0.18812763098E+01  0.30954663403E+02  0.31886060956E+02  0.00000000000E+00 0.  1.
         11    1    3    3    0    0  0.73929133627E+01 -0.11330911202E+02 -0.15843224619E+01  0.13621849896E+02  0.51100000000E-03 0. -1.
        -11    1    3    3    0    0 -0.13486299693E+02 -0.88060987287E+01 -0.96584054573E+01  0.18780640310E+02  0.51100000000E-03 0.  1.
        -12    1    3    3    0    0 -0.13221713952E+01  0.18255733621E+02 -0.19711935484E+02  0.26899448837E+02  0.00000000000E+00 0.  1.
</event>
<event>
 7    1  0.1338132E-011  0.5930194E+02  0.7816164E-02  0.1266605E+00
        -11   -1    0    0    0    0  0.00000000000E+00  0.00000000000E+00  0.45593999997E+02  0.45594000000E+02  0.51100000000E-03 0. -1.
         11   -1    0    0    0    0 -0.00000000000E+00 -0.00000000000E+00 -0.45593999997E+02  0.45594000000E+02  0.51100000000E-03 0.  1.
    9900012    2    1    2    0    0 -0.13119932568E+02  0.28846529649E+02 -0.35307255151E+01  0.59301938374E+02  0.49999989689E+02 0.  0.
        -12    1    1    2    0    0  0.13119932568E+02 -0.28846529649E+02  0.35307255151E+01  0.31886061626E+02  0.00000000000E+00 0.  1.
         11    1    3    3    0    0  0.34459847359E+01  0.23292415401E+01  0.23090737716E+01  0.47573100484E+01  0.51100000000E-03 0. -1.
        -11    1    3    3    0    0  0.10512446181E+02  0.17168963368E+00  0.91126074760E+01  0.13913325171E+02  0.51100000000E-03 0.  1.
         12    1    3    3    0    0 -0.27078363485E+02  0.26345598475E+02 -0.14952406763E+02  0.40631303154E+02  0.00000000000E+00 0. -1.
</event>
<event>
 7    1  0.1338132E-011  0.5930181E+02  0.7816164E-02  0.1266605E+00
        -11   -1    0    0    0    0  0.00000000000E+00  0.00000000000E+00  0.45593999997E+02  0.45594000000E+02  0.51100000000E-03 0.  1.
         11   -1    0    0    0    0 -0.00000000000E+00 -0.00000000000E+00 -0.45593999997E+02  0.45594000000E+02  0.51100000000E-03 0. -1.
    9900012    2    1    2    0    0  0.23865233083E+02 -0.86702815824E+01 -0.19287455962E+02  0.59301810351E+02  0.49999756206E+02 0.  0.
        -12    1    1    2    0    0 -0.23865233083E+02  0.86702815824E+01  0.19287455962E+02  0.31886189649E+02  0.00000000000E+00 0.  1.
         11    1    3    3    0    0  0.11303576917E+02 -0.21960017211E+01  0.71636654191E+01  0.13561392892E+02  0.51100000000E-03 0. -1.
        -11    1    3    3    0    0  0.13262079419E+02  0.58378997260E+01  0.20984115789E+01  0.14641282565E+02  0.51100000000E-03 0.  1.
         12    1    3    3    0    0 -0.70042325348E+00 -0.12312179587E+02 -0.28549532960E+02  0.31099134894E+02  0.00000000000E+00 0. -1.
</event>
<event>
 7    1  0.1606693E-011  0.5930194E+02  0.7816164E-02  0.1266605E+00
        -11   -1    0    0    0    0  0.00000000000E+00  0.00000000000E+00  0.45593999997E+02  0.45594000000E+02  0.51100000000E-03 0. -1.
         11   -1    0    0    0    0 -0.00000000000E+00 -0.00000000000E+00 -0.45593999997E+02  0.45594000000E+02  0.51100000000E-03 0.  1.
    9900012    2    1    2    0    0 -0.81783545363E+01 -0.30041913317E+02  0.68788750926E+01  0.59301937822E+02  0.49999988683E+02 0.  0.
        -12    1    1    2    0    0  0.81783545363E+01  0.30041913317E+02 -0.68788750926E+01  0.31886062178E+02  0.00000000000E+00 0.  1.
         11    1    3    3    0    0 -0.95441039852E+01 -0.27320205657E+02  0.11869086104E+02  0.31278727008E+02  0.51100000000E-03 0. -1.
        -11    1    3    3    0    0  0.11936718825E+02 -0.28481711079E+01  0.52108422058E+01  0.13332299567E+02  0.51100000000E-03 0.  1.
        -12    1    3    3    0    0 -0.10570969377E+02  0.12646344788E+00 -0.10201053217E+02  0.14690911248E+02  0.00000000000E+00 0.  1.
</event>
<event>
 7    1  0.1338132E-011  0.5930193E+02  0.7816164E-02  0.1266605E+00
        -11   -1    0    0    0    0  0.00000000000E+00  0.00000000000E+00  0.45593999997E+02  0.45594000000E+02  0.51100000000E-03 0. -1.
         11   -1    0    0    0    0 -0.00000000000E+00 -0.00000000000E+00 -0.45593999997E+02  0.45594000000E+02  0.51100000000E-03 0.  1.
    9900012    2    1    2    0    0  0.24169233877E+02  0.19012541205E+02  0.84316687166E+01  0.59301927388E+02  0.49999969653E+02 0.  0.
        -12    1    1    2    0    0 -0.24169233877E+02 -0.19012541205E+02 -0.84316687166E+01  0.31886072612E+02  0.00000000000E+00 0.  1.
         11    1    3    3    0    0  0.29670805602E+01  0.15060571696E+02  0.59631524950E+01  0.16467652377E+02  0.51100000000E-03 0. -1.
        -11    1    3    3    0    0 -0.44130752555E+01  0.12335555054E+02  0.79578589600E+01  0.15328687849E+02  0.51100000000E-03 0.  1.
        -12    1    3    3    0    0  0.25615228573E+02 -0.83835855450E+01 -0.54893427383E+01  0.27505587162E+02  0.00000000000E+00 0.  1.
</event>
<event>
 7    1  0.1338132E-011  0.5930194E+02  0.7816164E-02  0.1266605E+00
        -11   -1    0    0    0    0  0.00000000000E+00  0.00000000000E+00  0.45593999997E+02  0.45594000000E+02  0.51100000000E-03 0.  1.
         11   -1    0    0    0    0 -0.00000000000E+00 -0.00000000000E+00 -0.45593999997E+02  0.45594000000E+02  0.51100000000E-03 0. -1.
    9900012    2    1    2    0    0 -0.79265214317E+01 -0.20527183753E+02 -0.23076520162E+02  0.59301940387E+02  0.49999993361E+02 0.  0.
        -12    1    1    2    0    0  0.79265214317E+01  0.20527183753E+02  0.23076520162E+02  0.31886059613E+02  0.00000000000E+00 0.  1.
         11    1    3    3    0    0  0.13119601948E+02  0.58124767730E+01 -0.13551892661E+02  0.19737341170E+02  0.51100000000E-03 0. -1.
        -11    1    3    3    0    0 -0.54737080538E+01 -0.46992946298E+01 -0.10668962371E+02  0.12879115195E+02  0.51100000000E-03 0.  1.
        -12    1    3    3    0    0 -0.15572415326E+02 -0.21640365896E+02  0.11443348704E+01  0.26685484022E+02  0.00000000000E+00 0.  1.
</event>
<event>
 7    1  0.1338132E-011  0.5930199E+02  0.7816164E-02  0.1266605E+00
        -11   -1    0    0    0    0  0.00000000000E+00  0.00000000000E+00  0.45593999997E+02  0.45594000000E+02  0.51100000000E-03 0. -1.
         11   -1    0    0    0    0 -0.00000000000E+00 -0.00000000000E+00 -0.45593999997E+02  0.45594000000E+02  0.51100000000E-03 0.  1.
    9900012    2    1    2    0    0  0.10388348729E+02 -0.19304482319E+02  0.23154634610E+02  0.59301985341E+02  0.50000075345E+02 0.  0.
        -12    1    1    2    0    0 -0.10388348729E+02  0.19304482319E+02 -0.23154634610E+02  0.31886014659E+02  0.00000000000E+00 0.  1.
         11    1    3    3    0    0  0.92150064014E+01 -0.99897325392E+01  0.65026370164E+01  0.15066366105E+02  0.51100000000E-03 0. -1.
        -11    1    3    3    0    0  0.12084235746E+02 -0.13331328661E+02 -0.58392456555E+01  0.18916920138E+02  0.51100000000E-03 0.  1.
        -12    1    3    3    0    0 -0.10910893418E+02  0.40165788810E+01  0.22491243249E+02  0.25318699098E+02  0.00000000000E+00 0.  1.
</event>
<event>
 7    1  0.1338132E-011  0.5930196E+02  0.7816164E-02  0.1266605E+00
        -11   -1    0    0    0    0  0.00000000000E+00  0.00000000000E+00  0.45593999997E+02  0.45594000000E+02  0.51100000000E-03 0.  1.
         11   -1    0    0    0    0 -0.00000000000E+00 -0.00000000000E+00 -0.45593999997E+02  0.45594000000E+02  0.51100000000E-03 0. -1.
    9900012    2    1    2    0    0  0.91822144938E+01 -0.17558897080E+02 -0.24981819889E+02  0.59301964582E+02  0.50000037486E+02 0.  0.
        -12    1    1    2    0    0 -0.91822144938E+01  0.17558897080E+02  0.24981819889E+02  0.31886035418E+02  0.00000000000E+00 0.  1.
         11    1    3    3    0    0 -0.42091997069E+01  0.44997828708E+01 -0.12956989436E+02  0.14347438223E+02  0.51100000000E-03 0. -1.
        -11    1    3    3    0    0 -0.69634766198E+01  0.55677581970E+00 -0.12728823062E+02  0.14519743206E+02  0.51100000000E-03 0.  1.
         12    1    3    3    0    0  0.20354890821E+02 -0.22615455770E+02  0.70399260870E+00  0.30434783154E+02  0.00000000000E+00 0. -1.
</event>
<event>
 7    1  0.1338132E-011  0.5930194E+02  0.7816164E-02  0.1266605E+00
        -11   -1    0    0    0    0  0.00000000000E+00  0.00000000000E+00  0.45593999997E+02  0.45594000000E+02  0.51100000000E-03 0. -1.
         11   -1    0    0    0    0 -0.00000000000E+00 -0.00000000000E+00 -0.45593999997E+02  0.45594000000E+02  0.51100000000E-03 0.  1.
    9900012    2    1    2    0    0 -0.12268782065E+02  0.98371961692E+01  0.27738557306E+02  0.59301937163E+02  0.49999987481E+02 0.  0.
        -12    1    1    2    0    0  0.12268782065E+02 -0.98371961692E+01 -0.27738557306E+02  0.31886062837E+02  0.00000000000E+00 0.  1.
         11    1    3    3    0    0  0.35814713605E+01 -0.52276664752E+01  0.11472037227E+02  0.13105841151E+02  0.51100000000E-03 0. -1.
        -11    1    3    3    0    0 -0.13298998685E+02  0.22284145234E+01  0.26399771335E+02  0.29644175214E+02  0.51100000000E-03 0.  1.
        -12    1    3    3    0    0 -0.25512547403E+01  0.12836448121E+02 -0.10133251256E+02  0.16551920799E+02  0.00000000000E+00 0.  1.
</event>
<event>
 7    1  0.1338132E-011  0.5930194E+02  0.7816164E-02  0.1266605E+00
        -11   -1    0    0    0    0  0.00000000000E+00  0.00000000000E+00  0.45593999997E+02  0.45594000000E+02  0.51100000000E-03 0.  1.
         11   -1    0    0    0    0 -0.00000000000E+00 -0.00000000000E+00 -0.45593999997E+02  0.45594000000E+02  0.51100000000E-03 0. -1.
    9900012    2    1    2    0    0  0.29221424806E+02  0.12300070009E+02 -0.33966692366E+01  0.59301941106E+02  0.49999994671E+02 0.  0.
        -12    1    1    2    0    0 -0.29221424806E+02 -0.12300070009E+02  0.33966692366E+01  0.31886058894E+02  0.00000000000E+00 0.  1.
         11    1    3    3    0    0  0.10911333358E+02 -0.28428082681E+01  0.46795897653E-01  0.11275679342E+02  0.51100000000E-03 0. -1.
        -11    1    3    3    0    0  0.22302727118E+02  0.27190010102E+02 -0.16172416953E+01  0.35204030411E+02  0.51100000000E-03 0.  1.
        -12    1    3    3    0    0 -0.39926356703E+01 -0.12047131825E+02 -0.18262234390E+01  0.12822231352E+02  0.00000000000E+00 0.  1.
</event>
<event>
 7    1  0.1338132E-011  0.5930194E+02  0.7816164E-02  0.1266605E+00
        -11   -1    0    0    0    0  0.00000000000E+00  0.00000000000E+00  0.45593999997E+02  0.45594000000E+02  0.51100000000E-03 0.  1.
         11   -1    0    0    0    0 -0.00000000000E+00 -0.00000000000E+00 -0.45593999997E+02  0.45594000000E+02  0.51100000000E-03 0. -1.
    9900012    2    1    2    0    0 -0.12938091291E+02  0.11591068479E+02 -0.26738987999E+02  0.59301944208E+02  0.50000000329E+02 0.  0.
        -12    1    1    2    0    0  0.12938091291E+02 -0.11591068479E+02  0.26738987999E+02  0.31886055792E+02  0.00000000000E+00 0.  1.
         11    1    3    3    0    0 -0.43330339122E+01 -0.45896085339E+01 -0.12609454198E+02  0.14100993752E+02  0.51100000000E-03 0. -1.
        -11    1    3    3    0    0 -0.48563678947E+01 -0.10217819526E+02 -0.14678078636E+02  0.18531976088E+02  0.51100000000E-03 0.  1.
        -12    1    3    3    0    0 -0.37486894840E+01  0.26398496539E+02  0.54854483452E+00  0.26668974368E+02  0.00000000000E+00 0.  1.
</event>
<event>
 7    1  0.1338132E-011  0.5930195E+02  0.7816164E-02  0.1266605E+00
        -11   -1    0    0    0    0  0.00000000000E+00  0.00000000000E+00  0.45593999997E+02  0.45594000000E+02  0.51100000000E-03 0.  1.
         11   -1    0    0    0    0 -0.00000000000E+00 -0.00000000000E+00 -0.45593999997E+02  0.45594000000E+02  0.51100000000E-03 0. -1.
    9900012    2    1    2    0    0 -0.19456425563E+02  0.18478785934E+01 -0.25194301721E+02  0.59301953049E+02  0.50000016452E+02 0.  0.
        -12    1    1    2    0    0  0.19456425563E+02 -0.18478785934E+01  0.25194301721E+02  0.31886046951E+02  0.00000000000E+00 0.  1.
         11    1    3    3    0    0  0.19767024436E+01  0.15774175611E+02 -0.43658158565E+01  0.16486124988E+02  0.51100000000E-03 0. -1.
        -11    1    3    3    0    0 -0.23091761024E+01  0.24452476525E+01  0.54630365937E+01  0.64153175634E+01  0.51100000000E-03 0.  1.
         12    1    3    3    0    0 -0.19123951904E+02 -0.16371544670E+02 -0.26291522458E+02  0.36400510498E+02  0.00000000000E+00 0. -1.
</event>
<event>
 7    1  0.1338132E-011  0.5930200E+02  0.7816164E-02  0.1266605E+00
        -11   -1    0    0    0    0  0.00000000000E+00  0.00000000000E+00  0.45593999997E+02  0.45594000000E+02  0.51100000000E-03 0. -1.
         11   -1    0    0    0    0 -0.00000000000E+00 -0.00000000000E+00 -0.45593999997E+02  0.45594000000E+02  0.51100000000E-03 0.  1.
    9900012    2    1    2    0    0  0.11128107678E+02  0.28801575476E+02  0.79593571571E+01  0.59302001556E+02  0.50000104918E+02 0.  0.
        -12    1    1    2    0    0 -0.11128107678E+02 -0.28801575476E+02 -0.79593571571E+01  0.31885998444E+02  0.00000000000E+00 0.  1.
         11    1    3    3    0    0  0.25636305408E+01  0.19991184520E+02  0.15153511668E+02  0.25216038075E+02  0.51100000000E-03 0. -1.
        -11    1    3    3    0    0 -0.10968650394E+02 -0.15041832462E+01 -0.39757221812E+01  0.11763512478E+02  0.51100000000E-03 0.  1.
         12    1    3    3    0    0  0.19533127531E+02  0.10314574202E+02 -0.32184323299E+01  0.22322451003E+02  0.00000000000E+00 0. -1.
</event>
<event>
 7    1  0.1338132E-011  0.5930197E+02  0.7816164E-02  0.1266605E+00
        -11   -1    0    0    0    0  0.00000000000E+00  0.00000000000E+00  0.45593999997E+02  0.45594000000E+02  0.51100000000E-03 0.  1.
         11   -1    0    0    0    0 -0.00000000000E+00 -0.00000000000E+00 -0.45593999997E+02  0.45594000000E+02  0.51100000000E-03 0. -1.
    9900012    2    1    2    0    0 -0.41916100456E+00 -0.24606513492E+02 -0.20274678931E+02  0.59301971588E+02  0.50000050263E+02 0.  0.
        -12    1    1    2    0    0  0.41916100456E+00  0.24606513492E+02  0.20274678931E+02  0.31886028412E+02  0.00000000000E+00 0.  1.
         11    1    3    3    0    0  0.90891798039E+01  0.51788696642E+01 -0.11215198859E+02  0.15336706498E+02  0.51100000000E-03 0. -1.
        -11    1    3    3    0    0  0.10117770472E+02 -0.10400807683E+02  0.11397211377E+01  0.14554897605E+02  0.51100000000E-03 0.  1.
         12    1    3    3    0    0 -0.19626111280E+02 -0.19384575473E+02 -0.10199201210E+02  0.29410367484E+02  0.00000000000E+00 0. -1.
</event>
<event>
 7    1  0.1338132E-011  0.5930197E+02  0.7816164E-02  0.1266605E+00
        -11   -1    0    0    0    0  0.00000000000E+00  0.00000000000E+00  0.45593999997E+02  0.45594000000E+02  0.51100000000E-03 0.  1.
         11   -1    0    0    0    0 -0.00000000000E+00 -0.00000000000E+00 -0.45593999997E+02  0.45594000000E+02  0.51100000000E-03 0. -1.
    9900012    2    1    2    0    0 -0.11530704550E+02  0.20122113414E+02 -0.21882925696E+02  0.59301968063E+02  0.50000043834E+02 0.  0.
        -12    1    1    2    0    0  0.11530704550E+02 -0.20122113414E+02  0.21882925696E+02  0.31886031937E+02  0.00000000000E+00 0.  1.
         11    1    3    3    0    0  0.11611152754E+02 -0.10243716746E+01 -0.28194986060E+01  0.11992405024E+02  0.51100000000E-03 0. -1.
        -11    1    3    3    0    0 -0.77001086048E+01  0.15271248236E+01 -0.20849580252E+02  0.22278437550E+02  0.51100000000E-03 0.  1.
         12    1    3    3    0    0 -0.15441748699E+02  0.19619360265E+02  0.17861531615E+01  0.25031125489E+02  0.00000000000E+00 0. -1.
</event>
<event>
 7    1  0.1453517E-011  0.5930200E+02  0.7816164E-02  0.1266605E+00
        -11   -1    0    0    0    0  0.00000000000E+00  0.00000000000E+00  0.45593999997E+02  0.45594000000E+02  0.51100000000E-03 0.  1.
         11   -1    0    0    0    0 -0.00000000000E+00 -0.00000000000E+00 -0.45593999997E+02  0.45594000000E+02  0.51100000000E-03 0. -1.
    9900012    2    1    2    0    0 -0.26949950080E+02 -0.81711587951E+01  0.14954912287E+02  0.59301999202E+02  0.50000100624E+02 0.  0.
        -12    1    1    2    0    0  0.26949950080E+02  0.81711587951E+01 -0.14954912287E+02  0.31886000798E+02  0.00000000000E+00 0.  1.
         11    1    3    3    0    0 -0.24380472459E+02 -0.10146948637E+02  0.18408172492E+01  0.26471807879E+02  0.51100000000E-03 0. -1.
        -11    1    3    3    0    0 -0.13578038759E+02  0.95730888273E+01  0.86419824916E+01  0.18726746324E+02  0.51100000000E-03 0.  1.
        -12    1    3    3    0    0  0.11008561138E+02 -0.75972989856E+01  0.44721125459E+01  0.14103444999E+02  0.00000000000E+00 0.  1.
</event>
<event>
 7    1  0.1338132E-011  0.5930194E+02  0.7816164E-02  0.1266605E+00
        -11   -1    0    0    0    0  0.00000000000E+00  0.00000000000E+00  0.45593999997E+02  0.45594000000E+02  0.51100000000E-03 0. -1.
         11   -1    0    0    0    0 -0.00000000000E+00 -0.00000000000E+00 -0.45593999997E+02  0.45594000000E+02  0.51100000000E-03 0.  1.
    9900012    2    1    2    0    0 -0.30425479478E+02  0.95304304108E+01  0.42667265619E+00  0.59301937922E+02  0.49999988864E+02 0.  0.
        -12    1    1    2    0    0  0.30425479478E+02 -0.95304304108E+01 -0.42667265619E+00  0.31886062078E+02  0.00000000000E+00 0.  1.
         11    1    3    3    0    0 -0.75581121566E+01  0.31688310547E+01 -0.16057030482E+01  0.83513371483E+01  0.51100000000E-03 0.  1.
        -11    1    3    3    0    0 -0.32849104515E+02  0.42640834979E+00 -0.98888774432E+01  0.34307949354E+02  0.51100000000E-03 0. -1.
         12    1    3    3    0    0  0.99817371932E+01  0.59351910064E+01  0.11921253148E+02  0.16642651420E+02  0.00000000000E+00 0. -1.
</event>
<event>
 7    1  0.1338132E-011  0.5930192E+02  0.7816164E-02  0.1266605E+00
        -11   -1    0    0    0    0  0.00000000000E+00  0.00000000000E+00  0.45593999997E+02  0.45594000000E+02  0.51100000000E-03 0.  1.
         11   -1    0    0    0    0 -0.00000000000E+00 -0.00000000000E+00 -0.45593999997E+02  0.45594000000E+02  0.51100000000E-03 0. -1.
    9900012    2    1    2    0    0  0.53411939110E+01  0.30564620519E+02  0.73483154900E+01  0.59301919645E+02  0.49999955532E+02 0.  0.
        -12    1    1    2    0    0 -0.53411939110E+01 -0.30564620519E+02 -0.73483154900E+01  0.31886080355E+02  0.00000000000E+00 0.  1.
         11    1    3    3    0    0 -0.68399084164E+01  0.12106587696E+02 -0.67837449786E+01  0.15471684103E+02  0.51100000000E-03 0. -1.
        -11    1    3    3    0    0  0.15061568599E+01  0.42661753102E+01 -0.11665029028E+02  0.12511661071E+02  0.51100000000E-03 0.  1.
        -12    1    3    3    0    0  0.10674945468E+02  0.14191857513E+02  0.25797089497E+02  0.31318574471E+02  0.00000000000E+00 0.  1.
</event>
<event>
 7    1  0.1338132E-011  0.5930195E+02  0.7816164E-02  0.1266605E+00
        -11   -1    0    0    0    0  0.00000000000E+00  0.00000000000E+00  0.45593999997E+02  0.45594000000E+02  0.51100000000E-03 0.  1.
         11   -1    0    0    0    0 -0.00000000000E+00 -0.00000000000E+00 -0.45593999997E+02  0.45594000000E+02  0.51100000000E-03 0. -1.
    9900012    2    1    2    0    0  0.14035644141E+00 -0.31738082796E+02  0.30650539106E+01  0.59301950464E+02  0.50000011739E+02 0.  0.
        -12    1    1    2    0    0 -0.14035644141E+00  0.31738082796E+02 -0.30650539106E+01  0.31886049536E+02  0.00000000000E+00 0.  1.
         11    1    3    3    0    0 -0.20881213424E+00 -0.20255620368E+02 -0.43977856125E+01  0.20728586000E+02  0.51100000000E-03 0. -1.
        -11    1    3    3    0    0  0.11488926723E+02  0.41448383731E+00 -0.95998456300E+01  0.14977458746E+02  0.51100000000E-03 0.  1.
        -12    1    3    3    0    0 -0.11139758148E+02 -0.11896946265E+02  0.17062685153E+02  0.23595905718E+02  0.00000000000E+00 0.  1.
</event>
<event>
 7    1  0.1338132E-011  0.5930198E+02  0.7816164E-02  0.1266605E+00
        -11   -1    0    0    0    0  0.00000000000E+00  0.00000000000E+00  0.45593999997E+02  0.45594000000E+02  0.51100000000E-03 0.  1.
         11   -1    0    0    0    0 -0.00000000000E+00 -0.00000000000E+00 -0.45593999997E+02  0.45594000000E+02  0.51100000000E-03 0. -1.
    9900012    2    1    2    0    0 -0.17078173071E+02 -0.34848105283E+01 -0.26700382052E+02  0.59301979527E+02  0.50000064743E+02 0.  0.
        -12    1    1    2    0    0  0.17078173071E+02  0.34848105283E+01  0.26700382052E+02  0.31886020473E+02  0.00000000000E+00 0.  1.
         11    1    3    3    0    0 -0.68210182892E+01 -0.10061001236E+02 -0.76661740690E+01  0.14370812833E+02  0.51100000000E-03 0. -1.
        -11    1    3    3    0    0 -0.15562901823E+02 -0.12099227580E+02 -0.33991685246E+01  0.20003738853E+02  0.51100000000E-03 0.  1.
        -12    1    3    3    0    0  0.53057470413E+01  0.18675418288E+02 -0.15635039459E+02  0.24927427841E+02  0.00000000000E+00 0.  1.
</event>
<event>
 7    1  0.1338132E-011  0.5930193E+02  0.7816164E-02  0.1266605E+00
        -11   -1    0    0    0    0  0.00000000000E+00  0.00000000000E+00  0.45593999997E+02  0.45594000000E+02  0.51100000000E-03 0. -1.
         11   -1    0    0    0    0 -0.00000000000E+00 -0.00000000000E+00 -0.45593999997E+02  0.45594000000E+02  0.51100000000E-03 0.  1.
    9900012    2    1    2    0    0  0.13348443246E+02  0.27975970697E+02  0.74756575215E+01  0.59301932057E+02  0.49999978167E+02 0.  0.
        -12    1    1    2    0    0 -0.13348443246E+02 -0.27975970697E+02 -0.74756575215E+01  0.31886067943E+02  0.00000000000E+00 0.  1.
         11    1    3    3    0    0  0.10587044914E+02  0.48276205138E+01 -0.88636640259E+01  0.14627234191E+02  0.51100000000E-03 0.  1.
        -11    1    3    3    0    0  0.21037987646E+01  0.25483954805E+02  0.24951499984E+02  0.35727234339E+02  0.51100000000E-03 0. -1.
         12    1    3    3    0    0  0.65759956684E+00 -0.23356046221E+01 -0.86121784371E+01  0.89474635273E+01  0.00000000000E+00 0. -1.
</event>
<event>
 7    1  0.1338132E-011  0.5930199E+02  0.7816164E-02  0.1266605E+00
        -11   -1    0    0    0    0  0.00000000000E+00  0.00000000000E+00  0.45593999997E+02  0.45594000000E+02  0.51100000000E-03 0. -1.
         11   -1    0    0    0    0 -0.00000000000E+00 -0.00000000000E+00 -0.45593999997E+02  0.45594000000E+02  0.51100000000E-03 0.  1.
    9900012    2    1    2    0    0  0.15607178234E+02 -0.17954220966E+02  0.21231575613E+02  0.59301986359E+02  0.50000077202E+02 0.  0.
        -12    1    1    2    0    0 -0.15607178234E+02  0.17954220966E+02 -0.21231575613E+02  0.31886013641E+02  0.00000000000E+00 0.  1.
         11    1    3    3    0    0  0.10432185421E+02  0.59966791513E+01  0.18047027588E+02  0.21690685985E+02  0.51100000000E-03 0. -1.
        -11    1    3    3    0    0  0.16162917173E+02 -0.93111564141E+01  0.47244570245E+01  0.19242089797E+02  0.51100000000E-03 0.  1.
         12    1    3    3    0    0 -0.10987924361E+02 -0.14639743704E+02 -0.15399089995E+01  0.18369210576E+02  0.00000000000E+00 0. -1.
</event>
<event>
 7    1  0.1338132E-011  0.5930195E+02  0.7816164E-02  0.1266605E+00
        -11   -1    0    0    0    0  0.00000000000E+00  0.00000000000E+00  0.45593999997E+02  0.45594000000E+02  0.51100000000E-03 0.  1.
         11   -1    0    0    0    0 -0.00000000000E+00 -0.00000000000E+00 -0.45593999997E+02  0.45594000000E+02  0.51100000000E-03 0. -1.
    9900012    2    1    2    0    0 -0.35793065201E+01  0.17514948810E+02 -0.26403318521E+02  0.59301951391E+02  0.50000013429E+02 0.  0.
        -12    1    1    2    0    0  0.35793065201E+01 -0.17514948810E+02  0.26403318521E+02  0.31886048609E+02  0.00000000000E+00 0.  1.
         11    1    3    3    0    0  0.12022247744E+02  0.53679902455E+01 -0.78425758893E+01  0.15325004305E+02  0.51100000000E-03 0. -1.
        -11    1    3    3    0    0  0.44976494930E+01  0.15656400040E+02 -0.16952457436E+02  0.23510370617E+02  0.51100000000E-03 0.  1.
        -12    1    3    3    0    0 -0.20099203757E+02 -0.35094414753E+01 -0.16082851959E+01  0.20466576470E+02  0.00000000000E+00 0.  1.
</event>
<event>
 7    1  0.1338132E-011  0.5930198E+02  0.7816164E-02  0.1266605E+00
        -11   -1    0    0    0    0  0.00000000000E+00  0.00000000000E+00  0.45593999997E+02  0.45594000000E+02  0.51100000000E-03 0. -1.
         11   -1    0    0    0    0 -0.00000000000E+00 -0.00000000000E+00 -0.45593999997E+02  0.45594000000E+02  0.51100000000E-03 0.  1.
    9900012    2    1    2    0    0 -0.98134597502E+01  0.28841449111E+02 -0.94119781068E+01  0.59301976244E+02  0.50000058754E+02 0.  0.
        -12    1    1    2    0    0  0.98134597502E+01 -0.28841449111E+02  0.94119781068E+01  0.31886023756E+02  0.00000000000E+00 0.  1.
         11    1    3    3    0    0 -0.76956314356E+01  0.19135621348E+01  0.56922749739E+01  0.97614782628E+01  0.51100000000E-03 0. -1.
        -11    1    3    3    0    0 -0.77794858669E+01 -0.66362538511E+01  0.34272781650E+01  0.10784549198E+02  0.51100000000E-03 0.  1.
         12    1    3    3    0    0  0.56616575523E+01  0.33564140828E+02 -0.18531531246E+02  0.38755948783E+02  0.00000000000E+00 0. -1.
</event>
<event>
 7    1  0.1338132E-011  0.5930195E+02  0.7816164E-02  0.1266605E+00
        -11   -1    0    0    0    0  0.00000000000E+00  0.00000000000E+00  0.45593999997E+02  0.45594000000E+02  0.51100000000E-03 0.  1.
         11   -1    0    0    0    0 -0.00000000000E+00 -0.00000000000E+00 -0.45593999997E+02  0.45594000000E+02  0.51100000000E-03 0. -1.
    9900012    2    1    2    0    0  0.30892174047E+02  0.53405551012E+01  0.58199952742E+01  0.59301948330E+02  0.50000007845E+02 0.  0.
        -12    1    1    2    0    0 -0.30892174047E+02 -0.53405551012E+01 -0.58199952742E+01  0.31886051670E+02  0.00000000000E+00 0.  1.
         11    1    3    3    0    0  0.40149963321E+01 -0.18899763064E+02  0.43713605423E+01  0.19809846862E+02  0.51100000000E-03 0. -1.
        -11    1    3    3    0    0  0.12473709414E+02  0.28431263967E+01  0.44029256209E+01  0.13530060922E+02  0.51100000000E-03 0.  1.
        -12    1    3    3    0    0  0.14403468300E+02  0.21397191769E+02 -0.29542908890E+01  0.25962040546E+02  0.00000000000E+00 0.  1.
</event>
<event>
 7    1  0.1338132E-011  0.5930194E+02  0.7816164E-02  0.1266605E+00
        -11   -1    0    0    0    0  0.00000000000E+00  0.00000000000E+00  0.45593999997E+02  0.45594000000E+02  0.51100000000E-03 0.  1.
         11   -1    0    0    0    0 -0.00000000000E+00 -0.00000000000E+00 -0.45593999997E+02  0.45594000000E+02  0.51100000000E-03 0. -1.
    9900012    2    1    2    0    0  0.67196846783E+00  0.24718480955E+02 -0.20131219179E+02  0.59301939911E+02  0.49999992492E+02 0.  0.
        -12    1    1    2    0    0 -0.67196846783E+00 -0.24718480955E+02  0.20131219179E+02  0.31886060089E+02  0.00000000000E+00 0.  1.
         11    1    3    3    0    0 -0.12152022960E+01 -0.26314688860E+01  0.11554324559E+02  0.11912336521E+02  0.51100000000E-03 0.  1.
        -11    1    3    3    0    0  0.89663233239E+01  0.41433115798E+01 -0.42162854093E+01  0.10739601841E+02  0.51100000000E-03 0. -1.
        -12    1    3    3    0    0 -0.70791525600E+01  0.23206638262E+02 -0.27469258329E+02  0.36650001549E+02  0.00000000000E+00 0.  1.
</event>
<event>
 7    1  0.1338132E-011  0.5930198E+02  0.7816164E-02  0.1266605E+00
        -11   -1    0    0    0    0  0.00000000000E+00  0.00000000000E+00  0.45593999997E+02  0.45594000000E+02  0.51100000000E-03 0.  1.
         11   -1    0    0    0    0 -0.00000000000E+00 -0.00000000000E+00 -0.45593999997E+02  0.45594000000E+02  0.51100000000E-03 0. -1.
    9900012    2    1    2    0    0 -0.21154825594E+02 -0.22380667745E+02 -0.82642188988E+01  0.59301980358E+02  0.50000066258E+02 0.  0.
        -12    1    1    2    0    0  0.21154825594E+02  0.22380667745E+02  0.82642188988E+01  0.31886019642E+02  0.00000000000E+00 0.  1.
         11    1    3    3    0    0  0.20674618063E+01 -0.16442974972E+02 -0.76166651692E+01  0.18238953172E+02  0.51100000000E-03 0. -1.
        -11    1    3    3    0    0  0.55179082370E-01 -0.13807795066E+02  0.67942057787E+01  0.15388940241E+02  0.51100000000E-03 0.  1.
        -12    1    3    3    0    0 -0.23277466482E+02  0.78701022925E+01 -0.74417595083E+01  0.25674086946E+02  0.00000000000E+00 0.  1.
</event>
<event>
 7    1  0.1338132E-011  0.5930193E+02  0.7816164E-02  0.1266605E+00
        -11   -1    0    0    0    0  0.00000000000E+00  0.00000000000E+00  0.45593999997E+02  0.45594000000E+02  0.51100000000E-03 0.  1.
         11   -1    0    0    0    0 -0.00000000000E+00 -0.00000000000E+00 -0.45593999997E+02  0.45594000000E+02  0.51100000000E-03 0. -1.
    9900012    2    1    2    0    0 -0.27058053358E+02  0.10404572631E+02 -0.13278866358E+02  0.59301926631E+02  0.49999968272E+02 0.  0.
        -12    1    1    2    0    0  0.27058053358E+02 -0.10404572631E+02  0.13278866358E+02  0.31886073369E+02  0.00000000000E+00 0.  1.
         11    1    3    3    0    0 -0.22919854742E+02 -0.29624208987E+01 -0.25080186259E+02  0.34104419392E+02  0.51100000000E-03 0. -1.
        -11    1    3    3    0    0 -0.33257797389E+00 -0.37790664964E+01 -0.39591223896E+00  0.38142756135E+01  0.51100000000E-03 0.  1.
         12    1    3    3    0    0 -0.38056206418E+01  0.17146060026E+02  0.12197232140E+02  0.21383231625E+02  0.00000000000E+00 0. -1.
</event>
<event>
 7    1  0.1338132E-011  0.5930196E+02  0.7816164E-02  0.1266605E+00
        -11   -1    0    0    0    0  0.00000000000E+00  0.00000000000E+00  0.45593999997E+02  0.45594000000E+02  0.51100000000E-03 0. -1.
         11   -1    0    0    0    0 -0.00000000000E+00 -0.00000000000E+00 -0.45593999997E+02  0.45594000000E+02  0.51100000000E-03 0.  1.
    9900012    2    1    2    0    0  0.29386346188E+02  0.10232580169E+02  0.69610564647E+01  0.59301963145E+02  0.50000034865E+02 0.  0.
        -12    1    1    2    0    0 -0.29386346188E+02 -0.10232580169E+02 -0.69610564647E+01  0.31886036855E+02  0.00000000000E+00 0.  1.
         11    1    3    3    0    0 -0.77047294338E+00 -0.19415020217E+01  0.17617032995E+01  0.27325185147E+01  0.51100000000E-03 0. -1.
        -11    1    3    3    0    0 -0.37560859618E+01 -0.59842976142E+01 -0.12395899495E+02  0.14268087617E+02  0.51100000000E-03 0.  1.
         12    1    3    3    0    0  0.33912905093E+02  0.18158379805E+02  0.17595252660E+02  0.42301357014E+02  0.00000000000E+00 0. -1.
</event>
<event>
 7    1  0.1338132E-011  0.5930214E+02  0.7816164E-02  0.1266604E+00
        -11   -1    0    0    0    0  0.00000000000E+00  0.00000000000E+00  0.45593999997E+02  0.45594000000E+02  0.51100000000E-03 0.  1.
         11   -1    0    0    0    0 -0.00000000000E+00 -0.00000000000E+00 -0.45593999997E+02  0.45594000000E+02  0.51100000000E-03 0. -1.
    9900012    2    1    2    0    0  0.55643398606E+01  0.22105301865E+02  0.22295776342E+02  0.59302142769E+02  0.50000362455E+02 0.  0.
        -12    1    1    2    0    0 -0.55643398606E+01 -0.22105301865E+02 -0.22295776342E+02  0.31885857231E+02  0.00000000000E+00 0.  1.
         11    1    3    3    0    0 -0.35999800631E+01 -0.37438001106E+01 -0.34698150590E+00  0.52054098926E+01  0.51100000000E-03 0. -1.
        -11    1    3    3    0    0 -0.10697218326E+02 -0.54822158506E+01  0.60917434494E+01  0.13475700689E+02  0.51100000000E-03 0.  1.
         12    1    3    3    0    0  0.19861538249E+02  0.31331317827E+02  0.16551014399E+02  0.40621032188E+02  0.00000000000E+00 0. -1.
</event>
<event>
 7    1  0.1338132E-011  0.5930194E+02  0.7816164E-02  0.1266605E+00
        -11   -1    0    0    0    0  0.00000000000E+00  0.00000000000E+00  0.45593999997E+02  0.45594000000E+02  0.51100000000E-03 0.  1.
         11   -1    0    0    0    0 -0.00000000000E+00 -0.00000000000E+00 -0.45593999997E+02  0.45594000000E+02  0.51100000000E-03 0. -1.
    9900012    2    1    2    0    0 -0.11956342130E+02 -0.26772611387E+02 -0.12529733602E+02  0.59301936245E+02  0.49999985807E+02 0.  0.
        -12    1    1    2    0    0  0.11956342130E+02  0.26772611387E+02  0.12529733602E+02  0.31886063755E+02  0.00000000000E+00 0.  1.
         11    1    3    3    0    0 -0.99507460972E+01 -0.20057091723E+02 -0.32966340642E+00  0.22392252109E+02  0.51100000000E-03 0. -1.
        -11    1    3    3    0    0  0.12712143198E+02  0.71733009140E+01 -0.49030523226E+01  0.15397881447E+02  0.51100000000E-03 0.  1.
         12    1    3    3    0    0 -0.14717739231E+02 -0.13888820578E+02 -0.72970178731E+01  0.21511802690E+02  0.00000000000E+00 0. -1.
</event>
<event>
 7    1  0.1338132E-011  0.5930188E+02  0.7816164E-02  0.1266605E+00
        -11   -1    0    0    0    0  0.00000000000E+00  0.00000000000E+00  0.45593999997E+02  0.45594000000E+02  0.51100000000E-03 0.  1.
         11   -1    0    0    0    0 -0.00000000000E+00 -0.00000000000E+00 -0.45593999997E+02  0.45594000000E+02  0.51100000000E-03 0. -1.
    9900012    2    1    2    0    0  0.12490649842E+02 -0.49830161287E+01 -0.28911552902E+02  0.59301879596E+02  0.49999882492E+02 0.  0.
        -12    1    1    2    0    0 -0.12490649842E+02  0.49830161287E+01  0.28911552902E+02  0.31886120404E+02  0.00000000000E+00 0.  1.
         11    1    3    3    0    0  0.26016952046E+02 -0.27676483978E+00 -0.26377041565E+02  0.37050056876E+02  0.51100000000E-03 0. -1.
        -11    1    3    3    0    0  0.12784789074E+01 -0.46636400652E+01  0.37986257857E+01  0.61492767945E+01  0.51100000000E-03 0.  1.
        -12    1    3    3    0    0 -0.14804781111E+02 -0.42611223676E-01 -0.63331371227E+01  0.16102545926E+02  0.00000000000E+00 0.  1.
</event>
<event>
 7    1  0.1338132E-011  0.5930198E+02  0.7816164E-02  0.1266605E+00
        -11   -1    0    0    0    0  0.00000000000E+00  0.00000000000E+00  0.45593999997E+02  0.45594000000E+02  0.51100000000E-03 0.  1.
         11   -1    0    0    0    0 -0.00000000000E+00 -0.00000000000E+00 -0.45593999997E+02  0.45594000000E+02  0.51100000000E-03 0. -1.
    9900012    2    1    2    0    0  0.29304451608E+02  0.12471671522E+02 -0.15571655585E+01  0.59301980506E+02  0.50000066528E+02 0.  0.
        -12    1    1    2    0    0 -0.29304451608E+02 -0.12471671522E+02  0.15571655585E+01  0.31886019494E+02  0.00000000000E+00 0.  1.
         11    1    3    3    0    0  0.17438740859E+02  0.13185623563E+02 -0.67373487877E+01  0.22877111278E+02  0.51100000000E-03 0. -1.
        -11    1    3    3    0    0 -0.45262446642E+01  0.13305126314E+02 -0.69082373362E+00  0.14070910229E+02  0.51100000000E-03 0.  1.
        -12    1    3    3    0    0  0.16391955413E+02 -0.14019078355E+02  0.58710069628E+01  0.22353958999E+02  0.00000000000E+00 0.  1.
</event>
<event>
 7    1  0.1338132E-011  0.5930198E+02  0.7816164E-02  0.1266605E+00
        -11   -1    0    0    0    0  0.00000000000E+00  0.00000000000E+00  0.45593999997E+02  0.45594000000E+02  0.51100000000E-03 0.  1.
         11   -1    0    0    0    0 -0.00000000000E+00 -0.00000000000E+00 -0.45593999997E+02  0.45594000000E+02  0.51100000000E-03 0. -1.
    9900012    2    1    2    0    0  0.21027255175E+02 -0.20505158038E+02 -0.12414146085E+02  0.59301984423E+02  0.50000073671E+02 0.  0.
        -12    1    1    2    0    0 -0.21027255175E+02  0.20505158038E+02  0.12414146085E+02  0.31886015577E+02  0.00000000000E+00 0.  1.
         11    1    3    3    0    0  0.22822603751E+01  0.13095008468E+02  0.20094756093E+01  0.13443435264E+02  0.51100000000E-03 0.  1.
        -11    1    3    3    0    0  0.76955310930E+01 -0.17475041734E+02  0.34119727126E+01  0.19396902857E+02  0.51100000000E-03 0. -1.
        -12    1    3    3    0    0  0.11049463707E+02 -0.16125124773E+02 -0.17835594407E+02  0.26461646302E+02  0.00000000000E+00 0.  1.
</event>
<event>
 7    1  0.1338132E-011  0.5930196E+02  0.7816164E-02  0.1266605E+00
        -11   -1    0    0    0    0  0.00000000000E+00  0.00000000000E+00  0.45593999997E+02  0.45594000000E+02  0.51100000000E-03 0.  1.
         11   -1    0    0    0    0 -0.00000000000E+00 -0.00000000000E+00 -0.45593999997E+02  0.45594000000E+02  0.51100000000E-03 0. -1.
    9900012    2    1    2    0    0 -0.23465121561E+02  0.16107943604E+02 -0.14375040815E+02  0.59301959551E+02  0.50000028312E+02 0.  0.
        -12    1    1    2    0    0  0.23465121561E+02 -0.16107943604E+02  0.14375040815E+02  0.31886040449E+02  0.00000000000E+00 0.  1.
         11    1    3    3    0    0 -0.98544299325E+01  0.11726324561E+02 -0.11524117818E+02  0.19168248974E+02  0.51100000000E-03 0. -1.
        -11    1    3    3    0    0  0.11119358150E+02 -0.63814122033E+01  0.11330227145E+01  0.12870364724E+02  0.51100000000E-03 0.  1.
         12    1    3    3    0    0 -0.24730049779E+02  0.10763031247E+02 -0.39839457120E+01  0.27263345854E+02  0.00000000000E+00 0. -1.
</event>
<event>
 7    1  0.1338132E-011  0.5930194E+02  0.7816164E-02  0.1266605E+00
        -11   -1    0    0    0    0  0.00000000000E+00  0.00000000000E+00  0.45593999997E+02  0.45594000000E+02  0.51100000000E-03 0. -1.
         11   -1    0    0    0    0 -0.00000000000E+00 -0.00000000000E+00 -0.45593999997E+02  0.45594000000E+02  0.51100000000E-03 0.  1.
    9900012    2    1    2    0    0 -0.18276388094E+02 -0.26126981522E+02 -0.27436830288E+00  0.59301940301E+02  0.49999993202E+02 0.  0.
        -12    1    1    2    0    0  0.18276388094E+02  0.26126981522E+02  0.27436830288E+00  0.31886059699E+02  0.00000000000E+00 0.  1.
         11    1    3    3    0    0  0.66007944687E+01  0.42118225174E+01  0.84482325039E+01  0.11518792004E+02  0.51100000000E-03 0. -1.
        -11    1    3    3    0    0 -0.16770744400E+01  0.46382253409E+01 -0.91167531510E-01  0.49329529463E+01  0.51100000000E-03 0.  1.
         12    1    3    3    0    0 -0.23200108122E+02 -0.34977029380E+02 -0.86314332753E+01  0.42850195350E+02  0.00000000000E+00 0. -1.
</event>
<event>
 7    1  0.1338132E-011  0.5930195E+02  0.7816164E-02  0.1266605E+00
        -11   -1    0    0    0    0  0.00000000000E+00  0.00000000000E+00  0.45593999997E+02  0.45594000000E+02  0.51100000000E-03 0.  1.
         11   -1    0    0    0    0 -0.00000000000E+00 -0.00000000000E+00 -0.45593999997E+02  0.45594000000E+02  0.51100000000E-03 0. -1.
    9900012    2    1    2    0    0  0.25996471154E+02 -0.10149807288E+02 -0.15423525540E+02  0.59301949123E+02  0.50000009293E+02 0.  0.
        -12    1    1    2    0    0 -0.25996471154E+02  0.10149807288E+02  0.15423525540E+02  0.31886050877E+02  0.00000000000E+00 0.  1.
         11    1    3    3    0    0 -0.76839193509E+01 -0.18139583349E+01 -0.14652558822E+02  0.16644234489E+02  0.51100000000E-03 0. -1.
        -11    1    3    3    0    0  0.16053721166E+02 -0.10261948333E+02 -0.11185365843E+02  0.22093934828E+02  0.51100000000E-03 0.  1.
        -12    1    3    3    0    0  0.17626669338E+02  0.19260993800E+01  0.10414399125E+02  0.20563779807E+02  0.00000000000E+00 0.  1.
</event>
<event>
 7    1  0.1338132E-011  0.5930198E+02  0.7816164E-02  0.1266605E+00
        -11   -1    0    0    0    0  0.00000000000E+00  0.00000000000E+00  0.45593999997E+02  0.45594000000E+02  0.51100000000E-03 0.  1.
         11   -1    0    0    0    0 -0.00000000000E+00 -0.00000000000E+00 -0.45593999997E+02  0.45594000000E+02  0.51100000000E-03 0. -1.
    9900012    2    1    2    0    0  0.16450489259E+02 -0.21865229107E+02  0.16371057616E+02  0.59301978482E+02  0.50000062836E+02 0.  0.
        -12    1    1    2    0    0 -0.16450489259E+02  0.21865229107E+02 -0.16371057616E+02  0.31886021518E+02  0.00000000000E+00 0.  1.
         11    1    3    3    0    0  0.16896263647E+02  0.16919086175E+01  0.97980863565E+01  0.19604815136E+02  0.51100000000E-03 0. -1.
        -11    1    3    3    0    0  0.11257024575E+02 -0.20828408605E+02  0.11963521384E+02  0.26526761044E+02  0.51100000000E-03 0.  1.
         12    1    3    3    0    0 -0.11702798962E+02 -0.27287291199E+01 -0.53905501246E+01  0.13170402303E+02  0.00000000000E+00 0. -1.
</event>
<event>
 7    1  0.1338132E-011  0.5930193E+02  0.7816164E-02  0.1266605E+00
        -11   -1    0    0    0    0  0.00000000000E+00  0.00000000000E+00  0.45593999997E+02  0.45594000000E+02  0.51100000000E-03 0. -1.
         11   -1    0    0    0    0 -0.00000000000E+00 -0.00000000000E+00 -0.45593999997E+02  0.45594000000E+02  0.51100000000E-03 0.  1.
    9900012    2    1    2    0    0 -0.28134230030E+02  0.14627245422E+02 -0.33511614943E+01  0.59301929508E+02  0.49999973520E+02 0.  0.
        -12    1    1    2    0    0  0.28134230030E+02 -0.14627245422E+02  0.33511614943E+01  0.31886070492E+02  0.00000000000E+00 0.  1.
         11    1    3    3    0    0 -0.15341096266E+02  0.12204121086E+02 -0.60258223969E+01  0.20508543145E+02  0.51100000000E-03 0. -1.
        -11    1    3    3    0    0 -0.15535685363E+02  0.18797405539E+00 -0.14503733248E+02  0.21254437944E+02  0.51100000000E-03 0.  1.
        -12    1    3    3    0    0  0.27425515987E+01  0.22351502804E+01  0.17178394150E+02  0.17538948419E+02  0.00000000000E+00 0.  1.
</event>
<event>
 7    1  0.1338132E-011  0.5930188E+02  0.7816164E-02  0.1266605E+00
        -11   -1    0    0    0    0  0.00000000000E+00  0.00000000000E+00  0.45593999997E+02  0.45594000000E+02  0.51100000000E-03 0.  1.
         11   -1    0    0    0    0 -0.00000000000E+00 -0.00000000000E+00 -0.45593999997E+02  0.45594000000E+02  0.51100000000E-03 0. -1.
    9900012    2    1    2    0    0  0.18253344221E+02 -0.25925019672E+02  0.33813387620E+01  0.59301879633E+02  0.49999882559E+02 0.  0.
        -12    1    1    2    0    0 -0.18253344221E+02  0.25925019672E+02 -0.33813387620E+01  0.31886120367E+02  0.00000000000E+00 0.  1.
         11    1    3    3    0    0  0.12631049288E+02 -0.18291975304E+02 -0.12928439813E+02  0.25715449109E+02  0.51100000000E-03 0. -1.
        -11    1    3    3    0    0  0.16721226866E+02 -0.45311662346E+01  0.12798684056E+02  0.21539201683E+02  0.51100000000E-03 0.  1.
         12    1    3    3    0    0 -0.11098931932E+02 -0.31018781339E+01  0.35110945196E+01  0.12047228840E+02  0.00000000000E+00 0. -1.
</event>
<event>
 7    1  0.1338132E-011  0.5930194E+02  0.7816164E-02  0.1266605E+00
        -11   -1    0    0    0    0  0.00000000000E+00  0.00000000000E+00  0.45593999997E+02  0.45594000000E+02  0.51100000000E-03 0.  1.
         11   -1    0    0    0    0 -0.00000000000E+00 -0.00000000000E+00 -0.45593999997E+02  0.45594000000E+02  0.51100000000E-03 0. -1.
    9900012    2    1    2    0    0 -0.35359559151E+01 -0.24941789697E+02 -0.19548013414E+02  0.59301942139E+02  0.49999996555E+02 0.  0.
        -12    1    1    2    0    0  0.35359559151E+01  0.24941789697E+02  0.19548013414E+02  0.31886057861E+02  0.00000000000E+00 0.  1.
         11    1    3    3    0    0 -0.12831654506E+02 -0.14853630910E+02 -0.13894975229E+02  0.24048951026E+02  0.51100000000E-03 0.  1.
        -11    1    3    3    0    0 -0.50127740163E+00 -0.62285915822E+01 -0.17983541529E+02  0.19038235168E+02  0.51100000000E-03 0. -1.
        -12    1    3    3    0    0  0.97969759929E+01 -0.38595672040E+01  0.12330503344E+02  0.16214755944E+02  0.00000000000E+00 0.  1.
</event>
<event>
 7    1  0.1338132E-011  0.5930198E+02  0.7816164E-02  0.1266605E+00
        -11   -1    0    0    0    0  0.00000000000E+00  0.00000000000E+00  0.45593999997E+02  0.45594000000E+02  0.51100000000E-03 0. -1.
         11   -1    0    0    0    0 -0.00000000000E+00 -0.00000000000E+00 -0.45593999997E+02  0.45594000000E+02  0.51100000000E-03 0.  1.
    9900012    2    1    2    0    0 -0.22803933692E+02 -0.11494552639E+02  0.19093823299E+02  0.59301980801E+02  0.50000067065E+02 0.  0.
        -12    1    1    2    0    0  0.22803933692E+02  0.11494552639E+02 -0.19093823299E+02  0.31886019199E+02  0.00000000000E+00 0.  1.
         11    1    3    3    0    0 -0.50169640958E+01 -0.12038620844E+02  0.27873227547E+02  0.30773611012E+02  0.51100000000E-03 0. -1.
        -11    1    3    3    0    0 -0.20128652098E+01 -0.69811034441E+01  0.25504167833E+01  0.77001336144E+01  0.51100000000E-03 0.  1.
        -12    1    3    3    0    0 -0.15774104386E+02  0.75251716494E+01 -0.11329821031E+02  0.20828236174E+02  0.00000000000E+00 0.  1.
</event>
<event>
 7    1  0.1338132E-011  0.5930193E+02  0.7816164E-02  0.1266605E+00
        -11   -1    0    0    0    0  0.00000000000E+00  0.00000000000E+00  0.45593999997E+02  0.45594000000E+02  0.51100000000E-03 0. -1.
         11   -1    0    0    0    0 -0.00000000000E+00 -0.00000000000E+00 -0.45593999997E+02  0.45594000000E+02  0.51100000000E-03 0.  1.
    9900012    2    1    2    0    0 -0.27975078263E+02 -0.15222715276E+02  0.15444202622E+01  0.59301932539E+02  0.49999979048E+02 0.  0.
        -12    1    1    2    0    0  0.27975078263E+02  0.15222715276E+02 -0.15444202622E+01  0.31886067461E+02  0.00000000000E+00 0.  1.
         11    1    3    3    0    0 -0.93768381885E+01 -0.21444905238E+01 -0.49571096935E+01  0.10821130754E+02  0.51100000000E-03 0. -1.
        -11    1    3    3    0    0  0.12097280693E+02 -0.14226375508E+01 -0.57060551158E+01  0.13450916809E+02  0.51100000000E-03 0.  1.
         12    1    3    3    0    0 -0.30695520767E+02 -0.11655587201E+02  0.12207585072E+02  0.35029884976E+02  0.00000000000E+00 0. -1.
</event>
<event>
 7    1  0.1338132E-011  0.5930191E+02  0.7816164E-02  0.1266605E+00
        -11   -1    0    0    0    0  0.00000000000E+00  0.00000000000E+00  0.45593999997E+02  0.45594000000E+02  0.51100000000E-03 0.  1.
         11   -1    0    0    0    0 -0.00000000000E+00 -0.00000000000E+00 -0.45593999997E+02  0.45594000000E+02  0.51100000000E-03 0. -1.
    9900012    2    1    2    0    0 -0.20641400926E+02 -0.14167405084E+02 -0.19746900534E+02  0.59301907739E+02  0.49999933817E+02 0.  0.
        -12    1    1    2    0    0  0.20641400926E+02  0.14167405084E+02  0.19746900534E+02  0.31886092261E+02  0.00000000000E+00 0.  1.
         11    1    3    3    0    0 -0.12479446305E+02 -0.39470194282E+01 -0.21395440401E+02  0.25081475488E+02  0.51100000000E-03 0.  1.
        -11    1    3    3    0    0  0.80833215764E+01 -0.10603514301E+02 -0.77763397518E+01  0.15435221522E+02  0.51100000000E-03 0. -1.
        -12    1    3    3    0    0 -0.16245276198E+02  0.38312864508E+00  0.94248796186E+01  0.18785210729E+02  0.00000000000E+00 0.  1.
</event>
<event>
 7    1  0.1338132E-011  0.5930195E+02  0.7816164E-02  0.1266605E+00
        -11   -1    0    0    0    0  0.00000000000E+00  0.00000000000E+00  0.45593999997E+02  0.45594000000E+02  0.51100000000E-03 0. -1.
         11   -1    0    0    0    0 -0.00000000000E+00 -0.00000000000E+00 -0.45593999997E+02  0.45594000000E+02  0.51100000000E-03 0.  1.
    9900012    2    1    2    0    0  0.23470103048E+02 -0.11225539250E+02  0.18435344153E+02  0.59301946895E+02  0.50000005229E+02 0.  0.
        -12    1    1    2    0    0 -0.23470103048E+02  0.11225539250E+02 -0.18435344153E+02  0.31886053105E+02  0.00000000000E+00 0.  1.
         11    1    3    3    0    0  0.15510127973E+02 -0.10315267996E+02 -0.91843353944E+01  0.20768265225E+02  0.51100000000E-03 0. -1.
        -11    1    3    3    0    0 -0.94041427041E+01 -0.12874816649E+01  0.92623127361E+01  0.13262199913E+02  0.51100000000E-03 0.  1.
        -12    1    3    3    0    0  0.17364117780E+02  0.37721041095E+00  0.18357366812E+02  0.25271481757E+02  0.00000000000E+00 0.  1.
</event>
<event>
 7    1  0.1338132E-011  0.5930195E+02  0.7816164E-02  0.1266605E+00
        -11   -1    0    0    0    0  0.00000000000E+00  0.00000000000E+00  0.45593999997E+02  0.45594000000E+02  0.51100000000E-03 0. -1.
         11   -1    0    0    0    0 -0.00000000000E+00 -0.00000000000E+00 -0.45593999997E+02  0.45594000000E+02  0.51100000000E-03 0.  1.
    9900012    2    1    2    0    0 -0.22383575009E+02 -0.76929326236E+01  0.21366207339E+02  0.59301945704E+02  0.50000003057E+02 0.  0.
        -12    1    1    2    0    0  0.22383575009E+02  0.76929326236E+01 -0.21366207339E+02  0.31886054296E+02  0.00000000000E+00 0.  1.
         11    1    3    3    0    0  0.73852651429E+01  0.29049699485E+01  0.58683028539E+01  0.98700542186E+01  0.51100000000E-03 0. -1.
        -11    1    3    3    0    0 -0.34143919883E-02 -0.15627827518E+02  0.10514983676E+02  0.18835973205E+02  0.51100000000E-03 0.  1.
         12    1    3    3    0    0 -0.29765425760E+02  0.50299249464E+01  0.49829208093E+01  0.30595918281E+02  0.00000000000E+00 0. -1.
</event>
<event>
 7    1  0.1338132E-011  0.5930193E+02  0.7816164E-02  0.1266605E+00
        -11   -1    0    0    0    0  0.00000000000E+00  0.00000000000E+00  0.45593999997E+02  0.45594000000E+02  0.51100000000E-03 0.  1.
         11   -1    0    0    0    0 -0.00000000000E+00 -0.00000000000E+00 -0.45593999997E+02  0.45594000000E+02  0.51100000000E-03 0. -1.
    9900012    2    1    2    0    0 -0.14866743537E+02 -0.28188690505E+02  0.10483103062E+01  0.59301932662E+02  0.49999979272E+02 0.  0.
        -12    1    1    2    0    0  0.14866743537E+02  0.28188690505E+02 -0.10483103062E+01  0.31886067338E+02  0.00000000000E+00 0.  1.
         11    1    3    3    0    0 -0.16839051372E+02 -0.24013576892E+02 -0.11223360584E+02  0.31403333411E+02  0.51100000000E-03 0. -1.
        -11    1    3    3    0    0  0.74295863006E+01 -0.12786854353E+02  0.62272485851E+01  0.16046215194E+02  0.51100000000E-03 0.  1.
         12    1    3    3    0    0 -0.54572784656E+01  0.86117407406E+01  0.60444223055E+01  0.11852384057E+02  0.00000000000E+00 0. -1.
</event>
<event>
 7    1  0.1338132E-011  0.5930196E+02  0.7816164E-02  0.1266605E+00
        -11   -1    0    0    0    0  0.00000000000E+00  0.00000000000E+00  0.45593999997E+02  0.45594000000E+02  0.51100000000E-03 0. -1.
         11   -1    0    0    0    0 -0.00000000000E+00 -0.00000000000E+00 -0.45593999997E+02  0.45594000000E+02  0.51100000000E-03 0.  1.
    9900012    2    1    2    0    0  0.12136140969E+02  0.25150590170E+01  0.29378705441E+02  0.59301956456E+02  0.50000022666E+02 0.  0.
        -12    1    1    2    0    0 -0.12136140969E+02 -0.25150590170E+01 -0.29378705441E+02  0.31886043544E+02  0.00000000000E+00 0.  1.
         11    1    3    3    0    0 -0.42091859290E+01 -0.62136229742E-01  0.35965153342E+02  0.36210680223E+02  0.51100000000E-03 0. -1.
        -11    1    3    3    0    0  0.39712221405E+01  0.29108010371E+01  0.43526163642E+01  0.65718062541E+01  0.51100000000E-03 0.  1.
        -12    1    3    3    0    0  0.12374104758E+02 -0.33360579033E+00 -0.10939064264E+02  0.16519469978E+02  0.00000000000E+00 0.  1.
</event>
<event>
 7    1  0.1338132E-011  0.5930193E+02  0.7816164E-02  0.1266605E+00
        -11   -1    0    0    0    0  0.00000000000E+00  0.00000000000E+00  0.45593999997E+02  0.45594000000E+02  0.51100000000E-03 0. -1.
         11   -1    0    0    0    0 -0.00000000000E+00 -0.00000000000E+00 -0.45593999997E+02  0.45594000000E+02  0.51100000000E-03 0.  1.
    9900012    2    1    2    0    0 -0.49002436313E+01  0.24070443186E+02  0.20330341025E+02  0.59301931114E+02  0.49999976448E+02 0.  0.
        -12    1    1    2    0    0  0.49002436313E+01 -0.24070443186E+02 -0.20330341025E+02  0.31886068886E+02  0.00000000000E+00 0.  1.
         11    1    3    3    0    0  0.10008149003E+02  0.54244669825E+01  0.22846184084E+01  0.11610657606E+02  0.51100000000E-03 0. -1.
        -11    1    3    3    0    0 -0.10439763431E+02  0.16140113970E+02 -0.82378643132E+01  0.20913018629E+02  0.51100000000E-03 0.  1.
         12    1    3    3    0    0 -0.44686292030E+01  0.25058622335E+01  0.26283586930E+02  0.26778254880E+02  0.00000000000E+00 0. -1.
</event>
<event>
 7    1  0.1338132E-011  0.5930203E+02  0.7816164E-02  0.1266604E+00
        -11   -1    0    0    0    0  0.00000000000E+00  0.00000000000E+00  0.45593999997E+02  0.45594000000E+02  0.51100000000E-03 0.  1.
         11   -1    0    0    0    0 -0.00000000000E+00 -0.00000000000E+00 -0.45593999997E+02  0.45594000000E+02  0.51100000000E-03 0. -1.
    9900012    2    1    2    0    0 -0.18153099048E+02 -0.25338420725E+02 -0.67189509973E+01  0.59302033300E+02  0.50000162810E+02 0.  0.
        -12    1    1    2    0    0  0.18153099048E+02  0.25338420725E+02  0.67189509973E+01  0.31885966700E+02  0.00000000000E+00 0.  1.
         11    1    3    3    0    0 -0.51149206099E+01  0.72589939147E+01  0.11312924828E+01  0.89518282179E+01  0.51100000000E-03 0. -1.
        -11    1    3    3    0    0 -0.39105385888E+01 -0.10830157519E+02  0.14040427145E+02  0.18158144691E+02  0.51100000000E-03 0.  1.
        -12    1    3    3    0    0 -0.91276398496E+01 -0.21767257121E+02 -0.21890670625E+02  0.32192060391E+02  0.00000000000E+00 0.  1.
</event>
<event>
 7    1  0.1338132E-011  0.5930188E+02  0.7816164E-02  0.1266605E+00
        -11   -1    0    0    0    0  0.00000000000E+00  0.00000000000E+00  0.45593999997E+02  0.45594000000E+02  0.51100000000E-03 0.  1.
         11   -1    0    0    0    0 -0.00000000000E+00 -0.00000000000E+00 -0.45593999997E+02  0.45594000000E+02  0.51100000000E-03 0. -1.
    9900012    2    1    2    0    0  0.20383542747E+02 -0.44235797852E+01 -0.24117790777E+02  0.59301879116E+02  0.49999881617E+02 0.  0.
        -12    1    1    2    0    0 -0.20383542747E+02  0.44235797852E+01  0.24117790777E+02  0.31886120884E+02  0.00000000000E+00 0.  1.
         11    1    3    3    0    0  0.13842613373E+02  0.58655211591E+01 -0.95884984411E+01  0.17831477395E+02  0.51100000000E-03 0. -1.
        -11    1    3    3    0    0  0.12092489319E+02  0.10079055146E+02 -0.12798584281E+02  0.20288405813E+02  0.51100000000E-03 0.  1.
        -12    1    3    3    0    0 -0.55515599451E+01 -0.20368156090E+02 -0.17307080553E+01  0.21181995909E+02  0.00000000000E+00 0.  1.
</event>
<event>
 7    1  0.1338132E-011  0.5930194E+02  0.7816164E-02  0.1266605E+00
        -11   -1    0    0    0    0  0.00000000000E+00  0.00000000000E+00  0.45593999997E+02  0.45594000000E+02  0.51100000000E-03 0.  1.
         11   -1    0    0    0    0 -0.00000000000E+00 -0.00000000000E+00 -0.45593999997E+02  0.45594000000E+02  0.51100000000E-03 0. -1.
    9900012    2    1    2    0    0  0.17296917716E+02 -0.24869960494E+02 -0.99509955427E+01  0.59301943334E+02  0.49999998734E+02 0.  0.
        -12    1    1    2    0    0 -0.17296917716E+02  0.24869960494E+02  0.99509955427E+01  0.31886056666E+02  0.00000000000E+00 0.  1.
         11    1    3    3    0    0  0.35324389473E+01 -0.74839381611E+01 -0.17735998759E+02  0.19571742578E+02  0.51100000000E-03 0. -1.
        -11    1    3    3    0    0  0.14207467318E+02 -0.26277805065E+02  0.43500250353E+01  0.30187710822E+02  0.51100000000E-03 0.  1.
        -12    1    3    3    0    0 -0.44298854903E+00  0.88917827324E+01  0.34349781810E+01  0.95424899329E+01  0.00000000000E+00 0.  1.
</event>
<event>
 7    1  0.1338132E-011  0.5930202E+02  0.7816164E-02  0.1266604E+00
        -11   -1    0    0    0    0  0.00000000000E+00  0.00000000000E+00  0.45593999997E+02  0.45594000000E+02  0.51100000000E-03 0. -1.
         11   -1    0    0    0    0 -0.00000000000E+00 -0.00000000000E+00 -0.45593999997E+02  0.45594000000E+02  0.51100000000E-03 0.  1.
    9900012    2    1    2    0    0  0.19175385504E+02  0.24917819034E+02 -0.53030698551E+01  0.59302020878E+02  0.50000140157E+02 0.  0.
        -12    1    1    2    0    0 -0.19175385504E+02 -0.24917819034E+02  0.53030698551E+01  0.31885979122E+02  0.00000000000E+00 0.  1.
         11    1    3    3    0    0  0.69471768476E+01 -0.33163558103E+01  0.53013951488E+01  0.93469927140E+01  0.51100000000E-03 0. -1.
        -11    1    3    3    0    0  0.15952525202E+02  0.22741711362E+02  0.90456703034E+01  0.29214596480E+02  0.51100000000E-03 0.  1.
        -12    1    3    3    0    0 -0.37243165456E+01  0.54924634827E+01 -0.19650135307E+02  0.20740431684E+02  0.00000000000E+00 0.  1.
</event>
<event>
 7    1  0.1338132E-011  0.5930196E+02  0.7816164E-02  0.1266605E+00
        -11   -1    0    0    0    0  0.00000000000E+00  0.00000000000E+00  0.45593999997E+02  0.45594000000E+02  0.51100000000E-03 0.  1.
         11   -1    0    0    0    0 -0.00000000000E+00 -0.00000000000E+00 -0.45593999997E+02  0.45594000000E+02  0.51100000000E-03 0. -1.
    9900012    2    1    2    0    0  0.16618423462E+02 -0.19837420595E+01 -0.27140607558E+02  0.59301955881E+02  0.50000021618E+02 0.  0.
        -12    1    1    2    0    0 -0.16618423462E+02  0.19837420595E+01  0.27140607558E+02  0.31886044119E+02  0.00000000000E+00 0.  1.
         11    1    3    3    0    0  0.26392596133E+01  0.53484492697E+01 -0.20372450007E+02  0.21227536844E+02  0.51100000000E-03 0. -1.
        -11    1    3    3    0    0  0.45582283683E+01  0.13344959643E+02  0.80091942160E+00  0.14124689940E+02  0.51100000000E-03 0.  1.
         12    1    3    3    0    0  0.94209354801E+01 -0.20677150972E+02 -0.75690769723E+01  0.23949729097E+02  0.00000000000E+00 0. -1.
</event>
<event>
 7    1  0.1338132E-011  0.5930193E+02  0.7816164E-02  0.1266605E+00
        -11   -1    0    0    0    0  0.00000000000E+00  0.00000000000E+00  0.45593999997E+02  0.45594000000E+02  0.51100000000E-03 0.  1.
         11   -1    0    0    0    0 -0.00000000000E+00 -0.00000000000E+00 -0.45593999997E+02  0.45594000000E+02  0.51100000000E-03 0. -1.
    9900012    2    1    2    0    0  0.16266846329E+02 -0.25849266030E+02 -0.91611349277E+01  0.59301933498E+02  0.49999980797E+02 0.  0.
        -12    1    1    2    0    0 -0.16266846329E+02  0.25849266030E+02  0.91611349277E+01  0.31886066502E+02  0.00000000000E+00 0.  1.
         11    1    3    3    0    0  0.72362198975E+01 -0.37756464466E+01 -0.90843201781E+01  0.12212422276E+02  0.51100000000E-03 0. -1.
        -11    1    3    3    0    0  0.15112576474E+02 -0.22052504186E+02 -0.15225470859E+02  0.30765530577E+02  0.51100000000E-03 0.  1.
        -12    1    3    3    0    0 -0.60819500423E+01 -0.21115396769E-01  0.15148656109E+02  0.16323980645E+02  0.00000000000E+00 0.  1.
</event>
<event>
 7    1  0.1338132E-011  0.5930194E+02  0.7816164E-02  0.1266605E+00
        -11   -1    0    0    0    0  0.00000000000E+00  0.00000000000E+00  0.45593999997E+02  0.45594000000E+02  0.51100000000E-03 0. -1.
         11   -1    0    0    0    0 -0.00000000000E+00 -0.00000000000E+00 -0.45593999997E+02  0.45594000000E+02  0.51100000000E-03 0.  1.
    9900012    2    1    2    0    0  0.14394700945E+02  0.19637635004E+02  0.20588271917E+02  0.59301936204E+02  0.49999985732E+02 0.  0.
        -12    1    1    2    0    0 -0.14394700945E+02 -0.19637635004E+02 -0.20588271917E+02  0.31886063796E+02  0.00000000000E+00 0.  1.
         11    1    3    3    0    0  0.13773405203E+02  0.28319860086E+02  0.12176622071E+02  0.33763757070E+02  0.51100000000E-03 0. -1.
        -11    1    3    3    0    0  0.10616689396E+02 -0.48700137118E+01  0.91170007839E+01  0.14817247749E+02  0.51100000000E-03 0.  1.
        -12    1    3    3    0    0 -0.99953936538E+01 -0.38122113699E+01 -0.70535093831E+00  0.10720931385E+02  0.00000000000E+00 0.  1.
</event>
<event>
 7    1  0.1338132E-011  0.5930196E+02  0.7816164E-02  0.1266605E+00
        -11   -1    0    0    0    0  0.00000000000E+00  0.00000000000E+00  0.45593999997E+02  0.45594000000E+02  0.51100000000E-03 0.  1.
         11   -1    0    0    0    0 -0.00000000000E+00 -0.00000000000E+00 -0.45593999997E+02  0.45594000000E+02  0.51100000000E-03 0. -1.
    9900012    2    1    2    0    0  0.30201707614E+02  0.67898972194E+01 -0.76468249047E+01  0.59301956373E+02  0.50000022515E+02 0.  0.
        -12    1    1    2    0    0 -0.30201707614E+02 -0.67898972194E+01  0.76468249047E+01  0.31886043627E+02  0.00000000000E+00 0.  1.
         11    1    3    3    0    0  0.11527882273E+02 -0.29557908975E+01  0.53067269890E+01  0.13030353837E+02  0.51100000000E-03 0. -1.
        -11    1    3    3    0    0 -0.87029598311E+01 -0.36252932847E+01 -0.12682497988E+02  0.15802848373E+02  0.51100000000E-03 0.  1.
         12    1    3    3    0    0  0.27376785173E+02  0.13370981402E+02 -0.27105390572E+00  0.30468754163E+02  0.00000000000E+00 0. -1.
</event>
<event>
 7    1  0.1338132E-011  0.5930194E+02  0.7816164E-02  0.1266605E+00
        -11   -1    0    0    0    0  0.00000000000E+00  0.00000000000E+00  0.45593999997E+02  0.45594000000E+02  0.51100000000E-03 0.  1.
         11   -1    0    0    0    0 -0.00000000000E+00 -0.00000000000E+00 -0.45593999997E+02  0.45594000000E+02  0.51100000000E-03 0. -1.
    9900012    2    1    2    0    0 -0.10343249592E+02 -0.29904070865E+02 -0.39350351715E+01  0.59301940848E+02  0.49999994201E+02 0.  0.
        -12    1    1    2    0    0  0.10343249592E+02  0.29904070865E+02  0.39350351715E+01  0.31886059152E+02  0.00000000000E+00 0.  1.
         11    1    3    3    0    0 -0.18777247972E+00 -0.34950157542E+02 -0.58742203559E+01  0.35440869568E+02  0.51100000000E-03 0. -1.
        -11    1    3    3    0    0 -0.85751326273E-01 -0.71344921935E+01 -0.23032830491E+01  0.74975626182E+01  0.51100000000E-03 0.  1.
        -12    1    3    3    0    0 -0.10069725786E+02  0.12180578870E+02  0.42424682335E+01  0.16363508662E+02  0.00000000000E+00 0.  1.
</event>
<event>
 7    1  0.1338132E-011  0.5930194E+02  0.7816164E-02  0.1266605E+00
        -11   -1    0    0    0    0  0.00000000000E+00  0.00000000000E+00  0.45593999997E+02  0.45594000000E+02  0.51100000000E-03 0. -1.
         11   -1    0    0    0    0 -0.00000000000E+00 -0.00000000000E+00 -0.45593999997E+02  0.45594000000E+02  0.51100000000E-03 0.  1.
    9900012    2    1    2    0    0 -0.22588030583E+02  0.21829441188E+02  0.54751576416E+01  0.59301937537E+02  0.49999988163E+02 0.  0.
        -12    1    1    2    0    0  0.22588030583E+02 -0.21829441188E+02 -0.54751576416E+01  0.31886062463E+02  0.00000000000E+00 0.  1.
         11    1    3    3    0    0 -0.74784924496E+01 -0.67145577166E+01 -0.71877733199E+00  0.10076198478E+02  0.51100000000E-03 0. -1.
        -11    1    3    3    0    0 -0.14392452454E+01 -0.88773224172E+01  0.12736308227E+01  0.90829739573E+01  0.51100000000E-03 0.  1.
         12    1    3    3    0    0 -0.13670292888E+02  0.37421321322E+02  0.49203041509E+01  0.40142765102E+02  0.00000000000E+00 0. -1.
</event>
<event>
 7    1  0.1338132E-011  0.5930194E+02  0.7816164E-02  0.1266605E+00
        -11   -1    0    0    0    0  0.00000000000E+00  0.00000000000E+00  0.45593999997E+02  0.45594000000E+02  0.51100000000E-03 0. -1.
         11   -1    0    0    0    0 -0.00000000000E+00 -0.00000000000E+00 -0.45593999997E+02  0.45594000000E+02  0.51100000000E-03 0.  1.
    9900012    2    1    2    0    0 -0.22311079303E+02  0.21097669075E+02  0.85921388593E+01  0.59301941130E+02  0.49999994716E+02 0.  0.
        -12    1    1    2    0    0  0.22311079303E+02 -0.21097669075E+02 -0.85921388593E+01  0.31886058870E+02  0.00000000000E+00 0.  1.
         11    1    3    3    0    0 -0.24483096334E+02  0.13614231249E+02  0.11834038087E+02  0.30410750670E+02  0.51100000000E-03 0. -1.
        -11    1    3    3    0    0  0.71304904324E+01 -0.29538460093E+01  0.91347746120E+01  0.11958812965E+02  0.51100000000E-03 0.  1.
         12    1    3    3    0    0 -0.49584734012E+01  0.10437283835E+02 -0.12376673839E+02  0.16932377496E+02  0.00000000000E+00 0. -1.
</event>
<event>
 7    1  0.1338132E-011  0.5930193E+02  0.7816164E-02  0.1266605E+00
        -11   -1    0    0    0    0  0.00000000000E+00  0.00000000000E+00  0.45593999997E+02  0.45594000000E+02  0.51100000000E-03 0.  1.
         11   -1    0    0    0    0 -0.00000000000E+00 -0.00000000000E+00 -0.45593999997E+02  0.45594000000E+02  0.51100000000E-03 0. -1.
    9900012    2    1    2    0    0 -0.21647547556E+02  0.52511253072E+01 -0.22815138115E+02  0.59301934714E+02  0.49999983015E+02 0.  0.
        -12    1    1    2    0    0  0.21647547556E+02 -0.52511253072E+01  0.22815138115E+02  0.31886065286E+02  0.00000000000E+00 0.  1.
         11    1    3    3    0    0 -0.71672358584E+01  0.86416835071E+01 -0.52830074413E+01  0.12407986604E+02  0.51100000000E-03 0. -1.
        -11    1    3    3    0    0  0.40358392164E+01 -0.73703517467E+01  0.10260244494E+02  0.13262077529E+02  0.51100000000E-03 0.  1.
         12    1    3    3    0    0 -0.18516150914E+02  0.39797935468E+01 -0.27792375167E+02  0.33631870581E+02  0.00000000000E+00 0. -1.
</event>
<event>
 7    1  0.1338132E-011  0.5930196E+02  0.7816164E-02  0.1266605E+00
        -11   -1    0    0    0    0  0.00000000000E+00  0.00000000000E+00  0.45593999997E+02  0.45594000000E+02  0.51100000000E-03 0. -1.
         11   -1    0    0    0    0 -0.00000000000E+00 -0.00000000000E+00 -0.45593999997E+02  0.45594000000E+02  0.51100000000E-03 0.  1.
    9900012    2    1    2    0    0 -0.28316682739E+02  0.12802072688E+02  0.71408562629E+01  0.59301962074E+02  0.50000032912E+02 0.  0.
        -12    1    1    2    0    0  0.28316682739E+02 -0.12802072688E+02 -0.71408562629E+01  0.31886037926E+02  0.00000000000E+00 0.  1.
         11    1    3    3    0    0 -0.49731044589E+01 -0.44800500049E+01  0.19480171395E+01  0.69711826144E+01  0.51100000000E-03 0.  1.
        -11    1    3    3    0    0 -0.34373419067E+02  0.90838294326E+01  0.11280136189E+02  0.37299991531E+02  0.51100000000E-03 0. -1.
        -12    1    3    3    0    0  0.11029840787E+02  0.81982932607E+01 -0.60872970656E+01  0.15030787928E+02  0.00000000000E+00 0.  1.
</event>
<event>
 7    1  0.1338132E-011  0.5930194E+02  0.7816164E-02  0.1266605E+00
        -11   -1    0    0    0    0  0.00000000000E+00  0.00000000000E+00  0.45593999997E+02  0.45594000000E+02  0.51100000000E-03 0.  1.
         11   -1    0    0    0    0 -0.00000000000E+00 -0.00000000000E+00 -0.45593999997E+02  0.45594000000E+02  0.51100000000E-03 0. -1.
    9900012    2    1    2    0    0  0.12732749736E+02  0.15788086112E+00 -0.29233085405E+02  0.59301935262E+02  0.49999984013E+02 0.  0.
        -12    1    1    2    0    0 -0.12732749736E+02 -0.15788086112E+00  0.29233085405E+02  0.31886064738E+02  0.00000000000E+00 0.  1.
         11    1    3    3    0    0 -0.94356486662E+01 -0.46641134678E+01 -0.13040501767E+01  0.10605940190E+02  0.51100000000E-03 0. -1.
        -11    1    3    3    0    0  0.50195092556E+01  0.10836008351E+02  0.34535021647E+01  0.12431461202E+02  0.51100000000E-03 0.  1.
        -12    1    3    3    0    0  0.17148889147E+02 -0.60140140220E+01 -0.31382537393E+02  0.36264533870E+02  0.00000000000E+00 0.  1.
</event>
<event>
 7    1  0.1338132E-011  0.5930194E+02  0.7816164E-02  0.1266605E+00
        -11   -1    0    0    0    0  0.00000000000E+00  0.00000000000E+00  0.45593999997E+02  0.45594000000E+02  0.51100000000E-03 0.  1.
         11   -1    0    0    0    0 -0.00000000000E+00 -0.00000000000E+00 -0.45593999997E+02  0.45594000000E+02  0.51100000000E-03 0. -1.
    9900012    2    1    2    0    0  0.22615712661E+02 -0.21349850481E+02  0.70309285362E+01  0.59301944572E+02  0.50000000992E+02 0.  0.
        -12    1    1    2    0    0 -0.22615712661E+02  0.21349850481E+02 -0.70309285362E+01  0.31886055428E+02  0.00000000000E+00 0.  1.
         11    1    3    3    0    0  0.11743602597E+02 -0.62836911886E+01 -0.34970198403E+00  0.13323635714E+02  0.51100000000E-03 0. -1.
        -11    1    3    3    0    0  0.15928070069E+01 -0.52055360082E+01  0.23961008316E+02  0.24571621010E+02  0.51100000000E-03 0.  1.
         12    1    3    3    0    0  0.92793030569E+01 -0.98606232838E+01 -0.16580377795E+02  0.21406687848E+02  0.00000000000E+00 0. -1.
</event>
<event>
 7    1  0.1338132E-011  0.5930190E+02  0.7816164E-02  0.1266605E+00
        -11   -1    0    0    0    0  0.00000000000E+00  0.00000000000E+00  0.45593999997E+02  0.45594000000E+02  0.51100000000E-03 0. -1.
         11   -1    0    0    0    0 -0.00000000000E+00 -0.00000000000E+00 -0.45593999997E+02  0.45594000000E+02  0.51100000000E-03 0.  1.
    9900012    2    1    2    0    0 -0.11361457916E+02 -0.29440706245E+02  0.45700620400E+01  0.59301899937E+02  0.49999919589E+02 0.  0.
        -12    1    1    2    0    0  0.11361457916E+02  0.29440706245E+02 -0.45700620400E+01  0.31886100063E+02  0.00000000000E+00 0.  1.
         11    1    3    3    0    0 -0.16682869121E+02 -0.11690053368E+02  0.16360385538E+02  0.26127335973E+02  0.51100000000E-03 0. -1.
        -11    1    3    3    0    0  0.38312283869E+01 -0.94829923144E+01  0.71336191988E+01  0.12469722424E+02  0.51100000000E-03 0.  1.
        -12    1    3    3    0    0  0.14901828179E+01 -0.82676605625E+01 -0.18923942697E+02  0.20704841540E+02  0.00000000000E+00 0.  1.
</event>
<event>
 7    1  0.1338132E-011  0.5930195E+02  0.7816164E-02  0.1266605E+00
        -11   -1    0    0    0    0  0.00000000000E+00  0.00000000000E+00  0.45593999997E+02  0.45594000000E+02  0.51100000000E-03 0.  1.
         11   -1    0    0    0    0 -0.00000000000E+00 -0.00000000000E+00 -0.45593999997E+02  0.45594000000E+02  0.51100000000E-03 0. -1.
    9900012    2    1    2    0    0  0.16619974681E+02  0.25158879920E+02  0.10369546553E+02  0.59301948301E+02  0.50000007793E+02 0.  0.
        -12    1    1    2    0    0 -0.16619974681E+02 -0.25158879920E+02 -0.10369546553E+02  0.31886051699E+02  0.00000000000E+00 0.  1.
         11    1    3    3    0    0  0.18222168719E+02  0.24790941468E+01 -0.22273673534E+01  0.18524429983E+02  0.51100000000E-03 0. -1.
        -11    1    3    3    0    0  0.82663283029E+01  0.22300067201E+01 -0.67846322178E+01  0.10924117730E+02  0.51100000000E-03 0.  1.
        -12    1    3    3    0    0 -0.98685223406E+01  0.20449779053E+02  0.19381546124E+02  0.29853400588E+02  0.00000000000E+00 0.  1.
</event>
<event>
 7    1  0.1338132E-011  0.5930193E+02  0.7816164E-02  0.1266605E+00
        -11   -1    0    0    0    0  0.00000000000E+00  0.00000000000E+00  0.45593999997E+02  0.45594000000E+02  0.51100000000E-03 0. -1.
         11   -1    0    0    0    0 -0.00000000000E+00 -0.00000000000E+00 -0.45593999997E+02  0.45594000000E+02  0.51100000000E-03 0.  1.
    9900012    2    1    2    0    0 -0.11440147147E+02 -0.29450187500E+02  0.43047296205E+01  0.59301933958E+02  0.49999981634E+02 0.  0.
        -12    1    1    2    0    0  0.11440147147E+02  0.29450187500E+02 -0.43047296205E+01  0.31886066042E+02  0.00000000000E+00 0.  1.
         11    1    3    3    0    0  0.11329141048E+02  0.15301416542E+00 -0.43487454811E+01  0.12136079999E+02  0.51100000000E-03 0. -1.
        -11    1    3    3    0    0 -0.94958006433E+01  0.99754481661E+00 -0.54015672805E+01  0.10970061753E+02  0.51100000000E-03 0.  1.
        -12    1    3    3    0    0 -0.13273487552E+02 -0.30600746482E+02  0.14055042382E+02  0.36195792206E+02  0.00000000000E+00 0.  1.
</event>
<event>
 7    1  0.1338132E-011  0.5930198E+02  0.7816164E-02  0.1266605E+00
        -11   -1    0    0    0    0  0.00000000000E+00  0.00000000000E+00  0.45593999997E+02  0.45594000000E+02  0.51100000000E-03 0.  1.
         11   -1    0    0    0    0 -0.00000000000E+00 -0.00000000000E+00 -0.45593999997E+02  0.45594000000E+02  0.51100000000E-03 0. -1.
    9900012    2    1    2    0    0  0.31760990899E+02  0.28106228209E+01  0.24085880512E+00  0.59301981803E+02  0.50000068892E+02 0.  0.
        -12    1    1    2    0    0 -0.31760990899E+02 -0.28106228209E+01 -0.24085880512E+00  0.31886018197E+02  0.00000000000E+00 0.  1.
         11    1    3    3    0    0  0.14819360424E+01 -0.89381278014E+01 -0.63683771324E+01  0.11074407009E+02  0.51100000000E-03 0. -1.
        -11    1    3    3    0    0  0.80140069154E+01  0.60599715344E+00  0.18843952183E+02  0.20486241079E+02  0.51100000000E-03 0.  1.
         12    1    3    3    0    0  0.22265047941E+02  0.11142753469E+02 -0.12234716246E+02  0.27741333715E+02  0.00000000000E+00 0. -1.
</event>
<event>
 7    1  0.1338132E-011  0.5930195E+02  0.7816164E-02  0.1266605E+00
        -11   -1    0    0    0    0  0.00000000000E+00  0.00000000000E+00  0.45593999997E+02  0.45594000000E+02  0.51100000000E-03 0. -1.
         11   -1    0    0    0    0 -0.00000000000E+00 -0.00000000000E+00 -0.45593999997E+02  0.45594000000E+02  0.51100000000E-03 0.  1.
    9900012    2    1    2    0    0  0.15115848355E+02  0.27677303844E+02 -0.47115257018E+01  0.59301945148E+02  0.50000002044E+02 0.  0.
        -12    1    1    2    0    0 -0.15115848355E+02 -0.27677303844E+02  0.47115257018E+01  0.31886054852E+02  0.00000000000E+00 0.  1.
         11    1    3    3    0    0 -0.57871510483E+01  0.21796078397E+01  0.59409455224E+01  0.85753508121E+01  0.51100000000E-03 0. -1.
        -11    1    3    3    0    0  0.18308678973E+01 -0.50004183141E+01 -0.13629724030E+02  0.14633032425E+02  0.51100000000E-03 0.  1.
        -12    1    3    3    0    0  0.19072131506E+02  0.30498114318E+02  0.29772528056E+01  0.36093561911E+02  0.00000000000E+00 0.  1.
</event>
<event>
 7    1  0.1338132E-011  0.5930193E+02  0.7816164E-02  0.1266605E+00
        -11   -1    0    0    0    0  0.00000000000E+00  0.00000000000E+00  0.45593999997E+02  0.45594000000E+02  0.51100000000E-03 0. -1.
         11   -1    0    0    0    0 -0.00000000000E+00 -0.00000000000E+00 -0.45593999997E+02  0.45594000000E+02  0.51100000000E-03 0.  1.
    9900012    2    1    2    0    0  0.36384599814E+01  0.31024410266E+02  0.64006819394E+01  0.59301934820E+02  0.49999983207E+02 0.  0.
        -12    1    1    2    0    0 -0.36384599814E+01 -0.31024410266E+02 -0.64006819394E+01  0.31886065180E+02  0.00000000000E+00 0.  1.
         11    1    3    3    0    0  0.46460485070E+00  0.70608260761E+01  0.36272542210E+01  0.79516096477E+01  0.51100000000E-03 0. -1.
        -11    1    3    3    0    0  0.10423732447E+02  0.31556320916E-01 -0.16679513128E+02  0.19668791330E+02  0.51100000000E-03 0.  1.
         12    1    3    3    0    0 -0.72498773160E+01  0.23932027869E+02  0.19452940847E+02  0.31681533842E+02  0.00000000000E+00 0. -1.
</event>
<event>
 7    1  0.1338132E-011  0.5930198E+02  0.7816164E-02  0.1266605E+00
        -11   -1    0    0    0    0  0.00000000000E+00  0.00000000000E+00  0.45593999997E+02  0.45594000000E+02  0.51100000000E-03 0.  1.
         11   -1    0    0    0    0 -0.00000000000E+00 -0.00000000000E+00 -0.45593999997E+02  0.45594000000E+02  0.51100000000E-03 0. -1.
    9900012    2    1    2    0    0 -0.17519205718E+02 -0.11517779781E+02 -0.24023669902E+02  0.59301975857E+02  0.50000058048E+02 0.  0.
        -12    1    1    2    0    0  0.17519205718E+02  0.11517779781E+02  0.24023669902E+02  0.31886024143E+02  0.00000000000E+00 0.  1.
         11    1    3    3    0    0 -0.76423742765E+01  0.34985195716E+01 -0.17286694734E+02  0.19221741307E+02  0.51100000000E-03 0. -1.
        -11    1    3    3    0    0 -0.16140549437E+02  0.18121996657E+01 -0.13268612724E+02  0.20972779683E+02  0.51100000000E-03 0.  1.
         12    1    3    3    0    0  0.62637179952E+01 -0.16828499019E+02  0.65316375551E+01  0.19107454867E+02  0.00000000000E+00 0. -1.
</event>
<event>
 7    1  0.1338132E-011  0.5930223E+02  0.7816164E-02  0.1266604E+00
        -11   -1    0    0    0    0  0.00000000000E+00  0.00000000000E+00  0.45593999997E+02  0.45594000000E+02  0.51100000000E-03 0. -1.
         11   -1    0    0    0    0 -0.00000000000E+00 -0.00000000000E+00 -0.45593999997E+02  0.45594000000E+02  0.51100000000E-03 0.  1.
    9900012    2    1    2    0    0  0.16945769507E+02  0.24209097044E+02  0.11977593216E+02  0.59302231652E+02  0.50000524555E+02 0.  0.
        -12    1    1    2    0    0 -0.16945769507E+02 -0.24209097044E+02 -0.11977593216E+02  0.31885768348E+02  0.00000000000E+00 0.  1.
         11    1    3    3    0    0  0.51138459652E-01  0.92106492480E+00 -0.99225949682E+00  0.13548265232E+01  0.51100000000E-03 0. -1.
        -11    1    3    3    0    0 -0.14714352056E+02  0.19636260808E+02  0.37751710887E+01  0.24826333035E+02  0.51100000000E-03 0.  1.
         12    1    3    3    0    0  0.31608983103E+02  0.36517713116E+01  0.91946816238E+01  0.33121072094E+02  0.00000000000E+00 0. -1.
</event>
<event>
 7    1  0.1338132E-011  0.5930194E+02  0.7816164E-02  0.1266605E+00
        -11   -1    0    0    0    0  0.00000000000E+00  0.00000000000E+00  0.45593999997E+02  0.45594000000E+02  0.51100000000E-03 0. -1.
         11   -1    0    0    0    0 -0.00000000000E+00 -0.00000000000E+00 -0.45593999997E+02  0.45594000000E+02  0.51100000000E-03 0.  1.
    9900012    2    1    2    0    0  0.23027894542E+02  0.12175755340E+02  0.18389876554E+02  0.59301944979E+02  0.50000001735E+02 0.  0.
        -12    1    1    2    0    0 -0.23027894542E+02 -0.12175755340E+02 -0.18389876554E+02  0.31886055021E+02  0.00000000000E+00 0.  1.
         11    1    3    3    0    0  0.35206916772E+01  0.34432512587E+01  0.12397702975E+02  0.13339950841E+02  0.51100000000E-03 0. -1.
        -11    1    3    3    0    0  0.72983591407E+01  0.92158772076E+01  0.22522650088E+02  0.25406066325E+02  0.51100000000E-03 0.  1.
        -12    1    3    3    0    0  0.12208843724E+02 -0.48337312679E+00 -0.16530476509E+02  0.20555927814E+02  0.00000000000E+00 0.  1.
</event>
<event>
 7    1  0.1338132E-011  0.5930197E+02  0.7816164E-02  0.1266605E+00
        -11   -1    0    0    0    0  0.00000000000E+00  0.00000000000E+00  0.45593999997E+02  0.45594000000E+02  0.51100000000E-03 0. -1.
         11   -1    0    0    0    0 -0.00000000000E+00 -0.00000000000E+00 -0.45593999997E+02  0.45594000000E+02  0.51100000000E-03 0.  1.
    9900012    2    1    2    0    0 -0.54779030888E-01  0.28265436633E+02  0.14757414488E+02  0.59301965578E+02  0.50000039303E+02 0.  0.
        -12    1    1    2    0    0  0.54779030888E-01 -0.28265436633E+02 -0.14757414488E+02  0.31886034422E+02  0.00000000000E+00 0.  1.
         11    1    3    3    0    0  0.46228363709E+01 -0.32662419876E+01  0.81634900797E+01  0.99338574267E+01  0.51100000000E-03 0. -1.
        -11    1    3    3    0    0  0.95862639713E+01 -0.40300041302E+01  0.33052165627E+01  0.10911546499E+02  0.51100000000E-03 0.  1.
         12    1    3    3    0    0 -0.14263879373E+02  0.35561682750E+02  0.32887078456E+01  0.38456561652E+02  0.00000000000E+00 0. -1.
</event>
<event>
 7    1  0.1338132E-011  0.5930192E+02  0.7816164E-02  0.1266605E+00
        -11   -1    0    0    0    0  0.00000000000E+00  0.00000000000E+00  0.45593999997E+02  0.45594000000E+02  0.51100000000E-03 0.  1.
         11   -1    0    0    0    0 -0.00000000000E+00 -0.00000000000E+00 -0.45593999997E+02  0.45594000000E+02  0.51100000000E-03 0. -1.
    9900012    2    1    2    0    0  0.24571762577E+02  0.29076368725E+01 -0.20112085621E+02  0.59301923786E+02  0.49999963083E+02 0.  0.
        -12    1    1    2    0    0 -0.24571762577E+02 -0.29076368725E+01  0.20112085621E+02  0.31886076214E+02  0.00000000000E+00 0.  1.
         11    1    3    3    0    0  0.35967649989E+01  0.34157310826E+01 -0.21476305781E+02  0.22041679780E+02  0.51100000000E-03 0. -1.
        -11    1    3    3    0    0  0.14787719372E+02  0.13953165582E+02 -0.38429595940E+01  0.20691442982E+02  0.51100000000E-03 0.  1.
        -12    1    3    3    0    0  0.61872782056E+01 -0.14461259792E+02  0.52071797536E+01  0.16568801023E+02  0.00000000000E+00 0.  1.
</event>
<event>
 7    1  0.1338132E-011  0.5930192E+02  0.7816164E-02  0.1266605E+00
        -11   -1    0    0    0    0  0.00000000000E+00  0.00000000000E+00  0.45593999997E+02  0.45594000000E+02  0.51100000000E-03 0. -1.
         11   -1    0    0    0    0 -0.00000000000E+00 -0.00000000000E+00 -0.45593999997E+02  0.45594000000E+02  0.51100000000E-03 0.  1.
    9900012    2    1    2    0    0  0.26876278866E+02  0.16705117358E+02  0.39149284598E+01  0.59301921902E+02  0.49999959648E+02 0.  0.
        -12    1    1    2    0    0 -0.26876278866E+02 -0.16705117358E+02 -0.39149284598E+01  0.31886078098E+02  0.00000000000E+00 0.  1.
         11    1    3    3    0    0  0.62583385761E+01 -0.94708858716E+01  0.99466715319E+01  0.15093069792E+02  0.51100000000E-03 0. -1.
        -11    1    3    3    0    0  0.78721641501E+01  0.10859151442E+02 -0.16849065535E+02  0.21535625093E+02  0.51100000000E-03 0.  1.
         12    1    3    3    0    0  0.12745776140E+02  0.15316851788E+02  0.10817322463E+02  0.22673227017E+02  0.00000000000E+00 0. -1.
</event>
<event>
 7    1  0.1338132E-011  0.5930195E+02  0.7816164E-02  0.1266605E+00
        -11   -1    0    0    0    0  0.00000000000E+00  0.00000000000E+00  0.45593999997E+02  0.45594000000E+02  0.51100000000E-03 0.  1.
         11   -1    0    0    0    0 -0.00000000000E+00 -0.00000000000E+00 -0.45593999997E+02  0.45594000000E+02  0.51100000000E-03 0. -1.
    9900012    2    1    2    0    0  0.19708823610E+02  0.18536413035E+02 -0.16872582444E+02  0.59301947020E+02  0.50000005458E+02 0.  0.
        -12    1    1    2    0    0 -0.19708823610E+02 -0.18536413035E+02  0.16872582444E+02  0.31886052980E+02  0.00000000000E+00 0.  1.
         11    1    3    3    0    0  0.26424136843E+02  0.21731118462E+02 -0.22428017387E+02  0.40908342447E+02  0.51100000000E-03 0. -1.
        -11    1    3    3    0    0 -0.50081854325E+01 -0.44664482514E+01 -0.45231963958E+01  0.80926131259E+01  0.51100000000E-03 0.  1.
        -12    1    3    3    0    0 -0.17071278010E+01  0.12717428245E+01  0.10078631339E+02  0.10300991448E+02  0.00000000000E+00 0.  1.
</event>
<event>
 7    1  0.1338132E-011  0.5930196E+02  0.7816164E-02  0.1266605E+00
        -11   -1    0    0    0    0  0.00000000000E+00  0.00000000000E+00  0.45593999997E+02  0.45594000000E+02  0.51100000000E-03 0.  1.
         11   -1    0    0    0    0 -0.00000000000E+00 -0.00000000000E+00 -0.45593999997E+02  0.45594000000E+02  0.51100000000E-03 0. -1.
    9900012    2    1    2    0    0  0.31497277567E+02 -0.41463879937E+01  0.27292086008E+01  0.59301959055E+02  0.50000027406E+02 0.  0.
        -12    1    1    2    0    0 -0.31497277567E+02  0.41463879937E+01 -0.27292086008E+01  0.31886040945E+02  0.00000000000E+00 0.  1.
         11    1    3    3    0    0  0.33682513772E+01 -0.12201774903E+02 -0.11105226715E+02  0.16839076245E+02  0.51100000000E-03 0. -1.
        -11    1    3    3    0    0  0.29955444006E+01 -0.76579678123E+01  0.94044592862E+01  0.12492462207E+02  0.51100000000E-03 0.  1.
        -12    1    3    3    0    0  0.25133481790E+02  0.15713354722E+02  0.44299760296E+01  0.29970420603E+02  0.00000000000E+00 0.  1.
</event>
<event>
 7    1  0.1338132E-011  0.5930198E+02  0.7816164E-02  0.1266605E+00
        -11   -1    0    0    0    0  0.00000000000E+00  0.00000000000E+00  0.45593999997E+02  0.45594000000E+02  0.51100000000E-03 0.  1.
         11   -1    0    0    0    0 -0.00000000000E+00 -0.00000000000E+00 -0.45593999997E+02  0.45594000000E+02  0.51100000000E-03 0. -1.
    9900012    2    1    2    0    0  0.24519421989E+01  0.54338421544E+01 -0.31323791250E+02  0.59301975485E+02  0.50000057370E+02 0.  0.
        -12    1    1    2    0    0 -0.24519421989E+01 -0.54338421544E+01  0.31323791250E+02  0.31886024515E+02  0.00000000000E+00 0.  1.
         11    1    3    3    0    0 -0.43644641448E+01  0.29266837341E+01  0.77366842685E+01  0.93525562646E+01  0.51100000000E-03 0. -1.
        -11    1    3    3    0    0 -0.36869105594E+01  0.32940477622E+01  0.35306021466E+01  0.60752952118E+01  0.51100000000E-03 0.  1.
         12    1    3    3    0    0  0.10503316903E+02 -0.78688934195E+00 -0.42591077665E+02  0.43874124008E+02  0.00000000000E+00 0. -1.
</event>
<event>
 7    1  0.1338132E-011  0.5930184E+02  0.7816164E-02  0.1266605E+00
        -11   -1    0    0    0    0  0.00000000000E+00  0.00000000000E+00  0.45593999997E+02  0.45594000000E+02  0.51100000000E-03 0.  1.
         11   -1    0    0    0    0 -0.00000000000E+00 -0.00000000000E+00 -0.45593999997E+02  0.45594000000E+02  0.51100000000E-03 0. -1.
    9900012    2    1    2    0    0 -0.13659670171E+02 -0.13624138051E+02 -0.25387472113E+02  0.59301835804E+02  0.49999802625E+02 0.  0.
        -12    1    1    2    0    0  0.13659670171E+02  0.13624138051E+02  0.25387472113E+02  0.31886164196E+02  0.00000000000E+00 0.  1.
         11    1    3    3    0    0  0.65201262059E+01 -0.12534565539E+02 -0.32212385031E+01  0.14491506365E+02  0.51100000000E-03 0. -1.
        -11    1    3    3    0    0 -0.10076568364E+02  0.11378256691E+02  0.24803958797E+01  0.15399815561E+02  0.51100000000E-03 0.  1.
         12    1    3    3    0    0 -0.10103228013E+02 -0.12467829204E+02 -0.24646629490E+02  0.29410513878E+02  0.00000000000E+00 0. -1.
</event>
<event>
 7    1  0.1338132E-011  0.5930194E+02  0.7816164E-02  0.1266605E+00
        -11   -1    0    0    0    0  0.00000000000E+00  0.00000000000E+00  0.45593999997E+02  0.45594000000E+02  0.51100000000E-03 0.  1.
         11   -1    0    0    0    0 -0.00000000000E+00 -0.00000000000E+00 -0.45593999997E+02  0.45594000000E+02  0.51100000000E-03 0. -1.
    9900012    2    1    2    0    0  0.20350009502E+02 -0.17166207150E+02  0.17547636372E+02  0.59301935694E+02  0.49999984801E+02 0.  0.
        -12    1    1    2    0    0 -0.20350009502E+02  0.17166207150E+02 -0.17547636372E+02  0.31886064306E+02  0.00000000000E+00 0.  1.
         11    1    3    3    0    0  0.23651929997E+02 -0.21336766738E+02  0.56815811161E+01  0.32356634121E+02  0.51100000000E-03 0. -1.
        -11    1    3    3    0    0 -0.81788674123E+01 -0.76270047450E+01  0.74485107022E+01  0.13436717809E+02  0.51100000000E-03 0.  1.
        -12    1    3    3    0    0  0.48769469180E+01  0.11797564333E+02  0.44175445542E+01  0.13508583764E+02  0.00000000000E+00 0.  1.
</event>
<event>
 7    1  0.1338132E-011  0.5930193E+02  0.7816164E-02  0.1266605E+00
        -11   -1    0    0    0    0  0.00000000000E+00  0.00000000000E+00  0.45593999997E+02  0.45594000000E+02  0.51100000000E-03 0.  1.
         11   -1    0    0    0    0 -0.00000000000E+00 -0.00000000000E+00 -0.45593999997E+02  0.45594000000E+02  0.51100000000E-03 0. -1.
    9900012    2    1    2    0    0 -0.13235922829E+00 -0.30069062147E+02 -0.10609201690E+02  0.59301934425E+02  0.49999982486E+02 0.  0.
        -12    1    1    2    0    0  0.13235922829E+00  0.30069062147E+02  0.10609201690E+02  0.31886065575E+02  0.00000000000E+00 0.  1.
         11    1    3    3    0    0  0.11327746146E+02  0.58163863227E+01 -0.30789382516E+01  0.13100688669E+02  0.51100000000E-03 0. -1.
        -11    1    3    3    0    0 -0.22950131041E+00  0.34830683437E+01 -0.36948018728E+01  0.50829122635E+01  0.51100000000E-03 0.  1.
         12    1    3    3    0    0 -0.11230604063E+02 -0.39368516814E+02 -0.38354615651E+01  0.41118333492E+02  0.00000000000E+00 0. -1.
</event>
<event>
 7    1  0.1338132E-011  0.5930192E+02  0.7816164E-02  0.1266605E+00
        -11   -1    0    0    0    0  0.00000000000E+00  0.00000000000E+00  0.45593999997E+02  0.45594000000E+02  0.51100000000E-03 0. -1.
         11   -1    0    0    0    0 -0.00000000000E+00 -0.00000000000E+00 -0.45593999997E+02  0.45594000000E+02  0.51100000000E-03 0.  1.
    9900012    2    1    2    0    0 -0.24671510432E+02 -0.29160024660E+01  0.19988388325E+02  0.59301918942E+02  0.49999954250E+02 0.  0.
        -12    1    1    2    0    0  0.24671510432E+02  0.29160024660E+01 -0.19988388325E+02  0.31886081058E+02  0.00000000000E+00 0.  1.
         11    1    3    3    0    0  0.40666944533E+01  0.84190493306E+01  0.54367032046E+01  0.10815550721E+02  0.51100000000E-03 0. -1.
        -11    1    3    3    0    0  0.85049018063E+00 -0.72608263389E+01  0.17013089408E+02  0.18517239106E+02  0.51100000000E-03 0.  1.
        -12    1    3    3    0    0 -0.29588695066E+02 -0.40742254577E+01 -0.24614042870E+01  0.29969129114E+02  0.00000000000E+00 0.  1.
</event>
<event>
 7    1  0.1338132E-011  0.5930196E+02  0.7816164E-02  0.1266605E+00
        -11   -1    0    0    0    0  0.00000000000E+00  0.00000000000E+00  0.45593999997E+02  0.45594000000E+02  0.51100000000E-03 0.  1.
         11   -1    0    0    0    0 -0.00000000000E+00 -0.00000000000E+00 -0.45593999997E+02  0.45594000000E+02  0.51100000000E-03 0. -1.
    9900012    2    1    2    0    0  0.22233040941E+00 -0.12296578132E+02 -0.29418770041E+02  0.59301963946E+02  0.50000036325E+02 0.  0.
        -12    1    1    2    0    0 -0.22233040941E+00  0.12296578132E+02  0.29418770041E+02  0.31886036054E+02  0.00000000000E+00 0.  1.
         11    1    3    3    0    0  0.32023868789E+01 -0.39651842843E+01  0.34717788107E+01  0.61669454759E+01  0.51100000000E-03 0. -1.
        -11    1    3    3    0    0  0.10213553712E+02 -0.21859525605E+01  0.56943848333E+01  0.11896263570E+02  0.51100000000E-03 0.  1.
         12    1    3    3    0    0 -0.13193610182E+02 -0.61454412869E+01 -0.38584933685E+02  0.41238754900E+02  0.00000000000E+00 0. -1.
</event>
<event>
 7    1  0.1338132E-011  0.5930204E+02  0.7816164E-02  0.1266604E+00
        -11   -1    0    0    0    0  0.00000000000E+00  0.00000000000E+00  0.45593999997E+02  0.45594000000E+02  0.51100000000E-03 0. -1.
         11   -1    0    0    0    0 -0.00000000000E+00 -0.00000000000E+00 -0.45593999997E+02  0.45594000000E+02  0.51100000000E-03 0.  1.
    9900012    2    1    2    0    0 -0.27693291883E+01  0.19233879213E+02  0.25280487618E+02  0.59302041525E+02  0.50000177811E+02 0.  0.
        -12    1    1    2    0    0  0.27693291883E+01 -0.19233879213E+02 -0.25280487618E+02  0.31885958475E+02  0.00000000000E+00 0.  1.
         11    1    3    3    0    0  0.22281109539E+01 -0.74963058861E+01  0.19460750491E+02  0.20973313765E+02  0.51100000000E-03 0. -1.
        -11    1    3    3    0    0  0.72681530515E+01  0.12343463612E+02  0.11736958379E+02  0.18518729302E+02  0.51100000000E-03 0.  1.
        -12    1    3    3    0    0 -0.12265593194E+02  0.14386721487E+02 -0.59172212521E+01  0.19809998457E+02  0.00000000000E+00 0.  1.
</event>
<event>
 7    1  0.1338132E-011  0.5930181E+02  0.7816164E-02  0.1266605E+00
        -11   -1    0    0    0    0  0.00000000000E+00  0.00000000000E+00  0.45593999997E+02  0.45594000000E+02  0.51100000000E-03 0. -1.
         11   -1    0    0    0    0 -0.00000000000E+00 -0.00000000000E+00 -0.45593999997E+02  0.45594000000E+02  0.51100000000E-03 0.  1.
    9900012    2    1    2    0    0 -0.15538723208E+02  0.26910944588E+02  0.71468930808E+01  0.59301812735E+02  0.49999760554E+02 0.  0.
        -12    1    1    2    0    0  0.15538723208E+02 -0.26910944588E+02 -0.71468930808E+01  0.31886187265E+02  0.00000000000E+00 0.  1.
         11    1    3    3    0    0 -0.22163381172E+02  0.22483494637E+02  0.14804605102E+02  0.34869748042E+02  0.51100000000E-03 0. -1.
        -11    1    3    3    0    0 -0.39944800576E+01  0.99054690381E+01 -0.63155615353E+01  0.12408082268E+02  0.51100000000E-03 0.  1.
         12    1    3    3    0    0  0.10619138021E+02 -0.54780190866E+01 -0.13421504863E+01  0.12023982425E+02  0.00000000000E+00 0. -1.
</event>
<event>
 7    1  0.1338132E-011  0.5930194E+02  0.7816164E-02  0.1266605E+00
        -11   -1    0    0    0    0  0.00000000000E+00  0.00000000000E+00  0.45593999997E+02  0.45594000000E+02  0.51100000000E-03 0. -1.
         11   -1    0    0    0    0 -0.00000000000E+00 -0.00000000000E+00 -0.45593999997E+02  0.45594000000E+02  0.51100000000E-03 0.  1.
    9900012    2    1    2    0    0 -0.30720190528E+02 -0.30247300151E+01 -0.79901126117E+01  0.59301937256E+02  0.49999987651E+02 0.  0.
        -12    1    1    2    0    0  0.30720190528E+02  0.30247300151E+01  0.79901126117E+01  0.31886062744E+02  0.00000000000E+00 0.  1.
         11    1    3    3    0    0 -0.74497249547E+01  0.29434342013E+01 -0.16620378424E+02  0.18449910190E+02  0.51100000000E-03 0. -1.
        -11    1    3    3    0    0 -0.25781308793E+02 -0.90814806613E+01 -0.39803686527E+01  0.27622319036E+02  0.51100000000E-03 0.  1.
         12    1    3    3    0    0  0.25108432195E+01  0.31133164449E+01  0.12610634465E+02  0.13229708030E+02  0.00000000000E+00 0. -1.
</event>
<event>
 7    1  0.1338132E-011  0.5930194E+02  0.7816164E-02  0.1266605E+00
        -11   -1    0    0    0    0  0.00000000000E+00  0.00000000000E+00  0.45593999997E+02  0.45594000000E+02  0.51100000000E-03 0.  1.
         11   -1    0    0    0    0 -0.00000000000E+00 -0.00000000000E+00 -0.45593999997E+02  0.45594000000E+02  0.51100000000E-03 0. -1.
    9900012    2    1    2    0    0  0.10463896469E+01 -0.38081556304E+01 -0.31640537247E+02  0.59301943833E+02  0.49999999644E+02 0.  0.
        -12    1    1    2    0    0 -0.10463896469E+01  0.38081556304E+01  0.31640537247E+02  0.31886056167E+02  0.00000000000E+00 0.  1.
         11    1    3    3    0    0  0.99097791976E+01 -0.82493716905E+01 -0.10471609176E+02  0.16610552550E+02  0.51100000000E-03 0. -1.
        -11    1    3    3    0    0 -0.44991453370E+01  0.32438521188E+01 -0.31198698161E+02  0.31687910196E+02  0.51100000000E-03 0.  1.
        -12    1    3    3    0    0 -0.43642442137E+01  0.11973639413E+01  0.10029770090E+02  0.11003481087E+02  0.00000000000E+00 0.  1.
</event>
<event>
 7    1  0.1338132E-011  0.5930194E+02  0.7816164E-02  0.1266605E+00
        -11   -1    0    0    0    0  0.00000000000E+00  0.00000000000E+00  0.45593999997E+02  0.45594000000E+02  0.51100000000E-03 0.  1.
         11   -1    0    0    0    0 -0.00000000000E+00 -0.00000000000E+00 -0.45593999997E+02  0.45594000000E+02  0.51100000000E-03 0. -1.
    9900012    2    1    2    0    0 -0.25372105090E+02 -0.10677023402E+02 -0.16092798542E+02  0.59301941756E+02  0.49999995858E+02 0.  0.
        -12    1    1    2    0    0  0.25372105090E+02  0.10677023402E+02  0.16092798542E+02  0.31886058244E+02  0.00000000000E+00 0.  1.
         11    1    3    3    0    0 -0.62359031446E+01  0.10807464382E+02  0.54119202738E+01  0.13600612329E+02  0.51100000000E-03 0. -1.
        -11    1    3    3    0    0 -0.70734092210E+01  0.30527273153E+00  0.54997738687E+01  0.89651448575E+01  0.51100000000E-03 0.  1.
         12    1    3    3    0    0 -0.12062792724E+02 -0.21789760516E+02 -0.27004492684E+02  0.36736184570E+02  0.00000000000E+00 0. -1.
</event>
<event>
 7    1  0.1338132E-011  0.5930193E+02  0.7816164E-02  0.1266605E+00
        -11   -1    0    0    0    0  0.00000000000E+00  0.00000000000E+00  0.45593999997E+02  0.45594000000E+02  0.51100000000E-03 0. -1.
         11   -1    0    0    0    0 -0.00000000000E+00 -0.00000000000E+00 -0.45593999997E+02  0.45594000000E+02  0.51100000000E-03 0.  1.
    9900012    2    1    2    0    0 -0.40682779000E+00 -0.29447687517E+02  0.12222511518E+02  0.59301927857E+02  0.49999970508E+02 0.  0.
        -12    1    1    2    0    0  0.40682779000E+00  0.29447687517E+02 -0.12222511518E+02  0.31886072143E+02  0.00000000000E+00 0.  1.
         11    1    3    3    0    0 -0.21061540266E+01  0.55305477665E+01 -0.77285469163E+01  0.97341297033E+01  0.51100000000E-03 0.  1.
        -11    1    3    3    0    0 -0.19665360497E+01  0.37551922362E+01 -0.22225341870E+01  0.47862711206E+01  0.51100000000E-03 0. -1.
        -12    1    3    3    0    0  0.36658622864E+01 -0.38733427519E+02  0.22173592621E+02  0.44781527033E+02  0.00000000000E+00 0.  1.
</event>
<event>
 7    1  0.1338132E-011  0.5930193E+02  0.7816164E-02  0.1266605E+00
        -11   -1    0    0    0    0  0.00000000000E+00  0.00000000000E+00  0.45593999997E+02  0.45594000000E+02  0.51100000000E-03 0.  1.
         11   -1    0    0    0    0 -0.00000000000E+00 -0.00000000000E+00 -0.45593999997E+02  0.45594000000E+02  0.51100000000E-03 0. -1.
    9900012    2    1    2    0    0  0.31285908004E+02  0.17693543938E+01 -0.58976867289E+01  0.59301931516E+02  0.49999977182E+02 0.  0.
        -12    1    1    2    0    0 -0.31285908004E+02 -0.17693543938E+01  0.58976867289E+01  0.31886068484E+02  0.00000000000E+00 0.  1.
         11    1    3    3    0    0  0.99167735741E+01  0.10442586747E+02 -0.79966081256E+01  0.16472272395E+02  0.51100000000E-03 0. -1.
        -11    1    3    3    0    0  0.94379289767E+01  0.12481139706E+02  0.83704672088E+01  0.17745931175E+02  0.51100000000E-03 0.  1.
         12    1    3    3    0    0  0.11931205453E+02 -0.21154372059E+02 -0.62715458121E+01  0.25083727946E+02  0.00000000000E+00 0. -1.
</event>
<event>
 7    1  0.1338132E-011  0.5930196E+02  0.7816164E-02  0.1266605E+00
        -11   -1    0    0    0    0  0.00000000000E+00  0.00000000000E+00  0.45593999997E+02  0.45594000000E+02  0.51100000000E-03 0. -1.
         11   -1    0    0    0    0 -0.00000000000E+00 -0.00000000000E+00 -0.45593999997E+02  0.45594000000E+02  0.51100000000E-03 0.  1.
    9900012    2    1    2    0    0 -0.12915079051E+02 -0.29112200364E+02  0.15492709956E+01  0.59301957324E+02  0.50000024249E+02 0.  0.
        -12    1    1    2    0    0  0.12915079051E+02  0.29112200364E+02 -0.15492709956E+01  0.31886042676E+02  0.00000000000E+00 0.  1.
         11    1    3    3    0    0 -0.72753345264E+01 -0.12926812182E+02 -0.24415335612E+01  0.15033098552E+02  0.51100000000E-03 0. -1.
        -11    1    3    3    0    0  0.93370768173E+01 -0.25011843695E+02  0.20436178569E+01  0.26775916468E+02  0.51100000000E-03 0.  1.
        -12    1    3    3    0    0 -0.14976821341E+02  0.88264555132E+01  0.19471867000E+01  0.17492942304E+02  0.00000000000E+00 0.  1.
</event>
<event>
 7    1  0.1338132E-011  0.5930193E+02  0.7816164E-02  0.1266605E+00
        -11   -1    0    0    0    0  0.00000000000E+00  0.00000000000E+00  0.45593999997E+02  0.45594000000E+02  0.51100000000E-03 0.  1.
         11   -1    0    0    0    0 -0.00000000000E+00 -0.00000000000E+00 -0.45593999997E+02  0.45594000000E+02  0.51100000000E-03 0. -1.
    9900012    2    1    2    0    0  0.17436512258E+02  0.51587821133E+00 -0.26691256973E+02  0.59301932684E+02  0.49999979312E+02 0.  0.
        -12    1    1    2    0    0 -0.17436512258E+02 -0.51587821133E+00  0.26691256973E+02  0.31886067316E+02  0.00000000000E+00 0.  1.
         11    1    3    3    0    0  0.11986058630E+02  0.13658063745E+02 -0.29843742856E+02  0.34940768375E+02  0.51100000000E-03 0. -1.
        -11    1    3    3    0    0  0.50300896759E+00 -0.54747367461E+01 -0.81524187637E+01  0.98329900041E+01  0.51100000000E-03 0.  1.
        -12    1    3    3    0    0  0.49474446607E+01 -0.76674487874E+01  0.11304904646E+02  0.14528174305E+02  0.00000000000E+00 0.  1.
</event>
<event>
 7    1  0.1338132E-011  0.5930195E+02  0.7816164E-02  0.1266605E+00
        -11   -1    0    0    0    0  0.00000000000E+00  0.00000000000E+00  0.45593999997E+02  0.45594000000E+02  0.51100000000E-03 0.  1.
         11   -1    0    0    0    0 -0.00000000000E+00 -0.00000000000E+00 -0.45593999997E+02  0.45594000000E+02  0.51100000000E-03 0. -1.
    9900012    2    1    2    0    0  0.15306325392E+02  0.14305121606E+02 -0.24037476783E+02  0.59301946759E+02  0.50000004982E+02 0.  0.
        -12    1    1    2    0    0 -0.15306325392E+02 -0.14305121606E+02  0.24037476783E+02  0.31886053241E+02  0.00000000000E+00 0.  1.
         11    1    3    3    0    0 -0.27098989179E+00  0.13315017615E+02  0.76823343668E+01  0.15374699711E+02  0.51100000000E-03 0. -1.
        -11    1    3    3    0    0  0.13818893419E+02 -0.17859198364E+01 -0.20591967049E+01  0.14085155885E+02  0.51100000000E-03 0.  1.
         12    1    3    3    0    0  0.17584218648E+01  0.27760238273E+01 -0.29660614445E+02  0.29842091163E+02  0.00000000000E+00 0. -1.
</event>
<event>
 7    1  0.1338132E-011  0.5930192E+02  0.7816164E-02  0.1266605E+00
        -11   -1    0    0    0    0  0.00000000000E+00  0.00000000000E+00  0.45593999997E+02  0.45594000000E+02  0.51100000000E-03 0.  1.
         11   -1    0    0    0    0 -0.00000000000E+00 -0.00000000000E+00 -0.45593999997E+02  0.45594000000E+02  0.51100000000E-03 0. -1.
    9900012    2    1    2    0    0 -0.12146616911E+02  0.18026808820E+02 -0.23328436664E+02  0.59301920031E+02  0.49999956235E+02 0.  0.
        -12    1    1    2    0    0  0.12146616911E+02 -0.18026808820E+02  0.23328436664E+02  0.31886079969E+02  0.00000000000E+00 0.  1.
         11    1    3    3    0    0 -0.12526099333E+02  0.15083126614E+02  0.59892177048E+01  0.20500600038E+02  0.51100000000E-03 0.  1.
        -11    1    3    3    0    0 -0.52649717585E+01 -0.69119849030E+00  0.27905542699E+01  0.59987395647E+01  0.51100000000E-03 0. -1.
         12    1    3    3    0    0  0.56444541813E+01  0.36348806967E+01 -0.32108208639E+02  0.32802580427E+02  0.00000000000E+00 0. -1.
</event>
<event>
 7    1  0.1338132E-011  0.5930194E+02  0.7816164E-02  0.1266605E+00
        -11   -1    0    0    0    0  0.00000000000E+00  0.00000000000E+00  0.45593999997E+02  0.45594000000E+02  0.51100000000E-03 0. -1.
         11   -1    0    0    0    0 -0.00000000000E+00 -0.00000000000E+00 -0.45593999997E+02  0.45594000000E+02  0.51100000000E-03 0.  1.
    9900012    2    1    2    0    0 -0.36851882495E+01 -0.18867654782E+02  0.25439175843E+02  0.59301942279E+02  0.49999996810E+02 0.  0.
        -12    1    1    2    0    0  0.36851882495E+01  0.18867654782E+02 -0.25439175843E+02  0.31886057721E+02  0.00000000000E+00 0.  1.
         11    1    3    3    0    0  0.16464833148E+02 -0.12373880384E+02  0.15630554562E+01  0.20655430012E+02  0.51100000000E-03 0. -1.
        -11    1    3    3    0    0 -0.18956188159E+01 -0.10464848942E+02  0.13795119501E+02  0.17418718564E+02  0.51100000000E-03 0.  1.
        -12    1    3    3    0    0 -0.18254402582E+02  0.39710745445E+01  0.10081000886E+02  0.21227793703E+02  0.00000000000E+00 0.  1.
</event>
<event>
 7    1  0.1338132E-011  0.5930195E+02  0.7816164E-02  0.1266605E+00
        -11   -1    0    0    0    0  0.00000000000E+00  0.00000000000E+00  0.45593999997E+02  0.45594000000E+02  0.51100000000E-03 0. -1.
         11   -1    0    0    0    0 -0.00000000000E+00 -0.00000000000E+00 -0.45593999997E+02  0.45594000000E+02  0.51100000000E-03 0.  1.
    9900012    2    1    2    0    0  0.87504922426E+01 -0.30542306226E+02 -0.27049754266E+01  0.59301945428E+02  0.50000002554E+02 0.  0.
        -12    1    1    2    0    0 -0.87504922426E+01  0.30542306226E+02  0.27049754266E+01  0.31886054572E+02  0.00000000000E+00 0.  1.
         11    1    3    3    0    0  0.19344419060E-01 -0.39233139657E+01 -0.31710800738E+01  0.50446521957E+01  0.51100000000E-03 0. -1.
        -11    1    3    3    0    0  0.11765584511E+02 -0.23096890387E+02 -0.20333417694E+02  0.32944547346E+02  0.51100000000E-03 0.  1.
         12    1    3    3    0    0 -0.30344366874E+01 -0.35221018737E+01  0.20799522341E+02  0.21312745887E+02  0.00000000000E+00 0. -1.
</event>
<event>
 7    1  0.1338132E-011  0.5930193E+02  0.7816164E-02  0.1266605E+00
        -11   -1    0    0    0    0  0.00000000000E+00  0.00000000000E+00  0.45593999997E+02  0.45594000000E+02  0.51100000000E-03 0. -1.
         11   -1    0    0    0    0 -0.00000000000E+00 -0.00000000000E+00 -0.45593999997E+02  0.45594000000E+02  0.51100000000E-03 0.  1.
    9900012    2    1    2    0    0 -0.22772080606E+02 -0.18585475129E+02  0.12358555300E+02  0.59301930471E+02  0.49999975276E+02 0.  0.
        -12    1    1    2    0    0  0.22772080606E+02  0.18585475129E+02 -0.12358555300E+02  0.31886069529E+02  0.00000000000E+00 0.  1.
         11    1    3    3    0    0  0.63861474677E+01 -0.10494873561E+02  0.10592962101E+02  0.16221470244E+02  0.51100000000E-03 0. -1.
        -11    1    3    3    0    0  0.13329840794E+01  0.39300622707E+01 -0.78881059836E+01  0.89131617442E+01  0.51100000000E-03 0.  1.
         12    1    3    3    0    0 -0.30491212153E+02 -0.12020663838E+02  0.96536991829E+01  0.34167298483E+02  0.00000000000E+00 0. -1.
</event>
<event>
 7    1  0.1338132E-011  0.5930199E+02  0.7816164E-02  0.1266605E+00
        -11   -1    0    0    0    0  0.00000000000E+00  0.00000000000E+00  0.45593999997E+02  0.45594000000E+02  0.51100000000E-03 0. -1.
         11   -1    0    0    0    0 -0.00000000000E+00 -0.00000000000E+00 -0.45593999997E+02  0.45594000000E+02  0.51100000000E-03 0.  1.
    9900012    2    1    2    0    0 -0.11127530841E+01 -0.29289722402E+02  0.12553543971E+02  0.59301991720E+02  0.50000086978E+02 0.  0.
        -12    1    1    2    0    0  0.11127530841E+01  0.29289722402E+02 -0.12553543971E+02  0.31886008280E+02  0.00000000000E+00 0.  1.
         11    1    3    3    0    0  0.75472103055E+01 -0.94022075483E+01  0.10109877514E+02  0.15734405416E+02  0.51100000000E-03 0. -1.
        -11    1    3    3    0    0  0.12888835016E+02  0.15724961024E+01  0.21042376691E+01  0.13153806616E+02  0.51100000000E-03 0.  1.
         12    1    3    3    0    0 -0.21548798406E+02 -0.21460010956E+02  0.33942878757E+00  0.30413779687E+02  0.00000000000E+00 0. -1.
</event>
<event>
 7    1  0.1338132E-011  0.5930195E+02  0.7816164E-02  0.1266605E+00
        -11   -1    0    0    0    0  0.00000000000E+00  0.00000000000E+00  0.45593999997E+02  0.45594000000E+02  0.51100000000E-03 0.  1.
         11   -1    0    0    0    0 -0.00000000000E+00 -0.00000000000E+00 -0.45593999997E+02  0.45594000000E+02  0.51100000000E-03 0. -1.
    9900012    2    1    2    0    0  0.14088143708E+02 -0.21738346478E+02 -0.18592703154E+02  0.59301951149E+02  0.50000012988E+02 0.  0.
        -12    1    1    2    0    0 -0.14088143708E+02  0.21738346478E+02  0.18592703154E+02  0.31886048851E+02  0.00000000000E+00 0.  1.
         11    1    3    3    0    0 -0.17959801366E+01  0.64025528530E+01  0.55778530657E-01  0.66499127207E+01  0.51100000000E-03 0. -1.
        -11    1    3    3    0    0 -0.54832072808E+01 -0.19352182585E+02  0.37640222356E+01  0.20463147279E+02  0.51100000000E-03 0.  1.
         12    1    3    3    0    0  0.21367331126E+02 -0.87887167458E+01 -0.22412503920E+02  0.32188891150E+02  0.00000000000E+00 0. -1.
</event>
<event>
 7    1  0.1338132E-011  0.5930194E+02  0.7816164E-02  0.1266605E+00
        -11   -1    0    0    0    0  0.00000000000E+00  0.00000000000E+00  0.45593999997E+02  0.45594000000E+02  0.51100000000E-03 0.  1.
         11   -1    0    0    0    0 -0.00000000000E+00 -0.00000000000E+00 -0.45593999997E+02  0.45594000000E+02  0.51100000000E-03 0. -1.
    9900012    2    1    2    0    0 -0.14390330211E+01 -0.31730137770E+02  0.28014825212E+01  0.59301940926E+02  0.49999994344E+02 0.  0.
        -12    1    1    2    0    0  0.14390330211E+01  0.31730137770E+02 -0.28014825212E+01  0.31886059074E+02  0.00000000000E+00 0.  1.
         11    1    3    3    0    0 -0.14749158932E+02  0.24203495510E+01 -0.10629103464E+02  0.18340491320E+02  0.51100000000E-03 0. -1.
        -11    1    3    3    0    0  0.68435013171E+00 -0.93860129435E+01 -0.13032764014E+01  0.95007422719E+01  0.51100000000E-03 0.  1.
        -12    1    3    3    0    0  0.12625775779E+02 -0.24764474377E+02  0.14733862386E+02  0.31460707335E+02  0.00000000000E+00 0.  1.
</event>
<event>
 7    1  0.1338132E-011  0.5930193E+02  0.7816164E-02  0.1266605E+00
        -11   -1    0    0    0    0  0.00000000000E+00  0.00000000000E+00  0.45593999997E+02  0.45594000000E+02  0.51100000000E-03 0. -1.
         11   -1    0    0    0    0 -0.00000000000E+00 -0.00000000000E+00 -0.45593999997E+02  0.45594000000E+02  0.51100000000E-03 0.  1.
    9900012    2    1    2    0    0 -0.10862317088E+01 -0.27653940479E+02  0.15836696771E+02  0.59301932698E+02  0.49999979338E+02 0.  0.
        -12    1    1    2    0    0  0.10862317088E+01  0.27653940479E+02 -0.15836696771E+02  0.31886067302E+02  0.00000000000E+00 0.  1.
         11    1    3    3    0    0 -0.25433380322E+01 -0.47379916747E+01 -0.15681930169E+02  0.16578301105E+02  0.51100000000E-03 0. -1.
        -11    1    3    3    0    0  0.57535445446E+01 -0.35225413001E+01  0.18076362249E+01  0.69842051102E+01  0.51100000000E-03 0.  1.
         12    1    3    3    0    0 -0.42964382212E+01 -0.19393407504E+02  0.29710990715E+02  0.35739426483E+02  0.00000000000E+00 0. -1.
</event>
<event>
 7    1  0.1338132E-011  0.5930191E+02  0.7816164E-02  0.1266605E+00
        -11   -1    0    0    0    0  0.00000000000E+00  0.00000000000E+00  0.45593999997E+02  0.45594000000E+02  0.51100000000E-03 0.  1.
         11   -1    0    0    0    0 -0.00000000000E+00 -0.00000000000E+00 -0.45593999997E+02  0.45594000000E+02  0.51100000000E-03 0. -1.
    9900012    2    1    2    0    0  0.11738453882E+02 -0.19813772404E+02 -0.22053244141E+02  0.59301914421E+02  0.49999946005E+02 0.  0.
        -12    1    1    2    0    0 -0.11738453882E+02  0.19813772404E+02  0.22053244141E+02  0.31886085579E+02  0.00000000000E+00 0.  1.
         11    1    3    3    0    0  0.93675007924E+01 -0.65216819386E+01 -0.15317110833E+02  0.19102258791E+02  0.51100000000E-03 0. -1.
        -11    1    3    3    0    0  0.17286503369E+02 -0.12606634186E+02  0.40563939594E+01  0.21776242937E+02  0.51100000000E-03 0.  1.
         12    1    3    3    0    0 -0.14915550280E+02 -0.68545627959E+00 -0.10792527268E+02  0.18423412694E+02  0.00000000000E+00 0. -1.
</event>
<event>
 7    1  0.1338132E-011  0.5930194E+02  0.7816164E-02  0.1266605E+00
        -11   -1    0    0    0    0  0.00000000000E+00  0.00000000000E+00  0.45593999997E+02  0.45594000000E+02  0.51100000000E-03 0. -1.
         11   -1    0    0    0    0 -0.00000000000E+00 -0.00000000000E+00 -0.45593999997E+02  0.45594000000E+02  0.51100000000E-03 0.  1.
    9900012    2    1    2    0    0 -0.81185515599E+01  0.54417157224E+01  0.30351237014E+02  0.59301941327E+02  0.49999995074E+02 0.  0.
        -12    1    1    2    0    0  0.81185515599E+01 -0.54417157224E+01 -0.30351237014E+02  0.31886058673E+02  0.00000000000E+00 0.  1.
         11    1    3    3    0    0  0.26348436146E+00  0.26051579335E+01  0.18312988587E+02  0.18499238447E+02  0.51100000000E-03 0. -1.
        -11    1    3    3    0    0  0.90212507771E+01  0.15160318762E+02  0.61042539678E+01  0.18667622969E+02  0.51100000000E-03 0.  1.
         12    1    3    3    0    0 -0.17403286698E+02 -0.12323760973E+02  0.59339944594E+01  0.22135079911E+02  0.00000000000E+00 0. -1.
</event>
<event>
 7    1  0.1338132E-011  0.5930193E+02  0.7816164E-02  0.1266605E+00
        -11   -1    0    0    0    0  0.00000000000E+00  0.00000000000E+00  0.45593999997E+02  0.45594000000E+02  0.51100000000E-03 0.  1.
         11   -1    0    0    0    0 -0.00000000000E+00 -0.00000000000E+00 -0.45593999997E+02  0.45594000000E+02  0.51100000000E-03 0. -1.
    9900012    2    1    2    0    0  0.22045153646E+02  0.14945254831E+02 -0.17532029394E+02  0.59301929437E+02  0.49999973391E+02 0.  0.
        -12    1    1    2    0    0 -0.22045153646E+02 -0.14945254831E+02  0.17532029394E+02  0.31886070563E+02  0.00000000000E+00 0.  1.
         11    1    3    3    0    0  0.57586286671E+01  0.11396317733E+02 -0.25218547468E+02  0.28266817979E+02  0.51100000000E-03 0. -1.
        -11    1    3    3    0    0  0.36744116298E+01  0.43126583176E+01 -0.86758866669E+01  0.10362013912E+02  0.51100000000E-03 0.  1.
        -12    1    3    3    0    0  0.12612113349E+02 -0.76372121981E+00  0.16362404741E+02  0.20673097546E+02  0.00000000000E+00 0.  1.
</event>
<event>
 7    1  0.1338132E-011  0.5930196E+02  0.7816164E-02  0.1266605E+00
        -11   -1    0    0    0    0  0.00000000000E+00  0.00000000000E+00  0.45593999997E+02  0.45594000000E+02  0.51100000000E-03 0.  1.
         11   -1    0    0    0    0 -0.00000000000E+00 -0.00000000000E+00 -0.45593999997E+02  0.45594000000E+02  0.51100000000E-03 0. -1.
    9900012    2    1    2    0    0 -0.99364210958E+01  0.22691968587E+02 -0.20076388588E+02  0.59301964165E+02  0.50000036725E+02 0.  0.
        -12    1    1    2    0    0  0.99364210958E+01 -0.22691968587E+02  0.20076388588E+02  0.31886035835E+02  0.00000000000E+00 0.  1.
         11    1    3    3    0    0  0.86238093875E+01  0.11729163803E+02 -0.21309158603E+01  0.14713401188E+02  0.51100000000E-03 0. -1.
        -11    1    3    3    0    0  0.49782093493E+00  0.19161786264E+02 -0.39739827642E+01  0.19575863143E+02  0.51100000000E-03 0.  1.
        -12    1    3    3    0    0 -0.19058051418E+02 -0.81989814798E+01 -0.13971489964E+02  0.25012699834E+02  0.00000000000E+00 0.  1.
</event>
<event>
 7    1  0.1338132E-011  0.5930201E+02  0.7816164E-02  0.1266605E+00
        -11   -1    0    0    0    0  0.00000000000E+00  0.00000000000E+00  0.45593999997E+02  0.45594000000E+02  0.51100000000E-03 0.  1.
         11   -1    0    0    0    0 -0.00000000000E+00 -0.00000000000E+00 -0.45593999997E+02  0.45594000000E+02  0.51100000000E-03 0. -1.
    9900012    2    1    2    0    0  0.29904917922E+02 -0.57047187459E+01 -0.94798953341E+01  0.59302010170E+02  0.50000120628E+02 0.  0.
        -12    1    1    2    0    0 -0.29904917922E+02  0.57047187459E+01  0.94798953341E+01  0.31885989830E+02  0.00000000000E+00 0.  1.
         11    1    3    3    0    0  0.40774267714E+01  0.34204775097E+01  0.60187217024E+01  0.80343068564E+01  0.51100000000E-03 0. -1.
        -11    1    3    3    0    0 -0.63196932691E+01  0.18328314326E+01  0.77067287169E+01  0.10133679581E+02  0.51100000000E-03 0.  1.
         12    1    3    3    0    0  0.32147184419E+02 -0.10958027688E+02 -0.23205345753E+02  0.41134023733E+02  0.00000000000E+00 0. -1.
</event>
<event>
 7    1  0.1338132E-011  0.5930195E+02  0.7816164E-02  0.1266605E+00
        -11   -1    0    0    0    0  0.00000000000E+00  0.00000000000E+00  0.45593999997E+02  0.45594000000E+02  0.51100000000E-03 0.  1.
         11   -1    0    0    0    0 -0.00000000000E+00 -0.00000000000E+00 -0.45593999997E+02  0.45594000000E+02  0.51100000000E-03 0. -1.
    9900012    2    1    2    0    0 -0.26523216233E+02  0.17417350123E+02 -0.31424868314E+01  0.59301948063E+02  0.50000007359E+02 0.  0.
        -12    1    1    2    0    0  0.26523216233E+02 -0.17417350123E+02  0.31424868314E+01  0.31886051937E+02  0.00000000000E+00 0.  1.
         11    1    3    3    0    0 -0.12143555008E+02 -0.98463195223E+01  0.16816560997E+01  0.15723991347E+02  0.51100000000E-03 0.  1.
        -11    1    3    3    0    0 -0.15100179895E+02  0.19284366295E+02  0.10215157258E+02  0.26537740188E+02  0.51100000000E-03 0. -1.
         12    1    3    3    0    0  0.72051867023E+00  0.79793033511E+01 -0.15039300189E+02  0.17040216527E+02  0.00000000000E+00 0. -1.
</event>
<event>
 7    1  0.1358817E-011  0.5930196E+02  0.7816164E-02  0.1266605E+00
        -11   -1    0    0    0    0  0.00000000000E+00  0.00000000000E+00  0.45593999997E+02  0.45594000000E+02  0.51100000000E-03 0.  1.
         11   -1    0    0    0    0 -0.00000000000E+00 -0.00000000000E+00 -0.45593999997E+02  0.45594000000E+02  0.51100000000E-03 0. -1.
    9900012    2    1    2    0    0 -0.19653030185E+02  0.11796869047E+02 -0.22165560645E+02  0.59301956133E+02  0.50000022077E+02 0.  0.
        -12    1    1    2    0    0  0.19653030185E+02 -0.11796869047E+02  0.22165560645E+02  0.31886043867E+02  0.00000000000E+00 0.  1.
         11    1    3    3    0    0 -0.13190994881E+02 -0.65306450119E+00 -0.25199440871E+02  0.28450670636E+02  0.51100000000E-03 0. -1.
        -11    1    3    3    0    0 -0.57252214841E+01  0.15541460292E+02 -0.86903506165E+01  0.18703939242E+02  0.51100000000E-03 0.  1.
        -12    1    3    3    0    0 -0.73681382029E+00 -0.30915267441E+01  0.11724230842E+02  0.12147346256E+02  0.00000000000E+00 0.  1.
</event>
<event>
 7    1  0.1338132E-011  0.5930196E+02  0.7816164E-02  0.1266605E+00
        -11   -1    0    0    0    0  0.00000000000E+00  0.00000000000E+00  0.45593999997E+02  0.45594000000E+02  0.51100000000E-03 0. -1.
         11   -1    0    0    0    0 -0.00000000000E+00 -0.00000000000E+00 -0.45593999997E+02  0.45594000000E+02  0.51100000000E-03 0.  1.
    9900012    2    1    2    0    0  0.60838509665E+01 -0.16156717579E+02  0.26807964523E+02  0.59301957170E+02  0.50000023968E+02 0.  0.
        -12    1    1    2    0    0 -0.60838509665E+01  0.16156717579E+02 -0.26807964523E+02  0.31886042830E+02  0.00000000000E+00 0.  1.
         11    1    3    3    0    0 -0.16554219642E+02 -0.61153299334E+01  0.17454615696E+02  0.24821423358E+02  0.51100000000E-03 0. -1.
        -11    1    3    3    0    0  0.29001261975E+01  0.36515108929E+01 -0.47234680351E+01  0.66374252766E+01  0.51100000000E-03 0.  1.
         12    1    3    3    0    0  0.19737944411E+02 -0.13692898539E+02  0.14076816862E+02  0.27843108536E+02  0.00000000000E+00 0. -1.
</event>
<event>
 7    1  0.1338132E-011  0.5930196E+02  0.7816164E-02  0.1266605E+00
        -11   -1    0    0    0    0  0.00000000000E+00  0.00000000000E+00  0.45593999997E+02  0.45594000000E+02  0.51100000000E-03 0.  1.
         11   -1    0    0    0    0 -0.00000000000E+00 -0.00000000000E+00 -0.45593999997E+02  0.45594000000E+02  0.51100000000E-03 0. -1.
    9900012    2    1    2    0    0  0.26481266930E+02  0.16055327837E+00 -0.17760525881E+02  0.59301959870E+02  0.50000028893E+02 0.  0.
        -12    1    1    2    0    0 -0.26481266930E+02 -0.16055327837E+00  0.17760525881E+02  0.31886040130E+02  0.00000000000E+00 0.  1.
         11    1    3    3    0    0  0.25327800346E+02 -0.75039708154E+01 -0.12561214597E+02  0.29250489924E+02  0.51100000000E-03 0. -1.
        -11    1    3    3    0    0  0.78042168131E+01  0.45750602310E+01  0.98112716903E+01  0.13345337336E+02  0.51100000000E-03 0.  1.
        -12    1    3    3    0    0 -0.66507502289E+01  0.30894638628E+01 -0.15010582974E+02  0.16706132610E+02  0.00000000000E+00 0.  1.
</event>
<event>
 7    1  0.1338132E-011  0.5930195E+02  0.7816164E-02  0.1266605E+00
        -11   -1    0    0    0    0  0.00000000000E+00  0.00000000000E+00  0.45593999997E+02  0.45594000000E+02  0.51100000000E-03 0. -1.
         11   -1    0    0    0    0 -0.00000000000E+00 -0.00000000000E+00 -0.45593999997E+02  0.45594000000E+02  0.51100000000E-03 0.  1.
    9900012    2    1    2    0    0 -0.99510463483E+01 -0.29979630590E+01  0.30144801584E+02  0.59301950253E+02  0.50000011354E+02 0.  0.
        -12    1    1    2    0    0  0.99510463483E+01  0.29979630590E+01 -0.30144801584E+02  0.31886049747E+02  0.00000000000E+00 0.  1.
         11    1    3    3    0    0  0.58518513182E+01  0.75634871744E+01  0.14967871205E+02  0.17761972603E+02  0.51100000000E-03 0. -1.
        -11    1    3    3    0    0 -0.26619078884E+01  0.41905707858E+01  0.20489155747E+02  0.21082033598E+02  0.51100000000E-03 0.  1.
        -12    1    3    3    0    0 -0.13140989778E+02 -0.14752021019E+02 -0.53122253681E+01  0.20457944053E+02  0.00000000000E+00 0.  1.
</event>
<event>
 7    1  0.1338132E-011  0.5930191E+02  0.7816164E-02  0.1266605E+00
        -11   -1    0    0    0    0  0.00000000000E+00  0.00000000000E+00  0.45593999997E+02  0.45594000000E+02  0.51100000000E-03 0. -1.
         11   -1    0    0    0    0 -0.00000000000E+00 -0.00000000000E+00 -0.45593999997E+02  0.45594000000E+02  0.51100000000E-03 0.  1.
    9900012    2    1    2    0    0 -0.18894530583E+02  0.24440927062E+02 -0.78968774943E+01  0.59301907800E+02  0.49999933929E+02 0.  0.
        -12    1    1    2    0    0  0.18894530583E+02 -0.24440927062E+02  0.78968774943E+01  0.31886092200E+02  0.00000000000E+00 0.  1.
         11    1    3    3    0    0 -0.20595787318E+02  0.18884938711E+02  0.58462741607E+00  0.27949403479E+02  0.51100000000E-03 0. -1.
        -11    1    3    3    0    0  0.21492325796E+01 -0.11347708874E+02  0.16090768669E+01  0.11660995926E+02  0.51100000000E-03 0.  1.
         12    1    3    3    0    0 -0.44797584475E+00  0.16903697225E+02 -0.10090581777E+02  0.19691508394E+02  0.00000000000E+00 0. -1.
</event>
<event>
 7    1  0.1338132E-011  0.5930192E+02  0.7816164E-02  0.1266605E+00
        -11   -1    0    0    0    0  0.00000000000E+00  0.00000000000E+00  0.45593999997E+02  0.45594000000E+02  0.51100000000E-03 0.  1.
         11   -1    0    0    0    0 -0.00000000000E+00 -0.00000000000E+00 -0.45593999997E+02  0.45594000000E+02  0.51100000000E-03 0. -1.
    9900012    2    1    2    0    0 -0.27469970617E+02  0.40083406061E+01 -0.15686177070E+02  0.59301917908E+02  0.49999952364E+02 0.  0.
        -12    1    1    2    0    0  0.27469970617E+02 -0.40083406061E+01  0.15686177070E+02  0.31886082092E+02  0.00000000000E+00 0.  1.
         11    1    3    3    0    0  0.76251178689E+00  0.64518890071E+00 -0.14247152492E+01  0.17399732024E+01  0.51100000000E-03 0. -1.
        -11    1    3    3    0    0  0.49217182848E+01 -0.11740682051E+02  0.78387717132E+01  0.14950360134E+02  0.51100000000E-03 0.  1.
         12    1    3    3    0    0 -0.33154200689E+02  0.15103833757E+02 -0.22100233534E+02  0.42611584572E+02  0.00000000000E+00 0. -1.
</event>
<event>
 7    1  0.1338132E-011  0.5930193E+02  0.7816164E-02  0.1266605E+00
        -11   -1    0    0    0    0  0.00000000000E+00  0.00000000000E+00  0.45593999997E+02  0.45594000000E+02  0.51100000000E-03 0.  1.
         11   -1    0    0    0    0 -0.00000000000E+00 -0.00000000000E+00 -0.45593999997E+02  0.45594000000E+02  0.51100000000E-03 0. -1.
    9900012    2    1    2    0    0  0.11717827824E+02 -0.11881886158E+02 -0.27170481363E+02  0.59301925216E+02  0.49999965693E+02 0.  0.
        -12    1    1    2    0    0 -0.11717827824E+02  0.11881886158E+02  0.27170481363E+02  0.31886074784E+02  0.00000000000E+00 0.  1.
         11    1    3    3    0    0 -0.79295220991E+00  0.97203141551E+01 -0.49033792389E+01  0.10915878742E+02  0.51100000000E-03 0. -1.
        -11    1    3    3    0    0  0.18109614858E+02  0.20947907469E+00 -0.17868257288E+02  0.25441632231E+02  0.51100000000E-03 0.  1.
        -12    1    3    3    0    0 -0.55988348245E+01 -0.21811679388E+02 -0.43988448366E+01  0.22944414244E+02  0.00000000000E+00 0.  1.
</event>
<event>
 7    1  0.1338132E-011  0.5930193E+02  0.7816164E-02  0.1266605E+00
        -11   -1    0    0    0    0  0.00000000000E+00  0.00000000000E+00  0.45593999997E+02  0.45594000000E+02  0.51100000000E-03 0. -1.
         11   -1    0    0    0    0 -0.00000000000E+00 -0.00000000000E+00 -0.45593999997E+02  0.45594000000E+02  0.51100000000E-03 0.  1.
    9900012    2    1    2    0    0  0.12911616013E+02  0.28459133492E+02 -0.63316235908E+01  0.59301928362E+02  0.49999971430E+02 0.  0.
        -12    1    1    2    0    0 -0.12911616013E+02 -0.28459133492E+02  0.63316235908E+01  0.31886071638E+02  0.00000000000E+00 0.  1.
         11    1    3    3    0    0 -0.47162391726E-01 -0.65764847093E+01  0.48551449670E+01  0.81746442329E+01  0.51100000000E-03 0. -1.
        -11    1    3    3    0    0 -0.83154065315E+01 -0.75244441815E-01 -0.47376740578E+01  0.95706427814E+01  0.51100000000E-03 0.  1.
        -12    1    3    3    0    0  0.21274184936E+02  0.35110862643E+02 -0.64490945000E+01  0.41556641348E+02  0.00000000000E+00 0.  1.
</event>
<event>
 7    1  0.1338132E-011  0.5930193E+02  0.7816164E-02  0.1266605E+00
        -11   -1    0    0    0    0  0.00000000000E+00  0.00000000000E+00  0.45593999997E+02  0.45594000000E+02  0.51100000000E-03 0.  1.
         11   -1    0    0    0    0 -0.00000000000E+00 -0.00000000000E+00 -0.45593999997E+02  0.45594000000E+02  0.51100000000E-03 0. -1.
    9900012    2    1    2    0    0  0.20869457084E+02  0.19694077481E+02  0.13904339237E+02  0.59301928175E+02  0.49999971089E+02 0.  0.
        -12    1    1    2    0    0 -0.20869457084E+02 -0.19694077481E+02 -0.13904339237E+02  0.31886071825E+02  0.00000000000E+00 0.  1.
         11    1    3    3    0    0  0.17520980328E+02  0.28451666609E+02  0.35337982434E+01  0.33600146053E+02  0.51100000000E-03 0. -1.
        -11    1    3    3    0    0  0.91574082531E+01 -0.55457576121E+01 -0.27012040795E+01  0.11041288745E+02  0.51100000000E-03 0.  1.
        -12    1    3    3    0    0 -0.58089314973E+01 -0.32118315157E+01  0.13071745073E+02  0.14660493378E+02  0.00000000000E+00 0.  1.
</event>
<event>
 7    1  0.1338132E-011  0.5930204E+02  0.7816164E-02  0.1266604E+00
        -11   -1    0    0    0    0  0.00000000000E+00  0.00000000000E+00  0.45593999997E+02  0.45594000000E+02  0.51100000000E-03 0.  1.
         11   -1    0    0    0    0 -0.00000000000E+00 -0.00000000000E+00 -0.45593999997E+02  0.45594000000E+02  0.51100000000E-03 0. -1.
    9900012    2    1    2    0    0 -0.18565263189E+02  0.15905771844E+02 -0.20470755794E+02  0.59302040425E+02  0.50000175805E+02 0.  0.
        -12    1    1    2    0    0  0.18565263189E+02 -0.15905771844E+02  0.20470755794E+02  0.31885959575E+02  0.00000000000E+00 0.  1.
         11    1    3    3    0    0  0.32851402293E+01  0.44237506921E+01 -0.87646461958E+01  0.10352813130E+02  0.51100000000E-03 0. -1.
        -11    1    3    3    0    0 -0.17713283009E+01  0.19153885483E+02 -0.18214108041E+02  0.26490803405E+02  0.51100000000E-03 0.  1.
        -12    1    3    3    0    0 -0.20079075117E+02 -0.76718643307E+01  0.65079984430E+01  0.22458423890E+02  0.00000000000E+00 0.  1.
</event>
<event>
 7    1  0.1338132E-011  0.5930194E+02  0.7816164E-02  0.1266605E+00
        -11   -1    0    0    0    0  0.00000000000E+00  0.00000000000E+00  0.45593999997E+02  0.45594000000E+02  0.51100000000E-03 0.  1.
         11   -1    0    0    0    0 -0.00000000000E+00 -0.00000000000E+00 -0.45593999997E+02  0.45594000000E+02  0.51100000000E-03 0. -1.
    9900012    2    1    2    0    0 -0.12034276876E+02 -0.23380559285E+02  0.18034584902E+02  0.59301943094E+02  0.49999998297E+02 0.  0.
        -12    1    1    2    0    0  0.12034276876E+02  0.23380559285E+02 -0.18034584902E+02  0.31886056906E+02  0.00000000000E+00 0.  1.
         11    1    3    3    0    0 -0.60996112225E+01  0.42198920310E+01 -0.11406292764E+01  0.75042508771E+01  0.51100000000E-03 0. -1.
        -11    1    3    3    0    0  0.16039467923E+02 -0.16020245226E+02  0.50566215824E+01  0.23226756348E+02  0.51100000000E-03 0.  1.
        -12    1    3    3    0    0 -0.21974133576E+02 -0.11580206090E+02  0.14118592596E+02  0.28570935869E+02  0.00000000000E+00 0.  1.
</event>
<event>
 7    1  0.1338132E-011  0.5930187E+02  0.7816164E-02  0.1266605E+00
        -11   -1    0    0    0    0  0.00000000000E+00  0.00000000000E+00  0.45593999997E+02  0.45594000000E+02  0.51100000000E-03 0.  1.
         11   -1    0    0    0    0 -0.00000000000E+00 -0.00000000000E+00 -0.45593999997E+02  0.45594000000E+02  0.51100000000E-03 0. -1.
    9900012    2    1    2    0    0  0.30340097165E+02 -0.80820471369E+01 -0.55573832856E+01  0.59301866793E+02  0.49999859142E+02 0.  0.
        -12    1    1    2    0    0 -0.30340097165E+02  0.80820471369E+01  0.55573832856E+01  0.31886133207E+02  0.00000000000E+00 0.  1.
         11    1    3    3    0    0  0.20400307611E+02  0.10410739961E+00 -0.25783782676E+02  0.32878364289E+02  0.51100000000E-03 0. -1.
        -11    1    3    3    0    0 -0.60513306816E-01 -0.63659815425E+01  0.49037249327E+01  0.80359132235E+01  0.51100000000E-03 0.  1.
        -12    1    3    3    0    0  0.10000302861E+02 -0.18201729940E+01  0.15322674457E+02  0.18387589281E+02  0.00000000000E+00 0.  1.
</event>
<event>
 7    1  0.1338132E-011  0.5930190E+02  0.7816164E-02  0.1266605E+00
        -11   -1    0    0    0    0  0.00000000000E+00  0.00000000000E+00  0.45593999997E+02  0.45594000000E+02  0.51100000000E-03 0.  1.
         11   -1    0    0    0    0 -0.00000000000E+00 -0.00000000000E+00 -0.45593999997E+02  0.45594000000E+02  0.51100000000E-03 0. -1.
    9900012    2    1    2    0    0 -0.21826901315E+02 -0.42640401846E-01 -0.23244520233E+02  0.59301903342E+02  0.49999925799E+02 0.  0.
        -12    1    1    2    0    0  0.21826901315E+02  0.42640401846E-01  0.23244520233E+02  0.31886096658E+02  0.00000000000E+00 0.  1.
         11    1    3    3    0    0 -0.19673772751E+02 -0.78180485301E+01 -0.17136234166E+02  0.27236551520E+02  0.51100000000E-03 0. -1.
        -11    1    3    3    0    0 -0.37277293282E+01 -0.11425468207E+02 -0.40876802454E+01  0.12694345976E+02  0.51100000000E-03 0.  1.
        -12    1    3    3    0    0  0.15746007636E+01  0.19200876336E+02 -0.20206058214E+01  0.19371005846E+02  0.00000000000E+00 0.  1.
</event>
<event>
 7    1  0.1338132E-011  0.5930194E+02  0.7816164E-02  0.1266605E+00
        -11   -1    0    0    0    0  0.00000000000E+00  0.00000000000E+00  0.45593999997E+02  0.45594000000E+02  0.51100000000E-03 0. -1.
         11   -1    0    0    0    0 -0.00000000000E+00 -0.00000000000E+00 -0.45593999997E+02  0.45594000000E+02  0.51100000000E-03 0.  1.
    9900012    2    1    2    0    0  0.69367989049E+01  0.28346962583E+02  0.12847230800E+02  0.59301940256E+02  0.49999993122E+02 0.  0.
        -12    1    1    2    0    0 -0.69367989049E+01 -0.28346962583E+02 -0.12847230800E+02  0.31886059744E+02  0.00000000000E+00 0.  1.
         11    1    3    3    0    0  0.74155045268E+01 -0.79141085599E+00 -0.14157018583E+02  0.16001162894E+02  0.51100000000E-03 0. -1.
        -11    1    3    3    0    0  0.48602082847E+00  0.16810372915E+01 -0.24572092371E+01  0.30166173303E+01  0.51100000000E-03 0.  1.
         12    1    3    3    0    0 -0.96472645036E+00  0.27457336148E+02  0.29461458621E+02  0.40284160032E+02  0.00000000000E+00 0. -1.
</event>
<event>
 7    1  0.1338132E-011  0.5930213E+02  0.7816164E-02  0.1266604E+00
        -11   -1    0    0    0    0  0.00000000000E+00  0.00000000000E+00  0.45593999997E+02  0.45594000000E+02  0.51100000000E-03 0.  1.
         11   -1    0    0    0    0 -0.00000000000E+00 -0.00000000000E+00 -0.45593999997E+02  0.45594000000E+02  0.51100000000E-03 0. -1.
    9900012    2    1    2    0    0 -0.12625372499E+01  0.22972889172E+02 -0.22076250103E+02  0.59302133918E+02  0.50000346313E+02 0.  0.
        -12    1    1    2    0    0  0.12625372499E+01 -0.22972889172E+02  0.22076250103E+02  0.31885866082E+02  0.00000000000E+00 0.  1.
         11    1    3    3    0    0 -0.60040421013E+01  0.10920668583E+02 -0.20855055930E+02  0.24294914735E+02  0.51100000000E-03 0. -1.
        -11    1    3    3    0    0 -0.33339168060E+01 -0.10505662916E+02 -0.63582863665E+00  0.11040300399E+02  0.51100000000E-03 0.  1.
        -12    1    3    3    0    0  0.80754216574E+01  0.22557883506E+02 -0.58536553600E+00  0.23966918784E+02  0.00000000000E+00 0.  1.
</event>
<event>
 7    1  0.1338132E-011  0.5930198E+02  0.7816164E-02  0.1266605E+00
        -11   -1    0    0    0    0  0.00000000000E+00  0.00000000000E+00  0.45593999997E+02  0.45594000000E+02  0.51100000000E-03 0.  1.
         11   -1    0    0    0    0 -0.00000000000E+00 -0.00000000000E+00 -0.45593999997E+02  0.45594000000E+02  0.51100000000E-03 0. -1.
    9900012    2    1    2    0    0 -0.94222567829E+01 -0.18169116889E+02 -0.24450408133E+02  0.59301981288E+02  0.50000067955E+02 0.  0.
        -12    1    1    2    0    0  0.94222567829E+01  0.18169116889E+02  0.24450408133E+02  0.31886018712E+02  0.00000000000E+00 0.  1.
         11    1    3    3    0    0 -0.68609256959E+01 -0.12919366420E+02 -0.73675554371E+01  0.16378742426E+02  0.51100000000E-03 0. -1.
        -11    1    3    3    0    0  0.14638799730E+02 -0.13840333194E+02 -0.83784278782E+01  0.21818508987E+02  0.51100000000E-03 0.  1.
         12    1    3    3    0    0 -0.17200130817E+02  0.85905827246E+01 -0.87044248179E+01  0.21104729875E+02  0.00000000000E+00 0. -1.
</event>
<event>
 7    1  0.1338132E-011  0.5930203E+02  0.7816164E-02  0.1266604E+00
        -11   -1    0    0    0    0  0.00000000000E+00  0.00000000000E+00  0.45593999997E+02  0.45594000000E+02  0.51100000000E-03 0. -1.
         11   -1    0    0    0    0 -0.00000000000E+00 -0.00000000000E+00 -0.45593999997E+02  0.45594000000E+02  0.51100000000E-03 0.  1.
    9900012    2    1    2    0    0  0.29554779882E+02 -0.10562340331E+02  0.56273410360E+01  0.59302031075E+02  0.50000158754E+02 0.  0.
        -12    1    1    2    0    0 -0.29554779882E+02  0.10562340331E+02 -0.56273410360E+01  0.31885968925E+02  0.00000000000E+00 0.  1.
         11    1    3    3    0    0 -0.17781503664E+01  0.96968129400E+01 -0.43293337870E+01  0.10767224862E+02  0.51100000000E-03 0. -1.
        -11    1    3    3    0    0 -0.16484668984E+01  0.53333121465E+01  0.25479748209E+01  0.61362722818E+01  0.51100000000E-03 0.  1.
         12    1    3    3    0    0  0.32981397147E+02 -0.25592465417E+02  0.74087000022E+01  0.42398533932E+02  0.00000000000E+00 0. -1.
</event>
<event>
 7    1  0.1338132E-011  0.5930195E+02  0.7816164E-02  0.1266605E+00
        -11   -1    0    0    0    0  0.00000000000E+00  0.00000000000E+00  0.45593999997E+02  0.45594000000E+02  0.51100000000E-03 0. -1.
         11   -1    0    0    0    0 -0.00000000000E+00 -0.00000000000E+00 -0.45593999997E+02  0.45594000000E+02  0.51100000000E-03 0.  1.
    9900012    2    1    2    0    0 -0.13344966575E+02  0.28494895025E+02  0.51645862481E+01  0.59301950912E+02  0.50000012555E+02 0.  0.
        -12    1    1    2    0    0  0.13344966575E+02 -0.28494895025E+02 -0.51645862481E+01  0.31886049088E+02  0.00000000000E+00 0.  1.
         11    1    3    3    0    0 -0.10455115294E+02  0.22204602608E+02  0.17523726550E+02  0.30156836792E+02  0.51100000000E-03 0. -1.
        -11    1    3    3    0    0 -0.10431133366E+02 -0.52932768471E+01 -0.19886708235E+01  0.11865164769E+02  0.51100000000E-03 0.  1.
         12    1    3    3    0    0  0.75412820856E+01  0.11583569263E+02 -0.10370469479E+02  0.17279949351E+02  0.00000000000E+00 0. -1.
</event>
<event>
 7    1  0.1338132E-011  0.5930196E+02  0.7816164E-02  0.1266605E+00
        -11   -1    0    0    0    0  0.00000000000E+00  0.00000000000E+00  0.45593999997E+02  0.45594000000E+02  0.51100000000E-03 0.  1.
         11   -1    0    0    0    0 -0.00000000000E+00 -0.00000000000E+00 -0.45593999997E+02  0.45594000000E+02  0.51100000000E-03 0. -1.
    9900012    2    1    2    0    0 -0.29829832514E+01  0.16881138358E+01 -0.31701284230E+02  0.59301963256E+02  0.50000035068E+02 0.  0.
        -12    1    1    2    0    0  0.29829832514E+01 -0.16881138358E+01  0.31701284230E+02  0.31886036744E+02  0.00000000000E+00 0.  1.
         11    1    3    3    0    0 -0.85510261557E+01  0.12385818239E+02 -0.12449496984E+02  0.19532499000E+02  0.51100000000E-03 0. -1.
        -11    1    3    3    0    0 -0.12901357958E+02 -0.24364603509E+01 -0.13278070524E+02  0.18673203617E+02  0.51100000000E-03 0.  1.
        -12    1    3    3    0    0  0.18469400863E+02 -0.82612440521E+01 -0.59737167212E+01  0.21096260640E+02  0.00000000000E+00 0.  1.
</event>
<event>
 7    1  0.1338132E-011  0.5930190E+02  0.7816164E-02  0.1266605E+00
        -11   -1    0    0    0    0  0.00000000000E+00  0.00000000000E+00  0.45593999997E+02  0.45594000000E+02  0.51100000000E-03 0. -1.
         11   -1    0    0    0    0 -0.00000000000E+00 -0.00000000000E+00 -0.45593999997E+02  0.45594000000E+02  0.51100000000E-03 0.  1.
    9900012    2    1    2    0    0  0.24016085410E+01  0.20631351948E+02  0.24193035979E+02  0.59301899632E+02  0.49999919033E+02 0.  0.
        -12    1    1    2    0    0 -0.24016085410E+01 -0.20631351948E+02 -0.24193035979E+02  0.31886100368E+02  0.00000000000E+00 0.  1.
         11    1    3    3    0    0 -0.28841855743E+01 -0.11402651045E+01 -0.90466173803E+00  0.32306569079E+01  0.51100000000E-03 0. -1.
        -11    1    3    3    0    0 -0.11751693051E+02 -0.62539479055E+00 -0.67543058711E+01  0.13568863485E+02  0.51100000000E-03 0.  1.
         12    1    3    3    0    0  0.17037487166E+02  0.22397011843E+02  0.31852003588E+02  0.42502379239E+02  0.00000000000E+00 0. -1.
</event>
<event>
 7    1  0.1338132E-011  0.5930191E+02  0.7816164E-02  0.1266605E+00
        -11   -1    0    0    0    0  0.00000000000E+00  0.00000000000E+00  0.45593999997E+02  0.45594000000E+02  0.51100000000E-03 0. -1.
         11   -1    0    0    0    0 -0.00000000000E+00 -0.00000000000E+00 -0.45593999997E+02  0.45594000000E+02  0.51100000000E-03 0.  1.
    9900012    2    1    2    0    0 -0.14037174210E+02 -0.27323458679E+02 -0.85503716279E+01  0.59301913552E+02  0.49999944420E+02 0.  0.
        -12    1    1    2    0    0  0.14037174210E+02  0.27323458679E+02  0.85503716279E+01  0.31886086448E+02  0.00000000000E+00 0.  1.
         11    1    3    3    0    0 -0.17415481791E+02 -0.19005726781E+02  0.71101488093E+01  0.26740809129E+02  0.51100000000E-03 0. -1.
        -11    1    3    3    0    0 -0.10794678928E+02 -0.67634854442E+01 -0.21499320591E+01  0.12918670080E+02  0.51100000000E-03 0.  1.
        -12    1    3    3    0    0  0.14172986509E+02 -0.15542464533E+01 -0.13510588378E+02  0.19642434344E+02  0.00000000000E+00 0.  1.
</event>
<event>
 7    1  0.1338132E-011  0.5930195E+02  0.7816164E-02  0.1266605E+00
        -11   -1    0    0    0    0  0.00000000000E+00  0.00000000000E+00  0.45593999997E+02  0.45594000000E+02  0.51100000000E-03 0. -1.
         11   -1    0    0    0    0 -0.00000000000E+00 -0.00000000000E+00 -0.45593999997E+02  0.45594000000E+02  0.51100000000E-03 0.  1.
    9900012    2    1    2    0    0  0.28479040237E+02  0.99231195979E+01  0.10353553200E+02  0.59301951338E+02  0.50000013333E+02 0.  0.
        -12    1    1    2    0    0 -0.28479040237E+02 -0.99231195979E+01 -0.10353553200E+02  0.31886048662E+02  0.00000000000E+00 0.  1.
         11    1    3    3    0    0  0.37513638470E+01  0.75658951806E+01  0.90086887029E+01  0.12347954203E+02  0.51100000000E-03 0. -1.
        -11    1    3    3    0    0 -0.42420321144E+01 -0.10048835746E+01  0.14367573608E+02  0.15014386405E+02  0.51100000000E-03 0.  1.
        -12    1    3    3    0    0  0.28969708505E+02  0.33621079919E+01 -0.13022709111E+02  0.31939610730E+02  0.00000000000E+00 0.  1.
</event>
<event>
 7    1  0.1338132E-011  0.5930194E+02  0.7816164E-02  0.1266605E+00
        -11   -1    0    0    0    0  0.00000000000E+00  0.00000000000E+00  0.45593999997E+02  0.45594000000E+02  0.51100000000E-03 0.  1.
         11   -1    0    0    0    0 -0.00000000000E+00 -0.00000000000E+00 -0.45593999997E+02  0.45594000000E+02  0.51100000000E-03 0. -1.
    9900012    2    1    2    0    0  0.15188433716E+02 -0.15768763260E+02 -0.23181425369E+02  0.59301938850E+02  0.49999990557E+02 0.  0.
        -12    1    1    2    0    0 -0.15188433716E+02  0.15768763260E+02  0.23181425369E+02  0.31886061150E+02  0.00000000000E+00 0.  1.
         11    1    3    3    0    0  0.18938808096E+02 -0.15367617614E+02 -0.10176521660E+02  0.26427328972E+02  0.51100000000E-03 0. -1.
        -11    1    3    3    0    0  0.27280009389E+01 -0.11008066548E+02  0.38108398859E+01  0.11964197389E+02  0.51100000000E-03 0.  1.
        -12    1    3    3    0    0 -0.64783753187E+01  0.10606920903E+02 -0.16815743595E+02  0.20910412489E+02  0.00000000000E+00 0.  1.
</event>
<event>
 7    1  0.1338132E-011  0.5930195E+02  0.7816164E-02  0.1266605E+00
        -11   -1    0    0    0    0  0.00000000000E+00  0.00000000000E+00  0.45593999997E+02  0.45594000000E+02  0.51100000000E-03 0.  1.
         11   -1    0    0    0    0 -0.00000000000E+00 -0.00000000000E+00 -0.45593999997E+02  0.45594000000E+02  0.51100000000E-03 0. -1.
    9900012    2    1    2    0    0 -0.36828563368E+01 -0.16225084527E+02 -0.27201159362E+02  0.59301954944E+02  0.50000019908E+02 0.  0.
        -12    1    1    2    0    0  0.36828563368E+01  0.16225084527E+02  0.27201159362E+02  0.31886045056E+02  0.00000000000E+00 0.  1.
         11    1    3    3    0    0  0.45291385543E+01  0.78112938044E+01 -0.37986371339E+01  0.97958690926E+01  0.51100000000E-03 0. -1.
        -11    1    3    3    0    0 -0.11947451740E+02  0.56050799687E+01 -0.10913150589E+02  0.17124700890E+02  0.51100000000E-03 0.  1.
         12    1    3    3    0    0  0.37354568493E+01 -0.29641458300E+02 -0.12489371639E+02  0.32381384961E+02  0.00000000000E+00 0. -1.
</event>
<event>
 7    1  0.1338132E-011  0.5930195E+02  0.7816164E-02  0.1266605E+00
        -11   -1    0    0    0    0  0.00000000000E+00  0.00000000000E+00  0.45593999997E+02  0.45594000000E+02  0.51100000000E-03 0.  1.
         11   -1    0    0    0    0 -0.00000000000E+00 -0.00000000000E+00 -0.45593999997E+02  0.45594000000E+02  0.51100000000E-03 0. -1.
    9900012    2    1    2    0    0 -0.60658501406E+01  0.51825004803E+01 -0.30871784670E+02  0.59301953869E+02  0.50000017949E+02 0.  0.
        -12    1    1    2    0    0  0.60658501406E+01 -0.51825004803E+01  0.30871784670E+02  0.31886046131E+02  0.00000000000E+00 0.  1.
         11    1    3    3    0    0  0.25103484802E+01 -0.44164014570E+01 -0.33775662249E+02  0.34155553164E+02  0.51100000000E-03 0. -1.
        -11    1    3    3    0    0  0.23042428495E+01 -0.42476796283E+00 -0.69745510121E+01  0.73576032112E+01  0.51100000000E-03 0.  1.
        -12    1    3    3    0    0 -0.10880441470E+02  0.10023669900E+02  0.98784285914E+01  0.17788797494E+02  0.00000000000E+00 0.  1.
</event>
<event>
 7    1  0.1338132E-011  0.5930193E+02  0.7816164E-02  0.1266605E+00
        -11   -1    0    0    0    0  0.00000000000E+00  0.00000000000E+00  0.45593999997E+02  0.45594000000E+02  0.51100000000E-03 0. -1.
         11   -1    0    0    0    0 -0.00000000000E+00 -0.00000000000E+00 -0.45593999997E+02  0.45594000000E+02  0.51100000000E-03 0.  1.
    9900012    2    1    2    0    0  0.74255399310E+01 -0.10976028063E+02  0.29001888241E+02  0.59301931618E+02  0.49999977367E+02 0.  0.
        -12    1    1    2    0    0 -0.74255399310E+01  0.10976028063E+02 -0.29001888241E+02  0.31886068382E+02  0.00000000000E+00 0.  1.
         11    1    3    3    0    0  0.11011870676E+02 -0.36408542439E+01  0.31995528552E+02  0.34032792465E+02  0.51100000000E-03 0. -1.
        -11    1    3    3    0    0  0.49726482085E+01 -0.12082814986E+02  0.34958683649E+01  0.13525632853E+02  0.51100000000E-03 0.  1.
        -12    1    3    3    0    0 -0.85589789536E+01  0.47476411666E+01 -0.64895086751E+01  0.11743506300E+02  0.00000000000E+00 0.  1.
</event>
<event>
 7    1  0.1338132E-011  0.5930194E+02  0.7816164E-02  0.1266605E+00
        -11   -1    0    0    0    0  0.00000000000E+00  0.00000000000E+00  0.45593999997E+02  0.45594000000E+02  0.51100000000E-03 0. -1.
         11   -1    0    0    0    0 -0.00000000000E+00 -0.00000000000E+00 -0.45593999997E+02  0.45594000000E+02  0.51100000000E-03 0.  1.
    9900012    2    1    2    0    0  0.30802534258E+02 -0.45121069011E+01 -0.68967764326E+01  0.59301941125E+02  0.49999994706E+02 0.  0.
        -12    1    1    2    0    0 -0.30802534258E+02  0.45121069011E+01  0.68967764326E+01  0.31886058875E+02  0.00000000000E+00 0.  1.
         11    1    3    3    0    0  0.24797291448E+02  0.87979914777E+01 -0.41136865158E+01  0.26631423811E+02  0.51100000000E-03 0. -1.
        -11    1    3    3    0    0 -0.93376504093E+01 -0.67930204854E+01 -0.92451153082E+01  0.14792193881E+02  0.51100000000E-03 0.  1.
         12    1    3    3    0    0  0.15342893219E+02 -0.65170778934E+01  0.64620253914E+01  0.17878323433E+02  0.00000000000E+00 0. -1.
</event>
<event>
 7    1  0.1338132E-011  0.5930185E+02  0.7816164E-02  0.1266605E+00
        -11   -1    0    0    0    0  0.00000000000E+00  0.00000000000E+00  0.45593999997E+02  0.45594000000E+02  0.51100000000E-03 0.  1.
         11   -1    0    0    0    0 -0.00000000000E+00 -0.00000000000E+00 -0.45593999997E+02  0.45594000000E+02  0.51100000000E-03 0. -1.
    9900012    2    1    2    0    0  0.23681485638E+02 -0.18778441318E+02 -0.10162860925E+02  0.59301853125E+02  0.49999834215E+02 0.  0.
        -12    1    1    2    0    0 -0.23681485638E+02  0.18778441318E+02  0.10162860925E+02  0.31886146875E+02  0.00000000000E+00 0.  1.
         11    1    3    3    0    0  0.20063565913E+02 -0.24148499038E+02 -0.93777264100E+01  0.32766422383E+02  0.51100000000E-03 0. -1.
        -11    1    3    3    0    0  0.13170780752E+02 -0.81862066628E+00  0.45582868475E+01  0.13961288790E+02  0.51100000000E-03 0.  1.
        -12    1    3    3    0    0 -0.95528610272E+01  0.61886783862E+01 -0.53434213622E+01  0.12574141952E+02  0.00000000000E+00 0.  1.
</event>
<event>
 7    1  0.1338132E-011  0.5930190E+02  0.7816164E-02  0.1266605E+00
        -11   -1    0    0    0    0  0.00000000000E+00  0.00000000000E+00  0.45593999997E+02  0.45594000000E+02  0.51100000000E-03 0.  1.
         11   -1    0    0    0    0 -0.00000000000E+00 -0.00000000000E+00 -0.45593999997E+02  0.45594000000E+02  0.51100000000E-03 0. -1.
    9900012    2    1    2    0    0 -0.63442138588E+00  0.30823852890E+02 -0.81370202936E+01  0.59301898063E+02  0.49999916170E+02 0.  0.
        -12    1    1    2    0    0  0.63442138588E+00 -0.30823852890E+02  0.81370202936E+01  0.31886101937E+02  0.00000000000E+00 0.  1.
         11    1    3    3    0    0 -0.76913291919E+01  0.31632898306E+02  0.10289390546E+02  0.34141885684E+02  0.51100000000E-03 0. -1.
        -11    1    3    3    0    0  0.38394637391E+01 -0.14337749641E+01  0.19379942603E+01  0.45335432573E+01  0.51100000000E-03 0.  1.
        -12    1    3    3    0    0  0.32174440669E+01  0.62472954879E+00 -0.20364405100E+02  0.20626469122E+02  0.00000000000E+00 0.  1.
</event>
<event>
 7    1  0.1338132E-011  0.5930197E+02  0.7816164E-02  0.1266605E+00
        -11   -1    0    0    0    0  0.00000000000E+00  0.00000000000E+00  0.45593999997E+02  0.45594000000E+02  0.51100000000E-03 0. -1.
         11   -1    0    0    0    0 -0.00000000000E+00 -0.00000000000E+00 -0.45593999997E+02  0.45594000000E+02  0.51100000000E-03 0.  1.
    9900012    2    1    2    0    0  0.14834218862E+02 -0.28173664199E+02  0.17058112234E+01  0.59301965509E+02  0.50000039176E+02 0.  0.
        -12    1    1    2    0    0 -0.14834218862E+02  0.28173664199E+02 -0.17058112234E+01  0.31886034491E+02  0.00000000000E+00 0.  1.
         11    1    3    3    0    0  0.63082305231E+00 -0.19308326427E+02  0.49386561574E+01  0.19939903010E+02  0.51100000000E-03 0. -1.
        -11    1    3    3    0    0 -0.10440976702E+02 -0.76247953298E+01  0.41958390857E+01  0.13592518686E+02  0.51100000000E-03 0.  1.
        -12    1    3    3    0    0  0.24644372512E+02 -0.12405424419E+01 -0.74286840197E+01  0.25769543813E+02  0.00000000000E+00 0.  1.
</event>
<event>
 7    1  0.1338132E-011  0.5930194E+02  0.7816164E-02  0.1266605E+00
        -11   -1    0    0    0    0  0.00000000000E+00  0.00000000000E+00  0.45593999997E+02  0.45594000000E+02  0.51100000000E-03 0.  1.
         11   -1    0    0    0    0 -0.00000000000E+00 -0.00000000000E+00 -0.45593999997E+02  0.45594000000E+02  0.51100000000E-03 0. -1.
    9900012    2    1    2    0    0  0.29647248996E+02 -0.14881716433E+01  0.11642454839E+02  0.59301940624E+02  0.49999993793E+02 0.  0.
        -12    1    1    2    0    0 -0.29647248996E+02  0.14881716433E+01 -0.11642454839E+02  0.31886059376E+02  0.00000000000E+00 0.  1.
         11    1    3    3    0    0  0.67753947680E+00  0.12349578317E+02  0.15144994981E+02  0.19553567899E+02  0.51100000000E-03 0. -1.
        -11    1    3    3    0    0  0.57740854305E+01  0.13808950086E+01  0.77910330526E+01  0.97952605821E+01  0.51100000000E-03 0.  1.
        -12    1    3    3    0    0  0.23195624088E+02 -0.15218644969E+02 -0.11293573195E+02  0.29953112143E+02  0.00000000000E+00 0.  1.
</event>
<event>
 7    1  0.1338132E-011  0.5930193E+02  0.7816164E-02  0.1266605E+00
        -11   -1    0    0    0    0  0.00000000000E+00  0.00000000000E+00  0.45593999997E+02  0.45594000000E+02  0.51100000000E-03 0. -1.
         11   -1    0    0    0    0 -0.00000000000E+00 -0.00000000000E+00 -0.45593999997E+02  0.45594000000E+02  0.51100000000E-03 0.  1.
    9900012    2    1    2    0    0 -0.17210424540E+02 -0.38329917512E+00  0.26839812759E+02  0.59301934391E+02  0.49999982425E+02 0.  0.
        -12    1    1    2    0    0  0.17210424540E+02  0.38329917512E+00 -0.26839812759E+02  0.31886065609E+02  0.00000000000E+00 0.  1.
         11    1    3    3    0    0 -0.22987139502E+02  0.72119853104E+00  0.33061065650E+02  0.40273598945E+02  0.51100000000E-03 0. -1.
        -11    1    3    3    0    0 -0.23373273925E+01 -0.62525583441E+01  0.13307617048E+01  0.68065051357E+01  0.51100000000E-03 0.  1.
        -12    1    3    3    0    0  0.81140423543E+01  0.51480606379E+01 -0.75520145964E+01  0.12221830310E+02  0.00000000000E+00 0.  1.
</event>
<event>
 7    1  0.1338132E-011  0.5930195E+02  0.7816164E-02  0.1266605E+00
        -11   -1    0    0    0    0  0.00000000000E+00  0.00000000000E+00  0.45593999997E+02  0.45594000000E+02  0.51100000000E-03 0.  1.
         11   -1    0    0    0    0 -0.00000000000E+00 -0.00000000000E+00 -0.45593999997E+02  0.45594000000E+02  0.51100000000E-03 0. -1.
    9900012    2    1    2    0    0 -0.21702613209E+00  0.23789459940E+01 -0.31796445361E+02  0.59301946278E+02  0.50000004104E+02 0.  0.
        -12    1    1    2    0    0  0.21702613209E+00 -0.23789459940E+01  0.31796445361E+02  0.31886053722E+02  0.00000000000E+00 0.  1.
         11    1    3    3    0    0 -0.82328885524E+01  0.35792196479E+01 -0.55551200345E+01  0.10557017858E+02  0.51100000000E-03 0. -1.
        -11    1    3    3    0    0  0.95199690817E+01  0.96540729266E+01  0.59003291508E+01  0.14786643288E+02  0.51100000000E-03 0.  1.
         12    1    3    3    0    0 -0.15041066613E+01 -0.10854346580E+02 -0.32141654477E+02  0.33958285131E+02  0.00000000000E+00 0. -1.
</event>
<event>
 7    1  0.1338132E-011  0.5930191E+02  0.7816164E-02  0.1266605E+00
        -11   -1    0    0    0    0  0.00000000000E+00  0.00000000000E+00  0.45593999997E+02  0.45594000000E+02  0.51100000000E-03 0.  1.
         11   -1    0    0    0    0 -0.00000000000E+00 -0.00000000000E+00 -0.45593999997E+02  0.45594000000E+02  0.51100000000E-03 0. -1.
    9900012    2    1    2    0    0 -0.16432296397E+02  0.14974431610E+02 -0.22857579621E+02  0.59301907216E+02  0.49999932864E+02 0.  0.
        -12    1    1    2    0    0  0.16432296397E+02 -0.14974431610E+02  0.22857579621E+02  0.31886092784E+02  0.00000000000E+00 0.  1.
         11    1    3    3    0    0  0.73735867074E+01  0.66874138411E+01 -0.42219299169E+01  0.10812769178E+02  0.51100000000E-03 0. -1.
        -11    1    3    3    0    0 -0.43994348578E+01  0.39352232050E+01  0.11183726067E+02  0.12645818983E+02  0.51100000000E-03 0.  1.
         12    1    3    3    0    0 -0.19406448247E+02  0.43517945636E+01 -0.29819375771E+02  0.35843319055E+02  0.00000000000E+00 0. -1.
</event>
<event>
 7    1  0.1338132E-011  0.5930187E+02  0.7816164E-02  0.1266605E+00
        -11   -1    0    0    0    0  0.00000000000E+00  0.00000000000E+00  0.45593999997E+02  0.45594000000E+02  0.51100000000E-03 0. -1.
         11   -1    0    0    0    0 -0.00000000000E+00 -0.00000000000E+00 -0.45593999997E+02  0.45594000000E+02  0.51100000000E-03 0.  1.
    9900012    2    1    2    0    0  0.12128900093E+02 -0.45800079545E+01  0.29131400210E+02  0.59301871848E+02  0.49999868361E+02 0.  0.
        -12    1    1    2    0    0 -0.12128900093E+02  0.45800079545E+01 -0.29131400210E+02  0.31886128152E+02  0.00000000000E+00 0.  1.
         11    1    3    3    0    0  0.11381882709E+02  0.10110663825E+02  0.12611860120E+02  0.19769466177E+02  0.51100000000E-03 0. -1.
        -11    1    3    3    0    0  0.13764166224E+02 -0.44545000853E+00 -0.53128455908E+00  0.13781616781E+02  0.51100000000E-03 0.  1.
        -12    1    3    3    0    0 -0.13017148840E+02 -0.14245221771E+02  0.17050824649E+02  0.25750788890E+02  0.00000000000E+00 0.  1.
</event>
<event>
 7    1  0.1338132E-011  0.5930199E+02  0.7816164E-02  0.1266605E+00
        -11   -1    0    0    0    0  0.00000000000E+00  0.00000000000E+00  0.45593999997E+02  0.45594000000E+02  0.51100000000E-03 0.  1.
         11   -1    0    0    0    0 -0.00000000000E+00 -0.00000000000E+00 -0.45593999997E+02  0.45594000000E+02  0.51100000000E-03 0. -1.
    9900012    2    1    2    0    0  0.14165100902E+02  0.23351920080E+02 -0.16454644919E+02  0.59301990616E+02  0.50000084966E+02 0.  0.
        -12    1    1    2    0    0 -0.14165100902E+02 -0.23351920080E+02  0.16454644919E+02  0.31886009384E+02  0.00000000000E+00 0.  1.
         11    1    3    3    0    0  0.70540263937E+01  0.68681691808E+01 -0.14077253878E+02  0.17178478200E+02  0.51100000000E-03 0. -1.
        -11    1    3    3    0    0  0.14242393620E+01  0.26923388021E+02  0.59489942657E+01  0.27609560180E+02  0.51100000000E-03 0.  1.
         12    1    3    3    0    0  0.56868351466E+01 -0.10439637122E+02 -0.83263853075E+01  0.14513952236E+02  0.00000000000E+00 0. -1.
</event>
<event>
 7    1  0.1338132E-011  0.5930202E+02  0.7816164E-02  0.1266604E+00
        -11   -1    0    0    0    0  0.00000000000E+00  0.00000000000E+00  0.45593999997E+02  0.45594000000E+02  0.51100000000E-03 0.  1.
         11   -1    0    0    0    0 -0.00000000000E+00 -0.00000000000E+00 -0.45593999997E+02  0.45594000000E+02  0.51100000000E-03 0. -1.
    9900012    2    1    2    0    0 -0.25803577283E+02 -0.17565335151E+02  0.65076992127E+01  0.59302019560E+02  0.50000137752E+02 0.  0.
        -12    1    1    2    0    0  0.25803577283E+02  0.17565335151E+02 -0.65076992127E+01  0.31885980440E+02  0.00000000000E+00 0.  1.
         11    1    3    3    0    0 -0.28447063204E+01 -0.12629947329E+02 -0.62573991414E+01  0.14379254774E+02  0.51100000000E-03 0. -1.
        -11    1    3    3    0    0 -0.24430256139E+02 -0.12161735787E+02  0.20578120978E+02  0.34179003724E+02  0.51100000000E-03 0.  1.
         12    1    3    3    0    0  0.14713851761E+01  0.72263479641E+01 -0.78130226235E+01  0.10743761062E+02  0.00000000000E+00 0. -1.
</event>
<event>
 7    1  0.1338132E-011  0.5930192E+02  0.7816164E-02  0.1266605E+00
        -11   -1    0    0    0    0  0.00000000000E+00  0.00000000000E+00  0.45593999997E+02  0.45594000000E+02  0.51100000000E-03 0. -1.
         11   -1    0    0    0    0 -0.00000000000E+00 -0.00000000000E+00 -0.45593999997E+02  0.45594000000E+02  0.51100000000E-03 0.  1.
    9900012    2    1    2    0    0  0.30675274498E+02  0.62590004335E+00  0.86808793281E+01  0.59301923379E+02  0.49999962341E+02 0.  0.
        -12    1    1    2    0    0 -0.30675274498E+02 -0.62590004335E+00 -0.86808793281E+01  0.31886076621E+02  0.00000000000E+00 0.  1.
         11    1    3    3    0    0 -0.37892185032E+01 -0.89482152448E+01  0.13086404382E+01  0.98051656279E+01  0.51100000000E-03 0. -1.
        -11    1    3    3    0    0 -0.58972580927E-01 -0.65080039922E+01  0.93131107716E+01  0.11361849596E+02  0.51100000000E-03 0.  1.
        -12    1    3    3    0    0  0.34523465582E+02  0.16082119280E+02 -0.19408718817E+01  0.38134908155E+02  0.00000000000E+00 0.  1.
</event>
<event>
 7    1  0.1338132E-011  0.5930193E+02  0.7816164E-02  0.1266605E+00
        -11   -1    0    0    0    0  0.00000000000E+00  0.00000000000E+00  0.45593999997E+02  0.45594000000E+02  0.51100000000E-03 0.  1.
         11   -1    0    0    0    0 -0.00000000000E+00 -0.00000000000E+00 -0.45593999997E+02  0.45594000000E+02  0.51100000000E-03 0. -1.
    9900012    2    1    2    0    0  0.18583682873E+02  0.41429077101E+01 -0.25577420770E+02  0.59301930838E+02  0.49999975944E+02 0.  0.
        -12    1    1    2    0    0 -0.18583682873E+02 -0.41429077101E+01  0.25577420770E+02  0.31886069162E+02  0.00000000000E+00 0.  1.
         11    1    3    3    0    0 -0.33974381469E+01  0.51672019304E+01 -0.26776265808E+01  0.67388608918E+01  0.51100000000E-03 0. -1.
        -11    1    3    3    0    0  0.18357908639E+01  0.16598274362E+02  0.93179970783E+00  0.16725462351E+02  0.51100000000E-03 0.  1.
         12    1    3    3    0    0  0.20145330156E+02 -0.17622568582E+02 -0.23831593897E+02  0.35837607595E+02  0.00000000000E+00 0. -1.
</event>
<event>
 7    1  0.1338132E-011  0.5930184E+02  0.7816164E-02  0.1266605E+00
        -11   -1    0    0    0    0  0.00000000000E+00  0.00000000000E+00  0.45593999997E+02  0.45594000000E+02  0.51100000000E-03 0.  1.
         11   -1    0    0    0    0 -0.00000000000E+00 -0.00000000000E+00 -0.45593999997E+02  0.45594000000E+02  0.51100000000E-03 0. -1.
    9900012    2    1    2    0    0 -0.89663337643E+01  0.27643728629E+02 -0.13120825847E+02  0.59301843998E+02  0.49999817569E+02 0.  0.
        -12    1    1    2    0    0  0.89663337643E+01 -0.27643728629E+02  0.13120825847E+02  0.31886156002E+02  0.00000000000E+00 0.  1.
         11    1    3    3    0    0  0.10445110963E+02  0.15636809183E+02 -0.93945246548E+01  0.21020638387E+02  0.51100000000E-03 0. -1.
        -11    1    3    3    0    0 -0.50399901881E+01 -0.10035383172E+02 -0.41281283263E+01  0.11964608654E+02  0.51100000000E-03 0.  1.
         12    1    3    3    0    0 -0.14371454539E+02  0.22042302619E+02  0.40182713422E+00  0.26316596956E+02  0.00000000000E+00 0. -1.
</event>
<event>
 7    1  0.1338132E-011  0.5930194E+02  0.7816164E-02  0.1266605E+00
        -11   -1    0    0    0    0  0.00000000000E+00  0.00000000000E+00  0.45593999997E+02  0.45594000000E+02  0.51100000000E-03 0. -1.
         11   -1    0    0    0    0 -0.00000000000E+00 -0.00000000000E+00 -0.45593999997E+02  0.45594000000E+02  0.51100000000E-03 0.  1.
    9900012    2    1    2    0    0  0.19326916624E+02 -0.11778370602E+01  0.25333846804E+02  0.59301940347E+02  0.49999993287E+02 0.  0.
        -12    1    1    2    0    0 -0.19326916624E+02  0.11778370602E+01 -0.25333846804E+02  0.31886059653E+02  0.00000000000E+00 0.  1.
         11    1    3    3    0    0  0.42671706942E+01 -0.50836521346E+00 -0.36046051583E+01  0.56089535149E+01  0.51100000000E-03 0. -1.
        -11    1    3    3    0    0  0.91517241933E+01 -0.21610496281E+02  0.15117547634E+02  0.27916085900E+02  0.51100000000E-03 0.  1.
         12    1    3    3    0    0  0.59080217365E+01  0.20941024435E+02  0.13820904328E+02  0.25776900932E+02  0.00000000000E+00 0. -1.
</event>
<event>
 7    1  0.1338132E-011  0.5930195E+02  0.7816164E-02  0.1266605E+00
        -11   -1    0    0    0    0  0.00000000000E+00  0.00000000000E+00  0.45593999997E+02  0.45594000000E+02  0.51100000000E-03 0.  1.
         11   -1    0    0    0    0 -0.00000000000E+00 -0.00000000000E+00 -0.45593999997E+02  0.45594000000E+02  0.51100000000E-03 0. -1.
    9900012    2    1    2    0    0 -0.10915288649E+02 -0.27743225158E+02 -0.11308838581E+02  0.59301954486E+02  0.50000019074E+02 0.  0.
        -12    1    1    2    0    0  0.10915288649E+02  0.27743225158E+02  0.11308838581E+02  0.31886045514E+02  0.00000000000E+00 0.  1.
         11    1    3    3    0    0  0.30240533108E+01 -0.19954386670E+02 -0.12288609709E+02  0.23629057845E+02  0.51100000000E-03 0. -1.
        -11    1    3    3    0    0 -0.96357808092E+00 -0.17013051678E+02  0.73075816782E+01  0.18541120796E+02  0.51100000000E-03 0.  1.
        -12    1    3    3    0    0 -0.12975763879E+02  0.92242131908E+01 -0.63278105509E+01  0.17131775845E+02  0.00000000000E+00 0.  1.
</event>
<event>
 7    1  0.1338132E-011  0.5930195E+02  0.7816164E-02  0.1266605E+00
        -11   -1    0    0    0    0  0.00000000000E+00  0.00000000000E+00  0.45593999997E+02  0.45594000000E+02  0.51100000000E-03 0. -1.
         11   -1    0    0    0    0 -0.00000000000E+00 -0.00000000000E+00 -0.45593999997E+02  0.45594000000E+02  0.51100000000E-03 0.  1.
    9900012    2    1    2    0    0  0.11653748543E+02 -0.18069345375E+02  0.23545887710E+02  0.59301954063E+02  0.50000018303E+02 0.  0.
        -12    1    1    2    0    0 -0.11653748543E+02  0.18069345375E+02 -0.23545887710E+02  0.31886045937E+02  0.00000000000E+00 0.  1.
         11    1    3    3    0    0 -0.94550715480E+00 -0.11831111123E+02 -0.91418389011E+01  0.14981401568E+02  0.51100000000E-03 0. -1.
        -11    1    3    3    0    0 -0.75545914090E+00  0.38841442174E+01 -0.29526930511E+01  0.49371744278E+01  0.51100000000E-03 0.  1.
         12    1    3    3    0    0  0.13354714839E+02 -0.10122378470E+02  0.35640419662E+02  0.39383378068E+02  0.00000000000E+00 0. -1.
</event>
<event>
 7    1  0.1338132E-011  0.5930169E+02  0.7816164E-02  0.1266606E+00
        -11   -1    0    0    0    0  0.00000000000E+00  0.00000000000E+00  0.45593999997E+02  0.45594000000E+02  0.51100000000E-03 0.  1.
         11   -1    0    0    0    0 -0.00000000000E+00 -0.00000000000E+00 -0.45593999997E+02  0.45594000000E+02  0.51100000000E-03 0. -1.
    9900012    2    1    2    0    0 -0.13030735750E+02  0.26989804633E+02  0.10885182318E+02  0.59301689106E+02  0.49999535082E+02 0.  0.
        -12    1    1    2    0    0  0.13030735750E+02 -0.26989804633E+02 -0.10885182318E+02  0.31886310894E+02  0.00000000000E+00 0.  1.
         11    1    3    3    0    0 -0.21047840597E+02  0.20939078265E+02  0.79095538119E+00  0.29699868738E+02  0.51100000000E-03 0. -1.
        -11    1    3    3    0    0 -0.61257139438E+01 -0.50054713289E+01 -0.17408885513E+01  0.80999881330E+01  0.51100000000E-03 0.  1.
         12    1    3    3    0    0  0.14142818791E+02  0.11056197697E+02  0.11835115488E+02  0.21501832235E+02  0.00000000000E+00 0. -1.
</event>
<event>
 7    1  0.1338132E-011  0.5930194E+02  0.7816164E-02  0.1266605E+00
        -11   -1    0    0    0    0  0.00000000000E+00  0.00000000000E+00  0.45593999997E+02  0.45594000000E+02  0.51100000000E-03 0.  1.
         11   -1    0    0    0    0 -0.00000000000E+00 -0.00000000000E+00 -0.45593999997E+02  0.45594000000E+02  0.51100000000E-03 0. -1.
    9900012    2    1    2    0    0  0.17303572292E+02  0.66017745222E+01 -0.25956183973E+02  0.59301944626E+02  0.50000001090E+02 0.  0.
        -12    1    1    2    0    0 -0.17303572292E+02 -0.66017745222E+01  0.25956183973E+02  0.31886055374E+02  0.00000000000E+00 0.  1.
         11    1    3    3    0    0 -0.39409266259E+01 -0.11358871633E+02 -0.17597668878E+02  0.21312738389E+02  0.51100000000E-03 0. -1.
        -11    1    3    3    0    0  0.39586299445E+01  0.15565537717E+02 -0.12140270829E+02  0.20133129203E+02  0.51100000000E-03 0.  1.
        -12    1    3    3    0    0  0.17285868974E+02  0.23951084382E+01  0.37817557338E+01  0.17856077034E+02  0.00000000000E+00 0.  1.
</event>
<event>
 7    1  0.1338132E-011  0.5930194E+02  0.7816164E-02  0.1266605E+00
        -11   -1    0    0    0    0  0.00000000000E+00  0.00000000000E+00  0.45593999997E+02  0.45594000000E+02  0.51100000000E-03 0. -1.
         11   -1    0    0    0    0 -0.00000000000E+00 -0.00000000000E+00 -0.45593999997E+02  0.45594000000E+02  0.51100000000E-03 0.  1.
    9900012    2    1    2    0    0 -0.16847196928E+02  0.22829663294E+02 -0.14549897161E+02  0.59301935993E+02  0.49999985347E+02 0.  0.
        -12    1    1    2    0    0  0.16847196928E+02 -0.22829663294E+02  0.14549897161E+02  0.31886064007E+02  0.00000000000E+00 0.  1.
         11    1    3    3    0    0  0.36231585007E+01  0.49592298199E+01 -0.32031120721E+01  0.69268438076E+01  0.51100000000E-03 0. -1.
        -11    1    3    3    0    0  0.11843820705E+02  0.11957719350E+02 -0.98269662054E+01  0.19489289520E+02  0.51100000000E-03 0.  1.
        -12    1    3    3    0    0 -0.32314176134E+02  0.59127141241E+01 -0.15198188834E+01  0.32885802666E+02  0.00000000000E+00 0.  1.
</event>
<event>
 7    1  0.1338132E-011  0.5930192E+02  0.7816164E-02  0.1266605E+00
        -11   -1    0    0    0    0  0.00000000000E+00  0.00000000000E+00  0.45593999997E+02  0.45594000000E+02  0.51100000000E-03 0. -1.
         11   -1    0    0    0    0 -0.00000000000E+00 -0.00000000000E+00 -0.45593999997E+02  0.45594000000E+02  0.51100000000E-03 0.  1.
    9900012    2    1    2    0    0 -0.96311212607E+01  0.30307699394E+02  0.23252911589E+01  0.59301919679E+02  0.49999955593E+02 0.  0.
        -12    1    1    2    0    0  0.96311212607E+01 -0.30307699394E+02 -0.23252911589E+01  0.31886080321E+02  0.00000000000E+00 0.  1.
         11    1    3    3    0    0  0.16793005462E+01 -0.51839981014E+01  0.35691660002E+01  0.65140488821E+01  0.51100000000E-03 0. -1.
        -11    1    3    3    0    0 -0.16880570405E+02  0.35926948900E+00  0.23008250310E+01  0.17040438018E+02  0.51100000000E-03 0.  1.
         12    1    3    3    0    0  0.55701485985E+01  0.35132428006E+02 -0.35446998723E+01  0.35747432778E+02  0.00000000000E+00 0. -1.
</event>
<event>
 7    1  0.1338132E-011  0.5930198E+02  0.7816164E-02  0.1266605E+00
        -11   -1    0    0    0    0  0.00000000000E+00  0.00000000000E+00  0.45593999997E+02  0.45594000000E+02  0.51100000000E-03 0.  1.
         11   -1    0    0    0    0 -0.00000000000E+00 -0.00000000000E+00 -0.45593999997E+02  0.45594000000E+02  0.51100000000E-03 0. -1.
    9900012    2    1    2    0    0 -0.29431546199E+02 -0.94844252924E+01 -0.77812644697E+01  0.59301979371E+02  0.50000064457E+02 0.  0.
        -12    1    1    2    0    0  0.29431546199E+02  0.94844252924E+01  0.77812644697E+01  0.31886020629E+02  0.00000000000E+00 0.  1.
         11    1    3    3    0    0  0.89049538679E+01  0.20356307097E+01 -0.50819653364E+01  0.10453151090E+02  0.51100000000E-03 0.  1.
        -11    1    3    3    0    0 -0.28508221367E+02 -0.12311694942E+01  0.95327947710E+01  0.30085023521E+02  0.51100000000E-03 0. -1.
         12    1    3    3    0    0 -0.98282787005E+01 -0.10288886508E+02 -0.12232093904E+02  0.18763804760E+02  0.00000000000E+00 0. -1.
</event>
<event>
 7    1  0.1338132E-011  0.5930194E+02  0.7816164E-02  0.1266605E+00
        -11   -1    0    0    0    0  0.00000000000E+00  0.00000000000E+00  0.45593999997E+02  0.45594000000E+02  0.51100000000E-03 0.  1.
         11   -1    0    0    0    0 -0.00000000000E+00 -0.00000000000E+00 -0.45593999997E+02  0.45594000000E+02  0.51100000000E-03 0. -1.
    9900012    2    1    2    0    0  0.16961743744E+02 -0.10489703626E+02 -0.24879435938E+02  0.59301937753E+02  0.49999988556E+02 0.  0.
        -12    1    1    2    0    0 -0.16961743744E+02  0.10489703626E+02  0.24879435938E+02  0.31886062247E+02  0.00000000000E+00 0.  1.
         11    1    3    3    0    0 -0.41385012959E+01 -0.17867871165E+01  0.75379461104E+01  0.87829626551E+01  0.51100000000E-03 0. -1.
        -11    1    3    3    0    0  0.31057635684E+00  0.59795145606E+01  0.31636990894E+01  0.67720044479E+01  0.51100000000E-03 0.  1.
         12    1    3    3    0    0  0.20789668683E+02 -0.14682431070E+02 -0.35581081138E+02  0.43746970650E+02  0.00000000000E+00 0. -1.
</event>
<event>
 7    1  0.1338132E-011  0.5930193E+02  0.7816164E-02  0.1266605E+00
        -11   -1    0    0    0    0  0.00000000000E+00  0.00000000000E+00  0.45593999997E+02  0.45594000000E+02  0.51100000000E-03 0.  1.
         11   -1    0    0    0    0 -0.00000000000E+00 -0.00000000000E+00 -0.45593999997E+02  0.45594000000E+02  0.51100000000E-03 0. -1.
    9900012    2    1    2    0    0 -0.29067149200E+02 -0.11874126683E+02 -0.55522713189E+01  0.59301925235E+02  0.49999965727E+02 0.  0.
        -12    1    1    2    0    0  0.29067149200E+02  0.11874126683E+02  0.55522713189E+01  0.31886074765E+02  0.00000000000E+00 0.  1.
         11    1    3    3    0    0 -0.36281286452E+01 -0.15792157398E+01  0.84551714796E+01  0.93352645827E+01  0.51100000000E-03 0. -1.
        -11    1    3    3    0    0  0.90980502830E+01 -0.64409412026E+01 -0.10017339717E+02  0.14986905544E+02  0.51100000000E-03 0.  1.
         12    1    3    3    0    0 -0.34537070838E+02 -0.38539697401E+01 -0.39901030818E+01  0.34979755108E+02  0.00000000000E+00 0. -1.
</event>
<event>
 7    1  0.1338132E-011  0.5930193E+02  0.7816164E-02  0.1266605E+00
        -11   -1    0    0    0    0  0.00000000000E+00  0.00000000000E+00  0.45593999997E+02  0.45594000000E+02  0.51100000000E-03 0. -1.
         11   -1    0    0    0    0 -0.00000000000E+00 -0.00000000000E+00 -0.45593999997E+02  0.45594000000E+02  0.51100000000E-03 0.  1.
    9900012    2    1    2    0    0 -0.39795646619E+01 -0.31269582012E+02  0.48059966371E+01  0.59301932545E+02  0.49999979058E+02 0.  0.
        -12    1    1    2    0    0  0.39795646619E+01  0.31269582012E+02 -0.48059966371E+01  0.31886067455E+02  0.00000000000E+00 0.  1.
         11    1    3    3    0    0 -0.11871510216E+02 -0.62662673528E+01  0.10617832345E+02  0.17115409003E+02  0.51100000000E-03 0. -1.
        -11    1    3    3    0    0 -0.67138424820E+01 -0.24845190210E+02  0.16405877036E+01  0.25788576652E+02  0.51100000000E-03 0.  1.
        -12    1    3    3    0    0  0.14605788037E+02 -0.15812444845E+00 -0.74524234118E+01  0.16397946890E+02  0.00000000000E+00 0.  1.
</event>
<event>
 7    1  0.1338132E-011  0.5930195E+02  0.7816164E-02  0.1266605E+00
        -11   -1    0    0    0    0  0.00000000000E+00  0.00000000000E+00  0.45593999997E+02  0.45594000000E+02  0.51100000000E-03 0. -1.
         11   -1    0    0    0    0 -0.00000000000E+00 -0.00000000000E+00 -0.45593999997E+02  0.45594000000E+02  0.51100000000E-03 0.  1.
    9900012    2    1    2    0    0  0.18393362740E+02  0.25437272692E+02  0.55990720172E+01  0.59301949094E+02  0.50000009240E+02 0.  0.
        -12    1    1    2    0    0 -0.18393362740E+02 -0.25437272692E+02 -0.55990720172E+01  0.31886050906E+02  0.00000000000E+00 0.  1.
         11    1    3    3    0    0  0.16941746391E+02  0.76734792447E+01  0.22308491149E+01  0.18731837671E+02  0.51100000000E-03 0. -1.
        -11    1    3    3    0    0  0.97683972599E+01 -0.82926925476E+01  0.32452655730E+01  0.13218248130E+02  0.51100000000E-03 0.  1.
         12    1    3    3    0    0 -0.83167809102E+01  0.26056485995E+02  0.12295732928E+00  0.27351863294E+02  0.00000000000E+00 0. -1.
</event>
<event>
 7    1  0.1338132E-011  0.5930195E+02  0.7816164E-02  0.1266605E+00
        -11   -1    0    0    0    0  0.00000000000E+00  0.00000000000E+00  0.45593999997E+02  0.45594000000E+02  0.51100000000E-03 0.  1.
         11   -1    0    0    0    0 -0.00000000000E+00 -0.00000000000E+00 -0.45593999997E+02  0.45594000000E+02  0.51100000000E-03 0. -1.
    9900012    2    1    2    0    0 -0.99215693511E+01  0.24818855073E+02 -0.17386974969E+02  0.59301952830E+02  0.50000016053E+02 0.  0.
        -12    1    1    2    0    0  0.99215693511E+01 -0.24818855073E+02  0.17386974969E+02  0.31886047170E+02  0.00000000000E+00 0.  1.
         11    1    3    3    0    0 -0.73197277690E+01  0.18781296403E+02 -0.64616487486E+01  0.21167626556E+02  0.51100000000E-03 0. -1.
        -11    1    3    3    0    0  0.16281178867E+02  0.30596819849E+01 -0.91768712252E+01  0.18938146818E+02  0.51100000000E-03 0.  1.
         12    1    3    3    0    0 -0.18883020449E+02  0.29778766851E+01 -0.17484549954E+01  0.19196179456E+02  0.00000000000E+00 0. -1.
</event>
<event>
 7    1  0.1338132E-011  0.5930193E+02  0.7816164E-02  0.1266605E+00
        -11   -1    0    0    0    0  0.00000000000E+00  0.00000000000E+00  0.45593999997E+02  0.45594000000E+02  0.51100000000E-03 0. -1.
         11   -1    0    0    0    0 -0.00000000000E+00 -0.00000000000E+00 -0.45593999997E+02  0.45594000000E+02  0.51100000000E-03 0.  1.
    9900012    2    1    2    0    0 -0.14565601958E+02 -0.28180254382E+02 -0.32307932779E+01  0.59301929019E+02  0.49999972627E+02 0.  0.
        -12    1    1    2    0    0  0.14565601958E+02  0.28180254382E+02  0.32307932779E+01  0.31886070981E+02  0.00000000000E+00 0.  1.
         11    1    3    3    0    0 -0.10263874429E+02 -0.27956539980E+02  0.14386526143E+02  0.33073968323E+02  0.51100000000E-03 0. -1.
        -11    1    3    3    0    0  0.91337379254E+00 -0.43096168452E+01  0.24878953666E+01  0.50593154333E+01  0.51100000000E-03 0.  1.
        -12    1    3    3    0    0 -0.52151013215E+01  0.40859024430E+01 -0.20105214788E+02  0.21168645262E+02  0.00000000000E+00 0.  1.
</event>
<event>
 7    1  0.1338132E-011  0.5930171E+02  0.7816164E-02  0.1266606E+00
        -11   -1    0    0    0    0  0.00000000000E+00  0.00000000000E+00  0.45593999997E+02  0.45594000000E+02  0.51100000000E-03 0. -1.
         11   -1    0    0    0    0 -0.00000000000E+00 -0.00000000000E+00 -0.45593999997E+02  0.45594000000E+02  0.51100000000E-03 0.  1.
    9900012    2    1    2    0    0  0.79372212881E+01 -0.10852429897E+02  0.28912988028E+02  0.59301708382E+02  0.49999570236E+02 0.  0.
        -12    1    1    2    0    0 -0.79372212881E+01  0.10852429897E+02 -0.28912988028E+02  0.31886291618E+02  0.00000000000E+00 0.  1.
         11    1    3    3    0    0 -0.12240638059E+02 -0.11578599065E+02  0.19983865211E+02  0.26139090371E+02  0.51100000000E-03 0.  1.
        -11    1    3    3    0    0 -0.38651758761E+00  0.28847887077E+01  0.11919883138E+02  0.12270086227E+02  0.51100000000E-03 0. -1.
        -12    1    3    3    0    0  0.20564376934E+02 -0.21586195396E+01 -0.29907603206E+01  0.20892531783E+02  0.00000000000E+00 0.  1.
</event>
<event>
 7    1  0.1338132E-011  0.5930195E+02  0.7816164E-02  0.1266605E+00
        -11   -1    0    0    0    0  0.00000000000E+00  0.00000000000E+00  0.45593999997E+02  0.45594000000E+02  0.51100000000E-03 0.  1.
         11   -1    0    0    0    0 -0.00000000000E+00 -0.00000000000E+00 -0.45593999997E+02  0.45594000000E+02  0.51100000000E-03 0. -1.
    9900012    2    1    2    0    0  0.10774488080E+02  0.14243083245E+02 -0.26415245218E+02  0.59301949858E+02  0.50000010633E+02 0.  0.
        -12    1    1    2    0    0 -0.10774488080E+02 -0.14243083245E+02  0.26415245218E+02  0.31886050142E+02  0.00000000000E+00 0.  1.
         11    1    3    3    0    0  0.42859721248E+01  0.78406559782E+01 -0.19106336714E+02  0.21092594580E+02  0.51100000000E-03 0. -1.
        -11    1    3    3    0    0 -0.93268502391E+01 -0.10637345840E+02 -0.41781599975E+01  0.14751280728E+02  0.51100000000E-03 0.  1.
        -12    1    3    3    0    0  0.15815366194E+02  0.17039773106E+02 -0.31307485066E+01  0.23458074550E+02  0.00000000000E+00 0.  1.
</event>
<event>
 7    1  0.1338132E-011  0.5930194E+02  0.7816164E-02  0.1266605E+00
        -11   -1    0    0    0    0  0.00000000000E+00  0.00000000000E+00  0.45593999997E+02  0.45594000000E+02  0.51100000000E-03 0.  1.
         11   -1    0    0    0    0 -0.00000000000E+00 -0.00000000000E+00 -0.45593999997E+02  0.45594000000E+02  0.51100000000E-03 0. -1.
    9900012    2    1    2    0    0  0.12303920939E+02  0.29111458355E+02  0.42257576363E+01  0.59301944966E+02  0.50000001712E+02 0.  0.
        -12    1    1    2    0    0 -0.12303920939E+02 -0.29111458355E+02 -0.42257576363E+01  0.31886055034E+02  0.00000000000E+00 0.  1.
         11    1    3    3    0    0 -0.27429823808E+01  0.54232038398E+01  0.65682540367E+01  0.89485782995E+01  0.51100000000E-03 0. -1.
        -11    1    3    3    0    0 -0.30648579583E+01  0.67977772508E+01  0.17238525010E+02  0.18782169061E+02  0.51100000000E-03 0.  1.
         12    1    3    3    0    0  0.18111761278E+02  0.16890477264E+02 -0.19581021410E+02  0.31571197606E+02  0.00000000000E+00 0. -1.
</event>
<event>
 7    1  0.1338132E-011  0.5930194E+02  0.7816164E-02  0.1266605E+00
        -11   -1    0    0    0    0  0.00000000000E+00  0.00000000000E+00  0.45593999997E+02  0.45594000000E+02  0.51100000000E-03 0.  1.
         11   -1    0    0    0    0 -0.00000000000E+00 -0.00000000000E+00 -0.45593999997E+02  0.45594000000E+02  0.51100000000E-03 0. -1.
    9900012    2    1    2    0    0  0.18670038382E+02 -0.25591731873E+02  0.36351114562E+01  0.59301935509E+02  0.49999984464E+02 0.  0.
        -12    1    1    2    0    0 -0.18670038382E+02  0.25591731873E+02 -0.36351114562E+01  0.31886064491E+02  0.00000000000E+00 0.  1.
         11    1    3    3    0    0  0.20294711510E+02 -0.56052798520E+00 -0.69542855054E+01  0.21460465839E+02  0.51100000000E-03 0. -1.
        -11    1    3    3    0    0  0.72862629559E+01  0.11627060210E+01  0.65763481233E+01  0.98838184956E+01  0.51100000000E-03 0.  1.
        -12    1    3    3    0    0 -0.89109360838E+01 -0.26193909908E+02  0.40130488383E+01  0.27957651174E+02  0.00000000000E+00 0.  1.
</event>
<event>
 7    1  0.1338132E-011  0.5930196E+02  0.7816164E-02  0.1266605E+00
        -11   -1    0    0    0    0  0.00000000000E+00  0.00000000000E+00  0.45593999997E+02  0.45594000000E+02  0.51100000000E-03 0.  1.
         11   -1    0    0    0    0 -0.00000000000E+00 -0.00000000000E+00 -0.45593999997E+02  0.45594000000E+02  0.51100000000E-03 0. -1.
    9900012    2    1    2    0    0 -0.19948671809E+02  0.81184917918E+01 -0.23512983058E+02  0.59301956216E+02  0.50000022228E+02 0.  0.
        -12    1    1    2    0    0  0.19948671809E+02 -0.81184917918E+01  0.23512983058E+02  0.31886043784E+02  0.00000000000E+00 0.  1.
         11    1    3    3    0    0 -0.65785226274E+01  0.98218418194E+01 -0.24675148762E+02  0.27360710944E+02  0.51100000000E-03 0.  1.
        -11    1    3    3    0    0 -0.14192657165E+02 -0.11117534180E+02 -0.71120789751E+01  0.19380731443E+02  0.51100000000E-03 0. -1.
        -12    1    3    3    0    0  0.82250798324E+00  0.94141841525E+01  0.82742446790E+01  0.12560513829E+02  0.00000000000E+00 0.  1.
</event>
<event>
 7    1  0.1338132E-011  0.5930196E+02  0.7816164E-02  0.1266605E+00
        -11   -1    0    0    0    0  0.00000000000E+00  0.00000000000E+00  0.45593999997E+02  0.45594000000E+02  0.51100000000E-03 0.  1.
         11   -1    0    0    0    0 -0.00000000000E+00 -0.00000000000E+00 -0.45593999997E+02  0.45594000000E+02  0.51100000000E-03 0. -1.
    9900012    2    1    2    0    0  0.14183173456E+02  0.19850264803E+02 -0.20531051874E+02  0.59301960531E+02  0.50000030097E+02 0.  0.
        -12    1    1    2    0    0 -0.14183173456E+02 -0.19850264803E+02  0.20531051874E+02  0.31886039469E+02  0.00000000000E+00 0.  1.
         11    1    3    3    0    0 -0.13767433569E+01 -0.95357985336E+01 -0.11153604393E+02  0.14738716605E+02  0.51100000000E-03 0. -1.
        -11    1    3    3    0    0  0.23295160268E+02  0.22067666266E+02 -0.10717546379E+02  0.33830639766E+02  0.51100000000E-03 0.  1.
         12    1    3    3    0    0 -0.77352434549E+01  0.73183970705E+01  0.13400988990E+01  0.10732604160E+02  0.00000000000E+00 0. -1.
</event>
<event>
 7    1  0.1338132E-011  0.5930185E+02  0.7816164E-02  0.1266605E+00
        -11   -1    0    0    0    0  0.00000000000E+00  0.00000000000E+00  0.45593999997E+02  0.45594000000E+02  0.51100000000E-03 0.  1.
         11   -1    0    0    0    0 -0.00000000000E+00 -0.00000000000E+00 -0.45593999997E+02  0.45594000000E+02  0.51100000000E-03 0. -1.
    9900012    2    1    2    0    0 -0.47158699722E+01 -0.18648099955E+02 -0.25430989011E+02  0.59301854676E+02  0.49999837044E+02 0.  0.
        -12    1    1    2    0    0  0.47158699722E+01  0.18648099955E+02  0.25430989011E+02  0.31886145324E+02  0.00000000000E+00 0.  1.
         11    1    3    3    0    0 -0.42916259467E+01  0.38940446339E+01  0.35985479598E+01  0.68213770279E+01  0.51100000000E-03 0. -1.
        -11    1    3    3    0    0  0.31245283207E+01 -0.18990767539E+02  0.35034615921E+01  0.19562366226E+02  0.51100000000E-03 0.  1.
        -12    1    3    3    0    0 -0.35487723462E+01 -0.35513770498E+01 -0.32532998563E+02  0.32918111423E+02  0.00000000000E+00 0.  1.
</event>
<event>
 7    1  0.1338132E-011  0.5930195E+02  0.7816164E-02  0.1266605E+00
        -11   -1    0    0    0    0  0.00000000000E+00  0.00000000000E+00  0.45593999997E+02  0.45594000000E+02  0.51100000000E-03 0. -1.
         11   -1    0    0    0    0 -0.00000000000E+00 -0.00000000000E+00 -0.45593999997E+02  0.45594000000E+02  0.51100000000E-03 0.  1.
    9900012    2    1    2    0    0 -0.28820775400E+02 -0.13534448673E+02  0.17035176436E+01  0.59301947125E+02  0.50000005649E+02 0.  0.
        -12    1    1    2    0    0  0.28820775400E+02  0.13534448673E+02 -0.17035176436E+01  0.31886052875E+02  0.00000000000E+00 0.  1.
         11    1    3    3    0    0 -0.11602053840E+02  0.52764623494E+01  0.50936934120E+01  0.13725684722E+02  0.51100000000E-03 0. -1.
        -11    1    3    3    0    0 -0.14595098594E+02 -0.27817589320E+01  0.14950198411E+02  0.21077559596E+02  0.51100000000E-03 0.  1.
        -12    1    3    3    0    0 -0.26236229657E+01 -0.16029152091E+02 -0.18340374180E+02  0.24498702808E+02  0.00000000000E+00 0.  1.
</event>
<event>
 7    1  0.1338132E-011  0.5930196E+02  0.7816164E-02  0.1266605E+00
        -11   -1    0    0    0    0  0.00000000000E+00  0.00000000000E+00  0.45593999997E+02  0.45594000000E+02  0.51100000000E-03 0.  1.
         11   -1    0    0    0    0 -0.00000000000E+00 -0.00000000000E+00 -0.45593999997E+02  0.45594000000E+02  0.51100000000E-03 0. -1.
    9900012    2    1    2    0    0 -0.13201023938E+01 -0.91101188220E+01 -0.30528392949E+02  0.59301957421E+02  0.50000024427E+02 0.  0.
        -12    1    1    2    0    0  0.13201023938E+01  0.91101188220E+01  0.30528392949E+02  0.31886042579E+02  0.00000000000E+00 0.  1.
         11    1    3    3    0    0 -0.35385054655E+00 -0.10537271860E+02 -0.23571904794E+02  0.25822354741E+02  0.51100000000E-03 0. -1.
        -11    1    3    3    0    0 -0.10906178327E+02 -0.40511259183E+01 -0.15423658930E+02  0.19319565263E+02  0.51100000000E-03 0.  1.
        -12    1    3    3    0    0  0.99399264794E+01  0.54782789566E+01  0.84671707752E+01  0.14160037418E+02  0.00000000000E+00 0.  1.
</event>
<event>
 7    1  0.1338132E-011  0.5930201E+02  0.7816164E-02  0.1266605E+00
        -11   -1    0    0    0    0  0.00000000000E+00  0.00000000000E+00  0.45593999997E+02  0.45594000000E+02  0.51100000000E-03 0.  1.
         11   -1    0    0    0    0 -0.00000000000E+00 -0.00000000000E+00 -0.45593999997E+02  0.45594000000E+02  0.51100000000E-03 0. -1.
    9900012    2    1    2    0    0  0.72403317713E+01  0.21492252694E+02 -0.22413765506E+02  0.59302012260E+02  0.50000124438E+02 0.  0.
        -12    1    1    2    0    0 -0.72403317713E+01 -0.21492252694E+02  0.22413765506E+02  0.31885987740E+02  0.00000000000E+00 0.  1.
         11    1    3    3    0    0 -0.82467221912E+01 -0.12754312469E+01 -0.65444292697E+01  0.10604937835E+02  0.51100000000E-03 0. -1.
        -11    1    3    3    0    0 -0.35583439617E+01 -0.84143228247E+01 -0.79137907963E+00  0.91700011699E+01  0.51100000000E-03 0.  1.
        -12    1    3    3    0    0  0.19045397924E+02  0.31182006766E+02 -0.15077957157E+02  0.39527073254E+02  0.00000000000E+00 0.  1.
</event>
<event>
 7    1  0.1338132E-011  0.5930193E+02  0.7816164E-02  0.1266605E+00
        -11   -1    0    0    0    0  0.00000000000E+00  0.00000000000E+00  0.45593999997E+02  0.45594000000E+02  0.51100000000E-03 0.  1.
         11   -1    0    0    0    0 -0.00000000000E+00 -0.00000000000E+00 -0.45593999997E+02  0.45594000000E+02  0.51100000000E-03 0. -1.
    9900012    2    1    2    0    0 -0.11823081182E+00 -0.20857193512E+02 -0.24118149053E+02  0.59301927594E+02  0.49999970029E+02 0.  0.
        -12    1    1    2    0    0  0.11823081182E+00  0.20857193512E+02  0.24118149053E+02  0.31886072406E+02  0.00000000000E+00 0.  1.
         11    1    3    3    0    0  0.15030831766E+01  0.44714599711E+01 -0.23300915676E+01  0.52614199873E+01  0.51100000000E-03 0. -1.
        -11    1    3    3    0    0 -0.30658791501E+01  0.11835052420E+02 -0.45072814872E+01  0.13030106193E+02  0.51100000000E-03 0.  1.
         12    1    3    3    0    0  0.14445651617E+01 -0.37163705903E+02 -0.17280775999E+02  0.41010401413E+02  0.00000000000E+00 0. -1.
</event>
<event>
 7    1  0.1338132E-011  0.5930194E+02  0.7816164E-02  0.1266605E+00
        -11   -1    0    0    0    0  0.00000000000E+00  0.00000000000E+00  0.45593999997E+02  0.45594000000E+02  0.51100000000E-03 0.  1.
         11   -1    0    0    0    0 -0.00000000000E+00 -0.00000000000E+00 -0.45593999997E+02  0.45594000000E+02  0.51100000000E-03 0. -1.
    9900012    2    1    2    0    0 -0.29152411533E+02 -0.83943948913E+01 -0.98179505897E+01  0.59301935371E+02  0.49999984211E+02 0.  0.
        -12    1    1    2    0    0  0.29152411533E+02  0.83943948913E+01  0.98179505897E+01  0.31886064629E+02  0.00000000000E+00 0.  1.
         11    1    3    3    0    0 -0.76595375772E+01 -0.12171581369E+02 -0.45394489425E+01  0.15080534005E+02  0.51100000000E-03 0. -1.
        -11    1    3    3    0    0 -0.69869571359E+01 -0.10486901145E+02  0.12096332390E+02  0.17467510503E+02  0.51100000000E-03 0.  1.
        -12    1    3    3    0    0 -0.14505916820E+02  0.14264087622E+02 -0.17374834037E+02  0.26753890862E+02  0.00000000000E+00 0.  1.
</event>
<event>
 7    1  0.1338132E-011  0.5930194E+02  0.7816164E-02  0.1266605E+00
        -11   -1    0    0    0    0  0.00000000000E+00  0.00000000000E+00  0.45593999997E+02  0.45594000000E+02  0.51100000000E-03 0. -1.
         11   -1    0    0    0    0 -0.00000000000E+00 -0.00000000000E+00 -0.45593999997E+02  0.45594000000E+02  0.51100000000E-03 0.  1.
    9900012    2    1    2    0    0 -0.29343896819E+02  0.12390148336E+02  0.14631732627E+01  0.59301938275E+02  0.49999989509E+02 0.  0.
        -12    1    1    2    0    0  0.29343896819E+02 -0.12390148336E+02 -0.14631732627E+01  0.31886061725E+02  0.00000000000E+00 0.  1.
         11    1    3    3    0    0 -0.25578499665E+02  0.14566365230E+02  0.13521581445E+02  0.32392465268E+02  0.51100000000E-03 0. -1.
        -11    1    3    3    0    0  0.40721635815E+01 -0.73985262733E+01  0.31562933369E+01  0.90157026981E+01  0.51100000000E-03 0.  1.
        -12    1    3    3    0    0 -0.78375607362E+01  0.52223093785E+01 -0.15214701519E+02  0.17893770309E+02  0.00000000000E+00 0.  1.
</event>
<event>
 7    1  0.1338132E-011  0.5930194E+02  0.7816164E-02  0.1266605E+00
        -11   -1    0    0    0    0  0.00000000000E+00  0.00000000000E+00  0.45593999997E+02  0.45594000000E+02  0.51100000000E-03 0. -1.
         11   -1    0    0    0    0 -0.00000000000E+00 -0.00000000000E+00 -0.45593999997E+02  0.45594000000E+02  0.51100000000E-03 0.  1.
    9900012    2    1    2    0    0 -0.25949960320E+02 -0.18209990088E+02 -0.34229426248E+01  0.59301941669E+02  0.49999995699E+02 0.  0.
        -12    1    1    2    0    0  0.25949960320E+02  0.18209990088E+02  0.34229426248E+01  0.31886058331E+02  0.00000000000E+00 0.  1.
         11    1    3    3    0    0 -0.28880206684E+02 -0.16252686845E+02  0.56375978927E+01  0.33615452965E+02  0.51100000000E-03 0. -1.
        -11    1    3    3    0    0 -0.44548147211E+01  0.88358517354E+01 -0.76995423327E+01  0.12537966441E+02  0.51100000000E-03 0.  1.
        -12    1    3    3    0    0  0.73850610849E+01 -0.10793154979E+02 -0.13609981848E+01  0.13148522263E+02  0.00000000000E+00 0.  1.
</event>
<event>
 7    1  0.1338132E-011  0.5930192E+02  0.7816164E-02  0.1266605E+00
        -11   -1    0    0    0    0  0.00000000000E+00  0.00000000000E+00  0.45593999997E+02  0.45594000000E+02  0.51100000000E-03 0.  1.
         11   -1    0    0    0    0 -0.00000000000E+00 -0.00000000000E+00 -0.45593999997E+02  0.45594000000E+02  0.51100000000E-03 0. -1.
    9900012    2    1    2    0    0 -0.22578958023E+01 -0.28303433957E+02 -0.14509973291E+02  0.59301924793E+02  0.49999964920E+02 0.  0.
        -12    1    1    2    0    0  0.22578958023E+01  0.28303433957E+02  0.14509973291E+02  0.31886075207E+02  0.00000000000E+00 0.  1.
         11    1    3    3    0    0  0.61532804546E+01 -0.23919480627E+02  0.15141742864E+01  0.24744638568E+02  0.51100000000E-03 0. -1.
        -11    1    3    3    0    0  0.48850091966E+01 -0.26309814584E+01 -0.19850115236E+02  0.20610978953E+02  0.51100000000E-03 0.  1.
        -12    1    3    3    0    0 -0.13296185454E+02 -0.17529718714E+01  0.38259676577E+01  0.13946307272E+02  0.00000000000E+00 0.  1.
</event>
<event>
 7    1  0.1338132E-011  0.5930194E+02  0.7816164E-02  0.1266605E+00
        -11   -1    0    0    0    0  0.00000000000E+00  0.00000000000E+00  0.45593999997E+02  0.45594000000E+02  0.51100000000E-03 0.  1.
         11   -1    0    0    0    0 -0.00000000000E+00 -0.00000000000E+00 -0.45593999997E+02  0.45594000000E+02  0.51100000000E-03 0. -1.
    9900012    2    1    2    0    0  0.89721154532E+01 -0.29942604106E+02 -0.62977928789E+01  0.59301943620E+02  0.49999999256E+02 0.  0.
        -12    1    1    2    0    0 -0.89721154532E+01  0.29942604106E+02  0.62977928789E+01  0.31886056380E+02  0.00000000000E+00 0.  1.
         11    1    3    3    0    0 -0.65025470161E+01  0.39787513784E+01  0.64096508017E+01  0.99597793092E+01  0.51100000000E-03 0. -1.
        -11    1    3    3    0    0  0.18113806475E+02 -0.61309432242E+01 -0.12408819520E+01  0.19163461016E+02  0.51100000000E-03 0.  1.
         12    1    3    3    0    0 -0.26391440061E+01 -0.27790412260E+02 -0.11466561729E+02  0.30178703294E+02  0.00000000000E+00 0. -1.
</event>
<event>
 7    1  0.1338132E-011  0.5930196E+02  0.7816164E-02  0.1266605E+00
        -11   -1    0    0    0    0  0.00000000000E+00  0.00000000000E+00  0.45593999997E+02  0.45594000000E+02  0.51100000000E-03 0.  1.
         11   -1    0    0    0    0 -0.00000000000E+00 -0.00000000000E+00 -0.45593999997E+02  0.45594000000E+02  0.51100000000E-03 0. -1.
    9900012    2    1    2    0    0  0.85687069063E+01  0.26022063642E+02 -0.16314072064E+02  0.59301961024E+02  0.50000030997E+02 0.  0.
        -12    1    1    2    0    0 -0.85687069063E+01 -0.26022063642E+02  0.16314072064E+02  0.31886038976E+02  0.00000000000E+00 0.  1.
         11    1    3    3    0    0  0.14698150406E+02  0.30055773335E+02 -0.58061153933E+01  0.33957268918E+02  0.51100000000E-03 0. -1.
        -11    1    3    3    0    0 -0.59120138126E+01  0.79746478915E+01 -0.86983656918E+01  0.13198806093E+02  0.51100000000E-03 0.  1.
        -12    1    3    3    0    0 -0.21742968752E+00 -0.12008357584E+02 -0.18095909793E+01  0.12145886013E+02  0.00000000000E+00 0.  1.
</event>
<event>
 7    1  0.1338132E-011  0.5930194E+02  0.7816164E-02  0.1266605E+00
        -11   -1    0    0    0    0  0.00000000000E+00  0.00000000000E+00  0.45593999997E+02  0.45594000000E+02  0.51100000000E-03 0.  1.
         11   -1    0    0    0    0 -0.00000000000E+00 -0.00000000000E+00 -0.45593999997E+02  0.45594000000E+02  0.51100000000E-03 0. -1.
    9900012    2    1    2    0    0  0.21579039364E+02  0.23312066892E+02  0.27592458255E+01  0.59301939720E+02  0.49999992144E+02 0.  0.
        -12    1    1    2    0    0 -0.21579039364E+02 -0.23312066892E+02 -0.27592458255E+01  0.31886060280E+02  0.00000000000E+00 0.  1.
         11    1    3    3    0    0  0.16155478012E+02  0.11682392562E+02 -0.99064896475E+01  0.22262441536E+02  0.51100000000E-03 0. -1.
        -11    1    3    3    0    0 -0.53841215206E+01 -0.50111814461E+01 -0.62300690943E+01  0.96392149688E+01  0.51100000000E-03 0.  1.
         12    1    3    3    0    0  0.10807682873E+02  0.16640855776E+02  0.18895804567E+02  0.27400283215E+02  0.00000000000E+00 0. -1.
</event>
<event>
 7    1  0.1338132E-011  0.5930194E+02  0.7816164E-02  0.1266605E+00
        -11   -1    0    0    0    0  0.00000000000E+00  0.00000000000E+00  0.45593999997E+02  0.45594000000E+02  0.51100000000E-03 0.  1.
         11   -1    0    0    0    0 -0.00000000000E+00 -0.00000000000E+00 -0.45593999997E+02  0.45594000000E+02  0.51100000000E-03 0. -1.
    9900012    2    1    2    0    0  0.22646910999E+02  0.51087866929E+01 -0.21857232698E+02  0.59301938774E+02  0.49999990419E+02 0.  0.
        -12    1    1    2    0    0 -0.22646910999E+02 -0.51087866929E+01  0.21857232698E+02  0.31886061226E+02  0.00000000000E+00 0.  1.
         11    1    3    3    0    0  0.77428287046E+01  0.44294751046E+00 -0.11820093797E+02  0.14137263402E+02  0.51100000000E-03 0. -1.
        -11    1    3    3    0    0  0.18572303005E+02 -0.96014342429E+00 -0.23589981227E+02  0.30038966841E+02  0.51100000000E-03 0.  1.
        -12    1    3    3    0    0 -0.36682207107E+01  0.56259826067E+01  0.13552842326E+02  0.15125708532E+02  0.00000000000E+00 0.  1.
</event>
<event>
 7    1  0.1338132E-011  0.5930194E+02  0.7816164E-02  0.1266605E+00
        -11   -1    0    0    0    0  0.00000000000E+00  0.00000000000E+00  0.45593999997E+02  0.45594000000E+02  0.51100000000E-03 0. -1.
         11   -1    0    0    0    0 -0.00000000000E+00 -0.00000000000E+00 -0.45593999997E+02  0.45594000000E+02  0.51100000000E-03 0.  1.
    9900012    2    1    2    0    0  0.22041402481E+02  0.10156873140E+02 -0.20681756271E+02  0.59301944461E+02  0.50000000791E+02 0.  0.
        -12    1    1    2    0    0 -0.22041402481E+02 -0.10156873140E+02  0.20681756271E+02  0.31886055539E+02  0.00000000000E+00 0.  1.
         11    1    3    3    0    0  0.23498503817E+01  0.11636226003E+02  0.47979141053E+01  0.12804043597E+02  0.51100000000E-03 0. -1.
        -11    1    3    3    0    0 -0.28672290335E+01  0.89333017793E+01  0.18495342183E+01  0.95627224207E+01  0.51100000000E-03 0.  1.
         12    1    3    3    0    0  0.22558781133E+02 -0.10412654642E+02 -0.27329204595E+02  0.36935178444E+02  0.00000000000E+00 0. -1.
</event>
<event>
 7    1  0.1338132E-011  0.5930168E+02  0.7816164E-02  0.1266606E+00
        -11   -1    0    0    0    0  0.00000000000E+00  0.00000000000E+00  0.45593999997E+02  0.45594000000E+02  0.51100000000E-03 0. -1.
         11   -1    0    0    0    0 -0.00000000000E+00 -0.00000000000E+00 -0.45593999997E+02  0.45594000000E+02  0.51100000000E-03 0.  1.
    9900012    2    1    2    0    0  0.15536960643E+02 -0.15553961932E+02  0.23095768051E+02  0.59301680368E+02  0.49999519145E+02 0.  0.
        -12    1    1    2    0    0 -0.15536960643E+02  0.15553961932E+02 -0.23095768051E+02  0.31886319632E+02  0.00000000000E+00 0.  1.
         11    1    3    3    0    0 -0.34553023773E+00 -0.10050746206E+02  0.38533734063E+01  0.10769650751E+02  0.51100000000E-03 0. -1.
        -11    1    3    3    0    0  0.47094152457E+01 -0.21622876994E+02  0.18599942786E+02  0.28908221553E+02  0.51100000000E-03 0.  1.
        -12    1    3    3    0    0  0.11173075635E+02  0.16119661267E+02  0.64245185857E+00  0.19623808063E+02  0.00000000000E+00 0.  1.
</event>
<event>
 7    1  0.1338132E-011  0.5930195E+02  0.7816164E-02  0.1266605E+00
        -11   -1    0    0    0    0  0.00000000000E+00  0.00000000000E+00  0.45593999997E+02  0.45594000000E+02  0.51100000000E-03 0.  1.
         11   -1    0    0    0    0 -0.00000000000E+00 -0.00000000000E+00 -0.45593999997E+02  0.45594000000E+02  0.51100000000E-03 0. -1.
    9900012    2    1    2    0    0 -0.17106770191E+02 -0.50828592969E+00 -0.26903912407E+02  0.59301945936E+02  0.50000003480E+02 0.  0.
        -12    1    1    2    0    0  0.17106770191E+02  0.50828592969E+00  0.26903912407E+02  0.31886054064E+02  0.00000000000E+00 0.  1.
         11    1    3    3    0    0 -0.96792035943E+01 -0.12409880323E+02 -0.13505805136E+02  0.20738825533E+02  0.51100000000E-03 0. -1.
        -11    1    3    3    0    0 -0.51501774046E+01 -0.29114942638E+01  0.95028680979E+01  0.11193999665E+02  0.51100000000E-03 0.  1.
        -12    1    3    3    0    0 -0.22773891922E+01  0.14813088658E+02 -0.22900975370E+02  0.27369120738E+02  0.00000000000E+00 0.  1.
</event>
<event>
 7    1  0.1338132E-011  0.5930193E+02  0.7816164E-02  0.1266605E+00
        -11   -1    0    0    0    0  0.00000000000E+00  0.00000000000E+00  0.45593999997E+02  0.45594000000E+02  0.51100000000E-03 0. -1.
         11   -1    0    0    0    0 -0.00000000000E+00 -0.00000000000E+00 -0.45593999997E+02  0.45594000000E+02  0.51100000000E-03 0.  1.
    9900012    2    1    2    0    0 -0.24052498291E+02  0.74523730206E+00  0.20919934171E+02  0.59301926262E+02  0.49999967600E+02 0.  0.
        -12    1    1    2    0    0  0.24052498291E+02 -0.74523730206E+00 -0.20919934171E+02  0.31886073738E+02  0.00000000000E+00 0.  1.
         11    1    3    3    0    0 -0.16026376525E+02 -0.54641960026E+01 -0.87346302304E+01  0.19052452546E+02  0.51100000000E-03 0. -1.
        -11    1    3    3    0    0 -0.91203941053E+01 -0.17875585025E+01 -0.22728544926E+00  0.92966990364E+01  0.51100000000E-03 0.  1.
         12    1    3    3    0    0  0.10942723393E+01  0.79969918072E+01  0.29881849850E+02  0.30952774680E+02  0.00000000000E+00 0. -1.
</event>
<event>
 7    1  0.1338132E-011  0.5930199E+02  0.7816164E-02  0.1266605E+00
        -11   -1    0    0    0    0  0.00000000000E+00  0.00000000000E+00  0.45593999997E+02  0.45594000000E+02  0.51100000000E-03 0. -1.
         11   -1    0    0    0    0 -0.00000000000E+00 -0.00000000000E+00 -0.45593999997E+02  0.45594000000E+02  0.51100000000E-03 0.  1.
    9900012    2    1    2    0    0  0.45007123567E+00 -0.26644701466E+02  0.17509279958E+02  0.59301991078E+02  0.50000085808E+02 0.  0.
        -12    1    1    2    0    0 -0.45007123567E+00  0.26644701466E+02 -0.17509279958E+02  0.31886008922E+02  0.00000000000E+00 0.  1.
         11    1    3    3    0    0 -0.86550687329E+01 -0.67861669446E+01  0.13374873924E+02  0.17316163817E+02  0.51100000000E-03 0. -1.
        -11    1    3    3    0    0 -0.96235647097E+01 -0.16733421947E+02 -0.63184004625E+01  0.20311144538E+02  0.51100000000E-03 0.  1.
        -12    1    3    3    0    0  0.18728704678E+02 -0.31251125747E+01  0.10452806496E+02  0.21674682724E+02  0.00000000000E+00 0.  1.
</event>
<event>
 7    1  0.1338132E-011  0.5930192E+02  0.7816164E-02  0.1266605E+00
        -11   -1    0    0    0    0  0.00000000000E+00  0.00000000000E+00  0.45593999997E+02  0.45594000000E+02  0.51100000000E-03 0.  1.
         11   -1    0    0    0    0 -0.00000000000E+00 -0.00000000000E+00 -0.45593999997E+02  0.45594000000E+02  0.51100000000E-03 0. -1.
    9900012    2    1    2    0    0 -0.10076404105E+02 -0.21330362845E+02 -0.21452363378E+02  0.59301918502E+02  0.49999953448E+02 0.  0.
        -12    1    1    2    0    0  0.10076404105E+02  0.21330362845E+02  0.21452363378E+02  0.31886081498E+02  0.00000000000E+00 0.  1.
         11    1    3    3    0    0  0.10634035138E+02 -0.23043755282E+02 -0.32532779273E+01  0.25586738330E+02  0.51100000000E-03 0. -1.
        -11    1    3    3    0    0  0.21818478597E+01 -0.10435124575E+01  0.19402512626E+01  0.31006376046E+01  0.51100000000E-03 0.  1.
         12    1    3    3    0    0 -0.22892287103E+02  0.27569048947E+01 -0.20139336713E+02  0.30614542568E+02  0.00000000000E+00 0. -1.
</event>
<event>
 7    1  0.1338132E-011  0.5930194E+02  0.7816164E-02  0.1266605E+00
        -11   -1    0    0    0    0  0.00000000000E+00  0.00000000000E+00  0.45593999997E+02  0.45594000000E+02  0.51100000000E-03 0.  1.
         11   -1    0    0    0    0 -0.00000000000E+00 -0.00000000000E+00 -0.45593999997E+02  0.45594000000E+02  0.51100000000E-03 0. -1.
    9900012    2    1    2    0    0 -0.18887136677E+02 -0.10731237967E+02 -0.23341749058E+02  0.59301942714E+02  0.49999997604E+02 0.  0.
        -12    1    1    2    0    0  0.18887136677E+02  0.10731237967E+02  0.23341749058E+02  0.31886057286E+02  0.00000000000E+00 0.  1.
         11    1    3    3    0    0 -0.52238875755E+01 -0.28867091074E+01 -0.74978444794E+01  0.95833064738E+01  0.51100000000E-03 0. -1.
        -11    1    3    3    0    0 -0.36274637953E+01 -0.19993256820E+02 -0.24427963478E+02  0.31774427009E+02  0.51100000000E-03 0.  1.
        -12    1    3    3    0    0 -0.10035785306E+02  0.12148727960E+02  0.85840588988E+01  0.17944209231E+02  0.00000000000E+00 0.  1.
</event>
<event>
 7    1  0.1338132E-011  0.5930199E+02  0.7816164E-02  0.1266605E+00
        -11   -1    0    0    0    0  0.00000000000E+00  0.00000000000E+00  0.45593999997E+02  0.45594000000E+02  0.51100000000E-03 0. -1.
         11   -1    0    0    0    0 -0.00000000000E+00 -0.00000000000E+00 -0.45593999997E+02  0.45594000000E+02  0.51100000000E-03 0.  1.
    9900012    2    1    2    0    0 -0.15134973907E+02 -0.19751123410E+02  0.19938481441E+02  0.59301994397E+02  0.50000091862E+02 0.  0.
        -12    1    1    2    0    0  0.15134973907E+02  0.19751123410E+02 -0.19938481441E+02  0.31886005603E+02  0.00000000000E+00 0.  1.
         11    1    3    3    0    0 -0.14340158082E+02  0.87059750616E+01 -0.42643676448E+01  0.17309505113E+02  0.51100000000E-03 0. -1.
        -11    1    3    3    0    0 -0.40070979094E+01  0.40378996668E+00  0.74461917302E+01  0.84655567765E+01  0.51100000000E-03 0.  1.
         12    1    3    3    0    0  0.32122820844E+01 -0.28860888438E+02  0.16756657356E+02  0.33526932507E+02  0.00000000000E+00 0. -1.
</event>
<event>
 7    1  0.1338132E-011  0.5930196E+02  0.7816164E-02  0.1266605E+00
        -11   -1    0    0    0    0  0.00000000000E+00  0.00000000000E+00  0.45593999997E+02  0.45594000000E+02  0.51100000000E-03 0. -1.
         11   -1    0    0    0    0 -0.00000000000E+00 -0.00000000000E+00 -0.45593999997E+02  0.45594000000E+02  0.51100000000E-03 0.  1.
    9900012    2    1    2    0    0 -0.19533430672E+02  0.24599625847E+02  0.54793393494E+01  0.59301958142E+02  0.50000025741E+02 0.  0.
        -12    1    1    2    0    0  0.19533430672E+02 -0.24599625847E+02 -0.54793393494E+01  0.31886041858E+02  0.00000000000E+00 0.  1.
         11    1    3    3    0    0 -0.22139141825E+02  0.29628428159E+02 -0.17202589487E+00  0.36986686105E+02  0.51100000000E-03 0. -1.
        -11    1    3    3    0    0 -0.91227239163E+01 -0.31257619076E+01  0.16888937840E+01  0.97901400210E+01  0.51100000000E-03 0.  1.
        -12    1    3    3    0    0  0.11728435069E+02 -0.19030404037E+01  0.39624714602E+01  0.12525132016E+02  0.00000000000E+00 0.  1.
</event>
<event>
 7    1  0.1338132E-011  0.5930193E+02  0.7816164E-02  0.1266605E+00
        -11   -1    0    0    0    0  0.00000000000E+00  0.00000000000E+00  0.45593999997E+02  0.45594000000E+02  0.51100000000E-03 0. -1.
         11   -1    0    0    0    0 -0.00000000000E+00 -0.00000000000E+00 -0.45593999997E+02  0.45594000000E+02  0.51100000000E-03 0.  1.
    9900012    2    1    2    0    0  0.20251778180E+01  0.87700644071E+01  0.30589313947E+02  0.59301929332E+02  0.49999973199E+02 0.  0.
        -12    1    1    2    0    0 -0.20251778180E+01 -0.87700644071E+01 -0.30589313947E+02  0.31886070668E+02  0.00000000000E+00 0.  1.
         11    1    3    3    0    0  0.37310411454E+01  0.12643430401E+02  0.34036019462E+01  0.13614753277E+02  0.51100000000E-03 0. -1.
        -11    1    3    3    0    0 -0.42225455459E+01 -0.13899706584E+01 -0.86245342575E+01  0.97028089097E+01  0.51100000000E-03 0.  1.
         12    1    3    3    0    0  0.25166822185E+01 -0.24833953355E+01  0.35810246258E+02  0.35984367145E+02  0.00000000000E+00 0. -1.
</event>
<event>
 7    1  0.1338132E-011  0.5930195E+02  0.7816164E-02  0.1266605E+00
        -11   -1    0    0    0    0  0.00000000000E+00  0.00000000000E+00  0.45593999997E+02  0.45594000000E+02  0.51100000000E-03 0.  1.
         11   -1    0    0    0    0 -0.00000000000E+00 -0.00000000000E+00 -0.45593999997E+02  0.45594000000E+02  0.51100000000E-03 0. -1.
    9900012    2    1    2    0    0  0.21232975959E+02 -0.23422510237E+02 -0.41553767171E+01  0.59301946473E+02  0.50000004459E+02 0.  0.
        -12    1    1    2    0    0 -0.21232975959E+02  0.23422510237E+02  0.41553767171E+01  0.31886053527E+02  0.00000000000E+00 0.  1.
         11    1    3    3    0    0  0.19644763045E+02 -0.85520996254E+01 -0.11709627978E+02  0.24416603178E+02  0.51100000000E-03 0. -1.
        -11    1    3    3    0    0 -0.32329258274E+01 -0.17614198223E+02 -0.70629887151E+01  0.19250911622E+02  0.51100000000E-03 0.  1.
        -12    1    3    3    0    0  0.48211387412E+01  0.27437876113E+01  0.14617239976E+02  0.15634431673E+02  0.00000000000E+00 0.  1.
</event>
<event>
 7    1  0.1338132E-011  0.5930195E+02  0.7816164E-02  0.1266605E+00
        -11   -1    0    0    0    0  0.00000000000E+00  0.00000000000E+00  0.45593999997E+02  0.45594000000E+02  0.51100000000E-03 0.  1.
         11   -1    0    0    0    0 -0.00000000000E+00 -0.00000000000E+00 -0.45593999997E+02  0.45594000000E+02  0.51100000000E-03 0. -1.
    9900012    2    1    2    0    0  0.15451857313E+02  0.24298307002E+01 -0.27785893847E+02  0.59301954956E+02  0.50000019931E+02 0.  0.
        -12    1    1    2    0    0 -0.15451857313E+02 -0.24298307002E+01  0.27785893847E+02  0.31886045044E+02  0.00000000000E+00 0.  1.
         11    1    3    3    0    0 -0.15027038000E+01 -0.23937557345E+01 -0.11174100751E+02  0.11526001608E+02  0.51100000000E-03 0. -1.
        -11    1    3    3    0    0  0.83065905178E+01  0.14310924422E+02 -0.26725442332E+02  0.31433282870E+02  0.51100000000E-03 0.  1.
        -12    1    3    3    0    0  0.86479705956E+01 -0.94873379869E+01  0.10113649236E+02  0.16342670479E+02  0.00000000000E+00 0.  1.
</event>
<event>
 7    1  0.1338132E-011  0.5930200E+02  0.7816164E-02  0.1266605E+00
        -11   -1    0    0    0    0  0.00000000000E+00  0.00000000000E+00  0.45593999997E+02  0.45594000000E+02  0.51100000000E-03 0. -1.
         11   -1    0    0    0    0 -0.00000000000E+00 -0.00000000000E+00 -0.45593999997E+02  0.45594000000E+02  0.51100000000E-03 0.  1.
    9900012    2    1    2    0    0  0.17258101089E+02 -0.26527477797E+02 -0.38946224332E+01  0.59301996560E+02  0.50000095806E+02 0.  0.
        -12    1    1    2    0    0 -0.17258101089E+02  0.26527477797E+02  0.38946224332E+01  0.31886003440E+02  0.00000000000E+00 0.  1.
         11    1    3    3    0    0  0.14190954912E+02  0.15424991990E+01 -0.59904846413E+01  0.15480581758E+02  0.51100000000E-03 0. -1.
        -11    1    3    3    0    0 -0.89858752668E+01  0.35653449060E+01 -0.14779060718E+01  0.97796648832E+01  0.51100000000E-03 0.  1.
         12    1    3    3    0    0  0.12053021445E+02 -0.31635321902E+02  0.35737682799E+01  0.34041749918E+02  0.00000000000E+00 0. -1.
</event>
<event>
 7    1  0.1338132E-011  0.5930197E+02  0.7816164E-02  0.1266605E+00
        -11   -1    0    0    0    0  0.00000000000E+00  0.00000000000E+00  0.45593999997E+02  0.45594000000E+02  0.51100000000E-03 0.  1.
         11   -1    0    0    0    0 -0.00000000000E+00 -0.00000000000E+00 -0.45593999997E+02  0.45594000000E+02  0.51100000000E-03 0. -1.
    9900012    2    1    2    0    0  0.11176680484E+02  0.29813056938E+02  0.17269554637E+01  0.59301969738E+02  0.50000046890E+02 0.  0.
        -12    1    1    2    0    0 -0.11176680484E+02 -0.29813056938E+02 -0.17269554637E+01  0.31886030262E+02  0.00000000000E+00 0.  1.
         11    1    3    3    0    0 -0.90621705906E+00 -0.24043760455E+01 -0.11780218658E+02  0.12057188952E+02  0.51100000000E-03 0. -1.
        -11    1    3    3    0    0 -0.36227472784E+01  0.29672066649E+01 -0.68521032209E+01  0.82993934747E+01  0.51100000000E-03 0.  1.
        -12    1    3    3    0    0  0.15705644822E+02  0.29250226319E+02  0.20359277343E+02  0.38945387312E+02  0.00000000000E+00 0.  1.
</event>
<event>
 7    1  0.1338132E-011  0.5930194E+02  0.7816164E-02  0.1266605E+00
        -11   -1    0    0    0    0  0.00000000000E+00  0.00000000000E+00  0.45593999997E+02  0.45594000000E+02  0.51100000000E-03 0.  1.
         11   -1    0    0    0    0 -0.00000000000E+00 -0.00000000000E+00 -0.45593999997E+02  0.45594000000E+02  0.51100000000E-03 0. -1.
    9900012    2    1    2    0    0 -0.28144342056E+01  0.24424328917E+02 -0.20303981581E+02  0.59301944255E+02  0.50000000414E+02 0.  0.
        -12    1    1    2    0    0  0.28144342056E+01 -0.24424328917E+02  0.20303981581E+02  0.31886055745E+02  0.00000000000E+00 0.  1.
         11    1    3    3    0    0  0.25821724101E+00  0.82953104983E+01 -0.66757408056E+01  0.10651026616E+02  0.51100000000E-03 0. -1.
        -11    1    3    3    0    0  0.18654469605E+02 -0.14919829513E+01 -0.60613646613E+01  0.19671181743E+02  0.51100000000E-03 0.  1.
         12    1    3    3    0    0 -0.21727121051E+02  0.17621001370E+02 -0.75668761138E+01  0.28979735896E+02  0.00000000000E+00 0. -1.
</event>
<event>
 7    1  0.1338132E-011  0.5930195E+02  0.7816164E-02  0.1266605E+00
        -11   -1    0    0    0    0  0.00000000000E+00  0.00000000000E+00  0.45593999997E+02  0.45594000000E+02  0.51100000000E-03 0. -1.
         11   -1    0    0    0    0 -0.00000000000E+00 -0.00000000000E+00 -0.45593999997E+02  0.45594000000E+02  0.51100000000E-03 0.  1.
    9900012    2    1    2    0    0  0.11040992524E+02  0.22211929544E+02  0.20036137016E+02  0.59301951068E+02  0.50000012839E+02 0.  0.
        -12    1    1    2    0    0 -0.11040992524E+02 -0.22211929544E+02 -0.20036137016E+02  0.31886048932E+02  0.00000000000E+00 0.  1.
         11    1    3    3    0    0  0.14373178354E+02  0.18035336302E+02 -0.21414610115E+01  0.23161335606E+02  0.51100000000E-03 0. -1.
        -11    1    3    3    0    0  0.10537725895E+01  0.12514564236E+02  0.57381531918E+00  0.12571953666E+02  0.51100000000E-03 0.  1.
        -12    1    3    3    0    0 -0.43859584195E+01 -0.83379709942E+01  0.21603782708E+02  0.23568661796E+02  0.00000000000E+00 0.  1.
</event>
<event>
 7    1  0.1338132E-011  0.5930193E+02  0.7816164E-02  0.1266605E+00
        -11   -1    0    0    0    0  0.00000000000E+00  0.00000000000E+00  0.45593999997E+02  0.45594000000E+02  0.51100000000E-03 0.  1.
         11   -1    0    0    0    0 -0.00000000000E+00 -0.00000000000E+00 -0.45593999997E+02  0.45594000000E+02  0.51100000000E-03 0. -1.
    9900012    2    1    2    0    0  0.27674174683E+02  0.12953821259E+02 -0.91137156021E+01  0.59301933424E+02  0.49999980661E+02 0.  0.
        -12    1    1    2    0    0 -0.27674174683E+02 -0.12953821259E+02  0.91137156021E+01  0.31886066576E+02  0.00000000000E+00 0.  1.
         11    1    3    3    0    0  0.10176334983E+02  0.43676879471E+01 -0.98008028552E+01  0.14788178676E+02  0.51100000000E-03 0. -1.
        -11    1    3    3    0    0  0.25833937717E+02  0.16847354098E+01 -0.11401858652E+02  0.28288390770E+02  0.51100000000E-03 0.  1.
        -12    1    3    3    0    0 -0.83360980162E+01  0.69013979020E+01  0.12088945905E+02  0.16225363978E+02  0.00000000000E+00 0.  1.
</event>
<event>
 7    1  0.1338132E-011  0.5930195E+02  0.7816164E-02  0.1266605E+00
        -11   -1    0    0    0    0  0.00000000000E+00  0.00000000000E+00  0.45593999997E+02  0.45594000000E+02  0.51100000000E-03 0. -1.
         11   -1    0    0    0    0 -0.00000000000E+00 -0.00000000000E+00 -0.45593999997E+02  0.45594000000E+02  0.51100000000E-03 0.  1.
    9900012    2    1    2    0    0  0.98386423515E+01 -0.19523063832E+02  0.23211448418E+02  0.59301949093E+02  0.50000009239E+02 0.  0.
        -12    1    1    2    0    0 -0.98386423515E+01  0.19523063832E+02 -0.23211448418E+02  0.31886050907E+02  0.00000000000E+00 0.  1.
         11    1    3    3    0    0  0.56905957094E+01 -0.14726940394E+02  0.18433459598E+02  0.24270518864E+02  0.51100000000E-03 0. -1.
        -11    1    3    3    0    0  0.34557076629E+01  0.12424575740E+02  0.10752413293E+02  0.16790663764E+02  0.51100000000E-03 0.  1.
         12    1    3    3    0    0  0.69233897926E+00 -0.17220699178E+02 -0.59744244725E+01  0.18240766465E+02  0.00000000000E+00 0. -1.
</event>
<event>
 7    1  0.1338132E-011  0.5930198E+02  0.7816164E-02  0.1266605E+00
        -11   -1    0    0    0    0  0.00000000000E+00  0.00000000000E+00  0.45593999997E+02  0.45594000000E+02  0.51100000000E-03 0.  1.
         11   -1    0    0    0    0 -0.00000000000E+00 -0.00000000000E+00 -0.45593999997E+02  0.45594000000E+02  0.51100000000E-03 0. -1.
    9900012    2    1    2    0    0  0.28298159621E+01  0.22549469011E+02 -0.22365867704E+02  0.59301977213E+02  0.50000060521E+02 0.  0.
        -12    1    1    2    0    0 -0.28298159621E+01 -0.22549469011E+02  0.22365867704E+02  0.31886022787E+02  0.00000000000E+00 0.  1.
         11    1    3    3    0    0 -0.80008258882E+00 -0.51942235155E+01 -0.23882675415E+02  0.24454085044E+02  0.51100000000E-03 0. -1.
        -11    1    3    3    0    0  0.90423075080E+01  0.73287822859E+01  0.62392652224E+01  0.13206165440E+02  0.51100000000E-03 0.  1.
        -12    1    3    3    0    0 -0.54124089571E+01  0.20414910241E+02 -0.47224575108E+01  0.21641726729E+02  0.00000000000E+00 0.  1.
</event>
<event>
 7    1  0.1338132E-011  0.5930196E+02  0.7816164E-02  0.1266605E+00
        -11   -1    0    0    0    0  0.00000000000E+00  0.00000000000E+00  0.45593999997E+02  0.45594000000E+02  0.51100000000E-03 0.  1.
         11   -1    0    0    0    0 -0.00000000000E+00 -0.00000000000E+00 -0.45593999997E+02  0.45594000000E+02  0.51100000000E-03 0. -1.
    9900012    2    1    2    0    0 -0.16036420923E+02  0.29733139899E+01 -0.27399125615E+02  0.59301961103E+02  0.50000031140E+02 0.  0.
        -12    1    1    2    0    0  0.16036420923E+02 -0.29733139899E+01  0.27399125615E+02  0.31886038897E+02  0.00000000000E+00 0.  1.
         11    1    3    3    0    0 -0.15997025783E+02  0.66164213043E+00  0.66001761251E+00  0.16024301162E+02  0.51100000000E-03 0.  1.
        -11    1    3    3    0    0 -0.14298932287E+02  0.22427058378E+01 -0.24698972783E+02  0.28627407337E+02  0.51100000000E-03 0. -1.
        -12    1    3    3    0    0  0.14259537147E+02  0.68966021642E-01 -0.33601704445E+01  0.14650252604E+02  0.00000000000E+00 0.  1.
</event>
<event>
 7    1  0.1338132E-011  0.5930193E+02  0.7816164E-02  0.1266605E+00
        -11   -1    0    0    0    0  0.00000000000E+00  0.00000000000E+00  0.45593999997E+02  0.45594000000E+02  0.51100000000E-03 0.  1.
         11   -1    0    0    0    0 -0.00000000000E+00 -0.00000000000E+00 -0.45593999997E+02  0.45594000000E+02  0.51100000000E-03 0. -1.
    9900012    2    1    2    0    0 -0.10334999231E+02 -0.21787973644E+02 -0.20861295336E+02  0.59301927057E+02  0.49999969050E+02 0.  0.
        -12    1    1    2    0    0  0.10334999231E+02  0.21787973644E+02  0.20861295336E+02  0.31886072943E+02  0.00000000000E+00 0.  1.
         11    1    3    3    0    0 -0.20976701180E+02 -0.10170956331E+01 -0.10042606080E+02  0.23278969330E+02  0.51100000000E-03 0. -1.
        -11    1    3    3    0    0 -0.42768955938E+01  0.16954149069E+01 -0.75715175465E+01  0.88596921981E+01  0.51100000000E-03 0.  1.
         12    1    3    3    0    0  0.14918597543E+02 -0.22466292918E+02 -0.32471717094E+01  0.27163265529E+02  0.00000000000E+00 0. -1.
</event>
<event>
 7    1  0.1338132E-011  0.5930194E+02  0.7816164E-02  0.1266605E+00
        -11   -1    0    0    0    0  0.00000000000E+00  0.00000000000E+00  0.45593999997E+02  0.45594000000E+02  0.51100000000E-03 0. -1.
         11   -1    0    0    0    0 -0.00000000000E+00 -0.00000000000E+00 -0.45593999997E+02  0.45594000000E+02  0.51100000000E-03 0.  1.
    9900012    2    1    2    0    0 -0.22068458851E+02  0.22981370001E+02  0.12491328554E+01  0.59301943862E+02  0.49999999697E+02 0.  0.
        -12    1    1    2    0    0  0.22068458851E+02 -0.22981370001E+02 -0.12491328554E+01  0.31886056138E+02  0.00000000000E+00 0.  1.
         11    1    3    3    0    0 -0.96863109574E+01  0.23379475695E+01  0.93253070503E+01  0.13647416263E+02  0.51100000000E-03 0. -1.
        -11    1    3    3    0    0 -0.18270263940E+02 -0.39441119624E+01  0.11857350321E+01  0.18728708750E+02  0.51100000000E-03 0.  1.
        -12    1    3    3    0    0  0.58881160468E+01  0.24587534394E+02 -0.92619092270E+01  0.26925818849E+02  0.00000000000E+00 0.  1.
</event>
<event>
 7    1  0.1338132E-011  0.5930196E+02  0.7816164E-02  0.1266605E+00
        -11   -1    0    0    0    0  0.00000000000E+00  0.00000000000E+00  0.45593999997E+02  0.45594000000E+02  0.51100000000E-03 0.  1.
         11   -1    0    0    0    0 -0.00000000000E+00 -0.00000000000E+00 -0.45593999997E+02  0.45594000000E+02  0.51100000000E-03 0. -1.
    9900012    2    1    2    0    0  0.29589510187E+02 -0.66583189285E+01  0.98411135861E+01  0.59301955393E+02  0.50000020728E+02 0.  0.
        -12    1    1    2    0    0 -0.29589510187E+02  0.66583189285E+01 -0.98411135861E+01  0.31886044607E+02  0.00000000000E+00 0.  1.
         11    1    3    3    0    0  0.18388112297E+01  0.46874917226E+01  0.36068989770E+00  0.50481583623E+01  0.51100000000E-03 0. -1.
        -11    1    3    3    0    0  0.45422718839E+01  0.16168990134E+02  0.69277998692E+01  0.18167632953E+02  0.51100000000E-03 0.  1.
         12    1    3    3    0    0  0.23208427073E+02 -0.27514800786E+02  0.25526238192E+01  0.36086164078E+02  0.00000000000E+00 0. -1.
</event>
<event>
 7    1  0.1338132E-011  0.5930193E+02  0.7816164E-02  0.1266605E+00
        -11   -1    0    0    0    0  0.00000000000E+00  0.00000000000E+00  0.45593999997E+02  0.45594000000E+02  0.51100000000E-03 0.  1.
         11   -1    0    0    0    0 -0.00000000000E+00 -0.00000000000E+00 -0.45593999997E+02  0.45594000000E+02  0.51100000000E-03 0. -1.
    9900012    2    1    2    0    0  0.76729718748E+01  0.28372683395E+02  0.12362754475E+02  0.59301931590E+02  0.49999977316E+02 0.  0.
        -12    1    1    2    0    0 -0.76729718748E+01 -0.28372683395E+02 -0.12362754475E+02  0.31886068410E+02  0.00000000000E+00 0.  1.
         11    1    3    3    0    0  0.21480027115E+01  0.17517816358E+02 -0.63436845471E+01  0.18754469854E+02  0.51100000000E-03 0. -1.
        -11    1    3    3    0    0 -0.10214911760E+02 -0.50198466532E+01 -0.25595324727E-01  0.11381737041E+02  0.51100000000E-03 0.  1.
        -12    1    3    3    0    0  0.15739880923E+02  0.15874713691E+02  0.18732034347E+02  0.29165724696E+02  0.00000000000E+00 0.  1.
</event>
<event>
 7    1  0.1338132E-011  0.5930194E+02  0.7816164E-02  0.1266605E+00
        -11   -1    0    0    0    0  0.00000000000E+00  0.00000000000E+00  0.45593999997E+02  0.45594000000E+02  0.51100000000E-03 0. -1.
         11   -1    0    0    0    0 -0.00000000000E+00 -0.00000000000E+00 -0.45593999997E+02  0.45594000000E+02  0.51100000000E-03 0.  1.
    9900012    2    1    2    0    0  0.28416532059E+02  0.33606653169E+01  0.14068670986E+02  0.59301939269E+02  0.49999991321E+02 0.  0.
        -12    1    1    2    0    0 -0.28416532059E+02 -0.33606653169E+01 -0.14068670986E+02  0.31886060731E+02  0.00000000000E+00 0.  1.
         11    1    3    3    0    0 -0.60222346907E+01  0.37061033186E-01  0.44978619733E+01  0.75166113896E+01  0.51100000000E-03 0. -1.
        -11    1    3    3    0    0 -0.33258702468E+01  0.34118537190E+01 -0.86341931757E+01  0.98616150176E+01  0.51100000000E-03 0.  1.
        -12    1    3    3    0    0  0.37764636996E+02 -0.88249435227E-01  0.18205002189E+02  0.41923712862E+02  0.00000000000E+00 0.  1.
</event>
<event>
 7    1  0.1338132E-011  0.5930196E+02  0.7816164E-02  0.1266605E+00
        -11   -1    0    0    0    0  0.00000000000E+00  0.00000000000E+00  0.45593999997E+02  0.45594000000E+02  0.51100000000E-03 0. -1.
         11   -1    0    0    0    0 -0.00000000000E+00 -0.00000000000E+00 -0.45593999997E+02  0.45594000000E+02  0.51100000000E-03 0.  1.
    9900012    2    1    2    0    0 -0.20586263108E+02  0.21303823243E+02  0.11792908767E+02  0.59301955862E+02  0.50000021584E+02 0.  0.
        -12    1    1    2    0    0  0.20586263108E+02 -0.21303823243E+02 -0.11792908767E+02  0.31886044138E+02  0.00000000000E+00 0.  1.
         11    1    3    3    0    0  0.19995103861E+01  0.22948671170E+01 -0.70194680597E+01  0.76509730735E+01  0.51100000000E-03 0. -1.
        -11    1    3    3    0    0 -0.24388720087E+01 -0.57829850694E+01 -0.78430331493E+01  0.10045107378E+02  0.51100000000E-03 0.  1.
         12    1    3    3    0    0 -0.20146901486E+02  0.24791941196E+02  0.26655409976E+02  0.41605875411E+02  0.00000000000E+00 0. -1.
</event>
<event>
 7    1  0.1338132E-011  0.5930194E+02  0.7816164E-02  0.1266605E+00
        -11   -1    0    0    0    0  0.00000000000E+00  0.00000000000E+00  0.45593999997E+02  0.45594000000E+02  0.51100000000E-03 0.  1.
         11   -1    0    0    0    0 -0.00000000000E+00 -0.00000000000E+00 -0.45593999997E+02  0.45594000000E+02  0.51100000000E-03 0. -1.
    9900012    2    1    2    0    0 -0.13128814582E+02  0.28957494246E+02  0.24122183008E+01  0.59301936548E+02  0.49999986359E+02 0.  0.
        -12    1    1    2    0    0  0.13128814582E+02 -0.28957494246E+02 -0.24122183008E+01  0.31886063452E+02  0.00000000000E+00 0.  1.
         11    1    3    3    0    0 -0.11770489028E+02  0.25021672448E+02 -0.17317240048E+02  0.32626910782E+02  0.51100000000E-03 0. -1.
        -11    1    3    3    0    0 -0.43662133175E+01 -0.25093802806E+01 -0.66149973702E+00  0.50792115815E+01  0.51100000000E-03 0.  1.
         12    1    3    3    0    0  0.30078877635E+01  0.64452020788E+01  0.20390958086E+02  0.21595814185E+02  0.00000000000E+00 0. -1.
</event>
<event>
 7    1  0.1338132E-011  0.5930195E+02  0.7816164E-02  0.1266605E+00
        -11   -1    0    0    0    0  0.00000000000E+00  0.00000000000E+00  0.45593999997E+02  0.45594000000E+02  0.51100000000E-03 0.  1.
         11   -1    0    0    0    0 -0.00000000000E+00 -0.00000000000E+00 -0.45593999997E+02  0.45594000000E+02  0.51100000000E-03 0. -1.
    9900012    2    1    2    0    0 -0.17209751952E+02  0.23946390945E+02  0.12129107817E+02  0.59301945714E+02  0.50000003075E+02 0.  0.
        -12    1    1    2    0    0  0.17209751952E+02 -0.23946390945E+02 -0.12129107817E+02  0.31886054286E+02  0.00000000000E+00 0.  1.
         11    1    3    3    0    0  0.17141318540E-01 -0.83137745732E+00 -0.11376735522E+02  0.11407085241E+02  0.51100000000E-03 0. -1.
        -11    1    3    3    0    0 -0.16834665115E+02  0.13249168817E+01  0.16010958516E+02  0.23270413558E+02  0.51100000000E-03 0.  1.
        -12    1    3    3    0    0 -0.39222815475E+00  0.23452851520E+02  0.74948848231E+01  0.24624446915E+02  0.00000000000E+00 0.  1.
</event>
<event>
 7    1  0.1338132E-011  0.5930194E+02  0.7816164E-02  0.1266605E+00
        -11   -1    0    0    0    0  0.00000000000E+00  0.00000000000E+00  0.45593999997E+02  0.45594000000E+02  0.51100000000E-03 0.  1.
         11   -1    0    0    0    0 -0.00000000000E+00 -0.00000000000E+00 -0.45593999997E+02  0.45594000000E+02  0.51100000000E-03 0. -1.
    9900012    2    1    2    0    0 -0.24779759405E+01  0.29403655505E+02 -0.12083276571E+02  0.59301938868E+02  0.49999990589E+02 0.  0.
        -12    1    1    2    0    0  0.24779759405E+01 -0.29403655505E+02  0.12083276571E+02  0.31886061132E+02  0.00000000000E+00 0.  1.
         11    1    3    3    0    0 -0.41005658402E+01  0.19861802693E+02 -0.14704893727E+02  0.25050743426E+02  0.51100000000E-03 0. -1.
        -11    1    3    3    0    0 -0.84913151996E+01  0.14435845584E+02 -0.82033917305E+01  0.18649174451E+02  0.51100000000E-03 0.  1.
        -12    1    3    3    0    0  0.10113905099E+02 -0.48939927718E+01  0.10825008886E+02  0.15602020991E+02  0.00000000000E+00 0.  1.
</event>
<event>
 7    1  0.1338132E-011  0.5930195E+02  0.7816164E-02  0.1266605E+00
        -11   -1    0    0    0    0  0.00000000000E+00  0.00000000000E+00  0.45593999997E+02  0.45594000000E+02  0.51100000000E-03 0.  1.
         11   -1    0    0    0    0 -0.00000000000E+00 -0.00000000000E+00 -0.45593999997E+02  0.45594000000E+02  0.51100000000E-03 0. -1.
    9900012    2    1    2    0    0  0.70131509515E+01 -0.13066592216E+02 -0.28227649207E+02  0.59301948219E+02  0.50000007644E+02 0.  0.
        -12    1    1    2    0    0 -0.70131509515E+01  0.13066592216E+02  0.28227649207E+02  0.31886051781E+02  0.00000000000E+00 0.  1.
         11    1    3    3    0    0  0.38590809092E+01 -0.22553505565E+02 -0.16833493852E+00  0.22881902361E+02  0.51100000000E-03 0. -1.
        -11    1    3    3    0    0  0.69870099696E+01 -0.25589714774E+01 -0.20219838848E+02  0.21545498988E+02  0.51100000000E-03 0.  1.
        -12    1    3    3    0    0 -0.38329399272E+01  0.12045884826E+02 -0.78394754210E+01  0.14874546871E+02  0.00000000000E+00 0.  1.
</event>
<event>
 7    1  0.1338132E-011  0.5930192E+02  0.7816164E-02  0.1266605E+00
        -11   -1    0    0    0    0  0.00000000000E+00  0.00000000000E+00  0.45593999997E+02  0.45594000000E+02  0.51100000000E-03 0.  1.
         11   -1    0    0    0    0 -0.00000000000E+00 -0.00000000000E+00 -0.45593999997E+02  0.45594000000E+02  0.51100000000E-03 0. -1.
    9900012    2    1    2    0    0 -0.61169812078E+01 -0.20416733173E+01 -0.31227166333E+02  0.59301924572E+02  0.49999964517E+02 0.  0.
        -12    1    1    2    0    0  0.61169812078E+01  0.20416733173E+01  0.31227166333E+02  0.31886075428E+02  0.00000000000E+00 0.  1.
         11    1    3    3    0    0 -0.80235418278E+00 -0.82663781155E+01 -0.28384861726E+02  0.29574941333E+02  0.51100000000E-03 0. -1.
        -11    1    3    3    0    0  0.92387788129E+00  0.59083637586E+01 -0.14950666059E+02  0.16102320594E+02  0.51100000000E-03 0.  1.
        -12    1    3    3    0    0 -0.62385049063E+01  0.31634103955E+00  0.12108361452E+02  0.13624662645E+02  0.00000000000E+00 0.  1.
</event>
<event>
 7    1  0.1338132E-011  0.5930199E+02  0.7816164E-02  0.1266605E+00
        -11   -1    0    0    0    0  0.00000000000E+00  0.00000000000E+00  0.45593999997E+02  0.45594000000E+02  0.51100000000E-03 0.  1.
         11   -1    0    0    0    0 -0.00000000000E+00 -0.00000000000E+00 -0.45593999997E+02  0.45594000000E+02  0.51100000000E-03 0. -1.
    9900012    2    1    2    0    0 -0.54821667203E+01  0.82345136801E+01 -0.30312640412E+02  0.59301991529E+02  0.50000086630E+02 0.  0.
        -12    1    1    2    0    0  0.54821667203E+01 -0.82345136801E+01  0.30312640412E+02  0.31886008471E+02  0.00000000000E+00 0.  1.
         11    1    3    3    0    0 -0.12274280027E+02 -0.54917141972E+00 -0.10141775200E+02  0.15931576943E+02  0.51100000000E-03 0. -1.
        -11    1    3    3    0    0 -0.64139608285E+01  0.19480472142E+02 -0.15610834959E+02  0.25774519525E+02  0.51100000000E-03 0.  1.
        -12    1    3    3    0    0  0.13206074135E+02 -0.10696787042E+02 -0.45600302526E+01  0.17595895060E+02  0.00000000000E+00 0.  1.
</event>
<event>
 7    1  0.1338132E-011  0.5930195E+02  0.7816164E-02  0.1266605E+00
        -11   -1    0    0    0    0  0.00000000000E+00  0.00000000000E+00  0.45593999997E+02  0.45594000000E+02  0.51100000000E-03 0.  1.
         11   -1    0    0    0    0 -0.00000000000E+00 -0.00000000000E+00 -0.45593999997E+02  0.45594000000E+02  0.51100000000E-03 0. -1.
    9900012    2    1    2    0    0  0.24571363887E+02 -0.15376469893E+02 -0.13286547704E+02  0.59301951334E+02  0.50000013325E+02 0.  0.
        -12    1    1    2    0    0 -0.24571363887E+02  0.15376469893E+02  0.13286547704E+02  0.31886048666E+02  0.00000000000E+00 0.  1.
         11    1    3    3    0    0  0.19125015743E+02 -0.52723066409E+01 -0.44668361669E+01  0.20335094543E+02  0.51100000000E-03 0. -1.
        -11    1    3    3    0    0  0.12435427021E+02  0.47317824865E+01 -0.16216399706E+02  0.20976206291E+02  0.51100000000E-03 0.  1.
         12    1    3    3    0    0 -0.69890788776E+01 -0.14835945739E+02  0.73966881682E+01  0.17990650499E+02  0.00000000000E+00 0. -1.
</event>
<event>
 7    1  0.1338132E-011  0.5930193E+02  0.7816164E-02  0.1266605E+00
        -11   -1    0    0    0    0  0.00000000000E+00  0.00000000000E+00  0.45593999997E+02  0.45594000000E+02  0.51100000000E-03 0.  1.
         11   -1    0    0    0    0 -0.00000000000E+00 -0.00000000000E+00 -0.45593999997E+02  0.45594000000E+02  0.51100000000E-03 0. -1.
    9900012    2    1    2    0    0  0.75278639514E+01  0.19497000446E+02 -0.24081521893E+02  0.59301930021E+02  0.49999974454E+02 0.  0.
        -12    1    1    2    0    0 -0.75278639514E+01 -0.19497000446E+02  0.24081521893E+02  0.31886069979E+02  0.00000000000E+00 0.  1.
         11    1    3    3    0    0 -0.40077867069E+01  0.17640667592E+01 -0.19397587438E+02  0.19885690446E+02  0.51100000000E-03 0. -1.
        -11    1    3    3    0    0  0.22639301407E+02  0.91960570061E+01 -0.65193116880E+01  0.25290449933E+02  0.51100000000E-03 0.  1.
        -12    1    3    3    0    0 -0.11103650749E+02  0.85368766804E+01  0.18353772332E+01  0.14125789642E+02  0.00000000000E+00 0.  1.
</event>
<event>
 7    1  0.1338132E-011  0.5930193E+02  0.7816164E-02  0.1266605E+00
        -11   -1    0    0    0    0  0.00000000000E+00  0.00000000000E+00  0.45593999997E+02  0.45594000000E+02  0.51100000000E-03 0.  1.
         11   -1    0    0    0    0 -0.00000000000E+00 -0.00000000000E+00 -0.45593999997E+02  0.45594000000E+02  0.51100000000E-03 0. -1.
    9900012    2    1    2    0    0  0.13390302151E+02  0.31183098974E+01 -0.28769726702E+02  0.59301933720E+02  0.49999981201E+02 0.  0.
        -12    1    1    2    0    0 -0.13390302151E+02 -0.31183098974E+01  0.28769726702E+02  0.31886066280E+02  0.00000000000E+00 0.  1.
         11    1    3    3    0    0  0.52951711641E+00  0.10844172047E+02  0.33700341508E+01  0.11368095100E+02  0.51100000000E-03 0. -1.
        -11    1    3    3    0    0  0.15656149557E+01  0.32458743074E+01  0.58155959269E+01  0.68416377027E+01  0.51100000000E-03 0.  1.
         12    1    3    3    0    0  0.11295170079E+02 -0.10971736457E+02 -0.37955356780E+02  0.41092200918E+02  0.00000000000E+00 0. -1.
</event>
<event>
 7    1  0.1338132E-011  0.5930193E+02  0.7816164E-02  0.1266605E+00
        -11   -1    0    0    0    0  0.00000000000E+00  0.00000000000E+00  0.45593999997E+02  0.45594000000E+02  0.51100000000E-03 0. -1.
         11   -1    0    0    0    0 -0.00000000000E+00 -0.00000000000E+00 -0.45593999997E+02  0.45594000000E+02  0.51100000000E-03 0.  1.
    9900012    2    1    2    0    0  0.20864012246E+02  0.41682008277E+01  0.23749538079E+02  0.59301929936E+02  0.49999974301E+02 0.  0.
        -12    1    1    2    0    0 -0.20864012246E+02 -0.41682008277E+01 -0.23749538079E+02  0.31886070064E+02  0.00000000000E+00 0.  1.
         11    1    3    3    0    0  0.11961613275E+02  0.98676720398E+01 -0.46860436662E+01  0.16199078651E+02  0.51100000000E-03 0. -1.
        -11    1    3    3    0    0 -0.49869374541E+01  0.22801519060E+01 -0.40940009740E+01  0.68432070056E+01  0.51100000000E-03 0.  1.
        -12    1    3    3    0    0  0.13889336425E+02 -0.79796231180E+01  0.32529582719E+02  0.36259644280E+02  0.00000000000E+00 0.  1.
</event>
<event>
 7    1  0.1338132E-011  0.5930195E+02  0.7816164E-02  0.1266605E+00
        -11   -1    0    0    0    0  0.00000000000E+00  0.00000000000E+00  0.45593999997E+02  0.45594000000E+02  0.51100000000E-03 0. -1.
         11   -1    0    0    0    0 -0.00000000000E+00 -0.00000000000E+00 -0.45593999997E+02  0.45594000000E+02  0.51100000000E-03 0.  1.
    9900012    2    1    2    0    0 -0.62369762976E+01  0.10808416690E+02  0.29342780061E+02  0.59301945268E+02  0.50000002261E+02 0.  0.
        -12    1    1    2    0    0  0.62369762976E+01 -0.10808416690E+02 -0.29342780061E+02  0.31886054732E+02  0.00000000000E+00 0.  1.
         11    1    3    3    0    0 -0.10549386985E+02  0.13654232030E+02  0.30404543770E+02  0.34959460811E+02  0.51100000000E-03 0. -1.
        -11    1    3    3    0    0 -0.13621931790E+01 -0.79788424308E+01  0.87369216935E+01  0.11910134245E+02  0.51100000000E-03 0.  1.
        -12    1    3    3    0    0  0.56746038660E+01  0.51330270918E+01 -0.97986854028E+01  0.12432350212E+02  0.00000000000E+00 0.  1.
</event>
<event>
 7    1  0.1338132E-011  0.5930209E+02  0.7816164E-02  0.1266604E+00
        -11   -1    0    0    0    0  0.00000000000E+00  0.00000000000E+00  0.45593999997E+02  0.45594000000E+02  0.51100000000E-03 0. -1.
         11   -1    0    0    0    0 -0.00000000000E+00 -0.00000000000E+00 -0.45593999997E+02  0.45594000000E+02  0.51100000000E-03 0.  1.
    9900012    2    1    2    0    0  0.14455424508E+02  0.15691595322E+02  0.23696533949E+02  0.59302091158E+02  0.50000268330E+02 0.  0.
        -12    1    1    2    0    0 -0.14455424508E+02 -0.15691595322E+02 -0.23696533949E+02  0.31885908842E+02  0.00000000000E+00 0.  1.
         11    1    3    3    0    0 -0.12182587752E+01 -0.48237394013E+01  0.10049409748E+02  0.11213529899E+02  0.51100000000E-03 0. -1.
        -11    1    3    3    0    0  0.15952463042E+01 -0.95841551032E+01  0.11115098720E+02  0.14763003070E+02  0.51100000000E-03 0.  1.
        -12    1    3    3    0    0  0.14078436979E+02  0.30099489827E+02  0.25320254807E+01  0.33325558189E+02  0.00000000000E+00 0.  1.
</event>
<event>
 7    1  0.1338132E-011  0.5930194E+02  0.7816164E-02  0.1266605E+00
        -11   -1    0    0    0    0  0.00000000000E+00  0.00000000000E+00  0.45593999997E+02  0.45594000000E+02  0.51100000000E-03 0.  1.
         11   -1    0    0    0    0 -0.00000000000E+00 -0.00000000000E+00 -0.45593999997E+02  0.45594000000E+02  0.51100000000E-03 0. -1.
    9900012    2    1    2    0    0  0.26493142826E+02 -0.30694652851E+00 -0.17740904586E+02  0.59301944607E+02  0.50000001057E+02 0.  0.
        -12    1    1    2    0    0 -0.26493142826E+02  0.30694652851E+00  0.17740904586E+02  0.31886055393E+02  0.00000000000E+00 0.  1.
         11    1    3    3    0    0  0.20833740492E+02 -0.16266867641E+01 -0.29921217606E+01  0.21110273461E+02  0.51100000000E-03 0.  1.
        -11    1    3    3    0    0  0.18778954212E+02 -0.15929203447E+01 -0.15962581082E+02  0.24697985982E+02  0.51100000000E-03 0. -1.
        -12    1    3    3    0    0 -0.13119551877E+02  0.29126605803E+01  0.12137982566E+01  0.13493685165E+02  0.00000000000E+00 0.  1.
</event>
<event>
 7    1  0.1338132E-011  0.5930194E+02  0.7816164E-02  0.1266605E+00
        -11   -1    0    0    0    0  0.00000000000E+00  0.00000000000E+00  0.45593999997E+02  0.45594000000E+02  0.51100000000E-03 0. -1.
         11   -1    0    0    0    0 -0.00000000000E+00 -0.00000000000E+00 -0.45593999997E+02  0.45594000000E+02  0.51100000000E-03 0.  1.
    9900012    2    1    2    0    0  0.24725299854E+02  0.12541721257E+02  0.15750738763E+02  0.59301937268E+02  0.49999987672E+02 0.  0.
        -12    1    1    2    0    0 -0.24725299854E+02 -0.12541721257E+02 -0.15750738763E+02  0.31886062732E+02  0.00000000000E+00 0.  1.
         11    1    3    3    0    0  0.11375987882E+01 -0.80390815012E+01 -0.33455959280E-01  0.81192414639E+01  0.51100000000E-03 0. -1.
        -11    1    3    3    0    0 -0.35890603686E+01 -0.73153642036E+01  0.80935883976E+01  0.11484863132E+02  0.51100000000E-03 0.  1.
         12    1    3    3    0    0  0.27176761434E+02  0.27896166962E+02  0.76906063249E+01  0.39697832672E+02  0.00000000000E+00 0. -1.
</event>
<event>
 7    1  0.1338132E-011  0.5930195E+02  0.7816164E-02  0.1266605E+00
        -11   -1    0    0    0    0  0.00000000000E+00  0.00000000000E+00  0.45593999997E+02  0.45594000000E+02  0.51100000000E-03 0.  1.
         11   -1    0    0    0    0 -0.00000000000E+00 -0.00000000000E+00 -0.45593999997E+02  0.45594000000E+02  0.51100000000E-03 0. -1.
    9900012    2    1    2    0    0 -0.18213127449E+02 -0.26169046307E+02  0.42823812689E+00  0.59301946874E+02  0.50000005191E+02 0.  0.
        -12    1    1    2    0    0  0.18213127449E+02  0.26169046307E+02 -0.42823812689E+00  0.31886053126E+02  0.00000000000E+00 0.  1.
         11    1    3    3    0    0 -0.29737420019E+01  0.50785940476E+00 -0.81017014452E+01  0.86451506196E+01  0.51100000000E-03 0. -1.
        -11    1    3    3    0    0 -0.13399762343E+02 -0.69746953225E+00 -0.11602222617E+02  0.17738423394E+02  0.51100000000E-03 0.  1.
         12    1    3    3    0    0 -0.18396231037E+01 -0.25979436179E+02  0.20132162189E+02  0.32918372860E+02  0.00000000000E+00 0. -1.
</event>
<event>
 7    1  0.1338132E-011  0.5930198E+02  0.7816164E-02  0.1266605E+00
        -11   -1    0    0    0    0  0.00000000000E+00  0.00000000000E+00  0.45593999997E+02  0.45594000000E+02  0.51100000000E-03 0. -1.
         11   -1    0    0    0    0 -0.00000000000E+00 -0.00000000000E+00 -0.45593999997E+02  0.45594000000E+02  0.51100000000E-03 0.  1.
    9900012    2    1    2    0    0  0.88085597374E+01  0.18831821843E+02  0.24176231618E+02  0.59301977767E+02  0.50000061533E+02 0.  0.
        -12    1    1    2    0    0 -0.88085597374E+01 -0.18831821843E+02 -0.24176231618E+02  0.31886022233E+02  0.00000000000E+00 0.  1.
         11    1    3    3    0    0 -0.21369176729E+01  0.15045407788E+02 -0.30048882304E+01  0.15490644473E+02  0.51100000000E-03 0. -1.
        -11    1    3    3    0    0  0.51897919599E+01 -0.43111033414E+01 -0.60898582811E+01  0.90887802675E+01  0.51100000000E-03 0.  1.
         12    1    3    3    0    0  0.57556854504E+01  0.80975173959E+01  0.33270978129E+02  0.34722553026E+02  0.00000000000E+00 0. -1.
</event>
<event>
 7    1  0.1338132E-011  0.5930195E+02  0.7816164E-02  0.1266605E+00
        -11   -1    0    0    0    0  0.00000000000E+00  0.00000000000E+00  0.45593999997E+02  0.45594000000E+02  0.51100000000E-03 0.  1.
         11   -1    0    0    0    0 -0.00000000000E+00 -0.00000000000E+00 -0.45593999997E+02  0.45594000000E+02  0.51100000000E-03 0. -1.
    9900012    2    1    2    0    0 -0.27908185465E+02  0.11432482902E+02 -0.10351407902E+02  0.59301950906E+02  0.50000012545E+02 0.  0.
        -12    1    1    2    0    0  0.27908185465E+02 -0.11432482902E+02  0.10351407902E+02  0.31886049094E+02  0.00000000000E+00 0.  1.
         11    1    3    3    0    0 -0.22228347485E+01  0.17699136666E+02 -0.17966073376E+01  0.17928419653E+02  0.51100000000E-03 0. -1.
        -11    1    3    3    0    0 -0.60384311049E+01  0.12095193185E+02 -0.17265182555E+01  0.13628544087E+02  0.51100000000E-03 0.  1.
        -12    1    3    3    0    0 -0.19646919611E+02 -0.18361846949E+02 -0.68282823090E+01  0.27744987167E+02  0.00000000000E+00 0.  1.
</event>
<event>
 7    1  0.1338132E-011  0.5930194E+02  0.7816164E-02  0.1266605E+00
        -11   -1    0    0    0    0  0.00000000000E+00  0.00000000000E+00  0.45593999997E+02  0.45594000000E+02  0.51100000000E-03 0.  1.
         11   -1    0    0    0    0 -0.00000000000E+00 -0.00000000000E+00 -0.45593999997E+02  0.45594000000E+02  0.51100000000E-03 0. -1.
    9900012    2    1    2    0    0 -0.14270568978E+02 -0.13027677572E+02  0.25364375788E+02  0.59301935944E+02  0.49999985257E+02 0.  0.
        -12    1    1    2    0    0  0.14270568978E+02  0.13027677572E+02 -0.25364375788E+02  0.31886064056E+02  0.00000000000E+00 0.  1.
         11    1    3    3    0    0  0.31226083149E+01 -0.22322609682E+00 -0.58136533833E+01  0.66029598288E+01  0.51100000000E-03 0. -1.
        -11    1    3    3    0    0 -0.27352142995E+01 -0.17949647385E+02  0.32964537474E+00  0.18159843194E+02  0.51100000000E-03 0.  1.
        -12    1    3    3    0    0 -0.14657962993E+02  0.51451959097E+01  0.30848383797E+02  0.34539132921E+02  0.00000000000E+00 0.  1.
</event>
<event>
 7    1  0.1338132E-011  0.5930195E+02  0.7816164E-02  0.1266605E+00
        -11   -1    0    0    0    0  0.00000000000E+00  0.00000000000E+00  0.45593999997E+02  0.45594000000E+02  0.51100000000E-03 0. -1.
         11   -1    0    0    0    0 -0.00000000000E+00 -0.00000000000E+00 -0.45593999997E+02  0.45594000000E+02  0.51100000000E-03 0.  1.
    9900012    2    1    2    0    0  0.29877871430E+02 -0.22524045070E+01  0.10906850049E+02  0.59301954380E+02  0.50000018880E+02 0.  0.
        -12    1    1    2    0    0 -0.29877871430E+02  0.22524045070E+01 -0.10906850049E+02  0.31886045620E+02  0.00000000000E+00 0.  1.
         11    1    3    3    0    0  0.99662259990E+00  0.15154103076E+02  0.15064975743E+02  0.21391437330E+02  0.51100000000E-03 0. -1.
        -11    1    3    3    0    0  0.46673291964E+01 -0.37656262929E+01 -0.78456062812E+01  0.98750919685E+01  0.51100000000E-03 0.  1.
        -12    1    3    3    0    0  0.24213919634E+02 -0.13640881290E+02  0.36874805876E+01  0.28035425082E+02  0.00000000000E+00 0.  1.
</event>
<event>
 7    1  0.1338132E-011  0.5930195E+02  0.7816164E-02  0.1266605E+00
        -11   -1    0    0    0    0  0.00000000000E+00  0.00000000000E+00  0.45593999997E+02  0.45594000000E+02  0.51100000000E-03 0. -1.
         11   -1    0    0    0    0 -0.00000000000E+00 -0.00000000000E+00 -0.45593999997E+02  0.45594000000E+02  0.51100000000E-03 0.  1.
    9900012    2    1    2    0    0 -0.67239829921E+01 -0.12502029957E+02  0.28551842738E+02  0.59301946245E+02  0.50000004045E+02 0.  0.
        -12    1    1    2    0    0  0.67239829921E+01  0.12502029957E+02 -0.28551842738E+02  0.31886053755E+02  0.00000000000E+00 0.  1.
         11    1    3    3    0    0 -0.29956181503E+01  0.45350683737E+01  0.71010922380E+01  0.89423757744E+01  0.51100000000E-03 0. -1.
        -11    1    3    3    0    0 -0.87564197952E+01  0.10270770151E+02  0.17822947428E+02  0.22356678250E+02  0.51100000000E-03 0.  1.
         12    1    3    3    0    0  0.50280549533E+01 -0.27307868481E+02  0.36278030722E+01  0.28002892221E+02  0.00000000000E+00 0. -1.
</event>
<event>
 7    1  0.1338132E-011  0.5930195E+02  0.7816164E-02  0.1266605E+00
        -11   -1    0    0    0    0  0.00000000000E+00  0.00000000000E+00  0.45593999997E+02  0.45594000000E+02  0.51100000000E-03 0. -1.
         11   -1    0    0    0    0 -0.00000000000E+00 -0.00000000000E+00 -0.45593999997E+02  0.45594000000E+02  0.51100000000E-03 0.  1.
    9900012    2    1    2    0    0 -0.29357875622E+00  0.19804883431E+02  0.24988005358E+02  0.59301952770E+02  0.50000015944E+02 0.  0.
        -12    1    1    2    0    0  0.29357875622E+00 -0.19804883431E+02 -0.24988005358E+02  0.31886047230E+02  0.00000000000E+00 0.  1.
         11    1    3    3    0    0 -0.12039354762E+02 -0.32100410012E+01  0.46798802982E+01  0.13309834942E+02  0.51100000000E-03 0. -1.
        -11    1    3    3    0    0  0.10211975619E+02  0.42445058117E+01 -0.68013069428E+01  0.12982990873E+02  0.51100000000E-03 0.  1.
         12    1    3    3    0    0  0.15338003873E+01  0.18770418621E+02  0.27109432002E+02  0.33009126955E+02  0.00000000000E+00 0. -1.
</event>
<event>
 7    1  0.1338132E-011  0.5930200E+02  0.7816164E-02  0.1266605E+00
        -11   -1    0    0    0    0  0.00000000000E+00  0.00000000000E+00  0.45593999997E+02  0.45594000000E+02  0.51100000000E-03 0.  1.
         11   -1    0    0    0    0 -0.00000000000E+00 -0.00000000000E+00 -0.45593999997E+02  0.45594000000E+02  0.51100000000E-03 0. -1.
    9900012    2    1    2    0    0  0.39818390289E+01 -0.29776490170E+02 -0.10687491275E+02  0.59302001840E+02  0.50000105436E+02 0.  0.
        -12    1    1    2    0    0 -0.39818390289E+01  0.29776490170E+02  0.10687491275E+02  0.31885998160E+02  0.00000000000E+00 0.  1.
         11    1    3    3    0    0  0.10725404251E+02 -0.10261028847E+02 -0.25627931107E+01  0.15062898730E+02  0.51100000000E-03 0. -1.
        -11    1    3    3    0    0 -0.99372578853E+01  0.32260522600E+01  0.10394389317E+02  0.14737701212E+02  0.51100000000E-03 0.  1.
         12    1    3    3    0    0  0.31936926630E+01 -0.22741513583E+02 -0.18519087481E+02  0.29501401899E+02  0.00000000000E+00 0. -1.
</event>
<event>
 7    1  0.1338132E-011  0.5930198E+02  0.7816164E-02  0.1266605E+00
        -11   -1    0    0    0    0  0.00000000000E+00  0.00000000000E+00  0.45593999997E+02  0.45594000000E+02  0.51100000000E-03 0. -1.
         11   -1    0    0    0    0 -0.00000000000E+00 -0.00000000000E+00 -0.45593999997E+02  0.45594000000E+02  0.51100000000E-03 0.  1.
    9900012    2    1    2    0    0 -0.29403493552E+02  0.73005779474E+01 -0.99425638021E+01  0.59301977257E+02  0.50000060602E+02 0.  0.
        -12    1    1    2    0    0  0.29403493552E+02 -0.73005779474E+01  0.99425638021E+01  0.31886022743E+02  0.00000000000E+00 0.  1.
         11    1    3    3    0    0 -0.23601208647E+02  0.20392005068E+02 -0.78475017647E+01  0.32162621232E+02  0.51100000000E-03 0. -1.
        -11    1    3    3    0    0 -0.32978725249E+01  0.63309149718E+01 -0.24670903214E+01  0.75526804835E+01  0.51100000000E-03 0.  1.
        -12    1    3    3    0    0 -0.25044123801E+01 -0.19422342093E+02  0.37202828404E+00  0.19586675542E+02  0.00000000000E+00 0.  1.
</event>
<event>
 7    1  0.1338132E-011  0.5930195E+02  0.7816164E-02  0.1266605E+00
        -11   -1    0    0    0    0  0.00000000000E+00  0.00000000000E+00  0.45593999997E+02  0.45594000000E+02  0.51100000000E-03 0.  1.
         11   -1    0    0    0    0 -0.00000000000E+00 -0.00000000000E+00 -0.45593999997E+02  0.45594000000E+02  0.51100000000E-03 0. -1.
    9900012    2    1    2    0    0 -0.18451476653E+02  0.91923276881E+01 -0.24326212475E+02  0.59301945174E+02  0.50000002091E+02 0.  0.
        -12    1    1    2    0    0  0.18451476653E+02 -0.91923276881E+01  0.24326212475E+02  0.31886054826E+02  0.00000000000E+00 0.  1.
         11    1    3    3    0    0 -0.21180636352E+02  0.69830404646E+01 -0.30003762663E+01  0.22502987988E+02  0.51100000000E-03 0. -1.
        -11    1    3    3    0    0 -0.76495021236E+01  0.75987755949E+01  0.17553529628E+01  0.10924172168E+02  0.51100000000E-03 0.  1.
         12    1    3    3    0    0  0.10378661823E+02 -0.53894883715E+01 -0.23081189171E+02  0.25874785017E+02  0.00000000000E+00 0. -1.
</event>
<event>
 7    1  0.1338132E-011  0.5930194E+02  0.7816164E-02  0.1266605E+00
        -11   -1    0    0    0    0  0.00000000000E+00  0.00000000000E+00  0.45593999997E+02  0.45594000000E+02  0.51100000000E-03 0. -1.
         11   -1    0    0    0    0 -0.00000000000E+00 -0.00000000000E+00 -0.45593999997E+02  0.45594000000E+02  0.51100000000E-03 0.  1.
    9900012    2    1    2    0    0  0.31881542643E+02  0.46571888786E+00 -0.26707181600E+00  0.59301937485E+02  0.49999988068E+02 0.  0.
        -12    1    1    2    0    0 -0.31881542643E+02 -0.46571888786E+00  0.26707181600E+00  0.31886062515E+02  0.00000000000E+00 0.  1.
         11    1    3    3    0    0 -0.15059318381E+01 -0.18930347707E+00 -0.14579186962E+01  0.21045649653E+01  0.51100000000E-03 0. -1.
        -11    1    3    3    0    0  0.32845842593E+01  0.66094399986E+01 -0.19054816807E+02  0.20434266188E+02  0.51100000000E-03 0.  1.
         12    1    3    3    0    0  0.30102890221E+02 -0.59544176336E+01  0.20245663687E+02  0.36763106332E+02  0.00000000000E+00 0. -1.
</event>
<event>
 7    1  0.1338132E-011  0.5930191E+02  0.7816164E-02  0.1266605E+00
        -11   -1    0    0    0    0  0.00000000000E+00  0.00000000000E+00  0.45593999997E+02  0.45594000000E+02  0.51100000000E-03 0.  1.
         11   -1    0    0    0    0 -0.00000000000E+00 -0.00000000000E+00 -0.45593999997E+02  0.45594000000E+02  0.51100000000E-03 0. -1.
    9900012    2    1    2    0    0  0.97829216184E+01 -0.30221300236E+02 -0.27731139034E+01  0.59301910493E+02  0.49999938841E+02 0.  0.
        -12    1    1    2    0    0 -0.97829216184E+01  0.30221300236E+02  0.27731139034E+01  0.31886089507E+02  0.00000000000E+00 0.  1.
         11    1    3    3    0    0  0.77978469683E+01 -0.15725712351E+02  0.85242755558E+01  0.19513270364E+02  0.51100000000E-03 0. -1.
        -11    1    3    3    0    0 -0.62708305953E+01  0.52128141778E+01  0.76863245033E+01  0.11206084626E+02  0.51100000000E-03 0.  1.
        -12    1    3    3    0    0  0.82559052454E+01 -0.19708402063E+02 -0.18983713963E+02  0.28582555503E+02  0.00000000000E+00 0.  1.
</event>
<event>
 7    1  0.1338132E-011  0.5930195E+02  0.7816164E-02  0.1266605E+00
        -11   -1    0    0    0    0  0.00000000000E+00  0.00000000000E+00  0.45593999997E+02  0.45594000000E+02  0.51100000000E-03 0.  1.
         11   -1    0    0    0    0 -0.00000000000E+00 -0.00000000000E+00 -0.45593999997E+02  0.45594000000E+02  0.51100000000E-03 0. -1.
    9900012    2    1    2    0    0 -0.42527391848E+01  0.23229012995E+02 -0.21425386732E+02  0.59301952394E+02  0.50000015258E+02 0.  0.
        -12    1    1    2    0    0  0.42527391848E+01 -0.23229012995E+02  0.21425386732E+02  0.31886047606E+02  0.00000000000E+00 0.  1.
         11    1    3    3    0    0  0.12485562258E+02  0.92022249296E+01  0.28361831939E+01  0.15767502780E+02  0.51100000000E-03 0. -1.
        -11    1    3    3    0    0  0.47260278584E+01 -0.43974268057E+01 -0.98779458647E+01  0.11800276124E+02  0.51100000000E-03 0.  1.
         12    1    3    3    0    0 -0.21464329301E+02  0.18424214871E+02 -0.14383624062E+02  0.31734173490E+02  0.00000000000E+00 0. -1.
</event>
<event>
 7    1  0.1338132E-011  0.5930196E+02  0.7816164E-02  0.1266605E+00
        -11   -1    0    0    0    0  0.00000000000E+00  0.00000000000E+00  0.45593999997E+02  0.45594000000E+02  0.51100000000E-03 0.  1.
         11   -1    0    0    0    0 -0.00000000000E+00 -0.00000000000E+00 -0.45593999997E+02  0.45594000000E+02  0.51100000000E-03 0. -1.
    9900012    2    1    2    0    0  0.17783042946E+02  0.15040958263E+02 -0.21777336264E+02  0.59301962043E+02  0.50000032855E+02 0.  0.
        -12    1    1    2    0    0 -0.17783042946E+02 -0.15040958263E+02  0.21777336264E+02  0.31886037957E+02  0.00000000000E+00 0.  1.
         11    1    3    3    0    0  0.21495050088E+02  0.19982643361E+02  0.60041399454E+01  0.29956516999E+02  0.51100000000E-03 0. -1.
        -11    1    3    3    0    0 -0.23607886056E+01 -0.19921840254E+01 -0.28473241970E+01  0.42011159678E+01  0.51100000000E-03 0.  1.
        -12    1    3    3    0    0 -0.13512185370E+01 -0.29495010727E+01 -0.24934152012E+02  0.25144329076E+02  0.00000000000E+00 0.  1.
</event>
<event>
 7    1  0.1338132E-011  0.5930193E+02  0.7816164E-02  0.1266605E+00
        -11   -1    0    0    0    0  0.00000000000E+00  0.00000000000E+00  0.45593999997E+02  0.45594000000E+02  0.51100000000E-03 0.  1.
         11   -1    0    0    0    0 -0.00000000000E+00 -0.00000000000E+00 -0.45593999997E+02  0.45594000000E+02  0.51100000000E-03 0. -1.
    9900012    2    1    2    0    0  0.24482217889E+02 -0.42368239800E+01 -0.19984786372E+02  0.59301931623E+02  0.49999977377E+02 0.  0.
        -12    1    1    2    0    0 -0.24482217889E+02  0.42368239800E+01  0.19984786372E+02  0.31886068377E+02  0.00000000000E+00 0.  1.
         11    1    3    3    0    0 -0.12922186476E+02 -0.79072151963E+01 -0.10294018569E+02  0.18315943165E+02  0.51100000000E-03 0. -1.
        -11    1    3    3    0    0  0.31023106220E+01 -0.35249747171E+01 -0.19976072729E+01  0.51029612020E+01  0.51100000000E-03 0.  1.
         12    1    3    3    0    0  0.34302093743E+02  0.71953659334E+01 -0.76931605305E+01  0.35883027256E+02  0.00000000000E+00 0. -1.
</event>
<event>
 7    1  0.1338132E-011  0.5930190E+02  0.7816164E-02  0.1266605E+00
        -11   -1    0    0    0    0  0.00000000000E+00  0.00000000000E+00  0.45593999997E+02  0.45594000000E+02  0.51100000000E-03 0.  1.
         11   -1    0    0    0    0 -0.00000000000E+00 -0.00000000000E+00 -0.45593999997E+02  0.45594000000E+02  0.51100000000E-03 0. -1.
    9900012    2    1    2    0    0 -0.40792534176E+01 -0.30275445639E+02 -0.91367517682E+01  0.59301903500E+02  0.49999926088E+02 0.  0.
        -12    1    1    2    0    0  0.40792534176E+01  0.30275445639E+02  0.91367517682E+01  0.31886096500E+02  0.00000000000E+00 0.  1.
         11    1    3    3    0    0 -0.20753646647E+02 -0.23084071344E+02 -0.69655784781E+01  0.31813636742E+02  0.51100000000E-03 0. -1.
        -11    1    3    3    0    0 -0.43822711120E+01 -0.19898191353E+01 -0.31911305902E+01  0.57746857053E+01  0.51100000000E-03 0.  1.
        -12    1    3    3    0    0  0.21056664341E+02 -0.52015551603E+01  0.10199573001E+01  0.21713581053E+02  0.00000000000E+00 0.  1.
</event>
<event>
 7    1  0.1338132E-011  0.5930193E+02  0.7816164E-02  0.1266605E+00
        -11   -1    0    0    0    0  0.00000000000E+00  0.00000000000E+00  0.45593999997E+02  0.45594000000E+02  0.51100000000E-03 0.  1.
         11   -1    0    0    0    0 -0.00000000000E+00 -0.00000000000E+00 -0.45593999997E+02  0.45594000000E+02  0.51100000000E-03 0. -1.
    9900012    2    1    2    0    0 -0.21502873114E+02 -0.66124886204E+01 -0.22596966150E+02  0.59301930360E+02  0.49999975073E+02 0.  0.
        -12    1    1    2    0    0  0.21502873114E+02  0.66124886204E+01  0.22596966150E+02  0.31886069640E+02  0.00000000000E+00 0.  1.
         11    1    3    3    0    0 -0.16348958927E+02 -0.68248369999E+01 -0.20368102699E+02  0.26994934078E+02  0.51100000000E-03 0. -1.
        -11    1    3    3    0    0 -0.45336153091E+01 -0.11642171938E+02  0.94417421289E+01  0.15660151018E+02  0.51100000000E-03 0.  1.
         12    1    3    3    0    0 -0.62029887776E+00  0.11854520317E+02 -0.11670605581E+02  0.16646845265E+02  0.00000000000E+00 0. -1.
</event>
<event>
 7    1  0.1338132E-011  0.5930190E+02  0.7816164E-02  0.1266605E+00
        -11   -1    0    0    0    0  0.00000000000E+00  0.00000000000E+00  0.45593999997E+02  0.45594000000E+02  0.51100000000E-03 0.  1.
         11   -1    0    0    0    0 -0.00000000000E+00 -0.00000000000E+00 -0.45593999997E+02  0.45594000000E+02  0.51100000000E-03 0. -1.
    9900012    2    1    2    0    0  0.14878955858E+02 -0.15598568518E+02 -0.23495203199E+02  0.59301902080E+02  0.49999923497E+02 0.  0.
        -12    1    1    2    0    0 -0.14878955858E+02  0.15598568518E+02  0.23495203199E+02  0.31886097920E+02  0.00000000000E+00 0.  1.
         11    1    3    3    0    0  0.19092023052E+02 -0.90911064804E+01 -0.20637179679E+02  0.29547364461E+02  0.51100000000E-03 0. -1.
        -11    1    3    3    0    0  0.11712253268E+02 -0.63340383784E+01 -0.36566599131E+01  0.13808261323E+02  0.51100000000E-03 0.  1.
        -12    1    3    3    0    0 -0.15925320463E+02 -0.17342365897E+00  0.79863639277E+00  0.15946276295E+02  0.00000000000E+00 0.  1.
</event>
<event>
 7    1  0.1338132E-011  0.5930193E+02  0.7816164E-02  0.1266605E+00
        -11   -1    0    0    0    0  0.00000000000E+00  0.00000000000E+00  0.45593999997E+02  0.45594000000E+02  0.51100000000E-03 0. -1.
         11   -1    0    0    0    0 -0.00000000000E+00 -0.00000000000E+00 -0.45593999997E+02  0.45594000000E+02  0.51100000000E-03 0.  1.
    9900012    2    1    2    0    0  0.10224176865E+02 -0.29206024220E+02 -0.76938619924E+01  0.59301934772E+02  0.49999983121E+02 0.  0.
        -12    1    1    2    0    0 -0.10224176865E+02  0.29206024220E+02  0.76938619924E+01  0.31886065228E+02  0.00000000000E+00 0.  1.
         11    1    3    3    0    0  0.20042536777E+01 -0.25716591151E+02 -0.28968128110E+01  0.25956725871E+02  0.51100000000E-03 0. -1.
        -11    1    3    3    0    0 -0.86523458466E+01 -0.93291597591E+01  0.41382025444E+01  0.13379874103E+02  0.51100000000E-03 0.  1.
        -12    1    3    3    0    0  0.16872269034E+02  0.58397266898E+01 -0.89352517258E+01  0.19965334798E+02  0.00000000000E+00 0.  1.
</event>
<event>
 7    1  0.1338132E-011  0.5930195E+02  0.7816164E-02  0.1266605E+00
        -11   -1    0    0    0    0  0.00000000000E+00  0.00000000000E+00  0.45593999997E+02  0.45594000000E+02  0.51100000000E-03 0.  1.
         11   -1    0    0    0    0 -0.00000000000E+00 -0.00000000000E+00 -0.45593999997E+02  0.45594000000E+02  0.51100000000E-03 0. -1.
    9900012    2    1    2    0    0  0.23716484358E+02 -0.19536339397E+02 -0.85193845256E+01  0.59301951326E+02  0.50000013311E+02 0.  0.
        -12    1    1    2    0    0 -0.23716484358E+02  0.19536339397E+02  0.85193845256E+01  0.31886048674E+02  0.00000000000E+00 0.  1.
         11    1    3    3    0    0  0.12655173532E+02 -0.25997874578E+01 -0.18147543700E+02  0.22276571877E+02  0.51100000000E-03 0. -1.
        -11    1    3    3    0    0 -0.35316173745E+01  0.68691535772E+01  0.32737014345E+01  0.83889637912E+01  0.51100000000E-03 0.  1.
        -12    1    3    3    0    0  0.14592928201E+02 -0.23805705516E+02  0.63544577403E+01  0.28636415658E+02  0.00000000000E+00 0.  1.
</event>
<event>
 7    1  0.1338132E-011  0.5930196E+02  0.7816164E-02  0.1266605E+00
        -11   -1    0    0    0    0  0.00000000000E+00  0.00000000000E+00  0.45593999997E+02  0.45594000000E+02  0.51100000000E-03 0.  1.
         11   -1    0    0    0    0 -0.00000000000E+00 -0.00000000000E+00 -0.45593999997E+02  0.45594000000E+02  0.51100000000E-03 0. -1.
    9900012    2    1    2    0    0  0.11476852984E+02  0.22034697725E+02 -0.19986825558E+02  0.59301964591E+02  0.50000037502E+02 0.  0.
        -12    1    1    2    0    0 -0.11476852984E+02 -0.22034697725E+02  0.19986825558E+02  0.31886035409E+02  0.00000000000E+00 0.  1.
         11    1    3    3    0    0  0.28606504234E+02  0.58974424840E+01 -0.90908120514E+01  0.30590109126E+02  0.51100000000E-03 0.  1.
        -11    1    3    3    0    0 -0.37342784035E+01  0.80420895582E+01  0.11776854355E+01  0.89446622576E+01  0.51100000000E-03 0. -1.
        -12    1    3    3    0    0 -0.13395372847E+02  0.80951656830E+01 -0.12073698942E+02  0.19767193207E+02  0.00000000000E+00 0.  1.
</event>
<event>
 7    1  0.1338132E-011  0.5930194E+02  0.7816164E-02  0.1266605E+00
        -11   -1    0    0    0    0  0.00000000000E+00  0.00000000000E+00  0.45593999997E+02  0.45594000000E+02  0.51100000000E-03 0.  1.
         11   -1    0    0    0    0 -0.00000000000E+00 -0.00000000000E+00 -0.45593999997E+02  0.45594000000E+02  0.51100000000E-03 0. -1.
    9900012    2    1    2    0    0  0.12034619096E+02  0.12268032422E+02 -0.26858599435E+02  0.59301936588E+02  0.49999986432E+02 0.  0.
        -12    1    1    2    0    0 -0.12034619096E+02 -0.12268032422E+02  0.26858599435E+02  0.31886063412E+02  0.00000000000E+00 0.  1.
         11    1    3    3    0    0  0.77627508594E+00  0.15449311515E+01 -0.20439535928E+01  0.26771555469E+01  0.51100000000E-03 0. -1.
        -11    1    3    3    0    0 -0.19069407285E+02  0.35420490991E+01 -0.12716822900E+02  0.23192800412E+02  0.51100000000E-03 0.  1.
        -12    1    3    3    0    0  0.30327751294E+02  0.71810521713E+01 -0.12097822943E+02  0.33431980630E+02  0.00000000000E+00 0.  1.
</event>
<event>
 7    1  0.1338132E-011  0.5930194E+02  0.7816164E-02  0.1266605E+00
        -11   -1    0    0    0    0  0.00000000000E+00  0.00000000000E+00  0.45593999997E+02  0.45594000000E+02  0.51100000000E-03 0.  1.
         11   -1    0    0    0    0 -0.00000000000E+00 -0.00000000000E+00 -0.45593999997E+02  0.45594000000E+02  0.51100000000E-03 0. -1.
    9900012    2    1    2    0    0  0.69384265730E+01 -0.23940811466E+02 -0.19885082047E+02  0.59301941840E+02  0.49999996010E+02 0.  0.
        -12    1    1    2    0    0 -0.69384265730E+01  0.23940811466E+02  0.19885082047E+02  0.31886058160E+02  0.00000000000E+00 0.  1.
         11    1    3    3    0    0  0.70381947129E+01  0.10408429258E+02 -0.87375635481E+01  0.15304136743E+02  0.51100000000E-03 0. -1.
        -11    1    3    3    0    0 -0.43268804861E+01 -0.12026774012E+02  0.73115838897E+01  0.14724960004E+02  0.51100000000E-03 0.  1.
         12    1    3    3    0    0  0.42271123462E+01 -0.22322466712E+02 -0.18459102389E+02  0.29272845094E+02  0.00000000000E+00 0. -1.
</event>
<event>
 7    1  0.1338132E-011  0.5930201E+02  0.7816164E-02  0.1266605E+00
        -11   -1    0    0    0    0  0.00000000000E+00  0.00000000000E+00  0.45593999997E+02  0.45594000000E+02  0.51100000000E-03 0. -1.
         11   -1    0    0    0    0 -0.00000000000E+00 -0.00000000000E+00 -0.45593999997E+02  0.45594000000E+02  0.51100000000E-03 0.  1.
    9900012    2    1    2    0    0 -0.73176191796E+01 -0.30270841401E+02  0.68443383626E+01  0.59302010017E+02  0.50000120348E+02 0.  0.
        -12    1    1    2    0    0  0.73176191796E+01  0.30270841401E+02 -0.68443383626E+01  0.31885989983E+02  0.00000000000E+00 0.  1.
         11    1    3    3    0    0 -0.16890905447E+02 -0.23040895627E+02  0.12873188484E+02  0.31335356072E+02  0.51100000000E-03 0. -1.
        -11    1    3    3    0    0  0.10311972863E+02 -0.29862036790E+01  0.79373599527E+01  0.13351250130E+02  0.51100000000E-03 0.  1.
        -12    1    3    3    0    0 -0.73868659548E+00 -0.42437420951E+01 -0.13966210074E+02  0.14615403816E+02  0.00000000000E+00 0.  1.
</event>
<event>
 7    1  0.1338132E-011  0.5930196E+02  0.7816164E-02  0.1266605E+00
        -11   -1    0    0    0    0  0.00000000000E+00  0.00000000000E+00  0.45593999997E+02  0.45594000000E+02  0.51100000000E-03 0.  1.
         11   -1    0    0    0    0 -0.00000000000E+00 -0.00000000000E+00 -0.45593999997E+02  0.45594000000E+02  0.51100000000E-03 0. -1.
    9900012    2    1    2    0    0  0.20101288468E+02  0.22680605557E+02 -0.99120135471E+01  0.59301957927E+02  0.50000025349E+02 0.  0.
        -12    1    1    2    0    0 -0.20101288468E+02 -0.22680605557E+02  0.99120135471E+01  0.31886042073E+02  0.00000000000E+00 0.  1.
         11    1    3    3    0    0  0.12204147463E+02  0.16979764046E+01 -0.11341048013E+02  0.16746453638E+02  0.51100000000E-03 0. -1.
        -11    1    3    3    0    0  0.47797921311E+01 -0.96004888128E+01  0.45623579486E+01  0.11654651800E+02  0.51100000000E-03 0.  1.
        -12    1    3    3    0    0  0.31173488744E+01  0.30583117965E+02 -0.31333234823E+01  0.30900852489E+02  0.00000000000E+00 0.  1.
</event>
<event>
 7    1  0.1338132E-011  0.5930198E+02  0.7816164E-02  0.1266605E+00
        -11   -1    0    0    0    0  0.00000000000E+00  0.00000000000E+00  0.45593999997E+02  0.45594000000E+02  0.51100000000E-03 0.  1.
         11   -1    0    0    0    0 -0.00000000000E+00 -0.00000000000E+00 -0.45593999997E+02  0.45594000000E+02  0.51100000000E-03 0. -1.
    9900012    2    1    2    0    0 -0.15392615465E+02 -0.28300022700E+01 -0.27780874296E+02  0.59301976411E+02  0.50000059059E+02 0.  0.
        -12    1    1    2    0    0  0.15392615465E+02  0.28300022700E+01  0.27780874296E+02  0.31886023589E+02  0.00000000000E+00 0.  1.
         11    1    3    3    0    0 -0.51142494060E+01  0.10728014483E+02 -0.11538330770E+02  0.16564387068E+02  0.51100000000E-03 0. -1.
        -11    1    3    3    0    0 -0.47065351093E+01  0.56485606706E+01  0.82938918120E+01  0.11083607357E+02  0.51100000000E-03 0.  1.
        -12    1    3    3    0    0 -0.55718309495E+01 -0.19206577424E+02 -0.24536435338E+02  0.31653981986E+02  0.00000000000E+00 0.  1.
</event>
<event>
 7    1  0.1338132E-011  0.5930197E+02  0.7816164E-02  0.1266605E+00
        -11   -1    0    0    0    0  0.00000000000E+00  0.00000000000E+00  0.45593999997E+02  0.45594000000E+02  0.51100000000E-03 0.  1.
         11   -1    0    0    0    0 -0.00000000000E+00 -0.00000000000E+00 -0.45593999997E+02  0.45594000000E+02  0.51100000000E-03 0. -1.
    9900012    2    1    2    0    0 -0.20297891322E+02  0.14591955731E+02 -0.19793676337E+02  0.59301965642E+02  0.50000039419E+02 0.  0.
        -12    1    1    2    0    0  0.20297891322E+02 -0.14591955731E+02  0.19793676337E+02  0.31886034358E+02  0.00000000000E+00 0.  1.
         11    1    3    3    0    0 -0.46312544815E+01 -0.44168575066E+00 -0.17999776892E+02  0.18591276794E+02  0.51100000000E-03 0. -1.
        -11    1    3    3    0    0  0.85301377195E+01  0.59975844487E-01  0.68841607325E+01  0.10961683989E+02  0.51100000000E-03 0.  1.
         12    1    3    3    0    0 -0.24196774560E+02  0.14973665637E+02 -0.86780601767E+01  0.29749004860E+02  0.00000000000E+00 0. -1.
</event>
<event>
 7    1  0.1338132E-011  0.5930195E+02  0.7816164E-02  0.1266605E+00
        -11   -1    0    0    0    0  0.00000000000E+00  0.00000000000E+00  0.45593999997E+02  0.45594000000E+02  0.51100000000E-03 0.  1.
         11   -1    0    0    0    0 -0.00000000000E+00 -0.00000000000E+00 -0.45593999997E+02  0.45594000000E+02  0.51100000000E-03 0. -1.
    9900012    2    1    2    0    0  0.16717705188E+00 -0.19539791088E+02 -0.25197003443E+02  0.59301947149E+02  0.50000005692E+02 0.  0.
        -12    1    1    2    0    0 -0.16717705188E+00  0.19539791088E+02  0.25197003443E+02  0.31886052851E+02  0.00000000000E+00 0.  1.
         11    1    3    3    0    0  0.16696443211E+02  0.19775836029E+01 -0.16987896675E+02  0.23901269559E+02  0.51100000000E-03 0. -1.
        -11    1    3    3    0    0 -0.23489433466E+01 -0.17758475922E+02  0.12315285793E+01  0.17955435523E+02  0.51100000000E-03 0.  1.
        -12    1    3    3    0    0 -0.14180322813E+02 -0.37588987696E+01 -0.94406353465E+01  0.17445242067E+02  0.00000000000E+00 0.  1.
</event>
<event>
 7    1  0.1338132E-011  0.5930188E+02  0.7816164E-02  0.1266605E+00
        -11   -1    0    0    0    0  0.00000000000E+00  0.00000000000E+00  0.45593999997E+02  0.45594000000E+02  0.51100000000E-03 0.  1.
         11   -1    0    0    0    0 -0.00000000000E+00 -0.00000000000E+00 -0.45593999997E+02  0.45594000000E+02  0.51100000000E-03 0. -1.
    9900012    2    1    2    0    0 -0.25554426545E+02  0.84988093904E+01 -0.17072388135E+02  0.59301875844E+02  0.49999875649E+02 0.  0.
        -12    1    1    2    0    0  0.25554426545E+02 -0.84988093904E+01  0.17072388135E+02  0.31886124156E+02  0.00000000000E+00 0.  1.
         11    1    3    3    0    0 -0.24244610681E+02  0.50510724816E+01 -0.22215546162E+02  0.33269279701E+02  0.51100000000E-03 0. -1.
        -11    1    3    3    0    0 -0.95630500624E+01 -0.68289307268E+01 -0.34275338291E+00  0.11756007039E+02  0.51100000000E-03 0.  1.
        -12    1    3    3    0    0  0.82532341984E+01  0.10276667636E+02  0.54859114104E+01  0.14276589103E+02  0.00000000000E+00 0.  1.
</event>
<event>
 7    1  0.1338132E-011  0.5930195E+02  0.7816164E-02  0.1266605E+00
        -11   -1    0    0    0    0  0.00000000000E+00  0.00000000000E+00  0.45593999997E+02  0.45594000000E+02  0.51100000000E-03 0.  1.
         11   -1    0    0    0    0 -0.00000000000E+00 -0.00000000000E+00 -0.45593999997E+02  0.45594000000E+02  0.51100000000E-03 0. -1.
    9900012    2    1    2    0    0  0.82234876089E+01  0.17531006555E+02 -0.25332948148E+02  0.59301949740E+02  0.50000010418E+02 0.  0.
        -12    1    1    2    0    0 -0.82234876089E+01 -0.17531006555E+02  0.25332948148E+02  0.31886050260E+02  0.00000000000E+00 0.  1.
         11    1    3    3    0    0 -0.14535151521E+01 -0.58877857115E+00 -0.15209640774E+02  0.15290275970E+02  0.51100000000E-03 0. -1.
        -11    1    3    3    0    0 -0.13393779628E+02  0.53631024328E+01  0.27281551573E+01  0.14683290886E+02  0.51100000000E-03 0.  1.
         12    1    3    3    0    0  0.23070782389E+02  0.12756682694E+02 -0.12851462532E+02  0.29328382884E+02  0.00000000000E+00 0. -1.
</event>
<event>
 7    1  0.1338132E-011  0.5930194E+02  0.7816164E-02  0.1266605E+00
        -11   -1    0    0    0    0  0.00000000000E+00  0.00000000000E+00  0.45593999997E+02  0.45594000000E+02  0.51100000000E-03 0.  1.
         11   -1    0    0    0    0 -0.00000000000E+00 -0.00000000000E+00 -0.45593999997E+02  0.45594000000E+02  0.51100000000E-03 0. -1.
    9900012    2    1    2    0    0 -0.13506612933E+02 -0.15670724544E+02 -0.24263561418E+02  0.59301943277E+02  0.49999998631E+02 0.  0.
        -12    1    1    2    0    0  0.13506612933E+02  0.15670724544E+02  0.24263561418E+02  0.31886056723E+02  0.00000000000E+00 0.  1.
         11    1    3    3    0    0 -0.21223596267E+02 -0.15945151806E+02 -0.48668135860E+01  0.26988419357E+02  0.51100000000E-03 0. -1.
        -11    1    3    3    0    0 -0.77644399352E+01  0.51308767562E+00 -0.13813390791E+02  0.15854322813E+02  0.51100000000E-03 0.  1.
        -12    1    3    3    0    0  0.15481423269E+02 -0.23866041342E+00 -0.55833570409E+01  0.16459201107E+02  0.00000000000E+00 0.  1.
</event>
<event>
 7    1  0.1338132E-011  0.5930195E+02  0.7816164E-02  0.1266605E+00
        -11   -1    0    0    0    0  0.00000000000E+00  0.00000000000E+00  0.45593999997E+02  0.45594000000E+02  0.51100000000E-03 0.  1.
         11   -1    0    0    0    0 -0.00000000000E+00 -0.00000000000E+00 -0.45593999997E+02  0.45594000000E+02  0.51100000000E-03 0. -1.
    9900012    2    1    2    0    0  0.19847850628E+02 -0.86740288760E+01 -0.23399662659E+02  0.59301950322E+02  0.50000011479E+02 0.  0.
        -12    1    1    2    0    0 -0.19847850628E+02  0.86740288760E+01  0.23399662659E+02  0.31886049678E+02  0.00000000000E+00 0.  1.
         11    1    3    3    0    0  0.16972935903E+02 -0.11541169281E+02 -0.19491094938E+02  0.28305157192E+02  0.51100000000E-03 0. -1.
        -11    1    3    3    0    0  0.62404558683E+01 -0.54801286331E+01 -0.14737159078E+02  0.16916233541E+02  0.51100000000E-03 0.  1.
        -12    1    3    3    0    0 -0.33655411434E+01  0.83472690379E+01  0.10828591356E+02  0.14080559589E+02  0.00000000000E+00 0.  1.
</event>
<event>
 7    1  0.1338132E-011  0.5930195E+02  0.7816164E-02  0.1266605E+00
        -11   -1    0    0    0    0  0.00000000000E+00  0.00000000000E+00  0.45593999997E+02  0.45594000000E+02  0.51100000000E-03 0.  1.
         11   -1    0    0    0    0 -0.00000000000E+00 -0.00000000000E+00 -0.45593999997E+02  0.45594000000E+02  0.51100000000E-03 0. -1.
    9900012    2    1    2    0    0 -0.11362963921E+02  0.16782091482E+02 -0.24616344333E+02  0.59301953649E+02  0.50000017546E+02 0.  0.
        -12    1    1    2    0    0  0.11362963921E+02 -0.16782091482E+02  0.24616344333E+02  0.31886046351E+02  0.00000000000E+00 0.  1.
         11    1    3    3    0    0 -0.13306145274E+02 -0.82807548775E+01 -0.13698079322E+02  0.20814941287E+02  0.51100000000E-03 0. -1.
        -11    1    3    3    0    0 -0.99764375030E+01  0.16328352076E+01 -0.59615911992E+01  0.11736099265E+02  0.51100000000E-03 0.  1.
         12    1    3    3    0    0  0.11919618856E+02  0.23430011152E+02 -0.49566738119E+01  0.26750913097E+02  0.00000000000E+00 0. -1.
</event>
<event>
 7    1  0.1338132E-011  0.5930206E+02  0.7816164E-02  0.1266604E+00
        -11   -1    0    0    0    0  0.00000000000E+00  0.00000000000E+00  0.45593999997E+02  0.45594000000E+02  0.51100000000E-03 0.  1.
         11   -1    0    0    0    0 -0.00000000000E+00 -0.00000000000E+00 -0.45593999997E+02  0.45594000000E+02  0.51100000000E-03 0. -1.
    9900012    2    1    2    0    0  0.60907607914E+01 -0.24577152076E+01 -0.31202167555E+02  0.59302062799E+02  0.50000216610E+02 0.  0.
        -12    1    1    2    0    0 -0.60907607914E+01  0.24577152076E+01  0.31202167555E+02  0.31885937201E+02  0.00000000000E+00 0.  1.
         11    1    3    3    0    0  0.17541258404E+02 -0.17398801828E+02 -0.11143889171E+02  0.27103511167E+02  0.51100000000E-03 0. -1.
        -11    1    3    3    0    0 -0.29828209949E+01  0.35636562993E+01  0.27060001115E+01  0.53776671682E+01  0.51100000000E-03 0.  1.
        -12    1    3    3    0    0 -0.84676766181E+01  0.11377430321E+02 -0.22764278495E+02  0.26820884464E+02  0.00000000000E+00 0.  1.
</event>
<event>
 7    1  0.1338132E-011  0.5930195E+02  0.7816164E-02  0.1266605E+00
        -11   -1    0    0    0    0  0.00000000000E+00  0.00000000000E+00  0.45593999997E+02  0.45594000000E+02  0.51100000000E-03 0. -1.
         11   -1    0    0    0    0 -0.00000000000E+00 -0.00000000000E+00 -0.45593999997E+02  0.45594000000E+02  0.51100000000E-03 0.  1.
    9900012    2    1    2    0    0 -0.26339326360E+02  0.17693806009E+02  0.31447457840E+01  0.59301948030E+02  0.50000007299E+02 0.  0.
        -12    1    1    2    0    0  0.26339326360E+02 -0.17693806009E+02 -0.31447457840E+01  0.31886051970E+02  0.00000000000E+00 0.  1.
         11    1    3    3    0    0 -0.57145661633E+01 -0.31248236711E+01  0.42508208803E+01  0.77775489602E+01  0.51100000000E-03 0. -1.
        -11    1    3    3    0    0  0.52271610299E+00 -0.81609463525E+01  0.10959790570E+02  0.13674475752E+02  0.51100000000E-03 0.  1.
         12    1    3    3    0    0 -0.21147476300E+02  0.28979576033E+02 -0.12065865666E+02  0.37849923318E+02  0.00000000000E+00 0. -1.
</event>
<event>
 7    1  0.1338132E-011  0.5930191E+02  0.7816164E-02  0.1266605E+00
        -11   -1    0    0    0    0  0.00000000000E+00  0.00000000000E+00  0.45593999997E+02  0.45594000000E+02  0.51100000000E-03 0.  1.
         11   -1    0    0    0    0 -0.00000000000E+00 -0.00000000000E+00 -0.45593999997E+02  0.45594000000E+02  0.51100000000E-03 0. -1.
    9900012    2    1    2    0    0 -0.23640862284E+01 -0.18222250988E+02 -0.26059230217E+02  0.59301908764E+02  0.49999935688E+02 0.  0.
        -12    1    1    2    0    0  0.23640862284E+01  0.18222250988E+02  0.26059230217E+02  0.31886091236E+02  0.00000000000E+00 0.  1.
         11    1    3    3    0    0  0.73457434364E+01 -0.67130250549E+01 -0.31054621641E+02  0.32610031855E+02  0.51100000000E-03 0. -1.
        -11    1    3    3    0    0 -0.80504940813E+01 -0.59947721422E+01 -0.77662843976E+01  0.12691056756E+02  0.51100000000E-03 0.  1.
        -12    1    3    3    0    0 -0.16593355835E+01 -0.55144537910E+01  0.12761675822E+02  0.14000820153E+02  0.00000000000E+00 0.  1.
</event>
<event>
 7    1  0.1338132E-011  0.5930192E+02  0.7816164E-02  0.1266605E+00
        -11   -1    0    0    0    0  0.00000000000E+00  0.00000000000E+00  0.45593999997E+02  0.45594000000E+02  0.51100000000E-03 0.  1.
         11   -1    0    0    0    0 -0.00000000000E+00 -0.00000000000E+00 -0.45593999997E+02  0.45594000000E+02  0.51100000000E-03 0. -1.
    9900012    2    1    2    0    0 -0.10647842660E+02  0.29723841124E+02 -0.44540470474E+01  0.59301924363E+02  0.49999964136E+02 0.  0.
        -12    1    1    2    0    0  0.10647842660E+02 -0.29723841124E+02  0.44540470474E+01  0.31886075637E+02  0.00000000000E+00 0.  1.
         11    1    3    3    0    0  0.64738582132E+00  0.64840450272E+01 -0.10894034038E+02  0.12694168984E+02  0.51100000000E-03 0. -1.
        -11    1    3    3    0    0  0.19849034118E+01  0.67999913123E+01 -0.14946995516E+02  0.16540628725E+02  0.51100000000E-03 0.  1.
        -12    1    3    3    0    0 -0.13280131893E+02  0.16439804784E+02  0.21386982507E+02  0.30067126653E+02  0.00000000000E+00 0.  1.
</event>
<event>
 7    1  0.1338132E-011  0.5930175E+02  0.7816164E-02  0.1266605E+00
        -11   -1    0    0    0    0  0.00000000000E+00  0.00000000000E+00  0.45593999997E+02  0.45594000000E+02  0.51100000000E-03 0.  1.
         11   -1    0    0    0    0 -0.00000000000E+00 -0.00000000000E+00 -0.45593999997E+02  0.45594000000E+02  0.51100000000E-03 0. -1.
    9900012    2    1    2    0    0 -0.21183194881E+02 -0.11610037037E+02 -0.20813748413E+02  0.59301751736E+02  0.49999649305E+02 0.  0.
        -12    1    1    2    0    0  0.21183194881E+02  0.11610037037E+02  0.20813748413E+02  0.31886248264E+02  0.00000000000E+00 0.  1.
         11    1    3    3    0    0 -0.12046645926E+02 -0.50372106381E+01 -0.11884042261E+02  0.17655753447E+02  0.51100000000E-03 0. -1.
        -11    1    3    3    0    0 -0.16752811773E+02 -0.70536185499E-01 -0.20414305785E+02  0.26408437262E+02  0.51100000000E-03 0.  1.
        -12    1    3    3    0    0  0.76162628184E+01 -0.65022902130E+01  0.11484599632E+02  0.15237561027E+02  0.00000000000E+00 0.  1.
</event>
<event>
 7    1  0.1338132E-011  0.5930194E+02  0.7816164E-02  0.1266605E+00
        -11   -1    0    0    0    0  0.00000000000E+00  0.00000000000E+00  0.45593999997E+02  0.45594000000E+02  0.51100000000E-03 0.  1.
         11   -1    0    0    0    0 -0.00000000000E+00 -0.00000000000E+00 -0.45593999997E+02  0.45594000000E+02  0.51100000000E-03 0. -1.
    9900012    2    1    2    0    0 -0.12232737396E+02 -0.51857794733E+01 -0.28986012171E+02  0.59301936046E+02  0.49999985443E+02 0.  0.
        -12    1    1    2    0    0  0.12232737396E+02  0.51857794733E+01  0.28986012171E+02  0.31886063954E+02  0.00000000000E+00 0.  1.
         11    1    3    3    0    0  0.11898671477E+01 -0.36968099407E+01 -0.30593266746E+02  0.30838776857E+02  0.51100000000E-03 0. -1.
        -11    1    3    3    0    0  0.47475779981E+01 -0.76952058370E+01 -0.95465524957E+00  0.90921425763E+01  0.51100000000E-03 0.  1.
        -12    1    3    3    0    0 -0.18170182541E+02  0.62062363043E+01  0.25619098254E+01  0.19371016613E+02  0.00000000000E+00 0.  1.
</event>
<event>
 7    1  0.1338132E-011  0.5930196E+02  0.7816164E-02  0.1266605E+00
        -11   -1    0    0    0    0  0.00000000000E+00  0.00000000000E+00  0.45593999997E+02  0.45594000000E+02  0.51100000000E-03 0.  1.
         11   -1    0    0    0    0 -0.00000000000E+00 -0.00000000000E+00 -0.45593999997E+02  0.45594000000E+02  0.51100000000E-03 0. -1.
    9900012    2    1    2    0    0 -0.17276400712E+01  0.28794945253E+02 -0.13586238292E+02  0.59301960998E+02  0.50000030949E+02 0.  0.
        -12    1    1    2    0    0  0.17276400712E+01 -0.28794945253E+02  0.13586238292E+02  0.31886039002E+02  0.00000000000E+00 0.  1.
         11    1    3    3    0    0 -0.13679495089E+01 -0.16552234278E+01 -0.12292355989E+02  0.12478504176E+02  0.51100000000E-03 0. -1.
        -11    1    3    3    0    0 -0.16427042719E+02  0.58859559217E+01 -0.20464373859E+00  0.17450905103E+02  0.51100000000E-03 0.  1.
        -12    1    3    3    0    0  0.16067352157E+02  0.24564212759E+02 -0.10892385645E+01  0.29372551718E+02  0.00000000000E+00 0.  1.
</event>
<event>
 7    1  0.1338132E-011  0.5930197E+02  0.7816164E-02  0.1266605E+00
        -11   -1    0    0    0    0  0.00000000000E+00  0.00000000000E+00  0.45593999997E+02  0.45594000000E+02  0.51100000000E-03 0. -1.
         11   -1    0    0    0    0 -0.00000000000E+00 -0.00000000000E+00 -0.45593999997E+02  0.45594000000E+02  0.51100000000E-03 0.  1.
    9900012    2    1    2    0    0 -0.20729186335E+02  0.38364803592E+01  0.23922817525E+02  0.59301969422E+02  0.50000046314E+02 0.  0.
        -12    1    1    2    0    0  0.20729186335E+02 -0.38364803592E+01 -0.23922817525E+02  0.31886030578E+02  0.00000000000E+00 0.  1.
         11    1    3    3    0    0 -0.22924838625E+02  0.12683899023E+02  0.10603607676E+01  0.26221248743E+02  0.51100000000E-03 0. -1.
        -11    1    3    3    0    0 -0.35560479702E+01 -0.67569664430E+01 -0.16534268017E+01  0.78125471601E+01  0.51100000000E-03 0.  1.
        -12    1    3    3    0    0  0.57517002595E+01 -0.20904522207E+01  0.24515883559E+02  0.25268173520E+02  0.00000000000E+00 0.  1.
</event>
<event>
 7    1  0.1338132E-011  0.5930194E+02  0.7816164E-02  0.1266605E+00
        -11   -1    0    0    0    0  0.00000000000E+00  0.00000000000E+00  0.45593999997E+02  0.45594000000E+02  0.51100000000E-03 0. -1.
         11   -1    0    0    0    0 -0.00000000000E+00 -0.00000000000E+00 -0.45593999997E+02  0.45594000000E+02  0.51100000000E-03 0.  1.
    9900012    2    1    2    0    0  0.22526617684E+02 -0.14004191746E+02  0.17696188334E+02  0.59301937648E+02  0.49999988365E+02 0.  0.
        -12    1    1    2    0    0 -0.22526617684E+02  0.14004191746E+02 -0.17696188334E+02  0.31886062352E+02  0.00000000000E+00 0.  1.
         11    1    3    3    0    0  0.82677264671E+01 -0.14475330471E+02 -0.83212640128E+01  0.18631530485E+02  0.51100000000E-03 0. -1.
        -11    1    3    3    0    0  0.12298772739E+02  0.47911891722E+01 -0.10025801443E+01  0.13237086983E+02  0.51100000000E-03 0.  1.
         12    1    3    3    0    0  0.19601184778E+01 -0.43200504472E+01  0.27020032491E+02  0.27433320180E+02  0.00000000000E+00 0. -1.
</event>
<event>
 7    1  0.1338132E-011  0.5930192E+02  0.7816164E-02  0.1266605E+00
        -11   -1    0    0    0    0  0.00000000000E+00  0.00000000000E+00  0.45593999997E+02  0.45594000000E+02  0.51100000000E-03 0.  1.
         11   -1    0    0    0    0 -0.00000000000E+00 -0.00000000000E+00 -0.45593999997E+02  0.45594000000E+02  0.51100000000E-03 0. -1.
    9900012    2    1    2    0    0  0.37915451329E+01 -0.21312576940E+02 -0.23411969573E+02  0.59301920441E+02  0.49999956984E+02 0.  0.
        -12    1    1    2    0    0 -0.37915451329E+01  0.21312576940E+02  0.23411969573E+02  0.31886079559E+02  0.00000000000E+00 0.  1.
         11    1    3    3    0    0 -0.45816726288E+01  0.64509136366E+00 -0.29443208846E+02  0.29804536809E+02  0.51100000000E-03 0. -1.
        -11    1    3    3    0    0 -0.11129320578E+01 -0.43491354478E+01 -0.49478987442E+01  0.66809654357E+01  0.51100000000E-03 0.  1.
        -12    1    3    3    0    0  0.94861498195E+01 -0.17608532856E+02  0.10979138017E+02  0.22816418197E+02  0.00000000000E+00 0.  1.
</event>
<event>
 7    1  0.1338132E-011  0.5930189E+02  0.7816164E-02  0.1266605E+00
        -11   -1    0    0    0    0  0.00000000000E+00  0.00000000000E+00  0.45593999997E+02  0.45594000000E+02  0.51100000000E-03 0.  1.
         11   -1    0    0    0    0 -0.00000000000E+00 -0.00000000000E+00 -0.45593999997E+02  0.45594000000E+02  0.51100000000E-03 0. -1.
    9900012    2    1    2    0    0  0.16594774845E+02  0.62036285751E+01 -0.26511365074E+02  0.59301889580E+02  0.49999900700E+02 0.  0.
        -12    1    1    2    0    0 -0.16594774845E+02 -0.62036285751E+01  0.26511365074E+02  0.31886110420E+02  0.00000000000E+00 0.  1.
         11    1    3    3    0    0  0.24434525867E+02 -0.28726257934E+01 -0.23325277117E+01  0.24713128476E+02  0.51100000000E-03 0. -1.
        -11    1    3    3    0    0 -0.15659327366E+01  0.86419578505E+01  0.81072645952E+00  0.88200259908E+01  0.51100000000E-03 0.  1.
         12    1    3    3    0    0 -0.62738182847E+01  0.43429651799E+00 -0.24989563822E+02  0.25768735113E+02  0.00000000000E+00 0. -1.
</event>
<event>
 7    1  0.1338132E-011  0.5930201E+02  0.7816164E-02  0.1266605E+00
        -11   -1    0    0    0    0  0.00000000000E+00  0.00000000000E+00  0.45593999997E+02  0.45594000000E+02  0.51100000000E-03 0.  1.
         11   -1    0    0    0    0 -0.00000000000E+00 -0.00000000000E+00 -0.45593999997E+02  0.45594000000E+02  0.51100000000E-03 0. -1.
    9900012    2    1    2    0    0 -0.92602490272E+01 -0.29218830680E+02 -0.87877349173E+01  0.59302006785E+02  0.50000114453E+02 0.  0.
        -12    1    1    2    0    0  0.92602490272E+01  0.29218830680E+02  0.87877349173E+01  0.31885993215E+02  0.00000000000E+00 0.  1.
         11    1    3    3    0    0  0.29627391686E+01 -0.53571299513E+01  0.16772845954E+01  0.63474363779E+01  0.51100000000E-03 0. -1.
        -11    1    3    3    0    0 -0.15562650148E+02 -0.12246800032E+02  0.14949623459E+02  0.24812727228E+02  0.51100000000E-03 0.  1.
         12    1    3    3    0    0  0.33396619520E+01 -0.11614900697E+02 -0.25414642972E+02  0.28141843179E+02  0.00000000000E+00 0. -1.
</event>
<event>
 7    1  0.1338132E-011  0.5930196E+02  0.7816164E-02  0.1266605E+00
        -11   -1    0    0    0    0  0.00000000000E+00  0.00000000000E+00  0.45593999997E+02  0.45594000000E+02  0.51100000000E-03 0.  1.
         11   -1    0    0    0    0 -0.00000000000E+00 -0.00000000000E+00 -0.45593999997E+02  0.45594000000E+02  0.51100000000E-03 0. -1.
    9900012    2    1    2    0    0 -0.17296147682E+02 -0.17977468186E+02 -0.19858841598E+02  0.59301957966E+02  0.50000025419E+02 0.  0.
        -12    1    1    2    0    0  0.17296147682E+02  0.17977468186E+02  0.19858841598E+02  0.31886042034E+02  0.00000000000E+00 0.  1.
         11    1    3    3    0    0 -0.21487948009E+01 -0.92604303353E-01  0.73754251275E+01  0.76826291545E+01  0.51100000000E-03 0.  1.
        -11    1    3    3    0    0 -0.67486673089E+01 -0.35322049209E+00  0.85484967124E+01  0.10897067104E+02  0.51100000000E-03 0. -1.
         12    1    3    3    0    0 -0.83986855719E+01 -0.17531643391E+02 -0.35782763438E+02  0.40722261707E+02  0.00000000000E+00 0. -1.
</event>
<event>
 7    1  0.1338132E-011  0.5930195E+02  0.7816164E-02  0.1266605E+00
        -11   -1    0    0    0    0  0.00000000000E+00  0.00000000000E+00  0.45593999997E+02  0.45594000000E+02  0.51100000000E-03 0. -1.
         11   -1    0    0    0    0 -0.00000000000E+00 -0.00000000000E+00 -0.45593999997E+02  0.45594000000E+02  0.51100000000E-03 0.  1.
    9900012    2    1    2    0    0  0.31815715884E+02 -0.17349277216E+01  0.12127434084E+01  0.59301945086E+02  0.50000001930E+02 0.  0.
        -12    1    1    2    0    0 -0.31815715884E+02  0.17349277216E+01 -0.12127434084E+01  0.31886054914E+02  0.00000000000E+00 0.  1.
         11    1    3    3    0    0  0.16525840621E+02  0.45150800056E+01  0.37136357241E+00  0.17135555633E+02  0.51100000000E-03 0. -1.
        -11    1    3    3    0    0 -0.12212584520E+01  0.93119582834E+01  0.13300106486E+02  0.16281795726E+02  0.51100000000E-03 0.  1.
         12    1    3    3    0    0  0.16511133715E+02 -0.15561966011E+02 -0.12458726650E+02  0.25884593727E+02  0.00000000000E+00 0. -1.
</event>
<event>
 7    1  0.1338132E-011  0.5930196E+02  0.7816164E-02  0.1266605E+00
        -11   -1    0    0    0    0  0.00000000000E+00  0.00000000000E+00  0.45593999997E+02  0.45594000000E+02  0.51100000000E-03 0.  1.
         11   -1    0    0    0    0 -0.00000000000E+00 -0.00000000000E+00 -0.45593999997E+02  0.45594000000E+02  0.51100000000E-03 0. -1.
    9900012    2    1    2    0    0  0.23817851330E+02  0.18529357785E+01 -0.21118619106E+02  0.59301960956E+02  0.50000030873E+02 0.  0.
        -12    1    1    2    0    0 -0.23817851330E+02 -0.18529357785E+01  0.21118619106E+02  0.31886039044E+02  0.00000000000E+00 0.  1.
         11    1    3    3    0    0 -0.87771967740E+01 -0.56624589769E+00  0.65297734249E+01  0.10954348856E+02  0.51100000000E-03 0. -1.
        -11    1    3    3    0    0  0.80849774470E-01  0.68404943901E+01 -0.44203697734E+01  0.81448492547E+01  0.51100000000E-03 0.  1.
         12    1    3    3    0    0  0.32514198330E+02 -0.44213127139E+01 -0.23228022757E+02  0.40202762845E+02  0.00000000000E+00 0. -1.
</event>
<event>
 7    1  0.1338132E-011  0.5930185E+02  0.7816164E-02  0.1266605E+00
        -11   -1    0    0    0    0  0.00000000000E+00  0.00000000000E+00  0.45593999997E+02  0.45594000000E+02  0.51100000000E-03 0. -1.
         11   -1    0    0    0    0 -0.00000000000E+00 -0.00000000000E+00 -0.45593999997E+02  0.45594000000E+02  0.51100000000E-03 0.  1.
    9900012    2    1    2    0    0 -0.29378600917E+02  0.12159796125E+02  0.24007709598E+01  0.59301850423E+02  0.49999829287E+02 0.  0.
        -12    1    1    2    0    0  0.29378600917E+02 -0.12159796125E+02 -0.24007709598E+01  0.31886149577E+02  0.00000000000E+00 0.  1.
         11    1    3    3    0    0 -0.12936888999E+02  0.23684114436E+02  0.11922904827E+01  0.27013365774E+02  0.51100000000E-03 0. -1.
        -11    1    3    3    0    0 -0.10235056802E+02  0.28240898378E+00 -0.10408316498E+02  0.14600314899E+02  0.51100000000E-03 0.  1.
        -12    1    3    3    0    0 -0.62066551159E+01 -0.11806727295E+02  0.11616796975E+02  0.17688169750E+02  0.00000000000E+00 0.  1.
</event>
<event>
 7    1  0.1338132E-011  0.5930197E+02  0.7816164E-02  0.1266605E+00
        -11   -1    0    0    0    0  0.00000000000E+00  0.00000000000E+00  0.45593999997E+02  0.45594000000E+02  0.51100000000E-03 0.  1.
         11   -1    0    0    0    0 -0.00000000000E+00 -0.00000000000E+00 -0.45593999997E+02  0.45594000000E+02  0.51100000000E-03 0. -1.
    9900012    2    1    2    0    0 -0.47912526860E+01 -0.93225485247E+01 -0.30113993274E+02  0.59301974782E+02  0.50000056089E+02 0.  0.
        -12    1    1    2    0    0  0.47912526860E+01  0.93225485247E+01  0.30113993274E+02  0.31886025218E+02  0.00000000000E+00 0.  1.
         11    1    3    3    0    0  0.93695694395E+01 -0.93720203316E+01 -0.54860179880E+01  0.14342942174E+02  0.51100000000E-03 0. -1.
        -11    1    3    3    0    0 -0.42349654925E+01 -0.16575447322E+02 -0.61085565154E+01  0.18165760364E+02  0.51100000000E-03 0.  1.
        -12    1    3    3    0    0 -0.99258566329E+01  0.16624919129E+02 -0.18519418770E+02  0.26793272244E+02  0.00000000000E+00 0.  1.
</event>
<event>
 7    1  0.1338132E-011  0.5930194E+02  0.7816164E-02  0.1266605E+00
        -11   -1    0    0    0    0  0.00000000000E+00  0.00000000000E+00  0.45593999997E+02  0.45594000000E+02  0.51100000000E-03 0.  1.
         11   -1    0    0    0    0 -0.00000000000E+00 -0.00000000000E+00 -0.45593999997E+02  0.45594000000E+02  0.51100000000E-03 0. -1.
    9900012    2    1    2    0    0 -0.31334259883E+02 -0.56069746213E+01 -0.18565986792E+01  0.59301937755E+02  0.49999988560E+02 0.  0.
        -12    1    1    2    0    0  0.31334259883E+02  0.56069746213E+01  0.18565986792E+01  0.31886062245E+02  0.00000000000E+00 0.  1.
         11    1    3    3    0    0 -0.27654666401E+02  0.18233174857E+02 -0.53368258549E+01  0.33551616200E+02  0.51100000000E-03 0. -1.
        -11    1    3    3    0    0  0.11735909017E+00 -0.34812700302E+01  0.36422841237E+01  0.50397666690E+01  0.51100000000E-03 0.  1.
        -12    1    3    3    0    0 -0.37969525723E+01 -0.20358879448E+02 -0.16205694800E+00  0.20710554886E+02  0.00000000000E+00 0.  1.
</event>
<event>
 7    1  0.1338132E-011  0.5930223E+02  0.7816164E-02  0.1266604E+00
        -11   -1    0    0    0    0  0.00000000000E+00  0.00000000000E+00  0.45593999997E+02  0.45594000000E+02  0.51100000000E-03 0. -1.
         11   -1    0    0    0    0 -0.00000000000E+00 -0.00000000000E+00 -0.45593999997E+02  0.45594000000E+02  0.51100000000E-03 0.  1.
    9900012    2    1    2    0    0 -0.15361622992E+02  0.27175966095E+02  0.64953472846E+01  0.59302233104E+02  0.50000527203E+02 0.  0.
        -12    1    1    2    0    0  0.15361622992E+02 -0.27175966095E+02 -0.64953472846E+01  0.31885766896E+02  0.00000000000E+00 0.  1.
         11    1    3    3    0    0 -0.12103901751E+02  0.69886563817E+01 -0.37704740839E+01  0.14476264390E+02  0.51100000000E-03 0.  1.
        -11    1    3    3    0    0 -0.11287807725E+02  0.26346618441E+02  0.16369216140E+02  0.33007728546E+02  0.51100000000E-03 0. -1.
        -12    1    3    3    0    0  0.80300864840E+01 -0.61593087267E+01 -0.61033947711E+01  0.11818240168E+02  0.00000000000E+00 0.  1.
</event>
<event>
 7    1  0.1338132E-011  0.5930194E+02  0.7816164E-02  0.1266605E+00
        -11   -1    0    0    0    0  0.00000000000E+00  0.00000000000E+00  0.45593999997E+02  0.45594000000E+02  0.51100000000E-03 0. -1.
         11   -1    0    0    0    0 -0.00000000000E+00 -0.00000000000E+00 -0.45593999997E+02  0.45594000000E+02  0.51100000000E-03 0.  1.
    9900012    2    1    2    0    0 -0.56375958243E+01  0.26898023102E+02  0.16168945061E+02  0.59301938501E+02  0.49999989921E+02 0.  0.
        -12    1    1    2    0    0  0.56375958243E+01 -0.26898023102E+02 -0.16168945061E+02  0.31886061499E+02  0.00000000000E+00 0.  1.
         11    1    3    3    0    0 -0.14538127286E+02  0.24362193546E+02 -0.78489891336E+01  0.29436036588E+02  0.51100000000E-03 0. -1.
        -11    1    3    3    0    0  0.37126222915E+01  0.43713036596E+01  0.55006913051E+00  0.57614612966E+01  0.51100000000E-03 0.  1.
        -12    1    3    3    0    0  0.51879091703E+01 -0.18354741033E+01  0.23467865064E+02  0.24104440616E+02  0.00000000000E+00 0.  1.
</event>
<event>
 7    1  0.1338132E-011  0.5930191E+02  0.7816164E-02  0.1266605E+00
        -11   -1    0    0    0    0  0.00000000000E+00  0.00000000000E+00  0.45593999997E+02  0.45594000000E+02  0.51100000000E-03 0.  1.
         11   -1    0    0    0    0 -0.00000000000E+00 -0.00000000000E+00 -0.45593999997E+02  0.45594000000E+02  0.51100000000E-03 0. -1.
    9900012    2    1    2    0    0 -0.11464925594E+02  0.66523438206E+01 -0.29000422327E+02  0.59301910677E+02  0.49999939177E+02 0.  0.
        -12    1    1    2    0    0  0.11464925594E+02 -0.66523438206E+01  0.29000422327E+02  0.31886089323E+02  0.00000000000E+00 0.  1.
         11    1    3    3    0    0 -0.56927393724E+01  0.69514847639E+01 -0.16259817532E+02  0.18577192695E+02  0.51100000000E-03 0. -1.
        -11    1    3    3    0    0  0.98724893282E+01  0.13827356456E+02 -0.92942798883E+01  0.19366090752E+02  0.51100000000E-03 0.  1.
         12    1    3    3    0    0 -0.15644675550E+02 -0.14126497399E+02 -0.34463249061E+01  0.21358627231E+02  0.00000000000E+00 0. -1.
</event>
<event>
 7    1  0.1338132E-011  0.5930193E+02  0.7816164E-02  0.1266605E+00
        -11   -1    0    0    0    0  0.00000000000E+00  0.00000000000E+00  0.45593999997E+02  0.45594000000E+02  0.51100000000E-03 0. -1.
         11   -1    0    0    0    0 -0.00000000000E+00 -0.00000000000E+00 -0.45593999997E+02  0.45594000000E+02  0.51100000000E-03 0.  1.
    9900012    2    1    2    0    0 -0.34585393434E+01 -0.20274090857E+02  0.24366391622E+02  0.59301932586E+02  0.49999979133E+02 0.  0.
        -12    1    1    2    0    0  0.34585393434E+01  0.20274090857E+02 -0.24366391622E+02  0.31886067414E+02  0.00000000000E+00 0.  1.
         11    1    3    3    0    0 -0.42579782641E+01 -0.10146284453E+02  0.25326865725E+02  0.27613902202E+02  0.51100000000E-03 0. -1.
        -11    1    3    3    0    0 -0.13470993464E+02 -0.41422500233E+01  0.52136907077E+01  0.15026924876E+02  0.51100000000E-03 0.  1.
         12    1    3    3    0    0  0.14270432385E+02 -0.59855563809E+01 -0.61741648110E+01  0.16661105508E+02  0.00000000000E+00 0. -1.
</event>
<event>
 7    1  0.1338132E-011  0.5930195E+02  0.7816164E-02  0.1266605E+00
        -11   -1    0    0    0    0  0.00000000000E+00  0.00000000000E+00  0.45593999997E+02  0.45594000000E+02  0.51100000000E-03 0.  1.
         11   -1    0    0    0    0 -0.00000000000E+00 -0.00000000000E+00 -0.45593999997E+02  0.45594000000E+02  0.51100000000E-03 0. -1.
    9900012    2    1    2    0    0 -0.16565467521E+02  0.78524777680E-01 -0.27245165075E+02  0.59301954458E+02  0.50000019023E+02 0.  0.
        -12    1    1    2    0    0  0.16565467521E+02 -0.78524777680E-01  0.27245165075E+02  0.31886045542E+02  0.00000000000E+00 0.  1.
         11    1    3    3    0    0 -0.19268846834E+02  0.15334586040E+01 -0.88165319707E+01  0.21245498108E+02  0.51100000000E-03 0. -1.
        -11    1    3    3    0    0 -0.13285202287E+02  0.39478473477E+01 -0.11558800074E+01  0.13907485658E+02  0.51100000000E-03 0.  1.
         12    1    3    3    0    0  0.15988581599E+02 -0.54027811740E+01 -0.17272753097E+02  0.24148970692E+02  0.00000000000E+00 0. -1.
</event>
<event>
 7    1  0.1338132E-011  0.5930194E+02  0.7816164E-02  0.1266605E+00
        -11   -1    0    0    0    0  0.00000000000E+00  0.00000000000E+00  0.45593999997E+02  0.45594000000E+02  0.51100000000E-03 0. -1.
         11   -1    0    0    0    0 -0.00000000000E+00 -0.00000000000E+00 -0.45593999997E+02  0.45594000000E+02  0.51100000000E-03 0.  1.
    9900012    2    1    2    0    0 -0.12841163001E+02 -0.99027262270E+01  0.27454716562E+02  0.59301938540E+02  0.49999989992E+02 0.  0.
        -12    1    1    2    0    0  0.12841163001E+02  0.99027262270E+01 -0.27454716562E+02  0.31886061460E+02  0.00000000000E+00 0.  1.
         11    1    3    3    0    0 -0.77759092204E+01 -0.36182881375E+01 -0.83172746035E+01  0.11947126447E+02  0.51100000000E-03 0.  1.
        -11    1    3    3    0    0  0.97961788964E+01  0.15253491001E+01  0.26236682896E+02  0.28047376713E+02  0.51100000000E-03 0. -1.
         12    1    3    3    0    0 -0.14861432677E+02 -0.78097871896E+01  0.95353082693E+01  0.19307435380E+02  0.00000000000E+00 0. -1.
</event>
<event>
 7    1  0.1338132E-011  0.5930193E+02  0.7816164E-02  0.1266605E+00
        -11   -1    0    0    0    0  0.00000000000E+00  0.00000000000E+00  0.45593999997E+02  0.45594000000E+02  0.51100000000E-03 0.  1.
         11   -1    0    0    0    0 -0.00000000000E+00 -0.00000000000E+00 -0.45593999997E+02  0.45594000000E+02  0.51100000000E-03 0. -1.
    9900012    2    1    2    0    0 -0.15914780007E+02 -0.25590277657E+02 -0.10420124503E+02  0.59301928936E+02  0.49999972476E+02 0.  0.
        -12    1    1    2    0    0  0.15914780007E+02  0.25590277657E+02  0.10420124503E+02  0.31886071064E+02  0.00000000000E+00 0.  1.
         11    1    3    3    0    0  0.46116233746E+01 -0.18957070759E+02  0.11930734093E+02  0.22868756375E+02  0.51100000000E-03 0. -1.
        -11    1    3    3    0    0 -0.32662442299E+01  0.53237021618E+01 -0.71982341922E+00  0.62871537354E+01  0.51100000000E-03 0.  1.
         12    1    3    3    0    0 -0.17260159152E+02 -0.11956909060E+02 -0.21631035176E+02  0.30146018825E+02  0.00000000000E+00 0. -1.
</event>
<event>
 7    1  0.1338132E-011  0.5930193E+02  0.7816164E-02  0.1266605E+00
        -11   -1    0    0    0    0  0.00000000000E+00  0.00000000000E+00  0.45593999997E+02  0.45594000000E+02  0.51100000000E-03 0. -1.
         11   -1    0    0    0    0 -0.00000000000E+00 -0.00000000000E+00 -0.45593999997E+02  0.45594000000E+02  0.51100000000E-03 0.  1.
    9900012    2    1    2    0    0  0.15098668370E+02 -0.19628993317E+02  0.20086176024E+02  0.59301927296E+02  0.49999969486E+02 0.  0.
        -12    1    1    2    0    0 -0.15098668370E+02  0.19628993317E+02 -0.20086176024E+02  0.31886072704E+02  0.00000000000E+00 0.  1.
         11    1    3    3    0    0  0.23537264963E+02 -0.84604471352E+00  0.16863089496E+01  0.23612756547E+02  0.51100000000E-03 0. -1.
        -11    1    3    3    0    0  0.35619511532E+01  0.10288725226E+01 -0.25156894769E+01  0.44804875283E+01  0.51100000000E-03 0.  1.
        -12    1    3    3    0    0 -0.12000547746E+02 -0.19811821126E+02  0.20915556551E+02  0.31208683221E+02  0.00000000000E+00 0.  1.
</event>
<event>
 7    1  0.1338132E-011  0.5930194E+02  0.7816164E-02  0.1266605E+00
        -11   -1    0    0    0    0  0.00000000000E+00  0.00000000000E+00  0.45593999997E+02  0.45594000000E+02  0.51100000000E-03 0. -1.
         11   -1    0    0    0    0 -0.00000000000E+00 -0.00000000000E+00 -0.45593999997E+02  0.45594000000E+02  0.51100000000E-03 0.  1.
    9900012    2    1    2    0    0  0.28196528657E+02  0.14014441651E+02  0.50271506863E+01  0.59301936475E+02  0.49999986225E+02 0.  0.
        -12    1    1    2    0    0 -0.28196528657E+02 -0.14014441651E+02 -0.50271506863E+01  0.31886063525E+02  0.00000000000E+00 0.  1.
         11    1    3    3    0    0  0.57961515961E+01  0.65957846083E+01 -0.15349898563E+02  0.17683866491E+02  0.51100000000E-03 0. -1.
        -11    1    3    3    0    0 -0.39028508444E+01  0.72881903999E+01  0.10853300438E+02  0.13643463441E+02  0.51100000000E-03 0.  1.
         12    1    3    3    0    0  0.26303227906E+02  0.13046664286E+00  0.95237488108E+01  0.27974606543E+02  0.00000000000E+00 0. -1.
</event>
<event>
 7    1  0.1338132E-011  0.5930193E+02  0.7816164E-02  0.1266605E+00
        -11   -1    0    0    0    0  0.00000000000E+00  0.00000000000E+00  0.45593999997E+02  0.45594000000E+02  0.51100000000E-03 0. -1.
         11   -1    0    0    0    0 -0.00000000000E+00 -0.00000000000E+00 -0.45593999997E+02  0.45594000000E+02  0.51100000000E-03 0.  1.
    9900012    2    1    2    0    0 -0.18330081774E+02  0.25588945050E+02 -0.50926749797E+01  0.59301931803E+02  0.49999977705E+02 0.  0.
        -12    1    1    2    0    0  0.18330081774E+02 -0.25588945050E+02  0.50926749797E+01  0.31886068197E+02  0.00000000000E+00 0.  1.
         11    1    3    3    0    0 -0.59712302866E+01 -0.47609751661E+01 -0.12316144913E+02  0.14491718375E+02  0.51100000000E-03 0.  1.
        -11    1    3    3    0    0 -0.16686156612E+02  0.25317899837E+02  0.15618960237E+02  0.34108295087E+02  0.51100000000E-03 0. -1.
         12    1    3    3    0    0  0.43273051250E+01  0.50320203793E+01 -0.83954903033E+01  0.10701918341E+02  0.00000000000E+00 0. -1.
</event>
<event>
 7    1  0.1338132E-011  0.5930193E+02  0.7816164E-02  0.1266605E+00
        -11   -1    0    0    0    0  0.00000000000E+00  0.00000000000E+00  0.45593999997E+02  0.45594000000E+02  0.51100000000E-03 0. -1.
         11   -1    0    0    0    0 -0.00000000000E+00 -0.00000000000E+00 -0.45593999997E+02  0.45594000000E+02  0.51100000000E-03 0.  1.
    9900012    2    1    2    0    0 -0.18751176597E+02  0.10714287364E+02  0.23458875034E+02  0.59301931015E+02  0.49999976268E+02 0.  0.
        -12    1    1    2    0    0  0.18751176597E+02 -0.10714287364E+02 -0.23458875034E+02  0.31886068985E+02  0.00000000000E+00 0.  1.
         11    1    3    3    0    0 -0.26634058310E+01 -0.30187316743E+01  0.50608983884E+01  0.64667738712E+01  0.51100000000E-03 0.  1.
        -11    1    3    3    0    0 -0.14892234212E+02  0.38238002349E+01  0.32269924625E+02  0.35745602857E+02  0.51100000000E-03 0. -1.
        -12    1    3    3    0    0 -0.11955365537E+01  0.99092188035E+01 -0.13871947980E+02  0.17089554286E+02  0.00000000000E+00 0.  1.
</event>
<event>
 7    1  0.1338132E-011  0.5930195E+02  0.7816164E-02  0.1266605E+00
        -11   -1    0    0    0    0  0.00000000000E+00  0.00000000000E+00  0.45593999997E+02  0.45594000000E+02  0.51100000000E-03 0.  1.
         11   -1    0    0    0    0 -0.00000000000E+00 -0.00000000000E+00 -0.45593999997E+02  0.45594000000E+02  0.51100000000E-03 0. -1.
    9900012    2    1    2    0    0 -0.24348476290E+02  0.19472518576E+02  0.66852576454E+01  0.59301953724E+02  0.50000017684E+02 0.  0.
        -12    1    1    2    0    0  0.24348476290E+02 -0.19472518576E+02 -0.66852576454E+01  0.31886046276E+02  0.00000000000E+00 0.  1.
         11    1    3    3    0    0 -0.17388887919E+02  0.24911932180E+02  0.12744665221E+02  0.32945474346E+02  0.51100000000E-03 0. -1.
        -11    1    3    3    0    0 -0.14842082373E+02 -0.45436268249E+01  0.12461070869E+01  0.15571921430E+02  0.51100000000E-03 0.  1.
         12    1    3    3    0    0  0.78824940024E+01 -0.89578677960E+00 -0.73055146622E+01  0.10784557948E+02  0.00000000000E+00 0. -1.
</event>
<event>
 7    1  0.1338132E-011  0.5930195E+02  0.7816164E-02  0.1266605E+00
        -11   -1    0    0    0    0  0.00000000000E+00  0.00000000000E+00  0.45593999997E+02  0.45594000000E+02  0.51100000000E-03 0.  1.
         11   -1    0    0    0    0 -0.00000000000E+00 -0.00000000000E+00 -0.45593999997E+02  0.45594000000E+02  0.51100000000E-03 0. -1.
    9900012    2    1    2    0    0 -0.99298492691E+01 -0.23914380612E+02 -0.18607010777E+02  0.59301947303E+02  0.50000005973E+02 0.  0.
        -12    1    1    2    0    0  0.99298492691E+01  0.23914380612E+02  0.18607010777E+02  0.31886052697E+02  0.00000000000E+00 0.  1.
         11    1    3    3    0    0 -0.68807097925E+01 -0.16866169723E+02 -0.11767264038E+02  0.21685948252E+02  0.51100000000E-03 0. -1.
        -11    1    3    3    0    0 -0.24217328162E+01  0.26863014489E+00 -0.21278210203E+02  0.21417263637E+02  0.51100000000E-03 0.  1.
        -12    1    3    3    0    0 -0.62740666030E+00 -0.73168410336E+01  0.14438463464E+02  0.16198735414E+02  0.00000000000E+00 0.  1.
</event>
<event>
 7    1  0.1338132E-011  0.5930192E+02  0.7816164E-02  0.1266605E+00
        -11   -1    0    0    0    0  0.00000000000E+00  0.00000000000E+00  0.45593999997E+02  0.45594000000E+02  0.51100000000E-03 0. -1.
         11   -1    0    0    0    0 -0.00000000000E+00 -0.00000000000E+00 -0.45593999997E+02  0.45594000000E+02  0.51100000000E-03 0.  1.
    9900012    2    1    2    0    0 -0.31181835778E+02  0.54315846952E+01  0.38617547675E+01  0.59301919264E+02  0.49999954837E+02 0.  0.
        -12    1    1    2    0    0  0.31181835778E+02 -0.54315846952E+01 -0.38617547675E+01  0.31886080736E+02  0.00000000000E+00 0.  1.
         11    1    3    3    0    0 -0.13462659263E+02  0.16450839791E+02  0.52349772215E+01  0.21892425883E+02  0.51100000000E-03 0. -1.
        -11    1    3    3    0    0  0.41321113628E+01  0.25382699344E+01  0.85632487403E+01  0.98410562352E+01  0.51100000000E-03 0.  1.
        -12    1    3    3    0    0 -0.21851287878E+02 -0.13557525030E+02 -0.99364711943E+01  0.27568437146E+02  0.00000000000E+00 0.  1.
</event>
<event>
 7    1  0.1338132E-011  0.5930195E+02  0.7816164E-02  0.1266605E+00
        -11   -1    0    0    0    0  0.00000000000E+00  0.00000000000E+00  0.45593999997E+02  0.45594000000E+02  0.51100000000E-03 0. -1.
         11   -1    0    0    0    0 -0.00000000000E+00 -0.00000000000E+00 -0.45593999997E+02  0.45594000000E+02  0.51100000000E-03 0.  1.
    9900012    2    1    2    0    0  0.23280755079E+02 -0.97529918536E+01  0.19483480207E+02  0.59301946495E+02  0.50000004500E+02 0.  0.
        -12    1    1    2    0    0 -0.23280755079E+02  0.97529918536E+01 -0.19483480207E+02  0.31886053505E+02  0.00000000000E+00 0.  1.
         11    1    3    3    0    0  0.68628557114E+01 -0.93960665542E+01  0.16410251778E+02  0.20116690058E+02  0.51100000000E-03 0. -1.
        -11    1    3    3    0    0 -0.48669861276E+01 -0.25033102282E+01  0.14094848861E+02  0.15120148172E+02  0.51100000000E-03 0.  1.
        -12    1    3    3    0    0  0.21284885495E+02  0.21463849288E+01 -0.11021620433E+02  0.24065108265E+02  0.00000000000E+00 0.  1.
</event>
<event>
 7    1  0.1338132E-011  0.5930192E+02  0.7816164E-02  0.1266605E+00
        -11   -1    0    0    0    0  0.00000000000E+00  0.00000000000E+00  0.45593999997E+02  0.45594000000E+02  0.51100000000E-03 0.  1.
         11   -1    0    0    0    0 -0.00000000000E+00 -0.00000000000E+00 -0.45593999997E+02  0.45594000000E+02  0.51100000000E-03 0. -1.
    9900012    2    1    2    0    0  0.31281183817E+02  0.16409687980E+01  0.59596271313E+01  0.59301915337E+02  0.49999947676E+02 0.  0.
        -12    1    1    2    0    0 -0.31281183817E+02 -0.16409687980E+01 -0.59596271313E+01  0.31886084663E+02  0.00000000000E+00 0.  1.
         11    1    3    3    0    0 -0.59232004839E+01 -0.14315509893E+01 -0.45345138606E+01  0.75957526566E+01  0.51100000000E-03 0. -1.
        -11    1    3    3    0    0 -0.25579491451E+01 -0.87727836527E+01  0.16881164295E+01  0.92927161899E+01  0.51100000000E-03 0.  1.
         12    1    3    3    0    0  0.39762333446E+02  0.11845303440E+02  0.88060245624E+01  0.42413446491E+02  0.00000000000E+00 0. -1.
</event>
<event>
 7    1  0.1338132E-011  0.5930193E+02  0.7816164E-02  0.1266605E+00
        -11   -1    0    0    0    0  0.00000000000E+00  0.00000000000E+00  0.45593999997E+02  0.45594000000E+02  0.51100000000E-03 0.  1.
         11   -1    0    0    0    0 -0.00000000000E+00 -0.00000000000E+00 -0.45593999997E+02  0.45594000000E+02  0.51100000000E-03 0. -1.
    9900012    2    1    2    0    0  0.19794806671E+02 -0.78897415573E+01 -0.23720007419E+02  0.59301934941E+02  0.49999983428E+02 0.  0.
        -12    1    1    2    0    0 -0.19794806671E+02  0.78897415573E+01  0.23720007419E+02  0.31886065059E+02  0.00000000000E+00 0.  1.
         11    1    3    3    0    0  0.21032440201E+02  0.44716882500E+01 -0.25353737710E+01  0.21651504729E+02  0.51100000000E-03 0. -1.
        -11    1    3    3    0    0  0.93054808041E+01  0.28060294303E+01 -0.15551233256E+02  0.18338664897E+02  0.51100000000E-03 0.  1.
        -12    1    3    3    0    0 -0.10543114335E+02 -0.15167459238E+02 -0.56334003924E+01  0.19311765315E+02  0.00000000000E+00 0.  1.
</event>
<event>
 7    1  0.1338132E-011  0.5930194E+02  0.7816164E-02  0.1266605E+00
        -11   -1    0    0    0    0  0.00000000000E+00  0.00000000000E+00  0.45593999997E+02  0.45594000000E+02  0.51100000000E-03 0. -1.
         11   -1    0    0    0    0 -0.00000000000E+00 -0.00000000000E+00 -0.45593999997E+02  0.45594000000E+02  0.51100000000E-03 0.  1.
    9900012    2    1    2    0    0 -0.63772176669E+01  0.14044240266E+02  0.27907191567E+02  0.59301938296E+02  0.49999989547E+02 0.  0.
        -12    1    1    2    0    0  0.63772176669E+01 -0.14044240266E+02 -0.27907191567E+02  0.31886061704E+02  0.00000000000E+00 0.  1.
         11    1    3    3    0    0  0.82550658968E+01 -0.43617563913E+01  0.75045151161E+01  0.11978680193E+02  0.51100000000E-03 0. -1.
        -11    1    3    3    0    0  0.10178781785E+02  0.81339423110E+01  0.15112314520E+02  0.19953713102E+02  0.51100000000E-03 0.  1.
        -12    1    3    3    0    0 -0.24811065349E+02  0.10272054346E+02  0.52903619310E+01  0.27369545001E+02  0.00000000000E+00 0.  1.
</event>
<event>
 7    1  0.1338132E-011  0.5930195E+02  0.7816164E-02  0.1266605E+00
        -11   -1    0    0    0    0  0.00000000000E+00  0.00000000000E+00  0.45593999997E+02  0.45594000000E+02  0.51100000000E-03 0.  1.
         11   -1    0    0    0    0 -0.00000000000E+00 -0.00000000000E+00 -0.45593999997E+02  0.45594000000E+02  0.51100000000E-03 0. -1.
    9900012    2    1    2    0    0  0.10167817600E+02 -0.19490160931E+02 -0.23096956549E+02  0.59301948352E+02  0.50000007887E+02 0.  0.
        -12    1    1    2    0    0 -0.10167817600E+02  0.19490160931E+02  0.23096956549E+02  0.31886051648E+02  0.00000000000E+00 0.  1.
         11    1    3    3    0    0 -0.10735220171E+02 -0.12942987980E+02 -0.19071453733E+02  0.25426093639E+02  0.51100000000E-03 0. -1.
        -11    1    3    3    0    0 -0.42446869530E+01 -0.43502654317E+01  0.41291073523E+01  0.73479047655E+01  0.51100000000E-03 0.  1.
         12    1    3    3    0    0  0.25147724724E+02 -0.21969075194E+01 -0.81546101680E+01  0.26527949948E+02  0.00000000000E+00 0. -1.
</event>
<event>
 7    1  0.1338132E-011  0.5930195E+02  0.7816164E-02  0.1266605E+00
        -11   -1    0    0    0    0  0.00000000000E+00  0.00000000000E+00  0.45593999997E+02  0.45594000000E+02  0.51100000000E-03 0.  1.
         11   -1    0    0    0    0 -0.00000000000E+00 -0.00000000000E+00 -0.45593999997E+02  0.45594000000E+02  0.51100000000E-03 0. -1.
    9900012    2    1    2    0    0 -0.83522072680E+01 -0.25331180698E+02  0.17472612266E+02  0.59301948798E+02  0.50000008701E+02 0.  0.
        -12    1    1    2    0    0  0.83522072680E+01  0.25331180698E+02 -0.17472612266E+02  0.31886051202E+02  0.00000000000E+00 0.  1.
         11    1    3    3    0    0 -0.95664206307E+01 -0.12594422099E+02  0.52354062380E+00  0.15824347277E+02  0.51100000000E-03 0. -1.
        -11    1    3    3    0    0 -0.14538192234E+02 -0.93268934923E+00  0.18712171459E+02  0.23714432395E+02  0.51100000000E-03 0.  1.
         12    1    3    3    0    0  0.15752405597E+02 -0.11804069250E+02 -0.17630998165E+01  0.19763169126E+02  0.00000000000E+00 0. -1.
</event>
<event>
 7    1  0.1338132E-011  0.5930192E+02  0.7816164E-02  0.1266605E+00
        -11   -1    0    0    0    0  0.00000000000E+00  0.00000000000E+00  0.45593999997E+02  0.45594000000E+02  0.51100000000E-03 0.  1.
         11   -1    0    0    0    0 -0.00000000000E+00 -0.00000000000E+00 -0.45593999997E+02  0.45594000000E+02  0.51100000000E-03 0. -1.
    9900012    2    1    2    0    0 -0.25286808077E+02 -0.16781608019E+02 -0.97814506904E+01  0.59301924543E+02  0.49999964464E+02 0.  0.
        -12    1    1    2    0    0  0.25286808077E+02  0.16781608019E+02  0.97814506904E+01  0.31886075457E+02  0.00000000000E+00 0.  1.
         11    1    3    3    0    0 -0.41969041905E+01  0.47216715617E+00 -0.14948287335E+02  0.15533455543E+02  0.51100000000E-03 0. -1.
        -11    1    3    3    0    0 -0.60636891166E+01 -0.43915779126E+01 -0.14221160158E+02  0.16071579847E+02  0.51100000000E-03 0.  1.
        -12    1    3    3    0    0 -0.15026214770E+02 -0.12862197262E+02  0.19387996802E+02  0.27696889153E+02  0.00000000000E+00 0.  1.
</event>
<event>
 7    1  0.1338132E-011  0.5930197E+02  0.7816164E-02  0.1266605E+00
        -11   -1    0    0    0    0  0.00000000000E+00  0.00000000000E+00  0.45593999997E+02  0.45594000000E+02  0.51100000000E-03 0. -1.
         11   -1    0    0    0    0 -0.00000000000E+00 -0.00000000000E+00 -0.45593999997E+02  0.45594000000E+02  0.51100000000E-03 0.  1.
    9900012    2    1    2    0    0  0.20633627810E+02 -0.24231700456E+02 -0.19486253355E+01  0.59301967881E+02  0.50000043502E+02 0.  0.
        -12    1    1    2    0    0 -0.20633627810E+02  0.24231700456E+02  0.19486253355E+01  0.31886032119E+02  0.00000000000E+00 0.  1.
         11    1    3    3    0    0  0.94941117557E+01  0.64013205979E+01 -0.39445579154E+01  0.12110928983E+02  0.51100000000E-03 0. -1.
        -11    1    3    3    0    0 -0.94419463215E+01 -0.24685963288E+00 -0.35174455502E+01  0.10078874614E+02  0.51100000000E-03 0.  1.
         12    1    3    3    0    0  0.20581462376E+02 -0.30386161421E+02  0.55133781302E+01  0.37112164284E+02  0.00000000000E+00 0. -1.
</event>
<event>
 7    1  0.1338132E-011  0.5930193E+02  0.7816164E-02  0.1266605E+00
        -11   -1    0    0    0    0  0.00000000000E+00  0.00000000000E+00  0.45593999997E+02  0.45594000000E+02  0.51100000000E-03 0.  1.
         11   -1    0    0    0    0 -0.00000000000E+00 -0.00000000000E+00 -0.45593999997E+02  0.45594000000E+02  0.51100000000E-03 0. -1.
    9900012    2    1    2    0    0 -0.74349720471E+01  0.30862228340E+02 -0.29942179553E+01  0.59301932688E+02  0.49999979320E+02 0.  0.
        -12    1    1    2    0    0  0.74349720471E+01 -0.30862228340E+02  0.29942179553E+01  0.31886067312E+02  0.00000000000E+00 0.  1.
         11    1    3    3    0    0  0.14580133649E+02  0.21032930930E+02 -0.11095932907E+02  0.27894160823E+02  0.51100000000E-03 0. -1.
        -11    1    3    3    0    0 -0.75511254787E+00 -0.45489483383E+01  0.48933653049E+00  0.46370870647E+01  0.51100000000E-03 0.  1.
        -12    1    3    3    0    0 -0.21259993148E+02  0.14378245748E+02  0.76123784209E+01  0.26770684800E+02  0.00000000000E+00 0.  1.
</event>
<event>
 7    1  0.1338132E-011  0.5930194E+02  0.7816164E-02  0.1266605E+00
        -11   -1    0    0    0    0  0.00000000000E+00  0.00000000000E+00  0.45593999997E+02  0.45594000000E+02  0.51100000000E-03 0.  1.
         11   -1    0    0    0    0 -0.00000000000E+00 -0.00000000000E+00 -0.45593999997E+02  0.45594000000E+02  0.51100000000E-03 0. -1.
    9900012    2    1    2    0    0  0.25695073114E+02  0.12914431184E+02 -0.13773225323E+02  0.59301936415E+02  0.49999986116E+02 0.  0.
        -12    1    1    2    0    0 -0.25695073114E+02 -0.12914431184E+02  0.13773225323E+02  0.31886063585E+02  0.00000000000E+00 0.  1.
         11    1    3    3    0    0  0.23921730853E+02  0.22126141433E+02 -0.14531806028E+02  0.35678967592E+02  0.51100000000E-03 0. -1.
        -11    1    3    3    0    0  0.84567867680E+01  0.35647997724E+01 -0.10651051059E+00  0.91780381676E+01  0.51100000000E-03 0.  1.
         12    1    3    3    0    0 -0.66834445074E+01 -0.12776510022E+02  0.86509121573E+00  0.14444930655E+02  0.00000000000E+00 0. -1.
</event>
<event>
 7    1  0.1338132E-011  0.5930194E+02  0.7816164E-02  0.1266605E+00
        -11   -1    0    0    0    0  0.00000000000E+00  0.00000000000E+00  0.45593999997E+02  0.45594000000E+02  0.51100000000E-03 0. -1.
         11   -1    0    0    0    0 -0.00000000000E+00 -0.00000000000E+00 -0.45593999997E+02  0.45594000000E+02  0.51100000000E-03 0.  1.
    9900012    2    1    2    0    0  0.24488219953E+02  0.11399687579E+02  0.16943886340E+02  0.59301935996E+02  0.49999985352E+02 0.  0.
        -12    1    1    2    0    0 -0.24488219953E+02 -0.11399687579E+02 -0.16943886340E+02  0.31886064004E+02  0.00000000000E+00 0.  1.
         11    1    3    3    0    0  0.17953080606E+02  0.41582687126E+01  0.13709625057E+01  0.18479281381E+02  0.51100000000E-03 0. -1.
        -11    1    3    3    0    0  0.57471625887E+01  0.21811215022E+02  0.58935350832E+01  0.23312930631E+02  0.51100000000E-03 0.  1.
        -12    1    3    3    0    0  0.78797675902E+00 -0.14569796156E+02  0.96793887506E+01  0.17509723983E+02  0.00000000000E+00 0.  1.
</event>
<event>
 7    1  0.1338132E-011  0.5930202E+02  0.7816164E-02  0.1266604E+00
        -11   -1    0    0    0    0  0.00000000000E+00  0.00000000000E+00  0.45593999997E+02  0.45594000000E+02  0.51100000000E-03 0.  1.
         11   -1    0    0    0    0 -0.00000000000E+00 -0.00000000000E+00 -0.45593999997E+02  0.45594000000E+02  0.51100000000E-03 0. -1.
    9900012    2    1    2    0    0  0.30135449390E+02 -0.10253290641E+02 -0.18548403307E+01  0.59302020142E+02  0.50000138813E+02 0.  0.
        -12    1    1    2    0    0 -0.30135449390E+02  0.10253290641E+02  0.18548403307E+01  0.31885979858E+02  0.00000000000E+00 0.  1.
         11    1    3    3    0    0  0.92605036891E+01 -0.11755338590E+02 -0.25686488173E+00  0.14966993478E+02  0.51100000000E-03 0. -1.
        -11    1    3    3    0    0  0.55468951151E+01 -0.18023965926E+02  0.29816721277E+01  0.19092453013E+02  0.51100000000E-03 0.  1.
        -12    1    3    3    0    0  0.15328050585E+02  0.19526013875E+02 -0.45796475767E+01  0.25242573651E+02  0.00000000000E+00 0.  1.
</event>
<event>
 7    1  0.1338132E-011  0.5930196E+02  0.7816164E-02  0.1266605E+00
        -11   -1    0    0    0    0  0.00000000000E+00  0.00000000000E+00  0.45593999997E+02  0.45594000000E+02  0.51100000000E-03 0. -1.
         11   -1    0    0    0    0 -0.00000000000E+00 -0.00000000000E+00 -0.45593999997E+02  0.45594000000E+02  0.51100000000E-03 0.  1.
    9900012    2    1    2    0    0  0.11123340389E+01 -0.24721777745E+02  0.20107610482E+02  0.59301959462E+02  0.50000028148E+02 0.  0.
        -12    1    1    2    0    0 -0.11123340389E+01  0.24721777745E+02 -0.20107610482E+02  0.31886040538E+02  0.00000000000E+00 0.  1.
         11    1    3    3    0    0  0.40889450115E+01  0.21714867454E+01 -0.82825973866E+01  0.94887431056E+01  0.51100000000E-03 0.  1.
        -11    1    3    3    0    0  0.69656290192E+01 -0.10097640358E+02 -0.32020667325E+01  0.12678152865E+02  0.51100000000E-03 0. -1.
        -12    1    3    3    0    0 -0.99422399918E+01 -0.16795624133E+02  0.31592274601E+02  0.37135063492E+02  0.00000000000E+00 0.  1.
</event>
<event>
 7    1  0.1338132E-011  0.5930196E+02  0.7816164E-02  0.1266605E+00
        -11   -1    0    0    0    0  0.00000000000E+00  0.00000000000E+00  0.45593999997E+02  0.45594000000E+02  0.51100000000E-03 0.  1.
         11   -1    0    0    0    0 -0.00000000000E+00 -0.00000000000E+00 -0.45593999997E+02  0.45594000000E+02  0.51100000000E-03 0. -1.
    9900012    2    1    2    0    0 -0.13904254178E+02  0.26477079549E+02 -0.11061446639E+02  0.59301958737E+02  0.50000026826E+02 0.  0.
        -12    1    1    2    0    0  0.13904254178E+02 -0.26477079549E+02  0.11061446639E+02  0.31886041263E+02  0.00000000000E+00 0.  1.
         11    1    3    3    0    0 -0.21843777130E+02  0.11880171457E+02 -0.18960621334E+02  0.31269701547E+02  0.51100000000E-03 0. -1.
        -11    1    3    3    0    0 -0.30918758746E+01  0.93272083644E+01  0.11653462144E+02  0.15243349123E+02  0.51100000000E-03 0.  1.
        -12    1    3    3    0    0  0.11031398827E+02  0.52696997278E+01 -0.37542874479E+01  0.12788908067E+02  0.00000000000E+00 0.  1.
</event>
<event>
 7    1  0.1338132E-011  0.5930194E+02  0.7816164E-02  0.1266605E+00
        -11   -1    0    0    0    0  0.00000000000E+00  0.00000000000E+00  0.45593999997E+02  0.45594000000E+02  0.51100000000E-03 0.  1.
         11   -1    0    0    0    0 -0.00000000000E+00 -0.00000000000E+00 -0.45593999997E+02  0.45594000000E+02  0.51100000000E-03 0. -1.
    9900012    2    1    2    0    0 -0.20975665784E+02  0.22589789653E+02 -0.81512938395E+01  0.59301941246E+02  0.49999994926E+02 0.  0.
        -12    1    1    2    0    0  0.20975665784E+02 -0.22589789653E+02  0.81512938395E+01  0.31886058754E+02  0.00000000000E+00 0.  1.
         11    1    3    3    0    0  0.70572939116E+01  0.16107074247E+02  0.44899327488E+01  0.18149455488E+02  0.51100000000E-03 0. -1.
        -11    1    3    3    0    0 -0.12303473057E+00 -0.70845285531E+01  0.11762191725E+01  0.71825604187E+01  0.51100000000E-03 0.  1.
         12    1    3    3    0    0 -0.27909924965E+02  0.13567243959E+02 -0.13817445761E+02  0.33969925339E+02  0.00000000000E+00 0. -1.
</event>
<event>
 7    1  0.1338132E-011  0.5930195E+02  0.7816164E-02  0.1266605E+00
        -11   -1    0    0    0    0  0.00000000000E+00  0.00000000000E+00  0.45593999997E+02  0.45594000000E+02  0.51100000000E-03 0.  1.
         11   -1    0    0    0    0 -0.00000000000E+00 -0.00000000000E+00 -0.45593999997E+02  0.45594000000E+02  0.51100000000E-03 0. -1.
    9900012    2    1    2    0    0 -0.17828843664E+02 -0.44901239298E+01 -0.26051703598E+02  0.59301950705E+02  0.50000012177E+02 0.  0.
        -12    1    1    2    0    0  0.17828843664E+02  0.44901239298E+01  0.26051703598E+02  0.31886049295E+02  0.00000000000E+00 0.  1.
         11    1    3    3    0    0  0.84822008184E+01 -0.74663166115E+01 -0.18874229771E+01  0.11456700233E+02  0.51100000000E-03 0. -1.
        -11    1    3    3    0    0  0.22706506714E+01 -0.50544242895E+01  0.40697028060E+01  0.68749938589E+01  0.51100000000E-03 0.  1.
         12    1    3    3    0    0 -0.28581695154E+02  0.80306169712E+01 -0.28233983427E+02  0.40970256613E+02  0.00000000000E+00 0. -1.
</event>
<event>
 7    1  0.1338132E-011  0.5930193E+02  0.7816164E-02  0.1266605E+00
        -11   -1    0    0    0    0  0.00000000000E+00  0.00000000000E+00  0.45593999997E+02  0.45594000000E+02  0.51100000000E-03 0. -1.
         11   -1    0    0    0    0 -0.00000000000E+00 -0.00000000000E+00 -0.45593999997E+02  0.45594000000E+02  0.51100000000E-03 0.  1.
    9900012    2    1    2    0    0  0.28471309562E+02 -0.12961729876E+02 -0.61725057810E+01  0.59301925654E+02  0.49999966491E+02 0.  0.
        -12    1    1    2    0    0 -0.28471309562E+02  0.12961729876E+02  0.61725057810E+01  0.31886074346E+02  0.00000000000E+00 0.  1.
         11    1    3    3    0    0  0.45353253390E+01 -0.35308995446E+01  0.17756655046E+02  0.18663740949E+02  0.51100000000E-03 0. -1.
        -11    1    3    3    0    0  0.59804379046E+01  0.25045838894E+01 -0.16673127398E+02  0.17889431390E+02  0.51100000000E-03 0.  1.
        -12    1    3    3    0    0  0.17955546319E+02 -0.11935414221E+02 -0.72560334295E+01  0.22748753314E+02  0.00000000000E+00 0.  1.
</event>
<event>
 7    1  0.1338132E-011  0.5930193E+02  0.7816164E-02  0.1266605E+00
        -11   -1    0    0    0    0  0.00000000000E+00  0.00000000000E+00  0.45593999997E+02  0.45594000000E+02  0.51100000000E-03 0.  1.
         11   -1    0    0    0    0 -0.00000000000E+00 -0.00000000000E+00 -0.45593999997E+02  0.45594000000E+02  0.51100000000E-03 0. -1.
    9900012    2    1    2    0    0  0.10854547238E+02  0.60108428296E+01 -0.29372942470E+02  0.59301934444E+02  0.49999982521E+02 0.  0.
        -12    1    1    2    0    0 -0.10854547238E+02 -0.60108428296E+01  0.29372942470E+02  0.31886065556E+02  0.00000000000E+00 0.  1.
         11    1    3    3    0    0  0.52070853618E+01 -0.20022788709E+01  0.86739929745E+00  0.56458161894E+01  0.51100000000E-03 0. -1.
        -11    1    3    3    0    0  0.19599751971E+02  0.86370295253E+01 -0.12237466152E+01  0.21453347347E+02  0.51100000000E-03 0.  1.
         12    1    3    3    0    0 -0.13952290095E+02 -0.62390782491E+00 -0.29016595153E+02  0.32202770907E+02  0.00000000000E+00 0. -1.
</event>
<event>
 7    1  0.1338132E-011  0.5930190E+02  0.7816164E-02  0.1266605E+00
        -11   -1    0    0    0    0  0.00000000000E+00  0.00000000000E+00  0.45593999997E+02  0.45594000000E+02  0.51100000000E-03 0. -1.
         11   -1    0    0    0    0 -0.00000000000E+00 -0.00000000000E+00 -0.45593999997E+02  0.45594000000E+02  0.51100000000E-03 0.  1.
    9900012    2    1    2    0    0 -0.87286636528E+01 -0.49799637180E+01  0.30261092510E+02  0.59301900714E+02  0.49999921005E+02 0.  0.
        -12    1    1    2    0    0  0.87286636528E+01  0.49799637180E+01 -0.30261092510E+02  0.31886099286E+02  0.00000000000E+00 0.  1.
         11    1    3    3    0    0 -0.11208278627E+02  0.77190918644E+01  0.22472415208E+01  0.13793476128E+02  0.51100000000E-03 0. -1.
        -11    1    3    3    0    0  0.80815699524E+01  0.82305622380E+01  0.20900659466E+01  0.11722725945E+02  0.51100000000E-03 0.  1.
        -12    1    3    3    0    0 -0.56019549782E+01 -0.20929617820E+02  0.25923785043E+02  0.33785698641E+02  0.00000000000E+00 0.  1.
</event>
<event>
 7    1  0.1871544E-011  0.5930204E+02  0.7816164E-02  0.1266604E+00
        -11   -1    0    0    0    0  0.00000000000E+00  0.00000000000E+00  0.45593999997E+02  0.45594000000E+02  0.51100000000E-03 0. -1.
         11   -1    0    0    0    0 -0.00000000000E+00 -0.00000000000E+00 -0.45593999997E+02  0.45594000000E+02  0.51100000000E-03 0.  1.
    9900012    2    1    2    0    0 -0.44219197215E+01  0.12175590708E+02  0.29136165084E+02  0.59302039157E+02  0.50000173492E+02 0.  0.
        -12    1    1    2    0    0  0.44219197215E+01 -0.12175590708E+02 -0.29136165084E+02  0.31885960843E+02  0.00000000000E+00 0.  1.
         11    1    3    3    0    0  0.10882106190E+02 -0.22191895377E+00  0.15531700645E+02  0.18965843201E+02  0.51100000000E-03 0. -1.
        -11    1    3    3    0    0  0.34668121334E+00  0.14347264051E+02 -0.56703863947E+01  0.15431054913E+02  0.51100000000E-03 0.  1.
         12    1    3    3    0    0 -0.15650707125E+02 -0.19497543895E+01  0.19274850834E+02  0.24905141043E+02  0.00000000000E+00 0. -1.
</event>
<event>
 7    1  0.1338132E-011  0.5930156E+02  0.7816164E-02  0.1266606E+00
        -11   -1    0    0    0    0  0.00000000000E+00  0.00000000000E+00  0.45593999997E+02  0.45594000000E+02  0.51100000000E-03 0.  1.
         11   -1    0    0    0    0 -0.00000000000E+00 -0.00000000000E+00 -0.45593999997E+02  0.45594000000E+02  0.51100000000E-03 0. -1.
    9900012    2    1    2    0    0 -0.21741158419E+02  0.23318370873E+02 -0.56610226987E+00  0.59301563051E+02  0.49999305184E+02 0.  0.
        -12    1    1    2    0    0  0.21741158419E+02 -0.23318370873E+02  0.56610226987E+00  0.31886436949E+02  0.00000000000E+00 0.  1.
         11    1    3    3    0    0 -0.38757509518E+01 -0.55728632103E+01  0.10435147579E+02  0.12448717004E+02  0.51100000000E-03 0.  1.
        -11    1    3    3    0    0 -0.14993980344E+02  0.35057862434E+02 -0.64578400319E+01  0.38672688853E+02  0.51100000000E-03 0. -1.
         12    1    3    3    0    0 -0.28714271231E+01 -0.61666283510E+01 -0.45434098168E+01  0.81801571932E+01  0.00000000000E+00 0. -1.
</event>
<event>
 7    1  0.1338132E-011  0.5930196E+02  0.7816164E-02  0.1266605E+00
        -11   -1    0    0    0    0  0.00000000000E+00  0.00000000000E+00  0.45593999997E+02  0.45594000000E+02  0.51100000000E-03 0.  1.
         11   -1    0    0    0    0 -0.00000000000E+00 -0.00000000000E+00 -0.45593999997E+02  0.45594000000E+02  0.51100000000E-03 0. -1.
    9900012    2    1    2    0    0 -0.71088427204E+01  0.24079268489E+02 -0.19656367400E+02  0.59301959243E+02  0.50000027749E+02 0.  0.
        -12    1    1    2    0    0  0.71088427204E+01 -0.24079268489E+02  0.19656367400E+02  0.31886040757E+02  0.00000000000E+00 0.  1.
         11    1    3    3    0    0 -0.15236107706E+02 -0.15187427251E+00 -0.80916331645E+01  0.17252146862E+02  0.51100000000E-03 0. -1.
        -11    1    3    3    0    0  0.94329102741E+01 -0.30197272790E+01  0.39519530026E+01  0.10663793034E+02  0.51100000000E-03 0.  1.
         12    1    3    3    0    0 -0.13056452886E+01  0.27250870041E+02 -0.15516687238E+02  0.31386019347E+02  0.00000000000E+00 0. -1.
</event>
<event>
 7    1  0.1338132E-011  0.5930188E+02  0.7816164E-02  0.1266605E+00
        -11   -1    0    0    0    0  0.00000000000E+00  0.00000000000E+00  0.45593999997E+02  0.45594000000E+02  0.51100000000E-03 0. -1.
         11   -1    0    0    0    0 -0.00000000000E+00 -0.00000000000E+00 -0.45593999997E+02  0.45594000000E+02  0.51100000000E-03 0.  1.
    9900012    2    1    2    0    0  0.25443658973E+02  0.19165431349E+02 -0.14250597791E+01  0.59301884901E+02  0.49999892167E+02 0.  0.
        -12    1    1    2    0    0 -0.25443658973E+02 -0.19165431349E+02  0.14250597791E+01  0.31886115099E+02  0.00000000000E+00 0.  1.
         11    1    3    3    0    0  0.15340022769E+01  0.88484225284E+01  0.14382683604E+02  0.16956100146E+02  0.51100000000E-03 0. -1.
        -11    1    3    3    0    0 -0.54027145231E+01  0.14473789169E+01 -0.95811914824E+01  0.11094298555E+02  0.51100000000E-03 0.  1.
        -12    1    3    3    0    0  0.29312371220E+02  0.88696299034E+01 -0.62265519011E+01  0.31251486200E+02  0.00000000000E+00 0.  1.
</event>
<event>
 7    1  0.1338132E-011  0.5930196E+02  0.7816164E-02  0.1266605E+00
        -11   -1    0    0    0    0  0.00000000000E+00  0.00000000000E+00  0.45593999997E+02  0.45594000000E+02  0.51100000000E-03 0.  1.
         11   -1    0    0    0    0 -0.00000000000E+00 -0.00000000000E+00 -0.45593999997E+02  0.45594000000E+02  0.51100000000E-03 0. -1.
    9900012    2    1    2    0    0  0.14202293090E+02  0.14121825987E+02 -0.24811060260E+02  0.59301955883E+02  0.50000021621E+02 0.  0.
        -12    1    1    2    0    0 -0.14202293090E+02 -0.14121825987E+02  0.24811060260E+02  0.31886044117E+02  0.00000000000E+00 0.  1.
         11    1    3    3    0    0  0.14833510034E+01  0.68428675734E+01 -0.13493525996E+02  0.15201987071E+02  0.51100000000E-03 0. -1.
        -11    1    3    3    0    0  0.10879063418E+02 -0.12326836020E+02 -0.16954663490E+02  0.23617059966E+02  0.51100000000E-03 0.  1.
        -12    1    3    3    0    0  0.18398786681E+01  0.19605794434E+02  0.56371292258E+01  0.20482908846E+02  0.00000000000E+00 0.  1.
</event>
<event>
 7    1  0.1338132E-011  0.5930195E+02  0.7816164E-02  0.1266605E+00
        -11   -1    0    0    0    0  0.00000000000E+00  0.00000000000E+00  0.45593999997E+02  0.45594000000E+02  0.51100000000E-03 0. -1.
         11   -1    0    0    0    0 -0.00000000000E+00 -0.00000000000E+00 -0.45593999997E+02  0.45594000000E+02  0.51100000000E-03 0.  1.
    9900012    2    1    2    0    0 -0.39419324020E+01 -0.58553710717E+01  0.31094954224E+02  0.59301946942E+02  0.50000005314E+02 0.  0.
        -12    1    1    2    0    0  0.39419324020E+01  0.58553710717E+01 -0.31094954224E+02  0.31886053058E+02  0.00000000000E+00 0.  1.
         11    1    3    3    0    0  0.15492189532E+02  0.12236164101E+02  0.17936885734E+02  0.26673273487E+02  0.51100000000E-03 0. -1.
        -11    1    3    3    0    0 -0.14820117350E+02 -0.44754276886E+01  0.67678531490E+01  0.16895832852E+02  0.51100000000E-03 0.  1.
        -12    1    3    3    0    0 -0.46140045842E+01 -0.13616107484E+02  0.63902153409E+01  0.15732840603E+02  0.00000000000E+00 0.  1.
</event>
<event>
 7    1  0.1338132E-011  0.5930194E+02  0.7816164E-02  0.1266605E+00
        -11   -1    0    0    0    0  0.00000000000E+00  0.00000000000E+00  0.45593999997E+02  0.45594000000E+02  0.51100000000E-03 0.  1.
         11   -1    0    0    0    0 -0.00000000000E+00 -0.00000000000E+00 -0.45593999997E+02  0.45594000000E+02  0.51100000000E-03 0. -1.
    9900012    2    1    2    0    0 -0.28421033799E+01  0.31530203705E+02  0.38065286035E+01  0.59301937883E+02  0.49999988794E+02 0.  0.
        -12    1    1    2    0    0  0.28421033799E+01 -0.31530203705E+02 -0.38065286035E+01  0.31886062117E+02  0.00000000000E+00 0.  1.
         11    1    3    3    0    0  0.10737484909E+02  0.11409926017E+02 -0.31137490763E+01  0.15974211325E+02  0.51100000000E-03 0. -1.
        -11    1    3    3    0    0  0.10818987225E+02  0.13083412470E+02 -0.11675429738E+00  0.16977626402E+02  0.51100000000E-03 0.  1.
        -12    1    3    3    0    0 -0.24398575514E+02  0.70368652180E+01  0.70370319772E+01  0.26350100156E+02  0.00000000000E+00 0.  1.
</event>
<event>
 7    1  0.1338132E-011  0.5930200E+02  0.7816164E-02  0.1266605E+00
        -11   -1    0    0    0    0  0.00000000000E+00  0.00000000000E+00  0.45593999997E+02  0.45594000000E+02  0.51100000000E-03 0.  1.
         11   -1    0    0    0    0 -0.00000000000E+00 -0.00000000000E+00 -0.45593999997E+02  0.45594000000E+02  0.51100000000E-03 0. -1.
    9900012    2    1    2    0    0  0.28540550033E+02  0.58616343123E+01 -0.12953575257E+02  0.59302002055E+02  0.50000105828E+02 0.  0.
        -12    1    1    2    0    0 -0.28540550033E+02 -0.58616343123E+01  0.12953575257E+02  0.31885997945E+02  0.00000000000E+00 0.  1.
         11    1    3    3    0    0  0.94148752847E+01  0.13478161447E+02 -0.50853928267E+00  0.16448687640E+02  0.51100000000E-03 0. -1.
        -11    1    3    3    0    0 -0.82801745334E+01  0.14113661772E+01 -0.11163198258E+02  0.13970334298E+02  0.51100000000E-03 0.  1.
         12    1    3    3    0    0  0.27405849282E+02 -0.90278933123E+01 -0.12818377170E+01  0.28882980117E+02  0.00000000000E+00 0. -1.
</event>
