<event>
 7    1  0.3129575E-011  0.5052888E+02  0.7816164E-02  0.1300439E+00
        -11   -1    0    0    0    0  0.00000000000E+00  0.00000000000E+00  0.45593999997E+02  0.45594000000E+02  0.51100000000E-03 0.  1.
         11   -1    0    0    0    0 -0.00000000000E+00 -0.00000000000E+00 -0.45593999997E+02  0.45594000000E+02  0.51100000000E-03 0. -1.
    9900012    2    1    2    0    0 -0.10920311168E+02 -0.12663909386E+02 -0.37061250914E+02  0.50528879052E+02  0.30000058368E+02 0.  0.
        -12    1    1    2    0    0  0.10920311168E+02  0.12663909386E+02  0.37061250914E+02  0.40659120948E+02  0.00000000000E+00 0.  1.
         11    1    3    3    0    0  0.29336234560E+01  0.10175850274E+01 -0.13451951701E+02  0.13805673859E+02  0.51100000000E-03 0. -1.
        -11    1    3    3    0    0  0.30189023586E+01  0.30119492923E+01 -0.24056581926E+01  0.48962027726E+01  0.51100000000E-03 0.  1.
         12    1    3    3    0    0 -0.16872836983E+02 -0.16693443705E+02 -0.21203641020E+02  0.31827002421E+02  0.00000000000E+00 0. -1.
</event>
<event>
 7    1  0.3129575E-011  0.5052886E+02  0.7816164E-02  0.1300439E+00
        -11   -1    0    0    0    0  0.00000000000E+00  0.00000000000E+00  0.45593999997E+02  0.45594000000E+02  0.51100000000E-03 0. -1.
         11   -1    0    0    0    0 -0.00000000000E+00 -0.00000000000E+00 -0.45593999997E+02  0.45594000000E+02  0.51100000000E-03 0.  1.
    9900012    2    1    2    0    0 -0.27453382852E+02  0.12893433393E+02  0.27078345665E+02  0.50528860085E+02  0.30000000714E+02 0.  0.
        -12    1    1    2    0    0  0.27453382852E+02 -0.12893433393E+02 -0.27078345665E+02  0.40659139915E+02  0.00000000000E+00 0.  1.
         11    1    3    3    0    0 -0.25009944304E+02  0.73974333239E+01  0.23522493872E+02  0.35121603780E+02  0.51100000000E-03 0. -1.
        -11    1    3    3    0    0 -0.11535048022E+01 -0.13754014441E+01  0.72715034674E+01  0.74897974204E+01  0.51100000000E-03 0.  1.
         12    1    3    3    0    0 -0.12899337452E+01  0.68714015133E+01 -0.37156516735E+01  0.79174588842E+01  0.00000000000E+00 0. -1.
</event>
<event>
 7    1  0.3129575E-011  0.5052887E+02  0.7816164E-02  0.1300439E+00
        -11   -1    0    0    0    0  0.00000000000E+00  0.00000000000E+00  0.45593999997E+02  0.45594000000E+02  0.51100000000E-03 0.  1.
         11   -1    0    0    0    0 -0.00000000000E+00 -0.00000000000E+00 -0.45593999997E+02  0.45594000000E+02  0.51100000000E-03 0. -1.
    9900012    2    1    2    0    0  0.11057670098E+02  0.24092653994E+02 -0.30829158784E+02  0.50528867252E+02  0.30000022500E+02 0.  0.
        -12    1    1    2    0    0 -0.11057670098E+02 -0.24092653994E+02  0.30829158784E+02  0.40659132748E+02  0.00000000000E+00 0.  1.
         11    1    3    3    0    0  0.81319093756E+01  0.86389347818E+01 -0.13605373982E+01  0.11941951538E+02  0.51100000000E-03 0. -1.
        -11    1    3    3    0    0  0.31053181953E+01 -0.35972611567E+01 -0.19953270967E+01  0.51540876406E+01  0.51100000000E-03 0.  1.
         12    1    3    3    0    0 -0.17955747309E+00  0.19050980369E+02 -0.27473294289E+02  0.33432828074E+02  0.00000000000E+00 0. -1.
</event>
<event>
 7    1  0.3129575E-011  0.5052886E+02  0.7816164E-02  0.1300439E+00
        -11   -1    0    0    0    0  0.00000000000E+00  0.00000000000E+00  0.45593999997E+02  0.45594000000E+02  0.51100000000E-03 0.  1.
         11   -1    0    0    0    0 -0.00000000000E+00 -0.00000000000E+00 -0.45593999997E+02  0.45594000000E+02  0.51100000000E-03 0. -1.
    9900012    2    1    2    0    0  0.15397690251E+01 -0.38548241106E+02 -0.12838527430E+02  0.50528861205E+02  0.30000004117E+02 0.  0.
        -12    1    1    2    0    0 -0.15397690251E+01  0.38548241106E+02  0.12838527430E+02  0.40659138795E+02  0.00000000000E+00 0.  1.
         11    1    3    3    0    0 -0.93848071648E+01 -0.13161400436E+02 -0.95457449763E+01  0.18772807845E+02  0.51100000000E-03 0. -1.
        -11    1    3    3    0    0  0.42151990572E+01 -0.14351059949E+01 -0.51560490761E+01  0.68126554767E+01  0.51100000000E-03 0.  1.
         12    1    3    3    0    0  0.67093771327E+01 -0.23951734675E+02  0.18632666227E+01  0.24943397883E+02  0.00000000000E+00 0. -1.
</event>
<event>
 7    1  0.3129575E-011  0.5052886E+02  0.7816164E-02  0.1300439E+00
        -11   -1    0    0    0    0  0.00000000000E+00  0.00000000000E+00  0.45593999997E+02  0.45594000000E+02  0.51100000000E-03 0.  1.
         11   -1    0    0    0    0 -0.00000000000E+00 -0.00000000000E+00 -0.45593999997E+02  0.45594000000E+02  0.51100000000E-03 0. -1.
    9900012    2    1    2    0    0 -0.31844023506E+02  0.11677371990E+02 -0.22422373726E+02  0.50528859661E+02  0.29999999424E+02 0.  0.
        -12    1    1    2    0    0  0.31844023506E+02 -0.11677371990E+02  0.22422373726E+02  0.40659140339E+02  0.00000000000E+00 0.  1.
         11    1    3    3    0    0 -0.14158200439E-02  0.10282773194E+02  0.15680869767E+01  0.10401650041E+02  0.51100000000E-03 0.  1.
        -11    1    3    3    0    0 -0.14353875132E+02  0.10096462234E-01 -0.13390690916E+02  0.19630191968E+02  0.51100000000E-03 0. -1.
        -12    1    3    3    0    0 -0.17488732554E+02  0.13845023340E+01 -0.10599769787E+02  0.20497017651E+02  0.00000000000E+00 0.  1.
</event>
<event>
 7    1  0.3129575E-011  0.5052884E+02  0.7816164E-02  0.1300439E+00
        -11   -1    0    0    0    0  0.00000000000E+00  0.00000000000E+00  0.45593999997E+02  0.45594000000E+02  0.51100000000E-03 0.  1.
         11   -1    0    0    0    0 -0.00000000000E+00 -0.00000000000E+00 -0.45593999997E+02  0.45594000000E+02  0.51100000000E-03 0. -1.
    9900012    2    1    2    0    0  0.32270091269E+02  0.23916361568E+02 -0.63100020439E+01  0.50528840306E+02  0.29999940595E+02 0.  0.
        -12    1    1    2    0    0 -0.32270091269E+02 -0.23916361568E+02  0.63100020439E+01  0.40659159694E+02  0.00000000000E+00 0.  1.
         11    1    3    3    0    0  0.19259962931E+02  0.61458507407E+01 -0.56704246261E+00  0.20224717324E+02  0.51100000000E-03 0. -1.
        -11    1    3    3    0    0 -0.10452933223E+01  0.27845663959E+01  0.59585953002E+01  0.66596776465E+01  0.51100000000E-03 0.  1.
         12    1    3    3    0    0  0.14055421661E+02  0.14985944432E+02 -0.11701554882E+02  0.23644445336E+02  0.00000000000E+00 0. -1.
</event>
<event>
 7    1  0.3129575E-011  0.5052886E+02  0.7816164E-02  0.1300439E+00
        -11   -1    0    0    0    0  0.00000000000E+00  0.00000000000E+00  0.45593999997E+02  0.45594000000E+02  0.51100000000E-03 0.  1.
         11   -1    0    0    0    0 -0.00000000000E+00 -0.00000000000E+00 -0.45593999997E+02  0.45594000000E+02  0.51100000000E-03 0. -1.
    9900012    2    1    2    0    0  0.11201175254E+02 -0.13708075412E+02 -0.36603117172E+02  0.50528857790E+02  0.29999993738E+02 0.  0.
        -12    1    1    2    0    0 -0.11201175254E+02  0.13708075412E+02  0.36603117172E+02  0.40659142210E+02  0.00000000000E+00 0.  1.
         11    1    3    3    0    0  0.82675087927E+01 -0.16770835589E+01 -0.83919743781E+00  0.84775328665E+01  0.51100000000E-03 0.  1.
        -11    1    3    3    0    0 -0.74437805315E+01 -0.20734365062E+01 -0.13103755595E+02  0.15212410016E+02  0.51100000000E-03 0. -1.
         12    1    3    3    0    0  0.10377446993E+02 -0.99575553464E+01 -0.22660164139E+02  0.26838914907E+02  0.00000000000E+00 0. -1.
</event>
<event>
 7    1  0.3129575E-011  0.5052886E+02  0.7816164E-02  0.1300439E+00
        -11   -1    0    0    0    0  0.00000000000E+00  0.00000000000E+00  0.45593999997E+02  0.45594000000E+02  0.51100000000E-03 0. -1.
         11   -1    0    0    0    0 -0.00000000000E+00 -0.00000000000E+00 -0.45593999997E+02  0.45594000000E+02  0.51100000000E-03 0.  1.
    9900012    2    1    2    0    0  0.13886597960E+02  0.38063221361E+02 -0.33940452609E+01  0.50528856299E+02  0.29999989205E+02 0.  0.
        -12    1    1    2    0    0 -0.13886597960E+02 -0.38063221361E+02  0.33940452609E+01  0.40659143701E+02  0.00000000000E+00 0.  1.
         11    1    3    3    0    0  0.12808189781E+02  0.13495183033E+02 -0.76453192513E+01  0.20115183252E+02  0.51100000000E-03 0. -1.
        -11    1    3    3    0    0  0.68368669791E+01  0.82452651332E+01  0.71299982339E+01  0.12867168386E+02  0.51100000000E-03 0.  1.
         12    1    3    3    0    0 -0.57584587995E+01  0.16322773195E+02 -0.28787242435E+01  0.17546504660E+02  0.00000000000E+00 0. -1.
</event>
<event>
 7    1  0.3129575E-011  0.5052886E+02  0.7816164E-02  0.1300439E+00
        -11   -1    0    0    0    0  0.00000000000E+00  0.00000000000E+00  0.45593999997E+02  0.45594000000E+02  0.51100000000E-03 0. -1.
         11   -1    0    0    0    0 -0.00000000000E+00 -0.00000000000E+00 -0.45593999997E+02  0.45594000000E+02  0.51100000000E-03 0.  1.
    9900012    2    1    2    0    0  0.21816147360E+02 -0.34074756179E+02  0.40165095995E+01  0.50528860269E+02  0.30000001273E+02 0.  0.
        -12    1    1    2    0    0 -0.21816147360E+02  0.34074756179E+02 -0.40165095995E+01  0.40659139731E+02  0.00000000000E+00 0.  1.
         11    1    3    3    0    0  0.19311515306E+02 -0.14803495195E+02  0.48807484632E+01  0.24817328608E+02  0.51100000000E-03 0. -1.
        -11    1    3    3    0    0  0.56549825382E+01 -0.17567441579E+02  0.47458678814E+01  0.19055631539E+02  0.51100000000E-03 0.  1.
        -12    1    3    3    0    0 -0.31503504842E+01 -0.17038194054E+01 -0.56101067452E+01  0.66559001218E+01  0.00000000000E+00 0.  1.
</event>
<event>
 7    1  0.3129575E-011  0.5052885E+02  0.7816164E-02  0.1300439E+00
        -11   -1    0    0    0    0  0.00000000000E+00  0.00000000000E+00  0.45593999997E+02  0.45594000000E+02  0.51100000000E-03 0.  1.
         11   -1    0    0    0    0 -0.00000000000E+00 -0.00000000000E+00 -0.45593999997E+02  0.45594000000E+02  0.51100000000E-03 0. -1.
    9900012    2    1    2    0    0  0.13656826036E+02  0.24959817435E+02 -0.29045910219E+02  0.50528852392E+02  0.29999977329E+02 0.  0.
        -12    1    1    2    0    0 -0.13656826036E+02 -0.24959817435E+02  0.29045910219E+02  0.40659147608E+02  0.00000000000E+00 0.  1.
         11    1    3    3    0    0  0.56771171720E+01  0.22986160129E+02 -0.22743214822E+02  0.32830580829E+02  0.51100000000E-03 0. -1.
        -11    1    3    3    0    0  0.75762532279E+01  0.76970853108E+01 -0.40823499765E+01  0.11546008698E+02  0.51100000000E-03 0.  1.
         12    1    3    3    0    0  0.40345563638E+00 -0.57234280046E+01 -0.22203454211E+01  0.61522628653E+01  0.00000000000E+00 0. -1.
</event>
<event>
 7    1  0.3129575E-011  0.5052886E+02  0.7816164E-02  0.1300439E+00
        -11   -1    0    0    0    0  0.00000000000E+00  0.00000000000E+00  0.45593999997E+02  0.45594000000E+02  0.51100000000E-03 0.  1.
         11   -1    0    0    0    0 -0.00000000000E+00 -0.00000000000E+00 -0.45593999997E+02  0.45594000000E+02  0.51100000000E-03 0. -1.
    9900012    2    1    2    0    0  0.23546349059E+02 -0.11890504488E+02 -0.30941095133E+02  0.50528855653E+02  0.29999987244E+02 0.  0.
        -12    1    1    2    0    0 -0.23546349059E+02  0.11890504488E+02  0.30941095133E+02  0.40659144347E+02  0.00000000000E+00 0.  1.
         11    1    3    3    0    0  0.18709472712E+02 -0.86021609192E+01 -0.21543274426E+01  0.20704653309E+02  0.51100000000E-03 0. -1.
        -11    1    3    3    0    0  0.36874220302E+01 -0.22006281308E+01 -0.89756801398E+01  0.99500090268E+01  0.51100000000E-03 0.  1.
         12    1    3    3    0    0  0.11494543163E+01 -0.10877154380E+01 -0.19811087550E+02  0.19874193318E+02  0.00000000000E+00 0. -1.
</event>
<event>
 7    1  0.3129575E-011  0.5052887E+02  0.7816164E-02  0.1300439E+00
        -11   -1    0    0    0    0  0.00000000000E+00  0.00000000000E+00  0.45593999997E+02  0.45594000000E+02  0.51100000000E-03 0.  1.
         11   -1    0    0    0    0 -0.00000000000E+00 -0.00000000000E+00 -0.45593999997E+02  0.45594000000E+02  0.51100000000E-03 0. -1.
    9900012    2    1    2    0    0  0.71143490922E+01  0.20899938456E+02 -0.34142989652E+02  0.50528866550E+02  0.30000020366E+02 0.  0.
        -12    1    1    2    0    0 -0.71143490922E+01 -0.20899938456E+02  0.34142989652E+02  0.40659133450E+02  0.00000000000E+00 0.  1.
         11    1    3    3    0    0 -0.44063961979E+01  0.10440926741E+02 -0.66892001684E+01  0.13159585017E+02  0.51100000000E-03 0. -1.
        -11    1    3    3    0    0 -0.56546417951E+01  0.99411038320E+00 -0.61157551520E+01  0.83884259921E+01  0.51100000000E-03 0.  1.
        -12    1    3    3    0    0  0.17175387085E+02  0.94649013326E+01 -0.21338034332E+02  0.28980855541E+02  0.00000000000E+00 0.  1.
</event>
<event>
 7    1  0.3129575E-011  0.5052886E+02  0.7816164E-02  0.1300439E+00
        -11   -1    0    0    0    0  0.00000000000E+00  0.00000000000E+00  0.45593999997E+02  0.45594000000E+02  0.51100000000E-03 0.  1.
         11   -1    0    0    0    0 -0.00000000000E+00 -0.00000000000E+00 -0.45593999997E+02  0.45594000000E+02  0.51100000000E-03 0. -1.
    9900012    2    1    2    0    0 -0.24751934169E+02 -0.76947493884E+01 -0.31325679943E+02  0.50528860349E+02  0.30000001516E+02 0.  0.
        -12    1    1    2    0    0  0.24751934169E+02  0.76947493884E+01  0.31325679943E+02  0.40659139651E+02  0.00000000000E+00 0.  1.
         11    1    3    3    0    0 -0.88652901748E+01 -0.28052598141E+01 -0.15474367797E+02  0.18053224407E+02  0.51100000000E-03 0. -1.
        -11    1    3    3    0    0 -0.15037104815E+02 -0.23489784310E+01  0.11516208713E+01  0.15262976505E+02  0.51100000000E-03 0.  1.
         12    1    3    3    0    0 -0.84953917928E+00 -0.25405111433E+01 -0.17002933017E+02  0.17212659437E+02  0.00000000000E+00 0. -1.
</event>
<event>
 7    1  0.3129575E-011  0.5052888E+02  0.7816164E-02  0.1300439E+00
        -11   -1    0    0    0    0  0.00000000000E+00  0.00000000000E+00  0.45593999997E+02  0.45594000000E+02  0.51100000000E-03 0.  1.
         11   -1    0    0    0    0 -0.00000000000E+00 -0.00000000000E+00 -0.45593999997E+02  0.45594000000E+02  0.51100000000E-03 0. -1.
    9900012    2    1    2    0    0 -0.84289023916E+01  0.89707906211E+01 -0.38751027864E+02  0.50528884904E+02  0.30000076153E+02 0.  0.
        -12    1    1    2    0    0  0.84289023916E+01 -0.89707906211E+01  0.38751027864E+02  0.40659115096E+02  0.00000000000E+00 0.  1.
         11    1    3    3    0    0 -0.94877488558E+01  0.70645311627E+01 -0.23174318571E+01  0.12053857041E+02  0.51100000000E-03 0. -1.
        -11    1    3    3    0    0  0.52419336126E+01  0.48711793706E+01 -0.18990286778E+02  0.20293773642E+02  0.51100000000E-03 0.  1.
        -12    1    3    3    0    0 -0.41830871484E+01 -0.29649199122E+01 -0.17443309229E+02  0.18181254221E+02  0.00000000000E+00 0.  1.
</event>
<event>
 7    1  0.3129575E-011  0.5052886E+02  0.7816164E-02  0.1300439E+00
        -11   -1    0    0    0    0  0.00000000000E+00  0.00000000000E+00  0.45593999997E+02  0.45594000000E+02  0.51100000000E-03 0. -1.
         11   -1    0    0    0    0 -0.00000000000E+00 -0.00000000000E+00 -0.45593999997E+02  0.45594000000E+02  0.51100000000E-03 0.  1.
    9900012    2    1    2    0    0 -0.20454298284E+02 -0.12325530995E+02  0.32906974491E+02  0.50528855854E+02  0.29999987852E+02 0.  0.
        -12    1    1    2    0    0  0.20454298284E+02  0.12325530995E+02 -0.32906974491E+02  0.40659144146E+02  0.00000000000E+00 0.  1.
         11    1    3    3    0    0 -0.12502820865E+02 -0.69259526102E+00  0.12572051489E+01  0.12584942702E+02  0.51100000000E-03 0. -1.
        -11    1    3    3    0    0 -0.86667588686E+01 -0.77355045426E+01  0.83420658648E+01  0.14301776217E+02  0.51100000000E-03 0.  1.
         12    1    3    3    0    0  0.71528144923E+00 -0.38974311912E+01  0.23307703477E+02  0.23642136934E+02  0.00000000000E+00 0. -1.
</event>
<event>
 7    1  0.3129575E-011  0.5052886E+02  0.7816164E-02  0.1300439E+00
        -11   -1    0    0    0    0  0.00000000000E+00  0.00000000000E+00  0.45593999997E+02  0.45594000000E+02  0.51100000000E-03 0.  1.
         11   -1    0    0    0    0 -0.00000000000E+00 -0.00000000000E+00 -0.45593999997E+02  0.45594000000E+02  0.51100000000E-03 0. -1.
    9900012    2    1    2    0    0 -0.13324252010E+02  0.12655277342E+02 -0.36269466182E+02  0.50528856952E+02  0.29999991192E+02 0.  0.
        -12    1    1    2    0    0  0.13324252010E+02 -0.12655277342E+02  0.36269466182E+02  0.40659143048E+02  0.00000000000E+00 0.  1.
         11    1    3    3    0    0 -0.11551579067E+02  0.36072410409E+00 -0.27542766666E+02  0.29869266758E+02  0.51100000000E-03 0. -1.
        -11    1    3    3    0    0 -0.54678952796E+01 -0.35351917323E+00 -0.17636647976E+01  0.57561591685E+01  0.51100000000E-03 0.  1.
        -12    1    3    3    0    0  0.36952223369E+01  0.12648072411E+02 -0.69630347191E+01  0.14903431026E+02  0.00000000000E+00 0.  1.
</event>
<event>
 7    1  0.3129575E-011  0.5052885E+02  0.7816164E-02  0.1300439E+00
        -11   -1    0    0    0    0  0.00000000000E+00  0.00000000000E+00  0.45593999997E+02  0.45594000000E+02  0.51100000000E-03 0. -1.
         11   -1    0    0    0    0 -0.00000000000E+00 -0.00000000000E+00 -0.45593999997E+02  0.45594000000E+02  0.51100000000E-03 0.  1.
    9900012    2    1    2    0    0  0.29553903298E+02 -0.19628541957E+02  0.19860856956E+02  0.50528849757E+02  0.29999969320E+02 0.  0.
        -12    1    1    2    0    0 -0.29553903298E+02  0.19628541957E+02 -0.19860856956E+02  0.40659150243E+02  0.00000000000E+00 0.  1.
         11    1    3    3    0    0  0.13060576624E+02 -0.47539405198E+01  0.26915521210E+00  0.13901476792E+02  0.51100000000E-03 0. -1.
        -11    1    3    3    0    0  0.20238554758E+02 -0.14713350567E+02  0.20956185690E+02  0.32638068303E+02  0.51100000000E-03 0.  1.
        -12    1    3    3    0    0 -0.37452280842E+01 -0.16125087032E+00 -0.13644839458E+01  0.39893046617E+01  0.00000000000E+00 0.  1.
</event>
<event>
 7    1  0.3129575E-011  0.5052887E+02  0.7816164E-02  0.1300439E+00
        -11   -1    0    0    0    0  0.00000000000E+00  0.00000000000E+00  0.45593999997E+02  0.45594000000E+02  0.51100000000E-03 0.  1.
         11   -1    0    0    0    0 -0.00000000000E+00 -0.00000000000E+00 -0.45593999997E+02  0.45594000000E+02  0.51100000000E-03 0. -1.
    9900012    2    1    2    0    0 -0.68883603921E+01 -0.23002177254E+02 -0.32811812880E+02  0.50528871483E+02  0.30000035359E+02 0.  0.
        -12    1    1    2    0    0  0.68883603921E+01  0.23002177254E+02  0.32811812880E+02  0.40659128517E+02  0.00000000000E+00 0.  1.
         11    1    3    3    0    0 -0.92522154173E+01 -0.36176695437E+01 -0.72000431812E+01  0.12269133838E+02  0.51100000000E-03 0. -1.
        -11    1    3    3    0    0 -0.87741017549E+00  0.39846806619E+01 -0.74195748523E+01  0.84674447056E+01  0.51100000000E-03 0.  1.
         12    1    3    3    0    0  0.32412652007E+01 -0.23369188372E+02 -0.18192194846E+02  0.29792292940E+02  0.00000000000E+00 0. -1.
</event>
<event>
 7    1  0.3129575E-011  0.5052886E+02  0.7816164E-02  0.1300439E+00
        -11   -1    0    0    0    0  0.00000000000E+00  0.00000000000E+00  0.45593999997E+02  0.45594000000E+02  0.51100000000E-03 0. -1.
         11   -1    0    0    0    0 -0.00000000000E+00 -0.00000000000E+00 -0.45593999997E+02  0.45594000000E+02  0.51100000000E-03 0.  1.
    9900012    2    1    2    0    0 -0.34836178978E+02  0.10092056796E+01  0.20942490249E+02  0.50528858842E+02  0.29999996935E+02 0.  0.
        -12    1    1    2    0    0  0.34836178978E+02 -0.10092056796E+01 -0.20942490249E+02  0.40659141158E+02  0.00000000000E+00 0.  1.
         11    1    3    3    0    0 -0.29300302456E+01  0.50277572055E+01 -0.26976673573E+01  0.64141117225E+01  0.51100000000E-03 0. -1.
        -11    1    3    3    0    0 -0.80795675734E+01 -0.50923510990E+01 -0.12616727141E+01  0.96334453954E+01  0.51100000000E-03 0.  1.
         12    1    3    3    0    0 -0.23826581159E+02  0.10737995731E+01  0.24901830320E+02  0.34481301724E+02  0.00000000000E+00 0. -1.
</event>
<event>
 7    1  0.3129575E-011  0.5052886E+02  0.7816164E-02  0.1300439E+00
        -11   -1    0    0    0    0  0.00000000000E+00  0.00000000000E+00  0.45593999997E+02  0.45594000000E+02  0.51100000000E-03 0.  1.
         11   -1    0    0    0    0 -0.00000000000E+00 -0.00000000000E+00 -0.45593999997E+02  0.45594000000E+02  0.51100000000E-03 0. -1.
    9900012    2    1    2    0    0  0.16510645429E+02 -0.85016923391E+01 -0.36170227274E+02  0.50528861714E+02  0.30000005666E+02 0.  0.
        -12    1    1    2    0    0 -0.16510645429E+02  0.85016923391E+01  0.36170227274E+02  0.40659138286E+02  0.00000000000E+00 0.  1.
         11    1    3    3    0    0  0.85750817920E+01  0.82901336603E+01 -0.11869778889E+02  0.16827061389E+02  0.51100000000E-03 0. -1.
        -11    1    3    3    0    0 -0.81195036860E+00 -0.11201513356E+01  0.16476517138E+01  0.21514550534E+01  0.51100000000E-03 0.  1.
        -12    1    3    3    0    0  0.87475140059E+01 -0.15671674664E+02 -0.25948100098E+02  0.31550345272E+02  0.00000000000E+00 0.  1.
</event>
<event>
 7    1  0.3129575E-011  0.5052885E+02  0.7816164E-02  0.1300439E+00
        -11   -1    0    0    0    0  0.00000000000E+00  0.00000000000E+00  0.45593999997E+02  0.45594000000E+02  0.51100000000E-03 0.  1.
         11   -1    0    0    0    0 -0.00000000000E+00 -0.00000000000E+00 -0.45593999997E+02  0.45594000000E+02  0.51100000000E-03 0. -1.
    9900012    2    1    2    0    0 -0.37152052324E+02 -0.16514600793E+02  0.39921363569E+00  0.50528850934E+02  0.29999972898E+02 0.  0.
        -12    1    1    2    0    0  0.37152052324E+02  0.16514600793E+02 -0.39921363569E+00  0.40659149066E+02  0.00000000000E+00 0.  1.
         11    1    3    3    0    0 -0.16912086256E+02 -0.18987375789E+01  0.69970726276E+01  0.18400622042E+02  0.51100000000E-03 0.  1.
        -11    1    3    3    0    0 -0.22226402903E+02 -0.15566422600E+02 -0.22178971252E+01  0.27225825359E+02  0.51100000000E-03 0. -1.
         12    1    3    3    0    0  0.19864368346E+01  0.95055938573E+00 -0.43799618667E+01  0.49024035327E+01  0.00000000000E+00 0. -1.
</event>
<event>
 7    1  0.3129575E-011  0.5052886E+02  0.7816164E-02  0.1300439E+00
        -11   -1    0    0    0    0  0.00000000000E+00  0.00000000000E+00  0.45593999997E+02  0.45594000000E+02  0.51100000000E-03 0.  1.
         11   -1    0    0    0    0 -0.00000000000E+00 -0.00000000000E+00 -0.45593999997E+02  0.45594000000E+02  0.51100000000E-03 0. -1.
    9900012    2    1    2    0    0 -0.28923343041E+02 -0.27332718196E+02 -0.83383704267E+01  0.50528859847E+02  0.29999999990E+02 0.  0.
        -12    1    1    2    0    0  0.28923343041E+02  0.27332718196E+02  0.83383704267E+01  0.40659140153E+02  0.00000000000E+00 0.  1.
         11    1    3    3    0    0 -0.83323732381E+01 -0.35464143487E+01  0.94223430411E+01  0.13068513579E+02  0.51100000000E-03 0.  1.
        -11    1    3    3    0    0 -0.12030460005E+02 -0.11678111667E+02 -0.40143357643E+01  0.17240219023E+02  0.51100000000E-03 0. -1.
        -12    1    3    3    0    0 -0.85605097977E+01 -0.12108192179E+02 -0.13746377703E+02  0.20220127245E+02  0.00000000000E+00 0.  1.
</event>
<event>
 7    1  0.3129575E-011  0.5052886E+02  0.7816164E-02  0.1300439E+00
        -11   -1    0    0    0    0  0.00000000000E+00  0.00000000000E+00  0.45593999997E+02  0.45594000000E+02  0.51100000000E-03 0.  1.
         11   -1    0    0    0    0 -0.00000000000E+00 -0.00000000000E+00 -0.45593999997E+02  0.45594000000E+02  0.51100000000E-03 0. -1.
    9900012    2    1    2    0    0  0.29825157235E+01 -0.31648832693E+02 -0.25349980049E+02  0.50528862044E+02  0.30000006668E+02 0.  0.
        -12    1    1    2    0    0 -0.29825157235E+01  0.31648832693E+02  0.25349980049E+02  0.40659137956E+02  0.00000000000E+00 0.  1.
         11    1    3    3    0    0  0.71167084768E+00 -0.90404297760E+01 -0.10053588371E+02  0.13539220263E+02  0.51100000000E-03 0. -1.
        -11    1    3    3    0    0 -0.10353174721E+02 -0.52731914335E+01 -0.88234741202E+01  0.14589327281E+02  0.51100000000E-03 0.  1.
        -12    1    3    3    0    0  0.12624019597E+02 -0.17335211484E+02 -0.64729175581E+01  0.22400314500E+02  0.00000000000E+00 0.  1.
</event>
<event>
 7    1  0.3129575E-011  0.5052892E+02  0.7816164E-02  0.1300439E+00
        -11   -1    0    0    0    0  0.00000000000E+00  0.00000000000E+00  0.45593999997E+02  0.45594000000E+02  0.51100000000E-03 0.  1.
         11   -1    0    0    0    0 -0.00000000000E+00 -0.00000000000E+00 -0.45593999997E+02  0.45594000000E+02  0.51100000000E-03 0. -1.
    9900012    2    1    2    0    0  0.18620842636E+02  0.43812403325E+01 -0.35877988856E+02  0.50528915755E+02  0.30000169928E+02 0.  0.
        -12    1    1    2    0    0 -0.18620842636E+02 -0.43812403325E+01  0.35877988856E+02  0.40659084245E+02  0.00000000000E+00 0.  1.
         11    1    3    3    0    0  0.11032036062E+02  0.38011198250E+01 -0.17819460053E+02  0.21299941043E+02  0.51100000000E-03 0. -1.
        -11    1    3    3    0    0 -0.11445832779E+01  0.90433548661E+01 -0.13398621562E+02  0.16205412619E+02  0.51100000000E-03 0.  1.
         12    1    3    3    0    0  0.87333898511E+01 -0.84632343586E+01 -0.46599072407E+01  0.13023562093E+02  0.00000000000E+00 0. -1.
</event>
<event>
 7    1  0.3129575E-011  0.5052886E+02  0.7816164E-02  0.1300439E+00
        -11   -1    0    0    0    0  0.00000000000E+00  0.00000000000E+00  0.45593999997E+02  0.45594000000E+02  0.51100000000E-03 0. -1.
         11   -1    0    0    0    0 -0.00000000000E+00 -0.00000000000E+00 -0.45593999997E+02  0.45594000000E+02  0.51100000000E-03 0.  1.
    9900012    2    1    2    0    0  0.65427920119E+01 -0.35278471825E+02 -0.19125560562E+02  0.50528858734E+02  0.29999996609E+02 0.  0.
        -12    1    1    2    0    0 -0.65427920119E+01  0.35278471825E+02  0.19125560562E+02  0.40659141266E+02  0.00000000000E+00 0.  1.
         11    1    3    3    0    0 -0.98911696781E+00 -0.38711308944E+01  0.51814764371E+01  0.65430654212E+01  0.51100000000E-03 0. -1.
        -11    1    3    3    0    0  0.88140467191E+01 -0.72924623746E+01 -0.31136705713E+01  0.11855900292E+02  0.51100000000E-03 0.  1.
         12    1    3    3    0    0 -0.12821377394E+01 -0.24114878556E+02 -0.21193366428E+02  0.32129893021E+02  0.00000000000E+00 0. -1.
</event>
<event>
 7    1  0.3129575E-011  0.5052886E+02  0.7816164E-02  0.1300439E+00
        -11   -1    0    0    0    0  0.00000000000E+00  0.00000000000E+00  0.45593999997E+02  0.45594000000E+02  0.51100000000E-03 0. -1.
         11   -1    0    0    0    0 -0.00000000000E+00 -0.00000000000E+00 -0.45593999997E+02  0.45594000000E+02  0.51100000000E-03 0.  1.
    9900012    2    1    2    0    0 -0.19333053430E+02  0.10097676563E+02  0.34313777864E+02  0.50528863533E+02  0.30000011196E+02 0.  0.
        -12    1    1    2    0    0  0.19333053430E+02 -0.10097676563E+02 -0.34313777864E+02  0.40659136467E+02  0.00000000000E+00 0.  1.
         11    1    3    3    0    0 -0.14810174665E+01  0.28866356847E+01  0.63107372807E+00  0.33051978191E+01  0.51100000000E-03 0. -1.
        -11    1    3    3    0    0 -0.21935953578E+01  0.14910705413E+02  0.11267646592E+02  0.18817567762E+02  0.51100000000E-03 0.  1.
         12    1    3    3    0    0 -0.15658440606E+02 -0.76996645348E+01  0.22415057544E+02  0.28406097952E+02  0.00000000000E+00 0. -1.
</event>
<event>
 7    1  0.3129575E-011  0.5052886E+02  0.7816164E-02  0.1300439E+00
        -11   -1    0    0    0    0  0.00000000000E+00  0.00000000000E+00  0.45593999997E+02  0.45594000000E+02  0.51100000000E-03 0.  1.
         11   -1    0    0    0    0 -0.00000000000E+00 -0.00000000000E+00 -0.45593999997E+02  0.45594000000E+02  0.51100000000E-03 0. -1.
    9900012    2    1    2    0    0 -0.29207447312E+02  0.22220541024E+02 -0.17502513478E+02  0.50528863266E+02  0.30000010384E+02 0.  0.
        -12    1    1    2    0    0  0.29207447312E+02 -0.22220541024E+02  0.17502513478E+02  0.40659136734E+02  0.00000000000E+00 0.  1.
         11    1    3    3    0    0 -0.13662194049E+02  0.11640330670E+02 -0.14972526123E+02  0.23373689976E+02  0.51100000000E-03 0. -1.
        -11    1    3    3    0    0  0.20717075187E+01  0.81107744772E+01  0.23760701267E+01  0.87018586619E+01  0.51100000000E-03 0.  1.
         12    1    3    3    0    0 -0.17616960782E+02  0.24694358767E+01 -0.49060574816E+01  0.18453314628E+02  0.00000000000E+00 0. -1.
</event>
<event>
 7    1  0.3129575E-011  0.5052886E+02  0.7816164E-02  0.1300439E+00
        -11   -1    0    0    0    0  0.00000000000E+00  0.00000000000E+00  0.45593999997E+02  0.45594000000E+02  0.51100000000E-03 0. -1.
         11   -1    0    0    0    0 -0.00000000000E+00 -0.00000000000E+00 -0.45593999997E+02  0.45594000000E+02  0.51100000000E-03 0.  1.
    9900012    2    1    2    0    0 -0.36021540985E+01 -0.26326298401E+02 -0.30775251111E+02  0.50528861020E+02  0.30000003557E+02 0.  0.
        -12    1    1    2    0    0  0.36021540985E+01  0.26326298401E+02  0.30775251111E+02  0.40659138980E+02  0.00000000000E+00 0.  1.
         11    1    3    3    0    0 -0.43267670373E+01 -0.19961762762E+01  0.20865424737E+01  0.52018547150E+01  0.51100000000E-03 0.  1.
        -11    1    3    3    0    0 -0.91176685763E+01 -0.10531398458E+02 -0.18179782176E+02  0.22902984827E+02  0.51100000000E-03 0. -1.
        -12    1    3    3    0    0  0.98422815151E+01 -0.13798723667E+02 -0.14682011408E+02  0.22424021478E+02  0.00000000000E+00 0.  1.
</event>
<event>
 7    1  0.3129575E-011  0.5052886E+02  0.7816164E-02  0.1300439E+00
        -11   -1    0    0    0    0  0.00000000000E+00  0.00000000000E+00  0.45593999997E+02  0.45594000000E+02  0.51100000000E-03 0. -1.
         11   -1    0    0    0    0 -0.00000000000E+00 -0.00000000000E+00 -0.45593999997E+02  0.45594000000E+02  0.51100000000E-03 0.  1.
    9900012    2    1    2    0    0 -0.13422047436E+02  0.35997150169E+02  0.13312382665E+02  0.50528859455E+02  0.29999998798E+02 0.  0.
        -12    1    1    2    0    0  0.13422047436E+02 -0.35997150169E+02 -0.13312382665E+02  0.40659140545E+02  0.00000000000E+00 0.  1.
         11    1    3    3    0    0 -0.28183938636E+01  0.14121163812E+01 -0.15821607617E+01  0.35271305025E+01  0.51100000000E-03 0. -1.
        -11    1    3    3    0    0 -0.14946100437E+02  0.18182421251E+02 -0.12641701730E+01  0.23570839767E+02  0.51100000000E-03 0.  1.
         12    1    3    3    0    0  0.43424468647E+01  0.16402612537E+02  0.16158713600E+02  0.23430889185E+02  0.00000000000E+00 0. -1.
</event>
<event>
 7    1  0.3129575E-011  0.5052886E+02  0.7816164E-02  0.1300439E+00
        -11   -1    0    0    0    0  0.00000000000E+00  0.00000000000E+00  0.45593999997E+02  0.45594000000E+02  0.51100000000E-03 0. -1.
         11   -1    0    0    0    0 -0.00000000000E+00 -0.00000000000E+00 -0.45593999997E+02  0.45594000000E+02  0.51100000000E-03 0.  1.
    9900012    2    1    2    0    0 -0.32866271589E+01 -0.29264895145E+02  0.28034443870E+02  0.50528855284E+02  0.29999986121E+02 0.  0.
        -12    1    1    2    0    0  0.32866271589E+01  0.29264895145E+02 -0.28034443870E+02  0.40659144716E+02  0.00000000000E+00 0.  1.
         11    1    3    3    0    0  0.19946914316E+01  0.28273135071E+01  0.31794683015E+01  0.46990972022E+01  0.51100000000E-03 0. -1.
        -11    1    3    3    0    0  0.48504432816E+01 -0.81372056854E+01 -0.52695129237E+00  0.94878129366E+01  0.51100000000E-03 0.  1.
         12    1    3    3    0    0 -0.10131761872E+02 -0.23955002967E+02  0.25381926861E+02  0.36341945145E+02  0.00000000000E+00 0. -1.
</event>
<event>
 7    1  0.3129575E-011  0.5052886E+02  0.7816164E-02  0.1300439E+00
        -11   -1    0    0    0    0  0.00000000000E+00  0.00000000000E+00  0.45593999997E+02  0.45594000000E+02  0.51100000000E-03 0. -1.
         11   -1    0    0    0    0 -0.00000000000E+00 -0.00000000000E+00 -0.45593999997E+02  0.45594000000E+02  0.51100000000E-03 0.  1.
    9900012    2    1    2    0    0 -0.27603892199E+02  0.18119093930E+02 -0.23725290296E+02  0.50528857990E+02  0.29999994346E+02 0.  0.
        -12    1    1    2    0    0  0.27603892199E+02 -0.18119093930E+02  0.23725290296E+02  0.40659142010E+02  0.00000000000E+00 0.  1.
         11    1    3    3    0    0 -0.37605136896E+01  0.94283026959E+01  0.15306747854E+01  0.10265345610E+02  0.51100000000E-03 0. -1.
        -11    1    3    3    0    0 -0.34041131339E+01 -0.54077390282E+01 -0.67569587757E+01  0.92998989125E+01  0.51100000000E-03 0.  1.
        -12    1    3    3    0    0 -0.20439265376E+02  0.14098530262E+02 -0.18499006305E+02  0.30963613467E+02  0.00000000000E+00 0.  1.
</event>
<event>
 7    1  0.3129575E-011  0.5052884E+02  0.7816164E-02  0.1300439E+00
        -11   -1    0    0    0    0  0.00000000000E+00  0.00000000000E+00  0.45593999997E+02  0.45594000000E+02  0.51100000000E-03 0.  1.
         11   -1    0    0    0    0 -0.00000000000E+00 -0.00000000000E+00 -0.45593999997E+02  0.45594000000E+02  0.51100000000E-03 0. -1.
    9900012    2    1    2    0    0 -0.11055568804E+02 -0.11692433878E+02 -0.37339376180E+02  0.50528835902E+02  0.29999927209E+02 0.  0.
        -12    1    1    2    0    0  0.11055568804E+02  0.11692433878E+02  0.37339376180E+02  0.40659164098E+02  0.00000000000E+00 0.  1.
         11    1    3    3    0    0 -0.39527285716E+01 -0.16218318485E+02 -0.25688735602E+02  0.30636074401E+02  0.51100000000E-03 0. -1.
        -11    1    3    3    0    0  0.23472404640E+00 -0.25923596892E+01  0.16766025839E+01  0.30961945387E+01  0.51100000000E-03 0.  1.
         12    1    3    3    0    0 -0.73375642788E+01  0.71182442961E+01 -0.13327243163E+02  0.16796566962E+02  0.00000000000E+00 0. -1.
</event>
<event>
 7    1  0.3129575E-011  0.5052886E+02  0.7816164E-02  0.1300439E+00
        -11   -1    0    0    0    0  0.00000000000E+00  0.00000000000E+00  0.45593999997E+02  0.45594000000E+02  0.51100000000E-03 0.  1.
         11   -1    0    0    0    0 -0.00000000000E+00 -0.00000000000E+00 -0.45593999997E+02  0.45594000000E+02  0.51100000000E-03 0. -1.
    9900012    2    1    2    0    0 -0.12238981950E+02  0.10324738474E+02 -0.37373419429E+02  0.50528863468E+02  0.30000010996E+02 0.  0.
        -12    1    1    2    0    0  0.12238981950E+02 -0.10324738474E+02  0.37373419429E+02  0.40659136532E+02  0.00000000000E+00 0.  1.
         11    1    3    3    0    0 -0.85421766999E+01  0.86675299883E+01 -0.12427562240E+02  0.17393652933E+02  0.51100000000E-03 0. -1.
        -11    1    3    3    0    0 -0.80289181185E+01  0.86289042171E+01 -0.78221950787E+01  0.14145962330E+02  0.51100000000E-03 0.  1.
         12    1    3    3    0    0  0.43321128686E+01 -0.69716957313E+01 -0.17123662111E+02  0.18989248204E+02  0.00000000000E+00 0. -1.
</event>
<event>
 7    1  0.3129575E-011  0.5052886E+02  0.7816164E-02  0.1300439E+00
        -11   -1    0    0    0    0  0.00000000000E+00  0.00000000000E+00  0.45593999997E+02  0.45594000000E+02  0.51100000000E-03 0.  1.
         11   -1    0    0    0    0 -0.00000000000E+00 -0.00000000000E+00 -0.45593999997E+02  0.45594000000E+02  0.51100000000E-03 0. -1.
    9900012    2    1    2    0    0  0.12292236997E+02 -0.33185745209E+02 -0.20019307204E+02  0.50528862818E+02  0.30000009020E+02 0.  0.
        -12    1    1    2    0    0 -0.12292236997E+02  0.33185745209E+02  0.20019307204E+02  0.40659137182E+02  0.00000000000E+00 0.  1.
         11    1    3    3    0    0  0.12701488944E+02 -0.10407145485E+02 -0.11874998317E+01  0.16463494606E+02  0.51100000000E-03 0. -1.
        -11    1    3    3    0    0  0.77826889603E+01 -0.64839113576E+01 -0.61294419429E+01  0.11839823172E+02  0.51100000000E-03 0.  1.
         12    1    3    3    0    0 -0.81919409072E+01 -0.16294688367E+02 -0.12702365430E+02  0.22225545040E+02  0.00000000000E+00 0. -1.
</event>
<event>
 7    1  0.3129575E-011  0.5052887E+02  0.7816164E-02  0.1300439E+00
        -11   -1    0    0    0    0  0.00000000000E+00  0.00000000000E+00  0.45593999997E+02  0.45594000000E+02  0.51100000000E-03 0. -1.
         11   -1    0    0    0    0 -0.00000000000E+00 -0.00000000000E+00 -0.45593999997E+02  0.45594000000E+02  0.51100000000E-03 0.  1.
    9900012    2    1    2    0    0 -0.22966685474E+02  0.12444013006E+02  0.31158350502E+02  0.50528869323E+02  0.30000028795E+02 0.  0.
        -12    1    1    2    0    0  0.22966685474E+02 -0.12444013006E+02 -0.31158350502E+02  0.40659130677E+02  0.00000000000E+00 0.  1.
         11    1    3    3    0    0 -0.12621859872E+02  0.39747697647E+01  0.10523111122E+02  0.16906981081E+02  0.51100000000E-03 0. -1.
        -11    1    3    3    0    0 -0.33091717708E+01  0.11215578877E+02  0.22920470417E+02  0.25731066666E+02  0.51100000000E-03 0.  1.
         12    1    3    3    0    0 -0.70356538315E+01 -0.27463356360E+01 -0.22852310372E+01  0.78908215767E+01  0.00000000000E+00 0. -1.
</event>
<event>
 7    1  0.3129575E-011  0.5052886E+02  0.7816164E-02  0.1300439E+00
        -11   -1    0    0    0    0  0.00000000000E+00  0.00000000000E+00  0.45593999997E+02  0.45594000000E+02  0.51100000000E-03 0. -1.
         11   -1    0    0    0    0 -0.00000000000E+00 -0.00000000000E+00 -0.45593999997E+02  0.45594000000E+02  0.51100000000E-03 0.  1.
    9900012    2    1    2    0    0 -0.35608349285E+01 -0.11944536156E+02  0.38701605596E+02  0.50528858776E+02  0.29999996735E+02 0.  0.
        -12    1    1    2    0    0  0.35608349285E+01  0.11944536156E+02 -0.38701605596E+02  0.40659141224E+02  0.00000000000E+00 0.  1.
         11    1    3    3    0    0 -0.70027869420E+01 -0.71707827912E+01  0.25668947799E+02  0.27556379156E+02  0.51100000000E-03 0. -1.
        -11    1    3    3    0    0 -0.51033787539E+00 -0.11217703521E+02  0.90859462696E+01  0.14444782342E+02  0.51100000000E-03 0.  1.
        -12    1    3    3    0    0  0.39522898889E+01  0.64439501564E+01  0.39467115268E+01  0.85276972777E+01  0.00000000000E+00 0.  1.
</event>
<event>
 7    1  0.3129575E-011  0.5052887E+02  0.7816164E-02  0.1300439E+00
        -11   -1    0    0    0    0  0.00000000000E+00  0.00000000000E+00  0.45593999997E+02  0.45594000000E+02  0.51100000000E-03 0.  1.
         11   -1    0    0    0    0 -0.00000000000E+00 -0.00000000000E+00 -0.45593999997E+02  0.45594000000E+02  0.51100000000E-03 0. -1.
    9900012    2    1    2    0    0 -0.17521336782E+02 -0.14332155844E+02 -0.33775094488E+02  0.50528868904E+02  0.30000027521E+02 0.  0.
        -12    1    1    2    0    0  0.17521336782E+02  0.14332155844E+02  0.33775094488E+02  0.40659131096E+02  0.00000000000E+00 0.  1.
         11    1    3    3    0    0 -0.11473910297E+02 -0.43875278315E+01 -0.16163149089E+02  0.20301438538E+02  0.51100000000E-03 0. -1.
        -11    1    3    3    0    0 -0.11541660423E+02 -0.18040748653E+01 -0.21018733689E+01  0.11869392712E+02  0.51100000000E-03 0.  1.
         12    1    3    3    0    0  0.54942339378E+01 -0.81405531472E+01 -0.15510072030E+02  0.18358037654E+02  0.00000000000E+00 0. -1.
</event>
<event>
 7    1  0.3129575E-011  0.5052886E+02  0.7816164E-02  0.1300439E+00
        -11   -1    0    0    0    0  0.00000000000E+00  0.00000000000E+00  0.45593999997E+02  0.45594000000E+02  0.51100000000E-03 0.  1.
         11   -1    0    0    0    0 -0.00000000000E+00 -0.00000000000E+00 -0.45593999997E+02  0.45594000000E+02  0.51100000000E-03 0. -1.
    9900012    2    1    2    0    0  0.37120504916E+01  0.28766912959E+02  0.28493006630E+02  0.50528855556E+02  0.29999986949E+02 0.  0.
        -12    1    1    2    0    0 -0.37120504916E+01 -0.28766912959E+02 -0.28493006630E+02  0.40659144444E+02  0.00000000000E+00 0.  1.
         11    1    3    3    0    0  0.48161361825E+01  0.17782893599E+02  0.23338406149E+02  0.29733948179E+02  0.51100000000E-03 0. -1.
        -11    1    3    3    0    0  0.23414355280E+01  0.14415048204E+02  0.61252676686E+01  0.15836503381E+02  0.51100000000E-03 0.  1.
        -12    1    3    3    0    0 -0.34455212189E+01 -0.34310288442E+01 -0.97066718749E+00  0.49584039961E+01  0.00000000000E+00 0.  1.
</event>
<event>
 7    1  0.3129575E-011  0.5052886E+02  0.7816164E-02  0.1300439E+00
        -11   -1    0    0    0    0  0.00000000000E+00  0.00000000000E+00  0.45593999997E+02  0.45594000000E+02  0.51100000000E-03 0.  1.
         11   -1    0    0    0    0 -0.00000000000E+00 -0.00000000000E+00 -0.45593999997E+02  0.45594000000E+02  0.51100000000E-03 0. -1.
    9900012    2    1    2    0    0  0.32185758993E+02  0.24679994798E+02 -0.28531824271E+01  0.50528857423E+02  0.29999992622E+02 0.  0.
        -12    1    1    2    0    0 -0.32185758993E+02 -0.24679994798E+02  0.28531824271E+01  0.40659142577E+02  0.00000000000E+00 0.  1.
         11    1    3    3    0    0  0.14827105971E+02 -0.26562054222E+01  0.84520275793E+00  0.15086844159E+02  0.51100000000E-03 0.  1.
        -11    1    3    3    0    0  0.15538693468E+02  0.12479566356E+02  0.36351699838E+00  0.19932955526E+02  0.51100000000E-03 0. -1.
        -12    1    3    3    0    0  0.18199595535E+01  0.14856633865E+02 -0.40619021834E+01  0.15509057738E+02  0.00000000000E+00 0.  1.
</event>
<event>
 7    1  0.3129575E-011  0.5052886E+02  0.7816164E-02  0.1300439E+00
        -11   -1    0    0    0    0  0.00000000000E+00  0.00000000000E+00  0.45593999997E+02  0.45594000000E+02  0.51100000000E-03 0. -1.
         11   -1    0    0    0    0 -0.00000000000E+00 -0.00000000000E+00 -0.45593999997E+02  0.45594000000E+02  0.51100000000E-03 0.  1.
    9900012    2    1    2    0    0 -0.10917282454E+02 -0.20430295901E+02 -0.33415295672E+02  0.50528855498E+02  0.29999986772E+02 0.  0.
        -12    1    1    2    0    0  0.10917282454E+02  0.20430295901E+02  0.33415295672E+02  0.40659144502E+02  0.00000000000E+00 0.  1.
         11    1    3    3    0    0 -0.86247365032E+01  0.16432360124E+01 -0.32728804914E+01  0.93700614360E+01  0.51100000000E-03 0. -1.
        -11    1    3    3    0    0 -0.90529580982E+01 -0.90917179958E+01 -0.10035981234E+02  0.16289146879E+02  0.51100000000E-03 0.  1.
        -12    1    3    3    0    0  0.67604121478E+01 -0.12981813918E+02 -0.20106433946E+02  0.24869647183E+02  0.00000000000E+00 0.  1.
</event>
<event>
 7    1  0.3129575E-011  0.5052886E+02  0.7816164E-02  0.1300439E+00
        -11   -1    0    0    0    0  0.00000000000E+00  0.00000000000E+00  0.45593999997E+02  0.45594000000E+02  0.51100000000E-03 0.  1.
         11   -1    0    0    0    0 -0.00000000000E+00 -0.00000000000E+00 -0.45593999997E+02  0.45594000000E+02  0.51100000000E-03 0. -1.
    9900012    2    1    2    0    0  0.29997851382E+02 -0.25381870696E+02 -0.10442965714E+02  0.50528856128E+02  0.29999988686E+02 0.  0.
        -12    1    1    2    0    0 -0.29997851382E+02  0.25381870696E+02  0.10442965714E+02  0.40659143872E+02  0.00000000000E+00 0.  1.
         11    1    3    3    0    0  0.24145853698E+02 -0.20873296822E+02 -0.12354884986E+02  0.34225136293E+02  0.51100000000E-03 0. -1.
        -11    1    3    3    0    0  0.69862957366E+01 -0.34006552771E+01  0.73157515077E+01  0.10672066567E+02  0.51100000000E-03 0.  1.
        -12    1    3    3    0    0 -0.11342980525E+01 -0.11079185967E+01 -0.54038322360E+01  0.56316532674E+01  0.00000000000E+00 0.  1.
</event>
<event>
 7    1  0.3129575E-011  0.5052886E+02  0.7816164E-02  0.1300439E+00
        -11   -1    0    0    0    0  0.00000000000E+00  0.00000000000E+00  0.45593999997E+02  0.45594000000E+02  0.51100000000E-03 0. -1.
         11   -1    0    0    0    0 -0.00000000000E+00 -0.00000000000E+00 -0.45593999997E+02  0.45594000000E+02  0.51100000000E-03 0.  1.
    9900012    2    1    2    0    0 -0.20348158828E+02 -0.30194342878E+02  0.18094746495E+02  0.50528858835E+02  0.29999996915E+02 0.  0.
        -12    1    1    2    0    0  0.20348158828E+02  0.30194342878E+02 -0.18094746495E+02  0.40659141165E+02  0.00000000000E+00 0.  1.
         11    1    3    3    0    0 -0.29905534195E+01 -0.84997263017E+01  0.13568243504E+02  0.16287602310E+02  0.51100000000E-03 0. -1.
        -11    1    3    3    0    0  0.22160818580E+01 -0.10184925844E+02 -0.20036105038E+01  0.10614056178E+02  0.51100000000E-03 0.  1.
        -12    1    3    3    0    0 -0.19573687267E+02 -0.11509690733E+02  0.65301134954E+01  0.23627200347E+02  0.00000000000E+00 0.  1.
</event>
<event>
 7    1  0.3559020E-011  0.5052889E+02  0.7816164E-02  0.1300439E+00
        -11   -1    0    0    0    0  0.00000000000E+00  0.00000000000E+00  0.45593999997E+02  0.45594000000E+02  0.51100000000E-03 0. -1.
         11   -1    0    0    0    0 -0.00000000000E+00 -0.00000000000E+00 -0.45593999997E+02  0.45594000000E+02  0.51100000000E-03 0.  1.
    9900012    2    1    2    0    0  0.38824831876E+02  0.88799855369E-01  0.12074256484E+02  0.50528891239E+02  0.30000095408E+02 0.  0.
        -12    1    1    2    0    0 -0.38824831876E+02 -0.88799855369E-01 -0.12074256484E+02  0.40659108761E+02  0.00000000000E+00 0.  1.
         11    1    3    3    0    0  0.19106924807E+02 -0.32671222898E+01  0.33251430016E+01  0.19667364843E+02  0.51100000000E-03 0. -1.
        -11    1    3    3    0    0  0.34902764570E-01 -0.63990279971E+01 -0.15729890551E+01  0.65896185276E+01  0.51100000000E-03 0.  1.
         12    1    3    3    0    0  0.19683004305E+02  0.97549501423E+01  0.10322102538E+02  0.24271907868E+02  0.00000000000E+00 0. -1.
</event>
<event>
 7    1  0.3129575E-011  0.5052889E+02  0.7816164E-02  0.1300439E+00
        -11   -1    0    0    0    0  0.00000000000E+00  0.00000000000E+00  0.45593999997E+02  0.45594000000E+02  0.51100000000E-03 0.  1.
         11   -1    0    0    0    0 -0.00000000000E+00 -0.00000000000E+00 -0.45593999997E+02  0.45594000000E+02  0.51100000000E-03 0. -1.
    9900012    2    1    2    0    0 -0.93240768630E+01  0.31810608985E+02 -0.23543794232E+02  0.50528886628E+02  0.30000081395E+02 0.  0.
        -12    1    1    2    0    0  0.93240768630E+01 -0.31810608985E+02  0.23543794232E+02  0.40659113372E+02  0.00000000000E+00 0.  1.
         11    1    3    3    0    0 -0.25682353362E+01  0.17186426249E+01 -0.29964771580E+01  0.43044675436E+01  0.51100000000E-03 0. -1.
        -11    1    3    3    0    0  0.31180924063E+01  0.26661191079E+02 -0.47167893127E+01  0.27254168703E+02  0.51100000000E-03 0.  1.
        -12    1    3    3    0    0 -0.98739339330E+01  0.34307752811E+01 -0.15830527761E+02  0.18970250382E+02  0.00000000000E+00 0.  1.
</event>
<event>
 7    1  0.3129575E-011  0.5052884E+02  0.7816164E-02  0.1300439E+00
        -11   -1    0    0    0    0  0.00000000000E+00  0.00000000000E+00  0.45593999997E+02  0.45594000000E+02  0.51100000000E-03 0. -1.
         11   -1    0    0    0    0 -0.00000000000E+00 -0.00000000000E+00 -0.45593999997E+02  0.45594000000E+02  0.51100000000E-03 0.  1.
    9900012    2    1    2    0    0 -0.25988880822E+02 -0.23356568291E+02  0.20789805621E+02  0.50528840805E+02  0.29999942111E+02 0.  0.
        -12    1    1    2    0    0  0.25988880822E+02  0.23356568291E+02 -0.20789805621E+02  0.40659159195E+02  0.00000000000E+00 0.  1.
         11    1    3    3    0    0 -0.16090233139E+01  0.33816997795E+01 -0.29443974643E+00  0.37565335682E+01  0.51100000000E-03 0. -1.
        -11    1    3    3    0    0  0.22302228213E+01 -0.10082452342E+02  0.44432196053E+01  0.11241527466E+02  0.51100000000E-03 0.  1.
         12    1    3    3    0    0 -0.26610080329E+02 -0.16655815728E+02  0.16641025762E+02  0.35530779771E+02  0.00000000000E+00 0. -1.
</event>
<event>
 7    1  0.3129575E-011  0.5052886E+02  0.7816164E-02  0.1300439E+00
        -11   -1    0    0    0    0  0.00000000000E+00  0.00000000000E+00  0.45593999997E+02  0.45594000000E+02  0.51100000000E-03 0.  1.
         11   -1    0    0    0    0 -0.00000000000E+00 -0.00000000000E+00 -0.45593999997E+02  0.45594000000E+02  0.51100000000E-03 0. -1.
    9900012    2    1    2    0    0  0.12073680115E+02 -0.23994842854E+02 -0.30522766985E+02  0.50528861550E+02  0.30000005167E+02 0.  0.
        -12    1    1    2    0    0 -0.12073680115E+02  0.23994842854E+02  0.30522766985E+02  0.40659138450E+02  0.00000000000E+00 0.  1.
         11    1    3    3    0    0  0.11404054353E+02 -0.12248209681E+02 -0.15874815155E+02  0.23066877823E+02  0.51100000000E-03 0. -1.
        -11    1    3    3    0    0  0.15971174882E+01 -0.50693912185E+01 -0.18805180294E+02  0.19541860652E+02  0.51100000000E-03 0.  1.
        -12    1    3    3    0    0 -0.92749172530E+00 -0.66772419541E+01  0.41572284638E+01  0.79201230745E+01  0.00000000000E+00 0.  1.
</event>
<event>
 7    1  0.3129575E-011  0.5052885E+02  0.7816164E-02  0.1300439E+00
        -11   -1    0    0    0    0  0.00000000000E+00  0.00000000000E+00  0.45593999997E+02  0.45594000000E+02  0.51100000000E-03 0.  1.
         11   -1    0    0    0    0 -0.00000000000E+00 -0.00000000000E+00 -0.45593999997E+02  0.45594000000E+02  0.51100000000E-03 0. -1.
    9900012    2    1    2    0    0  0.10256667540E+02 -0.38518552716E+02 -0.80179880889E+01  0.50528852624E+02  0.29999978034E+02 0.  0.
        -12    1    1    2    0    0 -0.10256667540E+02  0.38518552716E+02  0.80179880889E+01  0.40659147376E+02  0.00000000000E+00 0.  1.
         11    1    3    3    0    0  0.30627562419E+01 -0.19899060803E+01 -0.67241824851E+01  0.76521129343E+01  0.51100000000E-03 0. -1.
        -11    1    3    3    0    0  0.13048572339E+02 -0.13242656989E+02 -0.28833117898E+01  0.18813471008E+02  0.51100000000E-03 0.  1.
        -12    1    3    3    0    0 -0.58546610404E+01 -0.23285989647E+02  0.15895061859E+01  0.24063268682E+02  0.00000000000E+00 0.  1.
</event>
<event>
 7    1  0.3129575E-011  0.5052887E+02  0.7816164E-02  0.1300439E+00
        -11   -1    0    0    0    0  0.00000000000E+00  0.00000000000E+00  0.45593999997E+02  0.45594000000E+02  0.51100000000E-03 0.  1.
         11   -1    0    0    0    0 -0.00000000000E+00 -0.00000000000E+00 -0.45593999997E+02  0.45594000000E+02  0.51100000000E-03 0. -1.
    9900012    2    1    2    0    0  0.14675903243E+02  0.95623054775E+01 -0.36692575603E+02  0.50528869089E+02  0.30000028084E+02 0.  0.
        -12    1    1    2    0    0 -0.14675903243E+02 -0.95623054775E+01  0.36692575603E+02  0.40659130911E+02  0.00000000000E+00 0.  1.
         11    1    3    3    0    0  0.70658521382E+01  0.74648650319E+01 -0.81301800196E+01  0.13105354013E+02  0.51100000000E-03 0. -1.
        -11    1    3    3    0    0 -0.99898932794E+00  0.26649736710E+01  0.33324281776E+01  0.43823671873E+01  0.51100000000E-03 0.  1.
         12    1    3    3    0    0  0.86090404329E+01 -0.56753322535E+00 -0.31894823761E+02  0.33041147890E+02  0.00000000000E+00 0. -1.
</event>
<event>
 7    1  0.3129575E-011  0.5052886E+02  0.7816164E-02  0.1300439E+00
        -11   -1    0    0    0    0  0.00000000000E+00  0.00000000000E+00  0.45593999997E+02  0.45594000000E+02  0.51100000000E-03 0.  1.
         11   -1    0    0    0    0 -0.00000000000E+00 -0.00000000000E+00 -0.45593999997E+02  0.45594000000E+02  0.51100000000E-03 0. -1.
    9900012    2    1    2    0    0  0.24627062202E+02 -0.25927731855E+02 -0.19350100760E+02  0.50528857470E+02  0.29999992766E+02 0.  0.
        -12    1    1    2    0    0 -0.24627062202E+02  0.25927731855E+02  0.19350100760E+02  0.40659142530E+02  0.00000000000E+00 0.  1.
         11    1    3    3    0    0  0.10006081506E+02 -0.19620243277E+02 -0.40344718154E+01  0.22390903877E+02  0.51100000000E-03 0. -1.
        -11    1    3    3    0    0  0.69580821651E+01 -0.63322350336E+01 -0.17757132351E+02  0.20095468582E+02  0.51100000000E-03 0.  1.
         12    1    3    3    0    0  0.76628985308E+01  0.24746455249E-01  0.24415034058E+01  0.80424850115E+01  0.00000000000E+00 0. -1.
</event>
<event>
 7    1  0.3129575E-011  0.5052889E+02  0.7816164E-02  0.1300439E+00
        -11   -1    0    0    0    0  0.00000000000E+00  0.00000000000E+00  0.45593999997E+02  0.45594000000E+02  0.51100000000E-03 0.  1.
         11   -1    0    0    0    0 -0.00000000000E+00 -0.00000000000E+00 -0.45593999997E+02  0.45594000000E+02  0.51100000000E-03 0. -1.
    9900012    2    1    2    0    0 -0.17395297840E+02  0.26467466978E+02 -0.25495887197E+02  0.50528887133E+02  0.30000082929E+02 0.  0.
        -12    1    1    2    0    0  0.17395297840E+02 -0.26467466978E+02  0.25495887197E+02  0.40659112867E+02  0.00000000000E+00 0.  1.
         11    1    3    3    0    0 -0.29391084150E+00  0.17911554106E+01 -0.11019513603E+02  0.11168003474E+02  0.51100000000E-03 0. -1.
        -11    1    3    3    0    0  0.11211400430E+01  0.38165699868E+01  0.43313101118E+01  0.58807660220E+01  0.51100000000E-03 0.  1.
        -12    1    3    3    0    0 -0.18222527041E+02  0.20859741581E+02 -0.18807683706E+02  0.33480117636E+02  0.00000000000E+00 0.  1.
</event>
<event>
 7    1  0.3129575E-011  0.5052885E+02  0.7816164E-02  0.1300439E+00
        -11   -1    0    0    0    0  0.00000000000E+00  0.00000000000E+00  0.45593999997E+02  0.45594000000E+02  0.51100000000E-03 0. -1.
         11   -1    0    0    0    0 -0.00000000000E+00 -0.00000000000E+00 -0.45593999997E+02  0.45594000000E+02  0.51100000000E-03 0.  1.
    9900012    2    1    2    0    0 -0.31746241075E+02  0.23195399480E+02  0.10359347825E+02  0.50528850146E+02  0.29999970505E+02 0.  0.
        -12    1    1    2    0    0  0.31746241075E+02 -0.23195399480E+02 -0.10359347825E+02  0.40659149854E+02  0.00000000000E+00 0.  1.
         11    1    3    3    0    0 -0.21347172812E+02  0.90445058737E+01  0.65214177492E+01  0.24083890119E+02  0.51100000000E-03 0. -1.
        -11    1    3    3    0    0 -0.47779902333E+01  0.47816001697E+01 -0.79077226249E+01  0.10403123004E+02  0.51100000000E-03 0.  1.
         12    1    3    3    0    0 -0.56210780301E+01  0.93692934367E+01  0.11745652701E+02  0.16041837023E+02  0.00000000000E+00 0. -1.
</event>
<event>
 7    1  0.3129575E-011  0.5052886E+02  0.7816164E-02  0.1300439E+00
        -11   -1    0    0    0    0  0.00000000000E+00  0.00000000000E+00  0.45593999997E+02  0.45594000000E+02  0.51100000000E-03 0. -1.
         11   -1    0    0    0    0 -0.00000000000E+00 -0.00000000000E+00 -0.45593999997E+02  0.45594000000E+02  0.51100000000E-03 0.  1.
    9900012    2    1    2    0    0 -0.31174794247E+02 -0.19057094325E+02 -0.17836049417E+02  0.50528864504E+02  0.30000014145E+02 0.  0.
        -12    1    1    2    0    0  0.31174794247E+02  0.19057094325E+02  0.17836049417E+02  0.40659135496E+02  0.00000000000E+00 0.  1.
         11    1    3    3    0    0 -0.11053156583E+02 -0.34087757892E+01 -0.49538204397E+01  0.12583018718E+02  0.51100000000E-03 0. -1.
        -11    1    3    3    0    0 -0.14984207407E+02 -0.27977737344E+01 -0.17638002034E+02  0.23312081106E+02  0.51100000000E-03 0.  1.
         12    1    3    3    0    0 -0.51374302572E+01 -0.12850544802E+02  0.47557730564E+01  0.14633764680E+02  0.00000000000E+00 0. -1.
</event>
<event>
 7    1  0.3129575E-011  0.5052885E+02  0.7816164E-02  0.1300439E+00
        -11   -1    0    0    0    0  0.00000000000E+00  0.00000000000E+00  0.45593999997E+02  0.45594000000E+02  0.51100000000E-03 0.  1.
         11   -1    0    0    0    0 -0.00000000000E+00 -0.00000000000E+00 -0.45593999997E+02  0.45594000000E+02  0.51100000000E-03 0. -1.
    9900012    2    1    2    0    0  0.30806792174E+02  0.20963823964E+02 -0.16267320976E+02  0.50528854768E+02  0.29999984554E+02 0.  0.
        -12    1    1    2    0    0 -0.30806792174E+02 -0.20963823964E+02  0.16267320976E+02  0.40659145232E+02  0.00000000000E+00 0.  1.
         11    1    3    3    0    0  0.24617239977E+02  0.17405162103E+02 -0.15287724659E+02  0.33803294180E+02  0.51100000000E-03 0. -1.
        -11    1    3    3    0    0  0.18463113732E+01  0.92984767341E+01 -0.16177635064E+00  0.94813874043E+01  0.51100000000E-03 0.  1.
        -12    1    3    3    0    0  0.43432408240E+01 -0.57398148728E+01 -0.81781996668E+00  0.72441731845E+01  0.00000000000E+00 0.  1.
</event>
<event>
 7    1  0.3129575E-011  0.5052886E+02  0.7816164E-02  0.1300439E+00
        -11   -1    0    0    0    0  0.00000000000E+00  0.00000000000E+00  0.45593999997E+02  0.45594000000E+02  0.51100000000E-03 0.  1.
         11   -1    0    0    0    0 -0.00000000000E+00 -0.00000000000E+00 -0.45593999997E+02  0.45594000000E+02  0.51100000000E-03 0. -1.
    9900012    2    1    2    0    0  0.16775591224E+02 -0.36252850534E+02 -0.75813206535E+01  0.50528855204E+02  0.29999985877E+02 0.  0.
        -12    1    1    2    0    0 -0.16775591224E+02  0.36252850534E+02  0.75813206535E+01  0.40659144796E+02  0.00000000000E+00 0.  1.
         11    1    3    3    0    0  0.95479403906E+00 -0.20053806225E+02 -0.57851394883E+01  0.20893410802E+02  0.51100000000E-03 0. -1.
        -11    1    3    3    0    0  0.13969262773E+01 -0.94194924344E+01  0.66339915829E+01  0.11605519606E+02  0.51100000000E-03 0.  1.
        -12    1    3    3    0    0  0.14423870907E+02 -0.67795518741E+01 -0.84301727481E+01  0.18029924795E+02  0.00000000000E+00 0.  1.
</event>
<event>
 7    1  0.3129575E-011  0.5052886E+02  0.7816164E-02  0.1300439E+00
        -11   -1    0    0    0    0  0.00000000000E+00  0.00000000000E+00  0.45593999997E+02  0.45594000000E+02  0.51100000000E-03 0.  1.
         11   -1    0    0    0    0 -0.00000000000E+00 -0.00000000000E+00 -0.45593999997E+02  0.45594000000E+02  0.51100000000E-03 0. -1.
    9900012    2    1    2    0    0 -0.24989089629E+02  0.25133223621E+02 -0.19925655432E+02  0.50528864809E+02  0.30000015074E+02 0.  0.
        -12    1    1    2    0    0  0.24989089629E+02 -0.25133223621E+02  0.19925655432E+02  0.40659135191E+02  0.00000000000E+00 0.  1.
         11    1    3    3    0    0 -0.23983568606E+02  0.17598982352E+02 -0.15677187277E+02  0.33626030751E+02  0.51100000000E-03 0. -1.
        -11    1    3    3    0    0  0.13460939156E+01  0.11387077833E+02 -0.46453534194E+01  0.12371613437E+02  0.51100000000E-03 0.  1.
        -12    1    3    3    0    0 -0.23516149391E+01 -0.38528365631E+01  0.39688526428E+00  0.45312206210E+01  0.00000000000E+00 0.  1.
</event>
<event>
 7    1  0.3129575E-011  0.5052887E+02  0.7816164E-02  0.1300439E+00
        -11   -1    0    0    0    0  0.00000000000E+00  0.00000000000E+00  0.45593999997E+02  0.45594000000E+02  0.51100000000E-03 0.  1.
         11   -1    0    0    0    0 -0.00000000000E+00 -0.00000000000E+00 -0.45593999997E+02  0.45594000000E+02  0.51100000000E-03 0. -1.
    9900012    2    1    2    0    0  0.11846539820E+02  0.38891365922E+02  0.53496662754E+00  0.50528867713E+02  0.30000023902E+02 0.  0.
        -12    1    1    2    0    0 -0.11846539820E+02 -0.38891365922E+02 -0.53496662754E+00  0.40659132287E+02  0.00000000000E+00 0.  1.
         11    1    3    3    0    0  0.10171316731E+02  0.29320634944E+02 -0.66590202258E+01  0.31741106915E+02  0.51100000000E-03 0. -1.
        -11    1    3    3    0    0 -0.48864611359E+01  0.95820315429E+01  0.50682147898E+01  0.11890316747E+02  0.51100000000E-03 0.  1.
         12    1    3    3    0    0  0.65616842255E+01 -0.11300564841E-01  0.21257720636E+01  0.68974440515E+01  0.00000000000E+00 0. -1.
</event>
<event>
 7    1  0.3129575E-011  0.5052886E+02  0.7816164E-02  0.1300439E+00
        -11   -1    0    0    0    0  0.00000000000E+00  0.00000000000E+00  0.45593999997E+02  0.45594000000E+02  0.51100000000E-03 0.  1.
         11   -1    0    0    0    0 -0.00000000000E+00 -0.00000000000E+00 -0.45593999997E+02  0.45594000000E+02  0.51100000000E-03 0. -1.
    9900012    2    1    2    0    0  0.25236062748E+01  0.59870686299E+01 -0.40136670426E+02  0.50528857211E+02  0.29999991979E+02 0.  0.
        -12    1    1    2    0    0 -0.25236062748E+01 -0.59870686299E+01  0.40136670426E+02  0.40659142789E+02  0.00000000000E+00 0.  1.
         11    1    3    3    0    0  0.13290886950E+02  0.77698174101E+01 -0.18481584056E+02  0.24053828967E+02  0.51100000000E-03 0. -1.
        -11    1    3    3    0    0 -0.25384307470E+01  0.16097282012E+01 -0.15163425415E+02  0.15458471015E+02  0.51100000000E-03 0.  1.
        -12    1    3    3    0    0 -0.82288499285E+01 -0.33924769814E+01 -0.64916609551E+01  0.11016557229E+02  0.00000000000E+00 0.  1.
</event>
<event>
 7    1  0.3129575E-011  0.5052885E+02  0.7816164E-02  0.1300439E+00
        -11   -1    0    0    0    0  0.00000000000E+00  0.00000000000E+00  0.45593999997E+02  0.45594000000E+02  0.51100000000E-03 0.  1.
         11   -1    0    0    0    0 -0.00000000000E+00 -0.00000000000E+00 -0.45593999997E+02  0.45594000000E+02  0.51100000000E-03 0. -1.
    9900012    2    1    2    0    0 -0.18706785600E+02 -0.33562134737E+02 -0.13296825374E+02  0.50528852436E+02  0.29999977464E+02 0.  0.
        -12    1    1    2    0    0  0.18706785600E+02  0.33562134737E+02  0.13296825374E+02  0.40659147564E+02  0.00000000000E+00 0.  1.
         11    1    3    3    0    0 -0.59953117332E+01 -0.11535873775E+02 -0.54505007418E+01  0.14097095627E+02  0.51100000000E-03 0. -1.
        -11    1    3    3    0    0 -0.71986295017E+01 -0.19038127235E+02  0.60101685735E+01  0.21222457018E+02  0.51100000000E-03 0.  1.
        -12    1    3    3    0    0 -0.55128443652E+01 -0.29881337277E+01 -0.13856493206E+02  0.15209299791E+02  0.00000000000E+00 0.  1.
</event>
<event>
 7    1  0.3129575E-011  0.5052886E+02  0.7816164E-02  0.1300439E+00
        -11   -1    0    0    0    0  0.00000000000E+00  0.00000000000E+00  0.45593999997E+02  0.45594000000E+02  0.51100000000E-03 0.  1.
         11   -1    0    0    0    0 -0.00000000000E+00 -0.00000000000E+00 -0.45593999997E+02  0.45594000000E+02  0.51100000000E-03 0. -1.
    9900012    2    1    2    0    0 -0.26515820625E+02  0.30132481818E+02  0.64892273796E+01  0.50528864792E+02  0.30000015021E+02 0.  0.
        -12    1    1    2    0    0  0.26515820625E+02 -0.30132481818E+02 -0.64892273796E+01  0.40659135208E+02  0.00000000000E+00 0.  1.
         11    1    3    3    0    0 -0.17894058170E+02  0.24920887820E+02  0.32415781220E+01  0.30850539647E+02  0.51100000000E-03 0. -1.
        -11    1    3    3    0    0  0.32815121001E+01  0.55286481647E+01 -0.19025532635E+01  0.67047730292E+01  0.51100000000E-03 0.  1.
        -12    1    3    3    0    0 -0.11903274555E+02 -0.31705416718E+00  0.51502025211E+01  0.12973552115E+02  0.00000000000E+00 0.  1.
</event>
<event>
 7    1  0.4193688E-011  0.5052884E+02  0.7816164E-02  0.1300439E+00
        -11   -1    0    0    0    0  0.00000000000E+00  0.00000000000E+00  0.45593999997E+02  0.45594000000E+02  0.51100000000E-03 0. -1.
         11   -1    0    0    0    0 -0.00000000000E+00 -0.00000000000E+00 -0.45593999997E+02  0.45594000000E+02  0.51100000000E-03 0.  1.
    9900012    2    1    2    0    0 -0.54326049810E+00 -0.40541996504E+02 -0.30362045656E+01  0.50528841737E+02  0.29999944945E+02 0.  0.
        -12    1    1    2    0    0  0.54326049810E+00  0.40541996504E+02  0.30362045656E+01  0.40659158263E+02  0.00000000000E+00 0.  1.
         11    1    3    3    0    0  0.11414555851E+01 -0.32068773394E+01  0.53191813460E+01  0.63151146922E+01  0.51100000000E-03 0. -1.
        -11    1    3    3    0    0  0.96870142085E+00 -0.67326726440E+01 -0.11473889607E+02  0.13338568377E+02  0.51100000000E-03 0.  1.
         12    1    3    3    0    0 -0.26534175040E+01 -0.30602446520E+02  0.31185036956E+01  0.30875158668E+02  0.00000000000E+00 0. -1.
</event>
<event>
 7    1  0.3129575E-011  0.5052887E+02  0.7816164E-02  0.1300439E+00
        -11   -1    0    0    0    0  0.00000000000E+00  0.00000000000E+00  0.45593999997E+02  0.45594000000E+02  0.51100000000E-03 0.  1.
         11   -1    0    0    0    0 -0.00000000000E+00 -0.00000000000E+00 -0.45593999997E+02  0.45594000000E+02  0.51100000000E-03 0. -1.
    9900012    2    1    2    0    0 -0.34213859829E+02 -0.20957456261E+02 -0.65849843850E+01  0.50528865766E+02  0.30000017981E+02 0.  0.
        -12    1    1    2    0    0  0.34213859829E+02  0.20957456261E+02  0.65849843850E+01  0.40659134234E+02  0.00000000000E+00 0.  1.
         11    1    3    3    0    0 -0.18692212883E+02 -0.94786738404E+01 -0.72710109598E+01  0.22183590351E+02  0.51100000000E-03 0. -1.
        -11    1    3    3    0    0 -0.10861715768E+02 -0.15793709432E+02  0.59778426888E+01  0.20078663564E+02  0.51100000000E-03 0.  1.
         12    1    3    3    0    0 -0.46599311777E+01  0.43149270113E+01 -0.52918161140E+01  0.82666118500E+01  0.00000000000E+00 0. -1.
</event>
<event>
 7    1  0.3129575E-011  0.5052885E+02  0.7816164E-02  0.1300439E+00
        -11   -1    0    0    0    0  0.00000000000E+00  0.00000000000E+00  0.45593999997E+02  0.45594000000E+02  0.51100000000E-03 0.  1.
         11   -1    0    0    0    0 -0.00000000000E+00 -0.00000000000E+00 -0.45593999997E+02  0.45594000000E+02  0.51100000000E-03 0. -1.
    9900012    2    1    2    0    0  0.17553183253E+01  0.22815486851E+02 -0.33608612677E+02  0.50528850614E+02  0.29999971927E+02 0.  0.
        -12    1    1    2    0    0 -0.17553183253E+01 -0.22815486851E+02  0.33608612677E+02  0.40659149386E+02  0.00000000000E+00 0.  1.
         11    1    3    3    0    0 -0.79918096579E+01 -0.11721419254E+01 -0.10490802694E+02  0.13240086092E+02  0.51100000000E-03 0. -1.
        -11    1    3    3    0    0 -0.28920485237E+00  0.12963396133E+02 -0.16479456428E+02  0.20969162195E+02  0.51100000000E-03 0.  1.
        -12    1    3    3    0    0  0.10036332836E+02  0.11024232644E+02 -0.66383535547E+01  0.16319602326E+02  0.00000000000E+00 0.  1.
</event>
<event>
 7    1  0.3129575E-011  0.5052885E+02  0.7816164E-02  0.1300439E+00
        -11   -1    0    0    0    0  0.00000000000E+00  0.00000000000E+00  0.45593999997E+02  0.45594000000E+02  0.51100000000E-03 0. -1.
         11   -1    0    0    0    0 -0.00000000000E+00 -0.00000000000E+00 -0.45593999997E+02  0.45594000000E+02  0.51100000000E-03 0.  1.
    9900012    2    1    2    0    0  0.12355664357E+02 -0.86660585298E+01  0.37754519030E+02  0.50528847041E+02  0.29999961067E+02 0.  0.
        -12    1    1    2    0    0 -0.12355664357E+02  0.86660585298E+01 -0.37754519030E+02  0.40659152959E+02  0.00000000000E+00 0.  1.
         11    1    3    3    0    0  0.32301169043E+01 -0.37404737320E+01  0.51872917930E+01  0.71646908769E+01  0.51100000000E-03 0. -1.
        -11    1    3    3    0    0  0.68427547531E+00  0.49845680173E+01  0.29584003893E+02  0.30008789343E+02  0.51100000000E-03 0.  1.
        -12    1    3    3    0    0  0.84412719775E+01 -0.99101528150E+01  0.29832233438E+01  0.13355366821E+02  0.00000000000E+00 0.  1.
</event>
<event>
 7    1  0.3129575E-011  0.5052888E+02  0.7816164E-02  0.1300439E+00
        -11   -1    0    0    0    0  0.00000000000E+00  0.00000000000E+00  0.45593999997E+02  0.45594000000E+02  0.51100000000E-03 0.  1.
         11   -1    0    0    0    0 -0.00000000000E+00 -0.00000000000E+00 -0.45593999997E+02  0.45594000000E+02  0.51100000000E-03 0. -1.
    9900012    2    1    2    0    0 -0.14249336266E+02 -0.28517670617E+02 -0.25236148193E+02  0.50528876829E+02  0.30000051609E+02 0.  0.
        -12    1    1    2    0    0  0.14249336266E+02  0.28517670617E+02  0.25236148193E+02  0.40659123171E+02  0.00000000000E+00 0.  1.
         11    1    3    3    0    0 -0.17442015693E+01 -0.37033561166E+01 -0.30766879670E+01  0.51208490261E+01  0.51100000000E-03 0. -1.
        -11    1    3    3    0    0 -0.28138697759E+00 -0.83604305315E+01 -0.23422623128E+02  0.24871575176E+02  0.51100000000E-03 0.  1.
         12    1    3    3    0    0 -0.12223747719E+02 -0.16453883969E+02  0.12631629021E+01  0.20536452627E+02  0.00000000000E+00 0. -1.
</event>
<event>
 7    1  0.3129575E-011  0.5052888E+02  0.7816164E-02  0.1300439E+00
        -11   -1    0    0    0    0  0.00000000000E+00  0.00000000000E+00  0.45593999997E+02  0.45594000000E+02  0.51100000000E-03 0. -1.
         11   -1    0    0    0    0 -0.00000000000E+00 -0.00000000000E+00 -0.45593999997E+02  0.45594000000E+02  0.51100000000E-03 0.  1.
    9900012    2    1    2    0    0 -0.38486102334E+02 -0.12939436530E+02  0.21341661905E+01  0.50528883484E+02  0.30000071837E+02 0.  0.
        -12    1    1    2    0    0  0.38486102334E+02  0.12939436530E+02 -0.21341661905E+01  0.40659116516E+02  0.00000000000E+00 0.  1.
         11    1    3    3    0    0 -0.24839618425E+02 -0.75814247787E+01  0.10034727466E+02  0.27842061718E+02  0.51100000000E-03 0. -1.
        -11    1    3    3    0    0  0.12105325374E+01 -0.57353459268E+01 -0.13182360397E-01  0.58617195395E+01  0.51100000000E-03 0.  1.
        -12    1    3    3    0    0 -0.14857016446E+02  0.37733417546E+00 -0.78873789146E+01  0.16825102226E+02  0.00000000000E+00 0.  1.
</event>
<event>
 7    1  0.3129575E-011  0.5052886E+02  0.7816164E-02  0.1300439E+00
        -11   -1    0    0    0    0  0.00000000000E+00  0.00000000000E+00  0.45593999997E+02  0.45594000000E+02  0.51100000000E-03 0.  1.
         11   -1    0    0    0    0 -0.00000000000E+00 -0.00000000000E+00 -0.45593999997E+02  0.45594000000E+02  0.51100000000E-03 0. -1.
    9900012    2    1    2    0    0  0.50188575604E+01  0.32359007608E+01 -0.40218220782E+02  0.50528864891E+02  0.30000015321E+02 0.  0.
        -12    1    1    2    0    0 -0.50188575604E+01 -0.32359007608E+01  0.40218220782E+02  0.40659135109E+02  0.00000000000E+00 0.  1.
         11    1    3    3    0    0  0.26662384969E+01  0.72551842248E+01 -0.24560246588E+02  0.25747858913E+02  0.51100000000E-03 0. -1.
        -11    1    3    3    0    0 -0.16232178307E-02 -0.44088423154E+01 -0.19645429323E+02  0.20134070297E+02  0.51100000000E-03 0.  1.
        -12    1    3    3    0    0  0.23542422813E+01  0.38955885136E+00  0.39874551285E+01  0.46469356806E+01  0.00000000000E+00 0.  1.
</event>
<event>
 7    1  0.3129575E-011  0.5052886E+02  0.7816164E-02  0.1300439E+00
        -11   -1    0    0    0    0  0.00000000000E+00  0.00000000000E+00  0.45593999997E+02  0.45594000000E+02  0.51100000000E-03 0.  1.
         11   -1    0    0    0    0 -0.00000000000E+00 -0.00000000000E+00 -0.45593999997E+02  0.45594000000E+02  0.51100000000E-03 0. -1.
    9900012    2    1    2    0    0  0.63956000852E+01 -0.39678576736E+02  0.61540799240E+01  0.50528857708E+02  0.29999993489E+02 0.  0.
        -12    1    1    2    0    0 -0.63956000852E+01  0.39678576736E+02 -0.61540799240E+01  0.40659142292E+02  0.00000000000E+00 0.  1.
         11    1    3    3    0    0 -0.69896718562E-01 -0.63736715761E+01  0.10142394437E+01  0.64542433190E+01  0.51100000000E-03 0.  1.
        -11    1    3    3    0    0  0.16486105672E+01 -0.11664366165E+01 -0.85691775538E+01  0.88039363578E+01  0.51100000000E-03 0. -1.
         12    1    3    3    0    0  0.48168862366E+01 -0.32138468543E+02  0.13709018034E+02  0.35270678031E+02  0.00000000000E+00 0. -1.
</event>
<event>
 7    1  0.3129575E-011  0.5052886E+02  0.7816164E-02  0.1300439E+00
        -11   -1    0    0    0    0  0.00000000000E+00  0.00000000000E+00  0.45593999997E+02  0.45594000000E+02  0.51100000000E-03 0.  1.
         11   -1    0    0    0    0 -0.00000000000E+00 -0.00000000000E+00 -0.45593999997E+02  0.45594000000E+02  0.51100000000E-03 0. -1.
    9900012    2    1    2    0    0 -0.37305497104E+02  0.15679305674E+02 -0.39528340814E+01  0.50528860340E+02  0.30000001489E+02 0.  0.
        -12    1    1    2    0    0  0.37305497104E+02 -0.15679305674E+02  0.39528340814E+01  0.40659139660E+02  0.00000000000E+00 0.  1.
         11    1    3    3    0    0 -0.16928909718E+02  0.14407062154E+02 -0.18744424770E+01  0.22308405568E+02  0.51100000000E-03 0. -1.
        -11    1    3    3    0    0 -0.11897218677E+02 -0.30337974680E+01  0.77698921722E+01  0.14529933377E+02  0.51100000000E-03 0.  1.
         12    1    3    3    0    0 -0.84793687095E+01  0.43060409886E+01 -0.98482837765E+01  0.13690521394E+02  0.00000000000E+00 0. -1.
</event>
<event>
 7    1  0.3129575E-011  0.5052883E+02  0.7816164E-02  0.1300439E+00
        -11   -1    0    0    0    0  0.00000000000E+00  0.00000000000E+00  0.45593999997E+02  0.45594000000E+02  0.51100000000E-03 0.  1.
         11   -1    0    0    0    0 -0.00000000000E+00 -0.00000000000E+00 -0.45593999997E+02  0.45594000000E+02  0.51100000000E-03 0. -1.
    9900012    2    1    2    0    0 -0.30720405438E+02  0.98207642062E+01 -0.24758377912E+02  0.50528831333E+02  0.29999913319E+02 0.  0.
        -12    1    1    2    0    0  0.30720405438E+02 -0.98207642062E+01  0.24758377912E+02  0.40659168667E+02  0.00000000000E+00 0.  1.
         11    1    3    3    0    0 -0.14942953104E+02 -0.23251225515E+01  0.35485625758E+01  0.15533523070E+02  0.51100000000E-03 0. -1.
        -11    1    3    3    0    0 -0.15082670235E+00  0.18209935517E+01 -0.29745147336E+01  0.34909174111E+01  0.51100000000E-03 0.  1.
         12    1    3    3    0    0 -0.15626625631E+02  0.10324893206E+02 -0.25332425755E+02  0.31504390852E+02  0.00000000000E+00 0. -1.
</event>
<event>
 7    1  0.3129575E-011  0.5052886E+02  0.7816164E-02  0.1300439E+00
        -11   -1    0    0    0    0  0.00000000000E+00  0.00000000000E+00  0.45593999997E+02  0.45594000000E+02  0.51100000000E-03 0. -1.
         11   -1    0    0    0    0 -0.00000000000E+00 -0.00000000000E+00 -0.45593999997E+02  0.45594000000E+02  0.51100000000E-03 0.  1.
    9900012    2    1    2    0    0  0.25761987732E+02  0.10336600892E+02  0.29709268657E+02  0.50528856206E+02  0.29999988924E+02 0.  0.
        -12    1    1    2    0    0 -0.25761987732E+02 -0.10336600892E+02 -0.29709268657E+02  0.40659143794E+02  0.00000000000E+00 0.  1.
         11    1    3    3    0    0 -0.61240582799E+01  0.51974585514E+01  0.55118085876E+01  0.97415450200E+01  0.51100000000E-03 0.  1.
        -11    1    3    3    0    0  0.14858538617E+02  0.22139193525E+01  0.14938452064E+02  0.21185725360E+02  0.51100000000E-03 0. -1.
        -12    1    3    3    0    0  0.17027507396E+02  0.29252229886E+01  0.92590080055E+01  0.19601585826E+02  0.00000000000E+00 0.  1.
</event>
<event>
 7    1  0.3129575E-011  0.5052886E+02  0.7816164E-02  0.1300439E+00
        -11   -1    0    0    0    0  0.00000000000E+00  0.00000000000E+00  0.45593999997E+02  0.45594000000E+02  0.51100000000E-03 0.  1.
         11   -1    0    0    0    0 -0.00000000000E+00 -0.00000000000E+00 -0.45593999997E+02  0.45594000000E+02  0.51100000000E-03 0. -1.
    9900012    2    1    2    0    0  0.26707482990E+02  0.30419741894E+02 -0.38099477501E+01  0.50528855316E+02  0.29999986219E+02 0.  0.
        -12    1    1    2    0    0 -0.26707482990E+02 -0.30419741894E+02  0.38099477501E+01  0.40659144684E+02  0.00000000000E+00 0.  1.
         11    1    3    3    0    0  0.92444380752E+01 -0.28995496303E+01 -0.58061755206E+01  0.11295074051E+02  0.51100000000E-03 0. -1.
        -11    1    3    3    0    0  0.61588311558E+01  0.52290245024E+01  0.37425434202E+01  0.89039614760E+01  0.51100000000E-03 0.  1.
        -12    1    3    3    0    0  0.11304213759E+02  0.28090267022E+02 -0.17463156497E+01  0.30329819789E+02  0.00000000000E+00 0.  1.
</event>
<event>
 7    1  0.3129575E-011  0.5052886E+02  0.7816164E-02  0.1300439E+00
        -11   -1    0    0    0    0  0.00000000000E+00  0.00000000000E+00  0.45593999997E+02  0.45594000000E+02  0.51100000000E-03 0.  1.
         11   -1    0    0    0    0 -0.00000000000E+00 -0.00000000000E+00 -0.45593999997E+02  0.45594000000E+02  0.51100000000E-03 0. -1.
    9900012    2    1    2    0    0 -0.13516502626E+02 -0.33226090876E+02 -0.19144097355E+02  0.50528862999E+02  0.30000009572E+02 0.  0.
        -12    1    1    2    0    0  0.13516502626E+02  0.33226090876E+02  0.19144097355E+02  0.40659137001E+02  0.00000000000E+00 0.  1.
         11    1    3    3    0    0 -0.25898907445E+01 -0.73120372275E+01 -0.28508355954E+01  0.82644229283E+01  0.51100000000E-03 0. -1.
        -11    1    3    3    0    0  0.80145331896E+01 -0.50088216093E+01  0.44694034116E+00  0.94615427966E+01  0.51100000000E-03 0.  1.
         12    1    3    3    0    0 -0.18941145071E+02 -0.20905232039E+02 -0.16740202100E+02  0.32802897274E+02  0.00000000000E+00 0. -1.
</event>
<event>
 7    1  0.3129575E-011  0.5052886E+02  0.7816164E-02  0.1300439E+00
        -11   -1    0    0    0    0  0.00000000000E+00  0.00000000000E+00  0.45593999997E+02  0.45594000000E+02  0.51100000000E-03 0.  1.
         11   -1    0    0    0    0 -0.00000000000E+00 -0.00000000000E+00 -0.45593999997E+02  0.45594000000E+02  0.51100000000E-03 0. -1.
    9900012    2    1    2    0    0  0.23480224970E+02 -0.19012918971E+02 -0.27209439621E+02  0.50528860106E+02  0.30000000778E+02 0.  0.
        -12    1    1    2    0    0 -0.23480224970E+02  0.19012918971E+02  0.27209439621E+02  0.40659139894E+02  0.00000000000E+00 0.  1.
         11    1    3    3    0    0 -0.12767073058E+01 -0.42110497830E+01 -0.42947572761E+01  0.61488098150E+01  0.51100000000E-03 0.  1.
        -11    1    3    3    0    0  0.11736186204E+01  0.69138401568E+00 -0.15016650032E+02  0.15078301329E+02  0.51100000000E-03 0. -1.
         12    1    3    3    0    0  0.23583313656E+02 -0.15493253203E+02 -0.78980323129E+01  0.29301748962E+02  0.00000000000E+00 0. -1.
</event>
<event>
 7    1  0.3129575E-011  0.5052885E+02  0.7816164E-02  0.1300439E+00
        -11   -1    0    0    0    0  0.00000000000E+00  0.00000000000E+00  0.45593999997E+02  0.45594000000E+02  0.51100000000E-03 0.  1.
         11   -1    0    0    0    0 -0.00000000000E+00 -0.00000000000E+00 -0.45593999997E+02  0.45594000000E+02  0.51100000000E-03 0. -1.
    9900012    2    1    2    0    0  0.20022911613E+02 -0.30446375504E+02 -0.18035180265E+02  0.50528849763E+02  0.29999969339E+02 0.  0.
        -12    1    1    2    0    0 -0.20022911613E+02  0.30446375504E+02  0.18035180265E+02  0.40659150237E+02  0.00000000000E+00 0.  1.
         11    1    3    3    0    0  0.95621015172E+01 -0.25471734253E+02 -0.38318362470E+01  0.27475916737E+02  0.51100000000E-03 0. -1.
        -11    1    3    3    0    0  0.77059080901E+00 -0.33815631285E+00  0.28092881581E+01  0.29326200066E+01  0.51100000000E-03 0.  1.
         12    1    3    3    0    0  0.96902192871E+01 -0.46364849386E+01 -0.17012632176E+02  0.20120313019E+02  0.00000000000E+00 0. -1.
</event>
<event>
 7    1  0.3129575E-011  0.5052886E+02  0.7816164E-02  0.1300439E+00
        -11   -1    0    0    0    0  0.00000000000E+00  0.00000000000E+00  0.45593999997E+02  0.45594000000E+02  0.51100000000E-03 0.  1.
         11   -1    0    0    0    0 -0.00000000000E+00 -0.00000000000E+00 -0.45593999997E+02  0.45594000000E+02  0.51100000000E-03 0. -1.
    9900012    2    1    2    0    0 -0.33091302550E+01 -0.23945033847E+02 -0.32693277890E+02  0.50528863165E+02  0.30000010076E+02 0.  0.
        -12    1    1    2    0    0  0.33091302550E+01  0.23945033847E+02  0.32693277890E+02  0.40659136835E+02  0.00000000000E+00 0.  1.
         11    1    3    3    0    0  0.70720587161E+01 -0.42894146229E+01 -0.18432302059E+02  0.20203040656E+02  0.51100000000E-03 0. -1.
        -11    1    3    3    0    0 -0.57829303183E+01 -0.40051458251E+00 -0.73429897505E+01  0.93553296967E+01  0.51100000000E-03 0.  1.
        -12    1    3    3    0    0 -0.45982586528E+01 -0.19255104641E+02 -0.69179860806E+01  0.20970492812E+02  0.00000000000E+00 0.  1.
</event>
<event>
 7    1  0.3129575E-011  0.5052886E+02  0.7816164E-02  0.1300439E+00
        -11   -1    0    0    0    0  0.00000000000E+00  0.00000000000E+00  0.45593999997E+02  0.45594000000E+02  0.51100000000E-03 0. -1.
         11   -1    0    0    0    0 -0.00000000000E+00 -0.00000000000E+00 -0.45593999997E+02  0.45594000000E+02  0.51100000000E-03 0.  1.
    9900012    2    1    2    0    0  0.98491626444E+01 -0.38912878951E+02  0.64767153561E+01  0.50528855950E+02  0.29999988147E+02 0.  0.
        -12    1    1    2    0    0 -0.98491626444E+01  0.38912878951E+02 -0.64767153561E+01  0.40659144050E+02  0.00000000000E+00 0.  1.
         11    1    3    3    0    0  0.24774467662E+01 -0.33808976016E+02  0.17800225054E+01  0.33946326489E+02  0.51100000000E-03 0. -1.
        -11    1    3    3    0    0 -0.22052298119E+01  0.44275626309E+00 -0.25141725057E+01  0.33734456096E+01  0.51100000000E-03 0.  1.
         12    1    3    3    0    0  0.95769456901E+01 -0.55466591976E+01  0.72108653563E+01  0.13209083851E+02  0.00000000000E+00 0. -1.
</event>
<event>
 7    1  0.3129575E-011  0.5052886E+02  0.7816164E-02  0.1300439E+00
        -11   -1    0    0    0    0  0.00000000000E+00  0.00000000000E+00  0.45593999997E+02  0.45594000000E+02  0.51100000000E-03 0. -1.
         11   -1    0    0    0    0 -0.00000000000E+00 -0.00000000000E+00 -0.45593999997E+02  0.45594000000E+02  0.51100000000E-03 0.  1.
    9900012    2    1    2    0    0 -0.29840187761E+02  0.24129394131E+02  0.13435071269E+02  0.50528860723E+02  0.30000002653E+02 0.  0.
        -12    1    1    2    0    0  0.29840187761E+02 -0.24129394131E+02 -0.13435071269E+02  0.40659139277E+02  0.00000000000E+00 0.  1.
         11    1    3    3    0    0 -0.15379603581E+02  0.87783933649E+01  0.10555057065E+02  0.20615567571E+02  0.51100000000E-03 0. -1.
        -11    1    3    3    0    0 -0.32987487097E+01 -0.52632757883E+01 -0.48660614658E+00  0.62306180172E+01  0.51100000000E-03 0.  1.
         12    1    3    3    0    0 -0.11161835470E+02  0.20614276555E+02  0.33666203513E+01  0.23682675134E+02  0.00000000000E+00 0. -1.
</event>
<event>
 7    1  0.3664910E-011  0.5052886E+02  0.7816164E-02  0.1300439E+00
        -11   -1    0    0    0    0  0.00000000000E+00  0.00000000000E+00  0.45593999997E+02  0.45594000000E+02  0.51100000000E-03 0. -1.
         11   -1    0    0    0    0 -0.00000000000E+00 -0.00000000000E+00 -0.45593999997E+02  0.45594000000E+02  0.51100000000E-03 0.  1.
    9900012    2    1    2    0    0 -0.30797741280E+02 -0.26536542794E+02 -0.69059109518E+00  0.50528857271E+02  0.29999992161E+02 0.  0.
        -12    1    1    2    0    0  0.30797741280E+02  0.26536542794E+02  0.69059109518E+00  0.40659142729E+02  0.00000000000E+00 0.  1.
         11    1    3    3    0    0 -0.21869119617E+01 -0.38995286912E+00 -0.54620828851E+01  0.58965241349E+01  0.51100000000E-03 0. -1.
        -11    1    3    3    0    0 -0.21746820339E+01  0.15738652210E+01  0.57164782105E+01  0.63154110772E+01  0.51100000000E-03 0.  1.
         12    1    3    3    0    0 -0.26436147284E+02 -0.27720455146E+02 -0.94498642052E+00  0.38316922059E+02  0.00000000000E+00 0. -1.
</event>
<event>
 7    1  0.3129575E-011  0.5052885E+02  0.7816164E-02  0.1300439E+00
        -11   -1    0    0    0    0  0.00000000000E+00  0.00000000000E+00  0.45593999997E+02  0.45594000000E+02  0.51100000000E-03 0. -1.
         11   -1    0    0    0    0 -0.00000000000E+00 -0.00000000000E+00 -0.45593999997E+02  0.45594000000E+02  0.51100000000E-03 0.  1.
    9900012    2    1    2    0    0  0.29320578279E+02 -0.11808052467E+02  0.25574200539E+02  0.50528854080E+02  0.29999982463E+02 0.  0.
        -12    1    1    2    0    0 -0.29320578279E+02  0.11808052467E+02 -0.25574200539E+02  0.40659145920E+02  0.00000000000E+00 0.  1.
         11    1    3    3    0    0  0.23079454832E+01 -0.14751753492E+02  0.97230493940E+01  0.17817927299E+02  0.51100000000E-03 0. -1.
        -11    1    3    3    0    0  0.14458997130E+02 -0.17951910444E+01  0.48395045433E+01  0.15352723321E+02  0.51100000000E-03 0.  1.
        -12    1    3    3    0    0  0.12553635666E+02  0.47388920697E+01  0.11011646602E+02  0.17358203460E+02  0.00000000000E+00 0.  1.
</event>
<event>
 7    1  0.3129575E-011  0.5052886E+02  0.7816164E-02  0.1300439E+00
        -11   -1    0    0    0    0  0.00000000000E+00  0.00000000000E+00  0.45593999997E+02  0.45594000000E+02  0.51100000000E-03 0.  1.
         11   -1    0    0    0    0 -0.00000000000E+00 -0.00000000000E+00 -0.45593999997E+02  0.45594000000E+02  0.51100000000E-03 0. -1.
    9900012    2    1    2    0    0  0.12408290837E+02  0.31145719880E+02 -0.23003133798E+02  0.50528859418E+02  0.29999998687E+02 0.  0.
        -12    1    1    2    0    0 -0.12408290837E+02 -0.31145719880E+02  0.23003133798E+02  0.40659140582E+02  0.00000000000E+00 0.  1.
         11    1    3    3    0    0  0.89374103229E+00  0.59096370065E+01 -0.16674999830E+02  0.17713785653E+02  0.51100000000E-03 0. -1.
        -11    1    3    3    0    0  0.11508422127E+02  0.11285548851E+02 -0.92182000002E+01  0.18568322602E+02  0.51100000000E-03 0.  1.
        -12    1    3    3    0    0  0.61276769265E-02  0.13950534022E+02  0.28900660315E+01  0.14246751164E+02  0.00000000000E+00 0.  1.
</event>
<event>
 7    1  0.3129575E-011  0.5052886E+02  0.7816164E-02  0.1300439E+00
        -11   -1    0    0    0    0  0.00000000000E+00  0.00000000000E+00  0.45593999997E+02  0.45594000000E+02  0.51100000000E-03 0.  1.
         11   -1    0    0    0    0 -0.00000000000E+00 -0.00000000000E+00 -0.45593999997E+02  0.45594000000E+02  0.51100000000E-03 0. -1.
    9900012    2    1    2    0    0  0.27887633207E+02  0.28364260218E+02 -0.84210569341E+01  0.50528861501E+02  0.30000005017E+02 0.  0.
        -12    1    1    2    0    0 -0.27887633207E+02 -0.28364260218E+02  0.84210569341E+01  0.40659138499E+02  0.00000000000E+00 0.  1.
         11    1    3    3    0    0  0.10342605797E+02  0.20817203530E+02 -0.56417060034E+01  0.23919747164E+02  0.51100000000E-03 0. -1.
        -11    1    3    3    0    0  0.65215598759E+00  0.87237371987E+01  0.20798457715E+01  0.89919217545E+01  0.51100000000E-03 0.  1.
        -12    1    3    3    0    0  0.16892871422E+02 -0.11766805101E+01 -0.48591967023E+01  0.17617192582E+02  0.00000000000E+00 0.  1.
</event>
<event>
 7    1  0.3129575E-011  0.5052885E+02  0.7816164E-02  0.1300439E+00
        -11   -1    0    0    0    0  0.00000000000E+00  0.00000000000E+00  0.45593999997E+02  0.45594000000E+02  0.51100000000E-03 0. -1.
         11   -1    0    0    0    0 -0.00000000000E+00 -0.00000000000E+00 -0.45593999997E+02  0.45594000000E+02  0.51100000000E-03 0.  1.
    9900012    2    1    2    0    0  0.33816144611E+02  0.19967819527E+02  0.10531891680E+02  0.50528853484E+02  0.29999980650E+02 0.  0.
        -12    1    1    2    0    0 -0.33816144611E+02 -0.19967819527E+02 -0.10531891680E+02  0.40659146516E+02  0.00000000000E+00 0.  1.
         11    1    3    3    0    0  0.11328301363E+02  0.13676057264E+02 -0.25939520721E+01  0.17946964693E+02  0.51100000000E-03 0. -1.
        -11    1    3    3    0    0  0.17989920528E+02  0.44784461150E+01 -0.52994603879E-01  0.18539054154E+02  0.51100000000E-03 0.  1.
        -12    1    3    3    0    0  0.44979227195E+01  0.18133161479E+01  0.13178838356E+02  0.14042834638E+02  0.00000000000E+00 0.  1.
</event>
<event>
 7    1  0.3129575E-011  0.5052886E+02  0.7816164E-02  0.1300439E+00
        -11   -1    0    0    0    0  0.00000000000E+00  0.00000000000E+00  0.45593999997E+02  0.45594000000E+02  0.51100000000E-03 0. -1.
         11   -1    0    0    0    0 -0.00000000000E+00 -0.00000000000E+00 -0.45593999997E+02  0.45594000000E+02  0.51100000000E-03 0.  1.
    9900012    2    1    2    0    0  0.96858083565E+00 -0.40634983145E+02  0.10128135950E+01  0.50528858403E+02  0.29999995602E+02 0.  0.
        -12    1    1    2    0    0 -0.96858083565E+00  0.40634983145E+02 -0.10128135950E+01  0.40659141597E+02  0.00000000000E+00 0.  1.
         11    1    3    3    0    0 -0.51101470848E+01  0.65464092070E-01  0.31423069010E+01  0.59993317708E+01  0.51100000000E-03 0. -1.
        -11    1    3    3    0    0  0.56716729545E+01 -0.16171182307E+02 -0.85773976492E+01  0.19163683414E+02  0.51100000000E-03 0.  1.
         12    1    3    3    0    0  0.40705496588E+00 -0.24529264930E+02  0.64479043432E+01  0.25365843218E+02  0.00000000000E+00 0. -1.
</event>
<event>
 7    1  0.3129575E-011  0.5052885E+02  0.7816164E-02  0.1300439E+00
        -11   -1    0    0    0    0  0.00000000000E+00  0.00000000000E+00  0.45593999997E+02  0.45594000000E+02  0.51100000000E-03 0.  1.
         11   -1    0    0    0    0 -0.00000000000E+00 -0.00000000000E+00 -0.45593999997E+02  0.45594000000E+02  0.51100000000E-03 0. -1.
    9900012    2    1    2    0    0 -0.15010158809E+02 -0.10009460738E+02 -0.36437240533E+02  0.50528847655E+02  0.29999962931E+02 0.  0.
        -12    1    1    2    0    0  0.15010158809E+02  0.10009460738E+02  0.36437240533E+02  0.40659152345E+02  0.00000000000E+00 0.  1.
         11    1    3    3    0    0 -0.18380503002E+02 -0.66031207162E+01 -0.20021714798E+02  0.27969861593E+02  0.51100000000E-03 0. -1.
        -11    1    3    3    0    0 -0.22208231116E+01 -0.50830377518E+00 -0.16092647461E+02  0.16253114489E+02  0.51100000000E-03 0.  1.
         12    1    3    3    0    0  0.55911673045E+01 -0.28980362470E+01 -0.32287827421E+00  0.63058715730E+01  0.00000000000E+00 0. -1.
</event>
<event>
 7    1  0.3129575E-011  0.5052884E+02  0.7816164E-02  0.1300439E+00
        -11   -1    0    0    0    0  0.00000000000E+00  0.00000000000E+00  0.45593999997E+02  0.45594000000E+02  0.51100000000E-03 0.  1.
         11   -1    0    0    0    0 -0.00000000000E+00 -0.00000000000E+00 -0.45593999997E+02  0.45594000000E+02  0.51100000000E-03 0. -1.
    9900012    2    1    2    0    0 -0.39091118916E+02 -0.48860022449E+01  0.10058756413E+02  0.50528841417E+02  0.29999943972E+02 0.  0.
        -12    1    1    2    0    0  0.39091118916E+02  0.48860022449E+01 -0.10058756413E+02  0.40659158583E+02  0.00000000000E+00 0.  1.
         11    1    3    3    0    0 -0.17395402510E+02  0.53781286340E+01  0.72019727706E+01  0.19580416445E+02  0.51100000000E-03 0. -1.
        -11    1    3    3    0    0 -0.15900948405E+02 -0.11493049150E+02  0.97091441310E+01  0.21890587451E+02  0.51100000000E-03 0.  1.
        -12    1    3    3    0    0 -0.57947680010E+01  0.12289182714E+01 -0.68523604883E+01  0.90578375215E+01  0.00000000000E+00 0.  1.
</event>
<event>
 7    1  0.3129575E-011  0.5052886E+02  0.7816164E-02  0.1300439E+00
        -11   -1    0    0    0    0  0.00000000000E+00  0.00000000000E+00  0.45593999997E+02  0.45594000000E+02  0.51100000000E-03 0.  1.
         11   -1    0    0    0    0 -0.00000000000E+00 -0.00000000000E+00 -0.45593999997E+02  0.45594000000E+02  0.51100000000E-03 0. -1.
    9900012    2    1    2    0    0  0.28116974903E+02 -0.28152507801E+02  0.83688648332E+01  0.50528857464E+02  0.29999992748E+02 0.  0.
        -12    1    1    2    0    0 -0.28116974903E+02  0.28152507801E+02 -0.83688648332E+01  0.40659142536E+02  0.00000000000E+00 0.  1.
         11    1    3    3    0    0  0.77182975779E+01 -0.10321016182E+02 -0.91478635316E+01  0.15804394958E+02  0.51100000000E-03 0. -1.
        -11    1    3    3    0    0  0.47860334562E+01  0.14787080404E+01  0.17328994856E+01  0.53005315394E+01  0.51100000000E-03 0.  1.
         12    1    3    3    0    0  0.15612643869E+02 -0.19310199660E+02  0.15783828879E+02  0.29423930967E+02  0.00000000000E+00 0. -1.
</event>
<event>
 7    1  0.3129575E-011  0.5052886E+02  0.7816164E-02  0.1300439E+00
        -11   -1    0    0    0    0  0.00000000000E+00  0.00000000000E+00  0.45593999997E+02  0.45594000000E+02  0.51100000000E-03 0.  1.
         11   -1    0    0    0    0 -0.00000000000E+00 -0.00000000000E+00 -0.45593999997E+02  0.45594000000E+02  0.51100000000E-03 0. -1.
    9900012    2    1    2    0    0  0.23748351967E+02  0.14574637617E+02 -0.29610155705E+02  0.50528860761E+02  0.30000002768E+02 0.  0.
        -12    1    1    2    0    0 -0.23748351967E+02 -0.14574637617E+02  0.29610155705E+02  0.40659139239E+02  0.00000000000E+00 0.  1.
         11    1    3    3    0    0  0.96116064226E+01  0.13087714454E+02 -0.13012140069E+02  0.20808340566E+02  0.51100000000E-03 0. -1.
        -11    1    3    3    0    0  0.44377174355E+01  0.10431848650E+02 -0.91572132356E+01  0.14572966644E+02  0.51100000000E-03 0.  1.
         12    1    3    3    0    0  0.96990281084E+01 -0.89449254876E+01 -0.74408024007E+01  0.15147553551E+02  0.00000000000E+00 0. -1.
</event>
<event>
 7    1  0.3129575E-011  0.5052886E+02  0.7816164E-02  0.1300439E+00
        -11   -1    0    0    0    0  0.00000000000E+00  0.00000000000E+00  0.45593999997E+02  0.45594000000E+02  0.51100000000E-03 0. -1.
         11   -1    0    0    0    0 -0.00000000000E+00 -0.00000000000E+00 -0.45593999997E+02  0.45594000000E+02  0.51100000000E-03 0.  1.
    9900012    2    1    2    0    0 -0.19832890075E+01  0.25344815499E+02  0.31731257168E+02  0.50528858476E+02  0.29999995825E+02 0.  0.
        -12    1    1    2    0    0  0.19832890075E+01 -0.25344815499E+02 -0.31731257168E+02  0.40659141524E+02  0.00000000000E+00 0.  1.
         11    1    3    3    0    0 -0.11515842045E+01 -0.53322812903E+01  0.87469865904E+01  0.10308692672E+02  0.51100000000E-03 0. -1.
        -11    1    3    3    0    0  0.46968074118E+01  0.63487982654E+01  0.38906452448E+01  0.88036560565E+01  0.51100000000E-03 0.  1.
         12    1    3    3    0    0 -0.55285122149E+01  0.24328298524E+02  0.19093625333E+02  0.31416509748E+02  0.00000000000E+00 0. -1.
</event>
<event>
 7    1  0.3129575E-011  0.5052886E+02  0.7816164E-02  0.1300439E+00
        -11   -1    0    0    0    0  0.00000000000E+00  0.00000000000E+00  0.45593999997E+02  0.45594000000E+02  0.51100000000E-03 0. -1.
         11   -1    0    0    0    0 -0.00000000000E+00 -0.00000000000E+00 -0.45593999997E+02  0.45594000000E+02  0.51100000000E-03 0.  1.
    9900012    2    1    2    0    0 -0.40842912183E+01 -0.39778444330E+02  0.73593359792E+01  0.50528857189E+02  0.29999991910E+02 0.  0.
        -12    1    1    2    0    0  0.40842912183E+01  0.39778444330E+02 -0.73593359792E+01  0.40659142811E+02  0.00000000000E+00 0.  1.
         11    1    3    3    0    0  0.19494341245E+00 -0.17060865842E+01 -0.49757091738E+01  0.52636884796E+01  0.51100000000E-03 0. -1.
        -11    1    3    3    0    0  0.68069390666E+01 -0.26484925656E+02  0.58346018238E+01  0.27961192485E+02  0.51100000000E-03 0.  1.
         12    1    3    3    0    0 -0.11086173697E+02 -0.11587432090E+02  0.65004433292E+01  0.17303976224E+02  0.00000000000E+00 0. -1.
</event>
<event>
 7    1  0.3129575E-011  0.5052883E+02  0.7816164E-02  0.1300439E+00
        -11   -1    0    0    0    0  0.00000000000E+00  0.00000000000E+00  0.45593999997E+02  0.45594000000E+02  0.51100000000E-03 0.  1.
         11   -1    0    0    0    0 -0.00000000000E+00 -0.00000000000E+00 -0.45593999997E+02  0.45594000000E+02  0.51100000000E-03 0. -1.
    9900012    2    1    2    0    0  0.33360107212E+02  0.16340190560E+02 -0.16530857966E+02  0.50528833188E+02  0.29999918960E+02 0.  0.
        -12    1    1    2    0    0 -0.33360107212E+02 -0.16340190560E+02  0.16530857966E+02  0.40659166812E+02  0.00000000000E+00 0.  1.
         11    1    3    3    0    0  0.54369436857E+01 -0.36558245510E+01 -0.22770462608E+01  0.69361624638E+01  0.51100000000E-03 0. -1.
        -11    1    3    3    0    0  0.10150536286E+02 -0.29732412448E+00  0.41148424752E+01  0.10956902728E+02  0.51100000000E-03 0.  1.
         12    1    3    3    0    0  0.17772627240E+02  0.20293339235E+02 -0.18368654181E+02  0.32635767997E+02  0.00000000000E+00 0. -1.
</event>
<event>
 7    1  0.3129575E-011  0.5052886E+02  0.7816164E-02  0.1300439E+00
        -11   -1    0    0    0    0  0.00000000000E+00  0.00000000000E+00  0.45593999997E+02  0.45594000000E+02  0.51100000000E-03 0.  1.
         11   -1    0    0    0    0 -0.00000000000E+00 -0.00000000000E+00 -0.45593999997E+02  0.45594000000E+02  0.51100000000E-03 0. -1.
    9900012    2    1    2    0    0  0.40048299214E+02 -0.23643735067E+00  0.70173719854E+01  0.50528859796E+02  0.29999999836E+02 0.  0.
        -12    1    1    2    0    0 -0.40048299214E+02  0.23643735067E+00 -0.70173719854E+01  0.40659140204E+02  0.00000000000E+00 0.  1.
         11    1    3    3    0    0  0.90822367609E+01  0.28938099990E+01  0.71778958264E+01  0.11932449440E+02  0.51100000000E-03 0. -1.
        -11    1    3    3    0    0 -0.22091741758E+01 -0.16031890144E+01  0.42945133459E+01  0.50885666640E+01  0.51100000000E-03 0.  1.
         12    1    3    3    0    0  0.33175236629E+02 -0.15270583353E+01 -0.44550371869E+01  0.33507843692E+02  0.00000000000E+00 0. -1.
</event>
<event>
 7    1  0.3129575E-011  0.5052886E+02  0.7816164E-02  0.1300439E+00
        -11   -1    0    0    0    0  0.00000000000E+00  0.00000000000E+00  0.45593999997E+02  0.45594000000E+02  0.51100000000E-03 0.  1.
         11   -1    0    0    0    0 -0.00000000000E+00 -0.00000000000E+00 -0.45593999997E+02  0.45594000000E+02  0.51100000000E-03 0. -1.
    9900012    2    1    2    0    0 -0.25780406112E+02  0.28416149663E+02 -0.13455806812E+02  0.50528860340E+02  0.30000001489E+02 0.  0.
        -12    1    1    2    0    0  0.25780406112E+02 -0.28416149663E+02  0.13455806812E+02  0.40659139660E+02  0.00000000000E+00 0.  1.
         11    1    3    3    0    0 -0.67357534189E+00 -0.85960823189E+00 -0.88841352834E+00  0.14078028669E+01  0.51100000000E-03 0. -1.
        -11    1    3    3    0    0 -0.19107394202E+02  0.33590304529E+02 -0.57557459480E+01  0.39070829057E+02  0.51100000000E-03 0.  1.
        -12    1    3    3    0    0 -0.59994365677E+01 -0.43145466343E+01 -0.68116473355E+01  0.10050228416E+02  0.00000000000E+00 0.  1.
</event>
<event>
 7    1  0.3129575E-011  0.5052885E+02  0.7816164E-02  0.1300439E+00
        -11   -1    0    0    0    0  0.00000000000E+00  0.00000000000E+00  0.45593999997E+02  0.45594000000E+02  0.51100000000E-03 0. -1.
         11   -1    0    0    0    0 -0.00000000000E+00 -0.00000000000E+00 -0.45593999997E+02  0.45594000000E+02  0.51100000000E-03 0.  1.
    9900012    2    1    2    0    0  0.23307560062E+02 -0.30678358633E+02  0.12990855318E+02  0.50528851382E+02  0.29999974261E+02 0.  0.
        -12    1    1    2    0    0 -0.23307560062E+02  0.30678358633E+02 -0.12990855318E+02  0.40659148618E+02  0.00000000000E+00 0.  1.
         11    1    3    3    0    0  0.51773175883E+01 -0.21487752716E+01  0.13818154789E+02  0.14911849470E+02  0.51100000000E-03 0.  1.
        -11    1    3    3    0    0  0.11336153336E+02 -0.89963074072E+01 -0.31342554560E+01  0.14807615505E+02  0.51100000000E-03 0. -1.
        -12    1    3    3    0    0  0.67940891379E+01 -0.19533275954E+02  0.23069559844E+01  0.20809386407E+02  0.00000000000E+00 0.  1.
</event>
<event>
 7    1  0.3129575E-011  0.5052886E+02  0.7816164E-02  0.1300439E+00
        -11   -1    0    0    0    0  0.00000000000E+00  0.00000000000E+00  0.45593999997E+02  0.45594000000E+02  0.51100000000E-03 0. -1.
         11   -1    0    0    0    0 -0.00000000000E+00 -0.00000000000E+00 -0.45593999997E+02  0.45594000000E+02  0.51100000000E-03 0.  1.
    9900012    2    1    2    0    0  0.37450819272E+02 -0.56066650012E+00  0.15820479275E+02  0.50528858647E+02  0.29999996344E+02 0.  0.
        -12    1    1    2    0    0 -0.37450819272E+02  0.56066650012E+00 -0.15820479275E+02  0.40659141353E+02  0.00000000000E+00 0.  1.
         11    1    3    3    0    0  0.63848958784E+01 -0.66074252875E+01 -0.30558970593E+01  0.96831540009E+01  0.51100000000E-03 0. -1.
        -11    1    3    3    0    0  0.12551655733E+02  0.10372171577E+02  0.41678389829E+01  0.16807643705E+02  0.51100000000E-03 0.  1.
        -12    1    3    3    0    0  0.18514267660E+02 -0.43254127895E+01  0.14708537351E+02  0.24038060941E+02  0.00000000000E+00 0.  1.
</event>
<event>
 7    1  0.3129575E-011  0.5052886E+02  0.7816164E-02  0.1300439E+00
        -11   -1    0    0    0    0  0.00000000000E+00  0.00000000000E+00  0.45593999997E+02  0.45594000000E+02  0.51100000000E-03 0. -1.
         11   -1    0    0    0    0 -0.00000000000E+00 -0.00000000000E+00 -0.45593999997E+02  0.45594000000E+02  0.51100000000E-03 0.  1.
    9900012    2    1    2    0    0 -0.92209856350E+01 -0.34087135569E+02  0.20154552668E+02  0.50528863504E+02  0.30000011106E+02 0.  0.
        -12    1    1    2    0    0  0.92209856350E+01  0.34087135569E+02 -0.20154552668E+02  0.40659136496E+02  0.00000000000E+00 0.  1.
         11    1    3    3    0    0 -0.62967078410E+01 -0.19511540795E+02  0.11919512571E+01  0.20537027582E+02  0.51100000000E-03 0. -1.
        -11    1    3    3    0    0  0.32131078695E+00 -0.80621783569E+01 -0.15592744976E+01  0.82178645462E+01  0.51100000000E-03 0.  1.
         12    1    3    3    0    0 -0.32455885809E+01 -0.65134164170E+01  0.20521875909E+02  0.21773971376E+02  0.00000000000E+00 0. -1.
</event>
<event>
 7    1  0.3129575E-011  0.5052886E+02  0.7816164E-02  0.1300439E+00
        -11   -1    0    0    0    0  0.00000000000E+00  0.00000000000E+00  0.45593999997E+02  0.45594000000E+02  0.51100000000E-03 0.  1.
         11   -1    0    0    0    0 -0.00000000000E+00 -0.00000000000E+00 -0.45593999997E+02  0.45594000000E+02  0.51100000000E-03 0. -1.
    9900012    2    1    2    0    0 -0.32149821817E+02  0.17062831976E+02 -0.18122209032E+02  0.50528859108E+02  0.29999997743E+02 0.  0.
        -12    1    1    2    0    0  0.32149821817E+02 -0.17062831976E+02  0.18122209032E+02  0.40659140892E+02  0.00000000000E+00 0.  1.
         11    1    3    3    0    0 -0.19682717040E+02  0.82307537985E+01 -0.15861453751E+02  0.26584589023E+02  0.51100000000E-03 0. -1.
        -11    1    3    3    0    0 -0.71044900476E+01 -0.25435563288E+01  0.53447154536E+01  0.92471315107E+01  0.51100000000E-03 0.  1.
         12    1    3    3    0    0 -0.53626147293E+01  0.11375634506E+02 -0.76054707349E+01  0.14697138574E+02  0.00000000000E+00 0. -1.
</event>
<event>
 7    1  0.3129575E-011  0.5052886E+02  0.7816164E-02  0.1300439E+00
        -11   -1    0    0    0    0  0.00000000000E+00  0.00000000000E+00  0.45593999997E+02  0.45594000000E+02  0.51100000000E-03 0.  1.
         11   -1    0    0    0    0 -0.00000000000E+00 -0.00000000000E+00 -0.45593999997E+02  0.45594000000E+02  0.51100000000E-03 0. -1.
    9900012    2    1    2    0    0 -0.12686122621E+02  0.15649714631E+02 -0.35317333424E+02  0.50528864306E+02  0.30000013544E+02 0.  0.
        -12    1    1    2    0    0  0.12686122621E+02 -0.15649714631E+02  0.35317333424E+02  0.40659135694E+02  0.00000000000E+00 0.  1.
         11    1    3    3    0    0 -0.38323555003E+01  0.80303296436E+01 -0.10536716542E+02  0.13791139859E+02  0.51100000000E-03 0. -1.
        -11    1    3    3    0    0 -0.15263031229E+02  0.48679679396E+01 -0.67122552474E+01  0.17369847580E+02  0.51100000000E-03 0.  1.
        -12    1    3    3    0    0  0.64092641083E+01  0.27514170482E+01 -0.18068361635E+02  0.19367876867E+02  0.00000000000E+00 0.  1.
</event>
<event>
 7    1  0.3129575E-011  0.5052886E+02  0.7816164E-02  0.1300439E+00
        -11   -1    0    0    0    0  0.00000000000E+00  0.00000000000E+00  0.45593999997E+02  0.45594000000E+02  0.51100000000E-03 0.  1.
         11   -1    0    0    0    0 -0.00000000000E+00 -0.00000000000E+00 -0.45593999997E+02  0.45594000000E+02  0.51100000000E-03 0. -1.
    9900012    2    1    2    0    0 -0.23016735591E+02 -0.21705441120E+02 -0.25539567215E+02  0.50528858531E+02  0.29999995990E+02 0.  0.
        -12    1    1    2    0    0  0.23016735591E+02  0.21705441120E+02  0.25539567215E+02  0.40659141469E+02  0.00000000000E+00 0.  1.
         11    1    3    3    0    0 -0.12024526746E+02 -0.71079036583E+01 -0.12678120065E+02  0.18863887896E+02  0.51100000000E-03 0. -1.
        -11    1    3    3    0    0 -0.14938265592E+02 -0.23005404731E+01 -0.29840909998E+01  0.15406137242E+02  0.51100000000E-03 0.  1.
         12    1    3    3    0    0  0.39460567470E+01 -0.12296996988E+02 -0.98773561504E+01  0.16258833393E+02  0.00000000000E+00 0. -1.
</event>
<event>
 7    1  0.3129575E-011  0.5052886E+02  0.7816164E-02  0.1300439E+00
        -11   -1    0    0    0    0  0.00000000000E+00  0.00000000000E+00  0.45593999997E+02  0.45594000000E+02  0.51100000000E-03 0.  1.
         11   -1    0    0    0    0 -0.00000000000E+00 -0.00000000000E+00 -0.45593999997E+02  0.45594000000E+02  0.51100000000E-03 0. -1.
    9900012    2    1    2    0    0 -0.99999359785E+01 -0.39123102508E+02 -0.47486393538E+01  0.50528862710E+02  0.30000008694E+02 0.  0.
        -12    1    1    2    0    0  0.99999359785E+01  0.39123102508E+02  0.47486393538E+01  0.40659137290E+02  0.00000000000E+00 0.  1.
         11    1    3    3    0    0  0.77345505655E+00 -0.18460589591E+02  0.63201844065E+01  0.19527834799E+02  0.51100000000E-03 0. -1.
        -11    1    3    3    0    0  0.40259580523E+01 -0.90579241788E+01 -0.57388120711E+01  0.11453745803E+02  0.51100000000E-03 0.  1.
        -12    1    3    3    0    0 -0.14799349087E+02 -0.11604588739E+02 -0.53300116892E+01  0.19547282108E+02  0.00000000000E+00 0.  1.
</event>
<event>
 7    1  0.3129575E-011  0.5052888E+02  0.7816164E-02  0.1300439E+00
        -11   -1    0    0    0    0  0.00000000000E+00  0.00000000000E+00  0.45593999997E+02  0.45594000000E+02  0.51100000000E-03 0.  1.
         11   -1    0    0    0    0 -0.00000000000E+00 -0.00000000000E+00 -0.45593999997E+02  0.45594000000E+02  0.51100000000E-03 0. -1.
    9900012    2    1    2    0    0  0.30388237290E+02  0.82248582099E+01 -0.25730733258E+02  0.50528881808E+02  0.30000066744E+02 0.  0.
        -12    1    1    2    0    0 -0.30388237290E+02 -0.82248582099E+01  0.25730733258E+02  0.40659118192E+02  0.00000000000E+00 0.  1.
         11    1    3    3    0    0  0.18832450938E+02  0.52121341738E+01 -0.28773336168E+01  0.19751116423E+02  0.51100000000E-03 0. -1.
        -11    1    3    3    0    0  0.67789159278E+01  0.45051839534E+01 -0.81712526155E+00  0.81803470321E+01  0.51100000000E-03 0.  1.
         12    1    3    3    0    0  0.47768704240E+01 -0.14924599173E+01 -0.22036274380E+02  0.22597418352E+02  0.00000000000E+00 0. -1.
</event>
<event>
 7    1  0.3129575E-011  0.5052886E+02  0.7816164E-02  0.1300439E+00
        -11   -1    0    0    0    0  0.00000000000E+00  0.00000000000E+00  0.45593999997E+02  0.45594000000E+02  0.51100000000E-03 0. -1.
         11   -1    0    0    0    0 -0.00000000000E+00 -0.00000000000E+00 -0.45593999997E+02  0.45594000000E+02  0.51100000000E-03 0.  1.
    9900012    2    1    2    0    0  0.17264205203E+02  0.31038894080E+02  0.19791413731E+02  0.50528858537E+02  0.29999996010E+02 0.  0.
        -12    1    1    2    0    0 -0.17264205203E+02 -0.31038894080E+02 -0.19791413731E+02  0.40659141463E+02  0.00000000000E+00 0.  1.
         11    1    3    3    0    0  0.66925824769E+01  0.23173220558E+02  0.97288397788E+01  0.26008443532E+02  0.51100000000E-03 0. -1.
        -11    1    3    3    0    0  0.99917816096E+01  0.86792948012E+01 -0.11301497660E+01  0.13283188500E+02  0.51100000000E-03 0.  1.
        -12    1    3    3    0    0  0.57984111625E+00 -0.81362127891E+00  0.11192723718E+02  0.11237226505E+02  0.00000000000E+00 0.  1.
</event>
<event>
 7    1  0.3129575E-011  0.5052886E+02  0.7816164E-02  0.1300439E+00
        -11   -1    0    0    0    0  0.00000000000E+00  0.00000000000E+00  0.45593999997E+02  0.45594000000E+02  0.51100000000E-03 0.  1.
         11   -1    0    0    0    0 -0.00000000000E+00 -0.00000000000E+00 -0.45593999997E+02  0.45594000000E+02  0.51100000000E-03 0. -1.
    9900012    2    1    2    0    0 -0.16533013107E+02 -0.34134897254E+02 -0.14650381152E+02  0.50528863255E+02  0.30000010350E+02 0.  0.
        -12    1    1    2    0    0  0.16533013107E+02  0.34134897254E+02  0.14650381152E+02  0.40659136745E+02  0.00000000000E+00 0.  1.
         11    1    3    3    0    0  0.49931966139E+01 -0.86229005092E+01 -0.47064667603E+01  0.11019857315E+02  0.51100000000E-03 0. -1.
        -11    1    3    3    0    0 -0.90707315531E+01 -0.20155350112E+02  0.94010335656E+00  0.22122389194E+02  0.51100000000E-03 0.  1.
         12    1    3    3    0    0 -0.12455478168E+02 -0.53566466327E+01 -0.10884017748E+02  0.17386616746E+02  0.00000000000E+00 0. -1.
</event>
<event>
 7    1  0.3129575E-011  0.5052886E+02  0.7816164E-02  0.1300439E+00
        -11   -1    0    0    0    0  0.00000000000E+00  0.00000000000E+00  0.45593999997E+02  0.45594000000E+02  0.51100000000E-03 0. -1.
         11   -1    0    0    0    0 -0.00000000000E+00 -0.00000000000E+00 -0.45593999997E+02  0.45594000000E+02  0.51100000000E-03 0.  1.
    9900012    2    1    2    0    0 -0.17273516066E+02  0.32227501631E+02  0.17781434519E+02  0.50528860410E+02  0.30000001702E+02 0.  0.
        -12    1    1    2    0    0  0.17273516066E+02 -0.32227501631E+02 -0.17781434519E+02  0.40659139590E+02  0.00000000000E+00 0.  1.
         11    1    3    3    0    0 -0.21633089165E+02  0.22136471203E+02  0.71652694689E+01  0.31770347669E+02  0.51100000000E-03 0. -1.
        -11    1    3    3    0    0  0.16249027861E+00 -0.18285113844E+01  0.42052135858E+01  0.45884287656E+01  0.51100000000E-03 0.  1.
        -12    1    3    3    0    0  0.41970828204E+01  0.11919541812E+02  0.64109514639E+01  0.14170083976E+02  0.00000000000E+00 0.  1.
</event>
<event>
 7    1  0.3129575E-011  0.5052889E+02  0.7816164E-02  0.1300439E+00
        -11   -1    0    0    0    0  0.00000000000E+00  0.00000000000E+00  0.45593999997E+02  0.45594000000E+02  0.51100000000E-03 0. -1.
         11   -1    0    0    0    0 -0.00000000000E+00 -0.00000000000E+00 -0.45593999997E+02  0.45594000000E+02  0.51100000000E-03 0.  1.
    9900012    2    1    2    0    0  0.18732959348E+02 -0.31083598634E+02  0.18331639915E+02  0.50528894108E+02  0.30000104131E+02 0.  0.
        -12    1    1    2    0    0 -0.18732959348E+02  0.31083598634E+02 -0.18331639915E+02  0.40659105892E+02  0.00000000000E+00 0.  1.
         11    1    3    3    0    0 -0.39593328418E+01 -0.62833872407E+01  0.92714278512E+00  0.74844415806E+01  0.51100000000E-03 0.  1.
        -11    1    3    3    0    0  0.24759570025E+02 -0.14466004454E+02  0.11006967036E+02  0.30715711228E+02  0.51100000000E-03 0. -1.
         12    1    3    3    0    0 -0.20672778357E+01 -0.10334206939E+02  0.63975300947E+01  0.12328741299E+02  0.00000000000E+00 0. -1.
</event>
<event>
 7    1  0.3129575E-011  0.5052886E+02  0.7816164E-02  0.1300439E+00
        -11   -1    0    0    0    0  0.00000000000E+00  0.00000000000E+00  0.45593999997E+02  0.45594000000E+02  0.51100000000E-03 0.  1.
         11   -1    0    0    0    0 -0.00000000000E+00 -0.00000000000E+00 -0.45593999997E+02  0.45594000000E+02  0.51100000000E-03 0. -1.
    9900012    2    1    2    0    0 -0.12597779557E+02 -0.11219577187E+01 -0.38641985318E+02  0.50528857508E+02  0.29999992882E+02 0.  0.
        -12    1    1    2    0    0  0.12597779557E+02  0.11219577187E+01  0.38641985318E+02  0.40659142492E+02  0.00000000000E+00 0.  1.
         11    1    3    3    0    0 -0.16655779498E+01 -0.43371596768E+01 -0.24659366271E+02  0.25093215201E+02  0.51100000000E-03 0. -1.
        -11    1    3    3    0    0  0.10711609528E+01 -0.12311584922E+01 -0.12435432457E+02  0.12542053965E+02  0.51100000000E-03 0.  1.
        -12    1    3    3    0    0 -0.12003362560E+02  0.44463604504E+01 -0.15471865904E+01  0.12893588342E+02  0.00000000000E+00 0.  1.
</event>
<event>
 7    1  0.3351376E-011  0.5052886E+02  0.7816164E-02  0.1300439E+00
        -11   -1    0    0    0    0  0.00000000000E+00  0.00000000000E+00  0.45593999997E+02  0.45594000000E+02  0.51100000000E-03 0.  1.
         11   -1    0    0    0    0 -0.00000000000E+00 -0.00000000000E+00 -0.45593999997E+02  0.45594000000E+02  0.51100000000E-03 0. -1.
    9900012    2    1    2    0    0  0.47151188800E+01  0.36495229469E+02 -0.17292533631E+02  0.50528857862E+02  0.29999993956E+02 0.  0.
        -12    1    1    2    0    0 -0.47151188800E+01 -0.36495229469E+02  0.17292533631E+02  0.40659142138E+02  0.00000000000E+00 0.  1.
         11    1    3    3    0    0 -0.50696152566E+01  0.10505802640E+02 -0.86024895497E+01  0.14493988916E+02  0.51100000000E-03 0. -1.
        -11    1    3    3    0    0 -0.17085760965E+01 -0.13453563413E+00  0.43359369136E+01  0.46623686356E+01  0.51100000000E-03 0.  1.
         12    1    3    3    0    0  0.11493310233E+02  0.26123962463E+02 -0.13025980994E+02  0.31372500311E+02  0.00000000000E+00 0. -1.
</event>
<event>
 7    1  0.3129575E-011  0.5052884E+02  0.7816164E-02  0.1300439E+00
        -11   -1    0    0    0    0  0.00000000000E+00  0.00000000000E+00  0.45593999997E+02  0.45594000000E+02  0.51100000000E-03 0.  1.
         11   -1    0    0    0    0 -0.00000000000E+00 -0.00000000000E+00 -0.45593999997E+02  0.45594000000E+02  0.51100000000E-03 0. -1.
    9900012    2    1    2    0    0  0.84284106061E+01  0.30074346675E+02 -0.26031963945E+02  0.50528836456E+02  0.29999928893E+02 0.  0.
        -12    1    1    2    0    0 -0.84284106061E+01 -0.30074346675E+02  0.26031963945E+02  0.40659163544E+02  0.00000000000E+00 0.  1.
         11    1    3    3    0    0  0.51328315785E+01  0.11091249003E+02 -0.49799762559E+01  0.13197042405E+02  0.51100000000E-03 0. -1.
        -11    1    3    3    0    0 -0.15145993524E+01  0.18856551136E+02 -0.36363107484E+01  0.19263600081E+02  0.51100000000E-03 0.  1.
        -12    1    3    3    0    0  0.48101783800E+01  0.12654653532E+00 -0.17415676940E+02  0.18068193971E+02  0.00000000000E+00 0.  1.
</event>
<event>
 7    1  0.3129575E-011  0.5052886E+02  0.7816164E-02  0.1300439E+00
        -11   -1    0    0    0    0  0.00000000000E+00  0.00000000000E+00  0.45593999997E+02  0.45594000000E+02  0.51100000000E-03 0.  1.
         11   -1    0    0    0    0 -0.00000000000E+00 -0.00000000000E+00 -0.45593999997E+02  0.45594000000E+02  0.51100000000E-03 0. -1.
    9900012    2    1    2    0    0 -0.29127286220E+02 -0.74848122451E+01 -0.27363195817E+02  0.50528859549E+02  0.29999999086E+02 0.  0.
        -12    1    1    2    0    0  0.29127286220E+02  0.74848122451E+01  0.27363195817E+02  0.40659140451E+02  0.00000000000E+00 0.  1.
         11    1    3    3    0    0 -0.11212088292E+02 -0.94864016342E+01 -0.13085986383E+02  0.19670937438E+02  0.51100000000E-03 0. -1.
        -11    1    3    3    0    0 -0.19283779089E+02  0.58695785461E+01 -0.50807975622E+01  0.20787751018E+02  0.51100000000E-03 0.  1.
         12    1    3    3    0    0  0.13685811614E+01 -0.38679891570E+01 -0.91964118719E+01  0.10070171092E+02  0.00000000000E+00 0. -1.
</event>
<event>
 7    1  0.3129575E-011  0.5052885E+02  0.7816164E-02  0.1300439E+00
        -11   -1    0    0    0    0  0.00000000000E+00  0.00000000000E+00  0.45593999997E+02  0.45594000000E+02  0.51100000000E-03 0.  1.
         11   -1    0    0    0    0 -0.00000000000E+00 -0.00000000000E+00 -0.45593999997E+02  0.45594000000E+02  0.51100000000E-03 0. -1.
    9900012    2    1    2    0    0 -0.35041388964E+02  0.16574040538E+02 -0.12270637344E+02  0.50528852184E+02  0.29999976698E+02 0.  0.
        -12    1    1    2    0    0  0.35041388964E+02 -0.16574040538E+02  0.12270637344E+02  0.40659147816E+02  0.00000000000E+00 0.  1.
         11    1    3    3    0    0  0.19478424593E+01  0.12567826565E+01  0.22079153573E+01  0.32013252534E+01  0.51100000000E-03 0. -1.
        -11    1    3    3    0    0 -0.29542850446E+01  0.44940531848E+01 -0.99721043418E+01  0.11329924069E+02  0.51100000000E-03 0.  1.
         12    1    3    3    0    0 -0.34034946379E+02  0.10823204697E+02 -0.45064483600E+01  0.35997602861E+02  0.00000000000E+00 0. -1.
</event>
<event>
 7    1  0.3129575E-011  0.5052886E+02  0.7816164E-02  0.1300439E+00
        -11   -1    0    0    0    0  0.00000000000E+00  0.00000000000E+00  0.45593999997E+02  0.45594000000E+02  0.51100000000E-03 0.  1.
         11   -1    0    0    0    0 -0.00000000000E+00 -0.00000000000E+00 -0.45593999997E+02  0.45594000000E+02  0.51100000000E-03 0. -1.
    9900012    2    1    2    0    0 -0.11565761567E+02  0.68675460611E+01 -0.38369721796E+02  0.50528861049E+02  0.30000003645E+02 0.  0.
        -12    1    1    2    0    0  0.11565761567E+02 -0.68675460611E+01  0.38369721796E+02  0.40659138951E+02  0.00000000000E+00 0.  1.
         11    1    3    3    0    0 -0.25250188630E+01  0.13316349609E+02 -0.16495882689E+02  0.21349825131E+02  0.51100000000E-03 0. -1.
        -11    1    3    3    0    0 -0.90786824158E+01  0.50870920804E+00 -0.20005372209E+02  0.21974898793E+02  0.51100000000E-03 0.  1.
         12    1    3    3    0    0  0.37939711505E-01 -0.69575127561E+01 -0.18684668979E+01  0.72041371254E+01  0.00000000000E+00 0. -1.
</event>
<event>
 7    1  0.3129575E-011  0.5052886E+02  0.7816164E-02  0.1300439E+00
        -11   -1    0    0    0    0  0.00000000000E+00  0.00000000000E+00  0.45593999997E+02  0.45594000000E+02  0.51100000000E-03 0.  1.
         11   -1    0    0    0    0 -0.00000000000E+00 -0.00000000000E+00 -0.45593999997E+02  0.45594000000E+02  0.51100000000E-03 0. -1.
    9900012    2    1    2    0    0 -0.26767169309E+01  0.28408032800E+02 -0.28965226812E+02  0.50528861970E+02  0.30000006443E+02 0.  0.
        -12    1    1    2    0    0  0.26767169309E+01 -0.28408032800E+02  0.28965226812E+02  0.40659138030E+02  0.00000000000E+00 0.  1.
         11    1    3    3    0    0 -0.82080005017E+01  0.74628500931E+01 -0.13634291461E+02  0.17577238339E+02  0.51100000000E-03 0. -1.
        -11    1    3    3    0    0 -0.42605983297E+01 -0.64612389814E+00  0.65336153092E+00  0.43585612041E+01  0.51100000000E-03 0.  1.
         12    1    3    3    0    0  0.97918819005E+01  0.21591306605E+02 -0.15984296882E+02  0.28593062426E+02  0.00000000000E+00 0. -1.
</event>
<event>
 7    1  0.3129575E-011  0.5052886E+02  0.7816164E-02  0.1300439E+00
        -11   -1    0    0    0    0  0.00000000000E+00  0.00000000000E+00  0.45593999997E+02  0.45594000000E+02  0.51100000000E-03 0.  1.
         11   -1    0    0    0    0 -0.00000000000E+00 -0.00000000000E+00 -0.45593999997E+02  0.45594000000E+02  0.51100000000E-03 0. -1.
    9900012    2    1    2    0    0 -0.38349497483E+01 -0.24592588712E+02 -0.32150641046E+02  0.50528856148E+02  0.29999988748E+02 0.  0.
        -12    1    1    2    0    0  0.38349497483E+01  0.24592588712E+02  0.32150641046E+02  0.40659143852E+02  0.00000000000E+00 0.  1.
         11    1    3    3    0    0  0.42988148053E+01 -0.21811128140E+02 -0.16257796837E+02  0.27541261368E+02  0.51100000000E-03 0. -1.
        -11    1    3    3    0    0 -0.74493820934E+01 -0.79491271296E+01 -0.79479167961E+01  0.13485225150E+02  0.51100000000E-03 0.  1.
        -12    1    3    3    0    0 -0.68438246021E+00  0.51676665578E+01 -0.79449274126E+01  0.95023696305E+01  0.00000000000E+00 0.  1.
</event>
<event>
 7    1  0.3129575E-011  0.5052887E+02  0.7816164E-02  0.1300439E+00
        -11   -1    0    0    0    0  0.00000000000E+00  0.00000000000E+00  0.45593999997E+02  0.45594000000E+02  0.51100000000E-03 0.  1.
         11   -1    0    0    0    0 -0.00000000000E+00 -0.00000000000E+00 -0.45593999997E+02  0.45594000000E+02  0.51100000000E-03 0. -1.
    9900012    2    1    2    0    0  0.42113022828E+01  0.26424805582E+02 -0.30613064203E+02  0.50528866747E+02  0.30000020965E+02 0.  0.
        -12    1    1    2    0    0 -0.42113022828E+01 -0.26424805582E+02  0.30613064203E+02  0.40659133253E+02  0.00000000000E+00 0.  1.
         11    1    3    3    0    0 -0.60692174621E+01  0.15811644442E+02 -0.23402247035E+02  0.28887863665E+02  0.51100000000E-03 0. -1.
        -11    1    3    3    0    0 -0.28014900142E+01  0.31222399827E+01 -0.47997391805E+01  0.63744980408E+01  0.51100000000E-03 0.  1.
        -12    1    3    3    0    0  0.13082009759E+02  0.74909211579E+01 -0.24110779871E+01  0.15266505042E+02  0.00000000000E+00 0.  1.
</event>
<event>
 7    1  0.3129575E-011  0.5052879E+02  0.7816164E-02  0.1300439E+00
        -11   -1    0    0    0    0  0.00000000000E+00  0.00000000000E+00  0.45593999997E+02  0.45594000000E+02  0.51100000000E-03 0.  1.
         11   -1    0    0    0    0 -0.00000000000E+00 -0.00000000000E+00 -0.45593999997E+02  0.45594000000E+02  0.51100000000E-03 0. -1.
    9900012    2    1    2    0    0  0.60455560206E+01 -0.40206638801E+02 -0.22003252040E+00  0.50528794823E+02  0.29999802344E+02 0.  0.
        -12    1    1    2    0    0 -0.60455560206E+01  0.40206638801E+02  0.22003252040E+00  0.40659205177E+02  0.00000000000E+00 0.  1.
         11    1    3    3    0    0  0.11015266573E+02 -0.10377792369E+02 -0.74654593069E+01  0.16875063112E+02  0.51100000000E-03 0. -1.
        -11    1    3    3    0    0 -0.70261361617E+01 -0.77063934316E+01  0.52510122781E+00  0.10441782446E+02  0.51100000000E-03 0.  1.
        -12    1    3    3    0    0  0.20564256096E+01 -0.22122453001E+02  0.67203255587E+01  0.23211949265E+02  0.00000000000E+00 0.  1.
</event>
<event>
 7    1  0.4059125E-011  0.5052885E+02  0.7816164E-02  0.1300439E+00
        -11   -1    0    0    0    0  0.00000000000E+00  0.00000000000E+00  0.45593999997E+02  0.45594000000E+02  0.51100000000E-03 0. -1.
         11   -1    0    0    0    0 -0.00000000000E+00 -0.00000000000E+00 -0.45593999997E+02  0.45594000000E+02  0.51100000000E-03 0.  1.
    9900012    2    1    2    0    0  0.33948415989E+02  0.62979478500E+00  0.22366827357E+02  0.50528849054E+02  0.29999967184E+02 0.  0.
        -12    1    1    2    0    0 -0.33948415989E+02 -0.62979478500E+00 -0.22366827357E+02  0.40659150946E+02  0.00000000000E+00 0.  1.
         11    1    3    3    0    0  0.13366541327E+01 -0.28658528591E+01  0.11116251666E+02  0.11557283774E+02  0.51100000000E-03 0. -1.
        -11    1    3    3    0    0  0.14810476265E+01  0.85841605148E+00 -0.38929182146E+01  0.42526688886E+01  0.51100000000E-03 0.  1.
         12    1    3    3    0    0  0.31130714230E+02  0.26372315927E+01  0.15143493906E+02  0.34718896391E+02  0.00000000000E+00 0. -1.
</event>
<event>
 7    1  0.3129575E-011  0.5052885E+02  0.7816164E-02  0.1300439E+00
        -11   -1    0    0    0    0  0.00000000000E+00  0.00000000000E+00  0.45593999997E+02  0.45594000000E+02  0.51100000000E-03 0.  1.
         11   -1    0    0    0    0 -0.00000000000E+00 -0.00000000000E+00 -0.45593999997E+02  0.45594000000E+02  0.51100000000E-03 0. -1.
    9900012    2    1    2    0    0 -0.37453030170E+01 -0.96887588573E+01 -0.39309885955E+02  0.50528850025E+02  0.29999970136E+02 0.  0.
        -12    1    1    2    0    0  0.37453030170E+01  0.96887588573E+01  0.39309885955E+02  0.40659149975E+02  0.00000000000E+00 0.  1.
         11    1    3    3    0    0  0.27930052778E+01 -0.42175809105E+01 -0.38329399207E+02  0.38661760320E+02  0.51100000000E-03 0. -1.
        -11    1    3    3    0    0 -0.35632867467E+00 -0.26172498542E+00 -0.33999243405E+01  0.34285501126E+01  0.51100000000E-03 0.  1.
        -12    1    3    3    0    0 -0.61819796202E+01 -0.52094529614E+01  0.24194375929E+01  0.84385395921E+01  0.00000000000E+00 0.  1.
</event>
<event>
 7    1  0.3129575E-011  0.5052889E+02  0.7816164E-02  0.1300439E+00
        -11   -1    0    0    0    0  0.00000000000E+00  0.00000000000E+00  0.45593999997E+02  0.45594000000E+02  0.51100000000E-03 0.  1.
         11   -1    0    0    0    0 -0.00000000000E+00 -0.00000000000E+00 -0.45593999997E+02  0.45594000000E+02  0.51100000000E-03 0. -1.
    9900012    2    1    2    0    0  0.31051335025E+02 -0.25952184837E+02  0.39321443874E+01  0.50528891990E+02  0.30000097694E+02 0.  0.
        -12    1    1    2    0    0 -0.31051335025E+02  0.25952184837E+02 -0.39321443874E+01  0.40659108010E+02  0.00000000000E+00 0.  1.
         11    1    3    3    0    0  0.75994737472E+01 -0.12373004991E+01 -0.27704948301E+01  0.81828207621E+01  0.51100000000E-03 0. -1.
        -11    1    3    3    0    0  0.21688677202E+02 -0.59860057245E+01  0.38832106520E+00  0.22502928183E+02  0.51100000000E-03 0.  1.
        -12    1    3    3    0    0  0.17631840765E+01 -0.18728878613E+02  0.63143181523E+01  0.19843143045E+02  0.00000000000E+00 0.  1.
</event>
<event>
 7    1  0.3129575E-011  0.5052886E+02  0.7816164E-02  0.1300439E+00
        -11   -1    0    0    0    0  0.00000000000E+00  0.00000000000E+00  0.45593999997E+02  0.45594000000E+02  0.51100000000E-03 0. -1.
         11   -1    0    0    0    0 -0.00000000000E+00 -0.00000000000E+00 -0.45593999997E+02  0.45594000000E+02  0.51100000000E-03 0.  1.
    9900012    2    1    2    0    0  0.23174390159E+02  0.29145978728E+02  0.16328662217E+02  0.50528860252E+02  0.30000001221E+02 0.  0.
        -12    1    1    2    0    0 -0.23174390159E+02 -0.29145978728E+02 -0.16328662217E+02  0.40659139748E+02  0.00000000000E+00 0.  1.
         11    1    3    3    0    0  0.79716950285E+01  0.14352908003E+02  0.38760529266E+00  0.16422671156E+02  0.51100000000E-03 0. -1.
        -11    1    3    3    0    0  0.42571378162E+00  0.14041464088E+02  0.12747202244E+02  0.18969320264E+02  0.51100000000E-03 0.  1.
         12    1    3    3    0    0  0.14776981349E+02  0.75160663687E+00  0.31938546809E+01  0.15136868832E+02  0.00000000000E+00 0. -1.
</event>
<event>
 7    1  0.3129575E-011  0.5052886E+02  0.7816164E-02  0.1300439E+00
        -11   -1    0    0    0    0  0.00000000000E+00  0.00000000000E+00  0.45593999997E+02  0.45594000000E+02  0.51100000000E-03 0.  1.
         11   -1    0    0    0    0 -0.00000000000E+00 -0.00000000000E+00 -0.45593999997E+02  0.45594000000E+02  0.51100000000E-03 0. -1.
    9900012    2    1    2    0    0  0.28597450655E+02  0.11815309753E+02 -0.26377072119E+02  0.50528860043E+02  0.30000000586E+02 0.  0.
        -12    1    1    2    0    0 -0.28597450655E+02 -0.11815309753E+02  0.26377072119E+02  0.40659139957E+02  0.00000000000E+00 0.  1.
         11    1    3    3    0    0  0.78664693550E+01  0.14907444059E+02 -0.84482877905E+01  0.18854357463E+02  0.51100000000E-03 0. -1.
        -11    1    3    3    0    0  0.14035587384E+02 -0.22294120921E+01 -0.19710353264E+01  0.14347577217E+02  0.51100000000E-03 0.  1.
        -12    1    3    3    0    0  0.66953939159E+01 -0.86272221451E+00 -0.15957749002E+02  0.17326925362E+02  0.00000000000E+00 0.  1.
</event>
<event>
 7    1  0.3129575E-011  0.5052888E+02  0.7816164E-02  0.1300439E+00
        -11   -1    0    0    0    0  0.00000000000E+00  0.00000000000E+00  0.45593999997E+02  0.45594000000E+02  0.51100000000E-03 0. -1.
         11   -1    0    0    0    0 -0.00000000000E+00 -0.00000000000E+00 -0.45593999997E+02  0.45594000000E+02  0.51100000000E-03 0.  1.
    9900012    2    1    2    0    0 -0.24034979961E+02  0.26125124511E+02  0.19823260280E+02  0.50528879983E+02  0.30000061195E+02 0.  0.
        -12    1    1    2    0    0  0.24034979961E+02 -0.26125124511E+02 -0.19823260280E+02  0.40659120017E+02  0.00000000000E+00 0.  1.
         11    1    3    3    0    0 -0.16360929113E+02  0.46400003306E+01  0.10696904499E+02  0.20090628926E+02  0.51100000000E-03 0. -1.
        -11    1    3    3    0    0 -0.34365738600E+01  0.11170239937E+02  0.14026936294E+02  0.18257580404E+02  0.51100000000E-03 0.  1.
        -12    1    3    3    0    0 -0.42374769882E+01  0.10314884243E+02 -0.49005805133E+01  0.12180670653E+02  0.00000000000E+00 0.  1.
</event>
<event>
 7    1  0.3129575E-011  0.5052885E+02  0.7816164E-02  0.1300439E+00
        -11   -1    0    0    0    0  0.00000000000E+00  0.00000000000E+00  0.45593999997E+02  0.45594000000E+02  0.51100000000E-03 0.  1.
         11   -1    0    0    0    0 -0.00000000000E+00 -0.00000000000E+00 -0.45593999997E+02  0.45594000000E+02  0.51100000000E-03 0. -1.
    9900012    2    1    2    0    0  0.63190865137E+01  0.38671198140E+02  0.10852358147E+02  0.50528854691E+02  0.29999984318E+02 0.  0.
        -12    1    1    2    0    0 -0.63190865137E+01 -0.38671198140E+02 -0.10852358147E+02  0.40659145309E+02  0.00000000000E+00 0.  1.
         11    1    3    3    0    0 -0.48993394593E+01  0.44012005818E+01 -0.21433018143E+01  0.69258816497E+01  0.51100000000E-03 0. -1.
        -11    1    3    3    0    0  0.49722554273E+01  0.27707301784E+00 -0.26765154411E+01  0.56536562205E+01  0.51100000000E-03 0.  1.
         12    1    3    3    0    0  0.62461705456E+01  0.33992924540E+02  0.15672175403E+02  0.37949316820E+02  0.00000000000E+00 0. -1.
</event>
<event>
 7    1  0.3129575E-011  0.5052886E+02  0.7816164E-02  0.1300439E+00
        -11   -1    0    0    0    0  0.00000000000E+00  0.00000000000E+00  0.45593999997E+02  0.45594000000E+02  0.51100000000E-03 0.  1.
         11   -1    0    0    0    0 -0.00000000000E+00 -0.00000000000E+00 -0.45593999997E+02  0.45594000000E+02  0.51100000000E-03 0. -1.
    9900012    2    1    2    0    0 -0.18733110255E+02 -0.10676970636E+02 -0.34470841005E+02  0.50528855871E+02  0.29999987904E+02 0.  0.
        -12    1    1    2    0    0  0.18733110255E+02  0.10676970636E+02  0.34470841005E+02  0.40659144129E+02  0.00000000000E+00 0.  1.
         11    1    3    3    0    0 -0.79931086903E+01 -0.15233318390E+00 -0.28625104027E+02  0.29720524436E+02  0.51100000000E-03 0. -1.
        -11    1    3    3    0    0 -0.97736391036E+01 -0.17548822475E+01 -0.66467908040E+01  0.11949203374E+02  0.51100000000E-03 0.  1.
         12    1    3    3    0    0 -0.96636246067E+00 -0.87697552046E+01  0.80105382623E+00  0.88591280602E+01  0.00000000000E+00 0. -1.
</event>
<event>
 7    1  0.4895087E-011  0.5052886E+02  0.7816164E-02  0.1300439E+00
        -11   -1    0    0    0    0  0.00000000000E+00  0.00000000000E+00  0.45593999997E+02  0.45594000000E+02  0.51100000000E-03 0.  1.
         11   -1    0    0    0    0 -0.00000000000E+00 -0.00000000000E+00 -0.45593999997E+02  0.45594000000E+02  0.51100000000E-03 0. -1.
    9900012    2    1    2    0    0  0.14486667891E+02 -0.31321466204E+02 -0.21500417727E+02  0.50528858910E+02  0.29999997142E+02 0.  0.
        -12    1    1    2    0    0 -0.14486667891E+02  0.31321466204E+02  0.21500417727E+02  0.40659141090E+02  0.00000000000E+00 0.  1.
         11    1    3    3    0    0  0.57756430473E+01 -0.19351066416E+02 -0.13178211174E+01  0.20237551156E+02  0.51100000000E-03 0. -1.
        -11    1    3    3    0    0 -0.48918170962E+01 -0.25981220679E+01 -0.24501046383E+01  0.60566596224E+01  0.51100000000E-03 0.  1.
         12    1    3    3    0    0  0.13602841940E+02 -0.93722777204E+01 -0.17732491972E+02  0.24234648131E+02  0.00000000000E+00 0. -1.
</event>
<event>
 7    1  0.3129575E-011  0.5052885E+02  0.7816164E-02  0.1300439E+00
        -11   -1    0    0    0    0  0.00000000000E+00  0.00000000000E+00  0.45593999997E+02  0.45594000000E+02  0.51100000000E-03 0.  1.
         11   -1    0    0    0    0 -0.00000000000E+00 -0.00000000000E+00 -0.45593999997E+02  0.45594000000E+02  0.51100000000E-03 0. -1.
    9900012    2    1    2    0    0 -0.19282486872E+02  0.74567668182E+01 -0.35010694511E+02  0.50528850949E+02  0.29999972946E+02 0.  0.
        -12    1    1    2    0    0  0.19282486872E+02 -0.74567668182E+01  0.35010694511E+02  0.40659149051E+02  0.00000000000E+00 0.  1.
         11    1    3    3    0    0 -0.71322542738E+01  0.89761343386E+01 -0.57389722459E+01  0.12820914218E+02  0.51100000000E-03 0.  1.
        -11    1    3    3    0    0 -0.65875273570E+01  0.67369412064E+01 -0.25285638059E+02  0.26984169170E+02  0.51100000000E-03 0. -1.
         12    1    3    3    0    0 -0.55627052416E+01 -0.82563087268E+01 -0.39860842062E+01  0.10723767561E+02  0.00000000000E+00 0. -1.
</event>
<event>
 7    1  0.3129575E-011  0.5052886E+02  0.7816164E-02  0.1300439E+00
        -11   -1    0    0    0    0  0.00000000000E+00  0.00000000000E+00  0.45593999997E+02  0.45594000000E+02  0.51100000000E-03 0.  1.
         11   -1    0    0    0    0 -0.00000000000E+00 -0.00000000000E+00 -0.45593999997E+02  0.45594000000E+02  0.51100000000E-03 0. -1.
    9900012    2    1    2    0    0 -0.20978703872E+02 -0.18524750034E+02 -0.29493955046E+02  0.50528858786E+02  0.29999996766E+02 0.  0.
        -12    1    1    2    0    0  0.20978703872E+02  0.18524750034E+02  0.29493955046E+02  0.40659141214E+02  0.00000000000E+00 0.  1.
         11    1    3    3    0    0 -0.17343013828E+00  0.39827024282E+01 -0.27307154844E+01  0.48320600123E+01  0.51100000000E-03 0. -1.
        -11    1    3    3    0    0 -0.23463895086E+02 -0.14876072486E+02 -0.15436279169E+02  0.31782552133E+02  0.51100000000E-03 0.  1.
         12    1    3    3    0    0  0.26586213526E+01 -0.76313799762E+01 -0.11326960393E+02  0.13914246641E+02  0.00000000000E+00 0. -1.
</event>
<event>
 7    1  0.3129575E-011  0.5052886E+02  0.7816164E-02  0.1300439E+00
        -11   -1    0    0    0    0  0.00000000000E+00  0.00000000000E+00  0.45593999997E+02  0.45594000000E+02  0.51100000000E-03 0. -1.
         11   -1    0    0    0    0 -0.00000000000E+00 -0.00000000000E+00 -0.45593999997E+02  0.45594000000E+02  0.51100000000E-03 0.  1.
    9900012    2    1    2    0    0 -0.18502546340E+02 -0.22517244768E+02  0.28351284964E+02  0.50528857214E+02  0.29999991988E+02 0.  0.
        -12    1    1    2    0    0  0.18502546340E+02  0.22517244768E+02 -0.28351284964E+02  0.40659142786E+02  0.00000000000E+00 0.  1.
         11    1    3    3    0    0 -0.31747305796E+01 -0.87354940867E+01  0.13654394673E+01  0.93942640155E+01  0.51100000000E-03 0. -1.
        -11    1    3    3    0    0 -0.67421427475E+00 -0.64417959741E+01 -0.28636253502E+01  0.70817830147E+01  0.51100000000E-03 0.  1.
        -12    1    3    3    0    0 -0.14653601485E+02 -0.73399547069E+01  0.29849470847E+02  0.34052810184E+02  0.00000000000E+00 0.  1.
</event>
<event>
 7    1  0.3129575E-011  0.5052891E+02  0.7816164E-02  0.1300439E+00
        -11   -1    0    0    0    0  0.00000000000E+00  0.00000000000E+00  0.45593999997E+02  0.45594000000E+02  0.51100000000E-03 0.  1.
         11   -1    0    0    0    0 -0.00000000000E+00 -0.00000000000E+00 -0.45593999997E+02  0.45594000000E+02  0.51100000000E-03 0. -1.
    9900012    2    1    2    0    0  0.23208295968E+02  0.30404502772E+02 -0.13787789593E+02  0.50528905908E+02  0.30000139996E+02 0.  0.
        -12    1    1    2    0    0 -0.23208295968E+02 -0.30404502772E+02  0.13787789593E+02  0.40659094092E+02  0.00000000000E+00 0.  1.
         11    1    3    3    0    0  0.97792360793E+01  0.18874374474E+02 -0.31939706910E+01  0.21495974486E+02  0.51100000000E-03 0. -1.
        -11    1    3    3    0    0  0.37817852631E+01  0.12076586106E+02  0.23591140626E+01  0.12872888222E+02  0.51100000000E-03 0.  1.
         12    1    3    3    0    0  0.96472746255E+01 -0.54645780741E+00 -0.12952932964E+02  0.16160043199E+02  0.00000000000E+00 0. -1.
</event>
<event>
 7    1  0.3129575E-011  0.5052886E+02  0.7816164E-02  0.1300439E+00
        -11   -1    0    0    0    0  0.00000000000E+00  0.00000000000E+00  0.45593999997E+02  0.45594000000E+02  0.51100000000E-03 0.  1.
         11   -1    0    0    0    0 -0.00000000000E+00 -0.00000000000E+00 -0.45593999997E+02  0.45594000000E+02  0.51100000000E-03 0. -1.
    9900012    2    1    2    0    0  0.12909959266E+01  0.25991092957E+02 -0.31240396356E+02  0.50528856526E+02  0.29999989896E+02 0.  0.
        -12    1    1    2    0    0 -0.12909959266E+01 -0.25991092957E+02  0.31240396356E+02  0.40659143474E+02  0.00000000000E+00 0.  1.
         11    1    3    3    0    0  0.54409131655E+01  0.18083252232E+02 -0.16272617278E+02  0.24928008759E+02  0.51100000000E-03 0. -1.
        -11    1    3    3    0    0 -0.70145195174E+01  0.12840241527E+02 -0.12984389314E+02  0.19561943990E+02  0.51100000000E-03 0.  1.
        -12    1    3    3    0    0  0.28646022784E+01 -0.49324008014E+01 -0.19833897633E+01  0.60389037774E+01  0.00000000000E+00 0.  1.
</event>
<event>
 7    1  0.3129575E-011  0.5052883E+02  0.7816164E-02  0.1300439E+00
        -11   -1    0    0    0    0  0.00000000000E+00  0.00000000000E+00  0.45593999997E+02  0.45594000000E+02  0.51100000000E-03 0. -1.
         11   -1    0    0    0    0 -0.00000000000E+00 -0.00000000000E+00 -0.45593999997E+02  0.45594000000E+02  0.51100000000E-03 0.  1.
    9900012    2    1    2    0    0 -0.30510636869E+02  0.24892570088E+00  0.26873906439E+02  0.50528834078E+02  0.29999921665E+02 0.  0.
        -12    1    1    2    0    0  0.30510636869E+02 -0.24892570088E+00 -0.26873906439E+02  0.40659165922E+02  0.00000000000E+00 0.  1.
         11    1    3    3    0    0 -0.28913896758E+01 -0.14625268250E+01 -0.37598257465E+01  0.49634069828E+01  0.51100000000E-03 0. -1.
        -11    1    3    3    0    0  0.13048023704E+01  0.28312361998E+01 -0.38231423477E+00  0.31407916327E+01  0.51100000000E-03 0.  1.
         12    1    3    3    0    0 -0.28924049564E+02 -0.11197836739E+01  0.31016046420E+02  0.42424635463E+02  0.00000000000E+00 0. -1.
</event>
<event>
 7    1  0.3129575E-011  0.5052887E+02  0.7816164E-02  0.1300439E+00
        -11   -1    0    0    0    0  0.00000000000E+00  0.00000000000E+00  0.45593999997E+02  0.45594000000E+02  0.51100000000E-03 0.  1.
         11   -1    0    0    0    0 -0.00000000000E+00 -0.00000000000E+00 -0.45593999997E+02  0.45594000000E+02  0.51100000000E-03 0. -1.
    9900012    2    1    2    0    0  0.18488599889E+02  0.24039995047E+02 -0.27081643087E+02  0.50528867200E+02  0.30000022341E+02 0.  0.
        -12    1    1    2    0    0 -0.18488599889E+02 -0.24039995047E+02  0.27081643087E+02  0.40659132800E+02  0.00000000000E+00 0.  1.
         11    1    3    3    0    0  0.30423542113E+01  0.22116810625E+02 -0.22018640366E+02  0.31356494626E+02  0.51100000000E-03 0. -1.
        -11    1    3    3    0    0  0.15457320776E+00  0.21359743600E+01  0.14117908113E+01  0.25650405258E+01  0.51100000000E-03 0.  1.
        -12    1    3    3    0    0  0.15291672470E+02 -0.21278993808E+00 -0.64747935331E+01  0.16607332049E+02  0.00000000000E+00 0.  1.
</event>
<event>
 7    1  0.3129575E-011  0.5052887E+02  0.7816164E-02  0.1300439E+00
        -11   -1    0    0    0    0  0.00000000000E+00  0.00000000000E+00  0.45593999997E+02  0.45594000000E+02  0.51100000000E-03 0.  1.
         11   -1    0    0    0    0 -0.00000000000E+00 -0.00000000000E+00 -0.45593999997E+02  0.45594000000E+02  0.51100000000E-03 0. -1.
    9900012    2    1    2    0    0  0.32099582641E+02 -0.24954935565E+02  0.18173885873E+00  0.50528867645E+02  0.30000023695E+02 0.  0.
        -12    1    1    2    0    0 -0.32099582641E+02  0.24954935565E+02 -0.18173885873E+00  0.40659132355E+02  0.00000000000E+00 0.  1.
         11    1    3    3    0    0  0.27226455068E+02 -0.24601660641E+02 -0.23274264698E+01  0.36768715997E+02  0.51100000000E-03 0. -1.
        -11    1    3    3    0    0 -0.12381802067E+01 -0.53134363948E+01  0.22015153181E+01  0.58832275583E+01  0.51100000000E-03 0.  1.
        -12    1    3    3    0    0  0.61113077796E+01  0.49601614700E+01  0.30765001038E+00  0.78769240897E+01  0.00000000000E+00 0.  1.
</event>
<event>
 7    1  0.3129575E-011  0.5052883E+02  0.7816164E-02  0.1300439E+00
        -11   -1    0    0    0    0  0.00000000000E+00  0.00000000000E+00  0.45593999997E+02  0.45594000000E+02  0.51100000000E-03 0. -1.
         11   -1    0    0    0    0 -0.00000000000E+00 -0.00000000000E+00 -0.45593999997E+02  0.45594000000E+02  0.51100000000E-03 0.  1.
    9900012    2    1    2    0    0 -0.60986169315E+01 -0.31382506777E+02  0.25121968554E+02  0.50528829274E+02  0.29999907060E+02 0.  0.
        -12    1    1    2    0    0  0.60986169315E+01  0.31382506777E+02 -0.25121968554E+02  0.40659170726E+02  0.00000000000E+00 0.  1.
         11    1    3    3    0    0 -0.56308599603E+01 -0.70640399809E+01  0.25317471350E+01  0.93817369692E+01  0.51100000000E-03 0. -1.
        -11    1    3    3    0    0 -0.81655738588E+01 -0.17315445453E+02  0.35818099168E+01  0.19476411637E+02  0.51100000000E-03 0.  1.
         12    1    3    3    0    0  0.76978168876E+01 -0.70030213428E+01  0.19008411503E+02  0.21670680668E+02  0.00000000000E+00 0. -1.
</event>
<event>
 7    1  0.3129575E-011  0.5052886E+02  0.7816164E-02  0.1300439E+00
        -11   -1    0    0    0    0  0.00000000000E+00  0.00000000000E+00  0.45593999997E+02  0.45594000000E+02  0.51100000000E-03 0.  1.
         11   -1    0    0    0    0 -0.00000000000E+00 -0.00000000000E+00 -0.45593999997E+02  0.45594000000E+02  0.51100000000E-03 0. -1.
    9900012    2    1    2    0    0 -0.20321218336E+02 -0.20558064392E+02 -0.28593348816E+02  0.50528861756E+02  0.30000005794E+02 0.  0.
        -12    1    1    2    0    0  0.20321218336E+02  0.20558064392E+02  0.28593348816E+02  0.40659138244E+02  0.00000000000E+00 0.  1.
         11    1    3    3    0    0 -0.65434764845E+01 -0.46702141183E+01 -0.76977363587E+01  0.11130279858E+02  0.51100000000E-03 0. -1.
        -11    1    3    3    0    0 -0.16766010739E+01  0.58967893573E+01 -0.10985536147E+02  0.12580346601E+02  0.51100000000E-03 0.  1.
         12    1    3    3    0    0 -0.12101140777E+02 -0.21784639631E+02 -0.99100763100E+01  0.26818235297E+02  0.00000000000E+00 0. -1.
</event>
<event>
 7    1  0.3129575E-011  0.5052886E+02  0.7816164E-02  0.1300439E+00
        -11   -1    0    0    0    0  0.00000000000E+00  0.00000000000E+00  0.45593999997E+02  0.45594000000E+02  0.51100000000E-03 0. -1.
         11   -1    0    0    0    0 -0.00000000000E+00 -0.00000000000E+00 -0.45593999997E+02  0.45594000000E+02  0.51100000000E-03 0.  1.
    9900012    2    1    2    0    0 -0.18791546235E+02  0.36116526480E+01  0.35874772915E+02  0.50528861095E+02  0.30000003785E+02 0.  0.
        -12    1    1    2    0    0  0.18791546235E+02 -0.36116526480E+01 -0.35874772915E+02  0.40659138905E+02  0.00000000000E+00 0.  1.
         11    1    3    3    0    0 -0.38379853565E+01  0.27260089875E+01  0.70877288092E+01  0.85086518633E+01  0.51100000000E-03 0. -1.
        -11    1    3    3    0    0 -0.11668642598E+02  0.14060162442E+01  0.33923064758E+02  0.35901370790E+02  0.51100000000E-03 0.  1.
        -12    1    3    3    0    0 -0.32849182803E+01 -0.52037258368E+00 -0.51360206521E+01  0.61188384415E+01  0.00000000000E+00 0.  1.
</event>
<event>
 7    1  0.3129575E-011  0.5052886E+02  0.7816164E-02  0.1300439E+00
        -11   -1    0    0    0    0  0.00000000000E+00  0.00000000000E+00  0.45593999997E+02  0.45594000000E+02  0.51100000000E-03 0. -1.
         11   -1    0    0    0    0 -0.00000000000E+00 -0.00000000000E+00 -0.45593999997E+02  0.45594000000E+02  0.51100000000E-03 0.  1.
    9900012    2    1    2    0    0 -0.44453609223E+01  0.15108088973E+02  0.37485329887E+02  0.50528861508E+02  0.30000005041E+02 0.  0.
        -12    1    1    2    0    0  0.44453609223E+01 -0.15108088973E+02 -0.37485329887E+02  0.40659138492E+02  0.00000000000E+00 0.  1.
         11    1    3    3    0    0 -0.16524218224E+01  0.37788225681E+01  0.19745648711E+02  0.20171778334E+02  0.51100000000E-03 0. -1.
        -11    1    3    3    0    0 -0.99584949006E+01  0.22682861632E+00  0.12869641058E+02  0.16274235255E+02  0.51100000000E-03 0.  1.
        -12    1    3    3    0    0  0.71655558006E+01  0.11102437788E+02  0.48700401180E+01  0.14082847920E+02  0.00000000000E+00 0.  1.
</event>
<event>
 7    1  0.3129575E-011  0.5052886E+02  0.7816164E-02  0.1300439E+00
        -11   -1    0    0    0    0  0.00000000000E+00  0.00000000000E+00  0.45593999997E+02  0.45594000000E+02  0.51100000000E-03 0.  1.
         11   -1    0    0    0    0 -0.00000000000E+00 -0.00000000000E+00 -0.45593999997E+02  0.45594000000E+02  0.51100000000E-03 0. -1.
    9900012    2    1    2    0    0 -0.16735543201E+01 -0.40438872411E+02  0.38810786500E+01  0.50528856411E+02  0.29999989547E+02 0.  0.
        -12    1    1    2    0    0  0.16735543201E+01  0.40438872411E+02 -0.38810786500E+01  0.40659143589E+02  0.00000000000E+00 0.  1.
         11    1    3    3    0    0 -0.66078620660E+01 -0.87567762890E+01  0.58865969701E+00  0.10985967985E+02  0.51100000000E-03 0. -1.
        -11    1    3    3    0    0 -0.99870644297E-01 -0.13061111208E+02  0.12579527491E+02  0.18134142171E+02  0.51100000000E-03 0.  1.
         12    1    3    3    0    0  0.50341783902E+01 -0.18620984913E+02 -0.92871085380E+01  0.21408746255E+02  0.00000000000E+00 0. -1.
</event>
<event>
 7    1  0.3129575E-011  0.5052885E+02  0.7816164E-02  0.1300439E+00
        -11   -1    0    0    0    0  0.00000000000E+00  0.00000000000E+00  0.45593999997E+02  0.45594000000E+02  0.51100000000E-03 0.  1.
         11   -1    0    0    0    0 -0.00000000000E+00 -0.00000000000E+00 -0.45593999997E+02  0.45594000000E+02  0.51100000000E-03 0. -1.
    9900012    2    1    2    0    0  0.61330535393E+01 -0.15209984887E+02 -0.37204951845E+02  0.50528850626E+02  0.29999971963E+02 0.  0.
        -12    1    1    2    0    0 -0.61330535393E+01  0.15209984887E+02  0.37204951845E+02  0.40659149374E+02  0.00000000000E+00 0.  1.
         11    1    3    3    0    0 -0.24609081875E+01 -0.22909437263E+01 -0.23733477592E+01  0.41154917217E+01  0.51100000000E-03 0. -1.
        -11    1    3    3    0    0  0.73120844353E+01 -0.10309761154E+02 -0.39188050264E+02  0.41175976462E+02  0.51100000000E-03 0.  1.
         12    1    3    3    0    0  0.12818772915E+01 -0.26092800069E+01  0.43564461780E+01  0.52373824423E+01  0.00000000000E+00 0. -1.
</event>
<event>
 7    1  0.3129575E-011  0.5052885E+02  0.7816164E-02  0.1300439E+00
        -11   -1    0    0    0    0  0.00000000000E+00  0.00000000000E+00  0.45593999997E+02  0.45594000000E+02  0.51100000000E-03 0. -1.
         11   -1    0    0    0    0 -0.00000000000E+00 -0.00000000000E+00 -0.45593999997E+02  0.45594000000E+02  0.51100000000E-03 0.  1.
    9900012    2    1    2    0    0 -0.18086915826E+01 -0.39737596611E+02 -0.84153938680E+01  0.50528846005E+02  0.29999957917E+02 0.  0.
        -12    1    1    2    0    0  0.18086915826E+01  0.39737596611E+02  0.84153938680E+01  0.40659153995E+02  0.00000000000E+00 0.  1.
         11    1    3    3    0    0 -0.28804164254E+01 -0.24829286344E+02  0.38671104618E+01  0.25293176999E+02  0.51100000000E-03 0. -1.
        -11    1    3    3    0    0 -0.25466995309E+01 -0.17442418236E+02 -0.98034470893E+01  0.20170057202E+02  0.51100000000E-03 0.  1.
        -12    1    3    3    0    0  0.36184243737E+01  0.25341079692E+01 -0.24790572404E+01  0.50656118040E+01  0.00000000000E+00 0.  1.
</event>
<event>
 7    1  0.3129575E-011  0.5052886E+02  0.7816164E-02  0.1300439E+00
        -11   -1    0    0    0    0  0.00000000000E+00  0.00000000000E+00  0.45593999997E+02  0.45594000000E+02  0.51100000000E-03 0.  1.
         11   -1    0    0    0    0 -0.00000000000E+00 -0.00000000000E+00 -0.45593999997E+02  0.45594000000E+02  0.51100000000E-03 0. -1.
    9900012    2    1    2    0    0  0.37232186272E+02  0.12777081686E+02 -0.10182160512E+02  0.50528857071E+02  0.29999991554E+02 0.  0.
        -12    1    1    2    0    0 -0.37232186272E+02 -0.12777081686E+02  0.10182160512E+02  0.40659142929E+02  0.00000000000E+00 0.  1.
         11    1    3    3    0    0  0.18233091573E+02  0.10154604590E+02 -0.13746746916E+02  0.24990691742E+02  0.51100000000E-03 0. -1.
        -11    1    3    3    0    0  0.11342273951E+02  0.90659781581E+01  0.51490523792E+01  0.15406228578E+02  0.51100000000E-03 0.  1.
        -12    1    3    3    0    0  0.76568207476E+01 -0.64435010624E+01 -0.15844659753E+01  0.10131936751E+02  0.00000000000E+00 0.  1.
</event>
<event>
 7    1  0.3129575E-011  0.5052886E+02  0.7816164E-02  0.1300439E+00
        -11   -1    0    0    0    0  0.00000000000E+00  0.00000000000E+00  0.45593999997E+02  0.45594000000E+02  0.51100000000E-03 0.  1.
         11   -1    0    0    0    0 -0.00000000000E+00 -0.00000000000E+00 -0.45593999997E+02  0.45594000000E+02  0.51100000000E-03 0. -1.
    9900012    2    1    2    0    0  0.27990937667E+02 -0.29432297462E+02  0.18475123343E+01  0.50528855552E+02  0.29999986937E+02 0.  0.
        -12    1    1    2    0    0 -0.27990937667E+02  0.29432297462E+02 -0.18475123343E+01  0.40659144448E+02  0.00000000000E+00 0.  1.
         11    1    3    3    0    0  0.22182506543E+02 -0.20947147193E+02  0.24144156596E+01  0.30605162560E+02  0.51100000000E-03 0. -1.
        -11    1    3    3    0    0  0.40857837208E+01 -0.12697146329E+02  0.35332413524E+01  0.13798367592E+02  0.51100000000E-03 0.  1.
        -12    1    3    3    0    0  0.17226474027E+01  0.42119960594E+01 -0.41001446777E+01  0.61253254000E+01  0.00000000000E+00 0.  1.
</event>
<event>
 7    1  0.3129575E-011  0.5052885E+02  0.7816164E-02  0.1300439E+00
        -11   -1    0    0    0    0  0.00000000000E+00  0.00000000000E+00  0.45593999997E+02  0.45594000000E+02  0.51100000000E-03 0.  1.
         11   -1    0    0    0    0 -0.00000000000E+00 -0.00000000000E+00 -0.45593999997E+02  0.45594000000E+02  0.51100000000E-03 0. -1.
    9900012    2    1    2    0    0  0.30032891150E+02  0.10157224369E+02 -0.25456282645E+02  0.50528854856E+02  0.29999984820E+02 0.  0.
        -12    1    1    2    0    0 -0.30032891150E+02 -0.10157224369E+02  0.25456282645E+02  0.40659145144E+02  0.00000000000E+00 0.  1.
         11    1    3    3    0    0  0.97033936796E+01 -0.50148718735E+01 -0.16394301461E+01  0.11045022421E+02  0.51100000000E-03 0. -1.
        -11    1    3    3    0    0  0.25898185907E+01  0.13277096514E+02 -0.85513058692E+01  0.16003539749E+02  0.51100000000E-03 0.  1.
         12    1    3    3    0    0  0.17739678880E+02  0.18949997291E+01 -0.15265546630E+02  0.23480292687E+02  0.00000000000E+00 0. -1.
</event>
<event>
 7    1  0.3129575E-011  0.5052883E+02  0.7816164E-02  0.1300439E+00
        -11   -1    0    0    0    0  0.00000000000E+00  0.00000000000E+00  0.45593999997E+02  0.45594000000E+02  0.51100000000E-03 0.  1.
         11   -1    0    0    0    0 -0.00000000000E+00 -0.00000000000E+00 -0.45593999997E+02  0.45594000000E+02  0.51100000000E-03 0. -1.
    9900012    2    1    2    0    0  0.13718309764E+02 -0.57914154620E+00 -0.38270618982E+02  0.50528834920E+02  0.29999924222E+02 0.  0.
        -12    1    1    2    0    0 -0.13718309764E+02  0.57914154620E+00  0.38270618982E+02  0.40659165080E+02  0.00000000000E+00 0.  1.
         11    1    3    3    0    0 -0.51862244846E+01 -0.32411920698E+01 -0.42673676521E+01  0.74573907888E+01  0.51100000000E-03 0. -1.
        -11    1    3    3    0    0  0.13153227034E+02  0.57115634463E+01 -0.83255920522E+01  0.16581460180E+02  0.51100000000E-03 0.  1.
         12    1    3    3    0    0  0.57513072146E+01 -0.30495129227E+01 -0.25677659278E+02  0.26489983951E+02  0.00000000000E+00 0. -1.
</event>
<event>
 7    1  0.3129575E-011  0.5052887E+02  0.7816164E-02  0.1300439E+00
        -11   -1    0    0    0    0  0.00000000000E+00  0.00000000000E+00  0.45593999997E+02  0.45594000000E+02  0.51100000000E-03 0.  1.
         11   -1    0    0    0    0 -0.00000000000E+00 -0.00000000000E+00 -0.45593999997E+02  0.45594000000E+02  0.51100000000E-03 0. -1.
    9900012    2    1    2    0    0  0.95229079247E+01  0.82854512807E+01 -0.38650106335E+02  0.50528865750E+02  0.30000017933E+02 0.  0.
        -12    1    1    2    0    0 -0.95229079247E+01 -0.82854512807E+01  0.38650106335E+02  0.40659134250E+02  0.00000000000E+00 0.  1.
         11    1    3    3    0    0 -0.78069644729E+01  0.97934235446E+01 -0.17336330028E+02  0.21387103079E+02  0.51100000000E-03 0. -1.
        -11    1    3    3    0    0 -0.50170485842E+00  0.15400278952E+01 -0.85285904570E+00  0.18305088080E+01  0.51100000000E-03 0.  1.
        -12    1    3    3    0    0  0.17831577256E+02 -0.30480001591E+01 -0.20460917261E+02  0.27311253863E+02  0.00000000000E+00 0.  1.
</event>
<event>
 7    1  0.3129575E-011  0.5052887E+02  0.7816164E-02  0.1300439E+00
        -11   -1    0    0    0    0  0.00000000000E+00  0.00000000000E+00  0.45593999997E+02  0.45594000000E+02  0.51100000000E-03 0.  1.
         11   -1    0    0    0    0 -0.00000000000E+00 -0.00000000000E+00 -0.45593999997E+02  0.45594000000E+02  0.51100000000E-03 0. -1.
    9900012    2    1    2    0    0  0.26735063323E+02 -0.28448636636E+02 -0.11361182473E+02  0.50528868129E+02  0.30000025165E+02 0.  0.
        -12    1    1    2    0    0 -0.26735063323E+02  0.28448636636E+02  0.11361182473E+02  0.40659131871E+02  0.00000000000E+00 0.  1.
         11    1    3    3    0    0  0.60448944991E+01 -0.96562068630E+01 -0.56252641166E+01  0.12705379850E+02  0.51100000000E-03 0. -1.
        -11    1    3    3    0    0 -0.47972029652E+01 -0.51973198038E+01 -0.54607731945E+01  0.89356216110E+01  0.51100000000E-03 0.  1.
        -12    1    3    3    0    0  0.25487371789E+02 -0.13595109969E+02 -0.27514516156E+00  0.28887866668E+02  0.00000000000E+00 0.  1.
</event>
<event>
 7    1  0.3129575E-011  0.5052887E+02  0.7816164E-02  0.1300439E+00
        -11   -1    0    0    0    0  0.00000000000E+00  0.00000000000E+00  0.45593999997E+02  0.45594000000E+02  0.51100000000E-03 0. -1.
         11   -1    0    0    0    0 -0.00000000000E+00 -0.00000000000E+00 -0.45593999997E+02  0.45594000000E+02  0.51100000000E-03 0.  1.
    9900012    2    1    2    0    0 -0.47832646497E+01  0.40047216826E+02 -0.51483961731E+01  0.50528865979E+02  0.30000018628E+02 0.  0.
        -12    1    1    2    0    0  0.47832646497E+01 -0.40047216826E+02  0.51483961731E+01  0.40659134021E+02  0.00000000000E+00 0.  1.
         11    1    3    3    0    0  0.14136946238E+01  0.22373102593E+02  0.65558163103E+00  0.22427305671E+02  0.51100000000E-03 0. -1.
        -11    1    3    3    0    0  0.47228422515E+01  0.96236505434E+01 -0.91886094554E+01  0.14119151274E+02  0.51100000000E-03 0.  1.
        -12    1    3    3    0    0 -0.10919801525E+02  0.80504636898E+01  0.33846316513E+01  0.13982409034E+02  0.00000000000E+00 0.  1.
</event>
<event>
 7    1  0.3129575E-011  0.5052886E+02  0.7816164E-02  0.1300439E+00
        -11   -1    0    0    0    0  0.00000000000E+00  0.00000000000E+00  0.45593999997E+02  0.45594000000E+02  0.51100000000E-03 0. -1.
         11   -1    0    0    0    0 -0.00000000000E+00 -0.00000000000E+00 -0.45593999997E+02  0.45594000000E+02  0.51100000000E-03 0.  1.
    9900012    2    1    2    0    0  0.10676650410E+02  0.13962390135E+02  0.36663694711E+02  0.50528859427E+02  0.29999998713E+02 0.  0.
        -12    1    1    2    0    0 -0.10676650410E+02 -0.13962390135E+02 -0.36663694711E+02  0.40659140573E+02  0.00000000000E+00 0.  1.
         11    1    3    3    0    0 -0.17071185987E+01 -0.57347623829E+01  0.11030961320E+02  0.12549257405E+02  0.51100000000E-03 0. -1.
        -11    1    3    3    0    0  0.54935332366E+01  0.42613987950E+01 -0.37335208115E+00  0.69626014642E+01  0.51100000000E-03 0.  1.
        -12    1    3    3    0    0  0.68902357725E+01  0.15435753723E+02  0.26006085472E+02  0.31017000558E+02  0.00000000000E+00 0.  1.
</event>
<event>
 7    1  0.3129575E-011  0.5052887E+02  0.7816164E-02  0.1300439E+00
        -11   -1    0    0    0    0  0.00000000000E+00  0.00000000000E+00  0.45593999997E+02  0.45594000000E+02  0.51100000000E-03 0. -1.
         11   -1    0    0    0    0 -0.00000000000E+00 -0.00000000000E+00 -0.45593999997E+02  0.45594000000E+02  0.51100000000E-03 0.  1.
    9900012    2    1    2    0    0 -0.40520083160E+02 -0.29394040653E+01  0.16272141737E+01  0.50528867428E+02  0.30000023034E+02 0.  0.
        -12    1    1    2    0    0  0.40520083160E+02  0.29394040653E+01 -0.16272141737E+01  0.40659132572E+02  0.00000000000E+00 0.  1.
         11    1    3    3    0    0 -0.25278802766E+02 -0.51566213638E+01  0.71545860516E+01  0.26773059500E+02  0.51100000000E-03 0. -1.
        -11    1    3    3    0    0 -0.16372033839E+02 -0.29380571222E+01 -0.77171629549E+00  0.16651462938E+02  0.51100000000E-03 0.  1.
        -12    1    3    3    0    0  0.11307534452E+01  0.51552744208E+01 -0.47556555823E+01  0.71043449892E+01  0.00000000000E+00 0.  1.
</event>
<event>
 7    1  0.3129575E-011  0.5052886E+02  0.7816164E-02  0.1300439E+00
        -11   -1    0    0    0    0  0.00000000000E+00  0.00000000000E+00  0.45593999997E+02  0.45594000000E+02  0.51100000000E-03 0. -1.
         11   -1    0    0    0    0 -0.00000000000E+00 -0.00000000000E+00 -0.45593999997E+02  0.45594000000E+02  0.51100000000E-03 0.  1.
    9900012    2    1    2    0    0  0.55715444320E+01 -0.40266249098E+02  0.86766504185E+00  0.50528858759E+02  0.29999996685E+02 0.  0.
        -12    1    1    2    0    0 -0.55715444320E+01  0.40266249098E+02 -0.86766504185E+00  0.40659141241E+02  0.00000000000E+00 0.  1.
         11    1    3    3    0    0  0.15114283434E+01 -0.29451040365E+02  0.97909688410E+01  0.31072677151E+02  0.51100000000E-03 0. -1.
        -11    1    3    3    0    0 -0.43438660265E+01 -0.48427046949E+01 -0.13005951319E+01  0.66341923982E+01  0.51100000000E-03 0.  1.
         12    1    3    3    0    0  0.84039821151E+01 -0.59725040380E+01 -0.76227086673E+01  0.12821989210E+02  0.00000000000E+00 0. -1.
</event>
<event>
 7    1  0.3129575E-011  0.5052886E+02  0.7816164E-02  0.1300439E+00
        -11   -1    0    0    0    0  0.00000000000E+00  0.00000000000E+00  0.45593999997E+02  0.45594000000E+02  0.51100000000E-03 0.  1.
         11   -1    0    0    0    0 -0.00000000000E+00 -0.00000000000E+00 -0.45593999997E+02  0.45594000000E+02  0.51100000000E-03 0. -1.
    9900012    2    1    2    0    0  0.33608500181E+02 -0.15691860608E+01 -0.22829198699E+02  0.50528856593E+02  0.29999990101E+02 0.  0.
        -12    1    1    2    0    0 -0.33608500181E+02  0.15691860608E+01  0.22829198699E+02  0.40659143407E+02  0.00000000000E+00 0.  1.
         11    1    3    3    0    0  0.17878927901E+02 -0.15441813455E+01 -0.13402551061E+02  0.22397967187E+02  0.51100000000E-03 0. -1.
        -11    1    3    3    0    0  0.50410933086E+01 -0.21298422437E+01 -0.14947665601E+02  0.15917963340E+02  0.51100000000E-03 0.  1.
        -12    1    3    3    0    0  0.10688478972E+02  0.21048375283E+01  0.55210179624E+01  0.12212926066E+02  0.00000000000E+00 0.  1.
</event>
<event>
 7    1  0.3129575E-011  0.5052887E+02  0.7816164E-02  0.1300439E+00
        -11   -1    0    0    0    0  0.00000000000E+00  0.00000000000E+00  0.45593999997E+02  0.45594000000E+02  0.51100000000E-03 0. -1.
         11   -1    0    0    0    0 -0.00000000000E+00 -0.00000000000E+00 -0.45593999997E+02  0.45594000000E+02  0.51100000000E-03 0.  1.
    9900012    2    1    2    0    0 -0.34825395639E+02  0.22670973462E+01  0.20861862861E+02  0.50528865309E+02  0.30000016593E+02 0.  0.
        -12    1    1    2    0    0  0.34825395639E+02 -0.22670973462E+01 -0.20861862861E+02  0.40659134691E+02  0.00000000000E+00 0.  1.
         11    1    3    3    0    0 -0.14772639680E+02 -0.44599519100E+01  0.14428626555E+02  0.21125986809E+02  0.51100000000E-03 0. -1.
        -11    1    3    3    0    0 -0.21315319119E+02  0.10224922545E+01  0.90438571048E+00  0.21358984839E+02  0.51100000000E-03 0.  1.
        -12    1    3    3    0    0  0.12625631598E+01  0.57045570017E+01  0.55288505954E+01  0.80438936607E+01  0.00000000000E+00 0.  1.
</event>
<event>
 7    1  0.3129575E-011  0.5052886E+02  0.7816164E-02  0.1300439E+00
        -11   -1    0    0    0    0  0.00000000000E+00  0.00000000000E+00  0.45593999997E+02  0.45594000000E+02  0.51100000000E-03 0. -1.
         11   -1    0    0    0    0 -0.00000000000E+00 -0.00000000000E+00 -0.45593999997E+02  0.45594000000E+02  0.51100000000E-03 0.  1.
    9900012    2    1    2    0    0 -0.27337379749E+02 -0.26007188390E+02  0.15147918780E+02  0.50528860525E+02  0.30000002053E+02 0.  0.
        -12    1    1    2    0    0  0.27337379749E+02  0.26007188390E+02 -0.15147918780E+02  0.40659139475E+02  0.00000000000E+00 0.  1.
         11    1    3    3    0    0 -0.19075200328E+01 -0.90239584116E+00  0.64814851879E+01  0.68163481008E+01  0.51100000000E-03 0. -1.
        -11    1    3    3    0    0  0.18769580478E+01  0.34849706545E+00 -0.38851452804E+01  0.43288307693E+01  0.51100000000E-03 0.  1.
        -12    1    3    3    0    0 -0.27306817764E+02 -0.25453289614E+02  0.12551578872E+02  0.39383681655E+02  0.00000000000E+00 0.  1.
</event>
<event>
 7    1  0.3129575E-011  0.5052886E+02  0.7816164E-02  0.1300439E+00
        -11   -1    0    0    0    0  0.00000000000E+00  0.00000000000E+00  0.45593999997E+02  0.45594000000E+02  0.51100000000E-03 0. -1.
         11   -1    0    0    0    0 -0.00000000000E+00 -0.00000000000E+00 -0.45593999997E+02  0.45594000000E+02  0.51100000000E-03 0.  1.
    9900012    2    1    2    0    0  0.70405241752E+01 -0.40043677847E+02  0.31686110369E+00  0.50528861825E+02  0.30000006004E+02 0.  0.
        -12    1    1    2    0    0 -0.70405241752E+01  0.40043677847E+02 -0.31686110369E+00  0.40659138175E+02  0.00000000000E+00 0.  1.
         11    1    3    3    0    0  0.10025516289E+02 -0.24126744016E+02 -0.13770840610E+01  0.26163086868E+02  0.51100000000E-03 0. -1.
        -11    1    3    3    0    0  0.54547364273E+01 -0.14791754900E+02  0.16467249943E+01  0.15851241780E+02  0.51100000000E-03 0.  1.
        -12    1    3    3    0    0 -0.84397285415E+01 -0.11251789306E+01  0.47220170333E-01  0.85145331771E+01  0.00000000000E+00 0.  1.
</event>
<event>
 7    1  0.3129575E-011  0.5052885E+02  0.7816164E-02  0.1300439E+00
        -11   -1    0    0    0    0  0.00000000000E+00  0.00000000000E+00  0.45593999997E+02  0.45594000000E+02  0.51100000000E-03 0.  1.
         11   -1    0    0    0    0 -0.00000000000E+00 -0.00000000000E+00 -0.45593999997E+02  0.45594000000E+02  0.51100000000E-03 0. -1.
    9900012    2    1    2    0    0  0.48619013112E+01  0.22938176185E+02 -0.33216988417E+02  0.50528851822E+02  0.29999975598E+02 0.  0.
        -12    1    1    2    0    0 -0.48619013112E+01 -0.22938176185E+02  0.33216988417E+02  0.40659148178E+02  0.00000000000E+00 0.  1.
         11    1    3    3    0    0  0.72845973468E+01  0.42153310930E+01 -0.53669048417E+01  0.99818857221E+01  0.51100000000E-03 0. -1.
        -11    1    3    3    0    0  0.88976258001E+01  0.32617109638E+01 -0.13989776163E+02  0.16897347148E+02  0.51100000000E-03 0.  1.
        -12    1    3    3    0    0 -0.11320321836E+02  0.15461134128E+02 -0.13860307413E+02  0.23649618952E+02  0.00000000000E+00 0.  1.
</event>
<event>
 7    1  0.3129575E-011  0.5052886E+02  0.7816164E-02  0.1300439E+00
        -11   -1    0    0    0    0  0.00000000000E+00  0.00000000000E+00  0.45593999997E+02  0.45594000000E+02  0.51100000000E-03 0.  1.
         11   -1    0    0    0    0 -0.00000000000E+00 -0.00000000000E+00 -0.45593999997E+02  0.45594000000E+02  0.51100000000E-03 0. -1.
    9900012    2    1    2    0    0 -0.23991504043E+02 -0.86967238439E+01 -0.31653441184E+02  0.50528860675E+02  0.30000002507E+02 0.  0.
        -12    1    1    2    0    0  0.23991504043E+02  0.86967238439E+01  0.31653441184E+02  0.40659139325E+02  0.00000000000E+00 0.  1.
         11    1    3    3    0    0 -0.25421151034E+01 -0.47462625335E+01  0.43337972079E+01  0.69116680864E+01  0.51100000000E-03 0.  1.
        -11    1    3    3    0    0 -0.77759287399E+01  0.24576970004E+01 -0.62821013101E+01  0.10294179882E+02  0.51100000000E-03 0. -1.
         12    1    3    3    0    0 -0.13673460200E+02 -0.64081583108E+01 -0.29705137082E+02  0.33323012706E+02  0.00000000000E+00 0. -1.
</event>
<event>
 7    1  0.3129575E-011  0.5052887E+02  0.7816164E-02  0.1300439E+00
        -11   -1    0    0    0    0  0.00000000000E+00  0.00000000000E+00  0.45593999997E+02  0.45594000000E+02  0.51100000000E-03 0.  1.
         11   -1    0    0    0    0 -0.00000000000E+00 -0.00000000000E+00 -0.45593999997E+02  0.45594000000E+02  0.51100000000E-03 0. -1.
    9900012    2    1    2    0    0 -0.12504399197E+02  0.19832899249E+02 -0.33218388551E+02  0.50528865358E+02  0.30000016744E+02 0.  0.
        -12    1    1    2    0    0  0.12504399197E+02 -0.19832899249E+02  0.33218388551E+02  0.40659134642E+02  0.00000000000E+00 0.  1.
         11    1    3    3    0    0 -0.13176650710E+02  0.94520712887E+01 -0.19875026718E+02  0.25651168840E+02  0.51100000000E-03 0.  1.
        -11    1    3    3    0    0 -0.58952592132E+01 -0.25417196424E+01 -0.31077737879E+01  0.71325085425E+01  0.51100000000E-03 0. -1.
         12    1    3    3    0    0  0.65675107256E+01  0.12922547602E+02 -0.10235588045E+02  0.17745187976E+02  0.00000000000E+00 0. -1.
</event>
<event>
 7    1  0.3129575E-011  0.5052886E+02  0.7816164E-02  0.1300439E+00
        -11   -1    0    0    0    0  0.00000000000E+00  0.00000000000E+00  0.45593999997E+02  0.45594000000E+02  0.51100000000E-03 0. -1.
         11   -1    0    0    0    0 -0.00000000000E+00 -0.00000000000E+00 -0.45593999997E+02  0.45594000000E+02  0.51100000000E-03 0.  1.
    9900012    2    1    2    0    0 -0.28811278325E+02 -0.18916265923E+02  0.21569679480E+02  0.50528856526E+02  0.29999989897E+02 0.  0.
        -12    1    1    2    0    0  0.28811278325E+02  0.18916265923E+02 -0.21569679480E+02  0.40659143474E+02  0.00000000000E+00 0.  1.
         11    1    3    3    0    0 -0.16385290833E+02 -0.19784774742E+02  0.87094737765E+01  0.27125080664E+02  0.51100000000E-03 0. -1.
        -11    1    3    3    0    0  0.25008600592E+01 -0.32197469876E+01  0.27376520328E+01  0.49107851321E+01  0.51100000000E-03 0.  1.
        -12    1    3    3    0    0 -0.14926847551E+02  0.40882558065E+01  0.10122553670E+02  0.18492990730E+02  0.00000000000E+00 0.  1.
</event>
<event>
 7    1  0.3129575E-011  0.5052886E+02  0.7816164E-02  0.1300439E+00
        -11   -1    0    0    0    0  0.00000000000E+00  0.00000000000E+00  0.45593999997E+02  0.45594000000E+02  0.51100000000E-03 0.  1.
         11   -1    0    0    0    0 -0.00000000000E+00 -0.00000000000E+00 -0.45593999997E+02  0.45594000000E+02  0.51100000000E-03 0. -1.
    9900012    2    1    2    0    0  0.27408048120E+02  0.26079205594E+01 -0.29919283692E+02  0.50528857264E+02  0.29999992140E+02 0.  0.
        -12    1    1    2    0    0 -0.27408048120E+02 -0.26079205594E+01  0.29919283692E+02  0.40659142736E+02  0.00000000000E+00 0.  1.
         11    1    3    3    0    0 -0.17749077246E+01  0.13360779964E+00 -0.10817850437E+02  0.10963304102E+02  0.51100000000E-03 0.  1.
        -11    1    3    3    0    0  0.56284980407E+01  0.44500896643E+01  0.24464108160E+01  0.75807792710E+01  0.51100000000E-03 0. -1.
         12    1    3    3    0    0  0.23554457804E+02 -0.19757769046E+01 -0.21547844071E+02  0.31984773891E+02  0.00000000000E+00 0. -1.
</event>
<event>
 7    1  0.3129575E-011  0.5052886E+02  0.7816164E-02  0.1300439E+00
        -11   -1    0    0    0    0  0.00000000000E+00  0.00000000000E+00  0.45593999997E+02  0.45594000000E+02  0.51100000000E-03 0.  1.
         11   -1    0    0    0    0 -0.00000000000E+00 -0.00000000000E+00 -0.45593999997E+02  0.45594000000E+02  0.51100000000E-03 0. -1.
    9900012    2    1    2    0    0  0.73139193679E+01 -0.17917553071E+02 -0.35757984549E+02  0.50528861008E+02  0.30000003520E+02 0.  0.
        -12    1    1    2    0    0 -0.73139193679E+01  0.17917553071E+02  0.35757984549E+02  0.40659138992E+02  0.00000000000E+00 0.  1.
         11    1    3    3    0    0  0.89096299967E+01 -0.31701896527E+00 -0.44633645439E+01  0.99701369607E+01  0.51100000000E-03 0. -1.
        -11    1    3    3    0    0 -0.44213575624E+01  0.95525955294E+00 -0.57638468146E+00  0.45599498978E+01  0.51100000000E-03 0.  1.
        -12    1    3    3    0    0  0.28256469337E+01 -0.18555793659E+02 -0.30718235323E+02  0.35998774150E+02  0.00000000000E+00 0.  1.
</event>
<event>
 7    1  0.3129575E-011  0.5052886E+02  0.7816164E-02  0.1300439E+00
        -11   -1    0    0    0    0  0.00000000000E+00  0.00000000000E+00  0.45593999997E+02  0.45594000000E+02  0.51100000000E-03 0. -1.
         11   -1    0    0    0    0 -0.00000000000E+00 -0.00000000000E+00 -0.45593999997E+02  0.45594000000E+02  0.51100000000E-03 0.  1.
    9900012    2    1    2    0    0 -0.33604932743E+02 -0.18588753889E+02  0.13354103869E+02  0.50528863684E+02  0.30000011654E+02 0.  0.
        -12    1    1    2    0    0  0.33604932743E+02  0.18588753889E+02 -0.13354103869E+02  0.40659136316E+02  0.00000000000E+00 0.  1.
         11    1    3    3    0    0 -0.25112414246E+02 -0.12197174480E+02  0.55121226271E+00  0.27923256432E+02  0.51100000000E-03 0. -1.
        -11    1    3    3    0    0 -0.11575111917E+02 -0.32745200560E+00  0.62435928087E+01  0.13155717089E+02  0.51100000000E-03 0.  1.
         12    1    3    3    0    0  0.30825934202E+01 -0.60641274034E+01  0.65592987978E+01  0.94498901622E+01  0.00000000000E+00 0. -1.
</event>
<event>
 7    1  0.3129575E-011  0.5052886E+02  0.7816164E-02  0.1300439E+00
        -11   -1    0    0    0    0  0.00000000000E+00  0.00000000000E+00  0.45593999997E+02  0.45594000000E+02  0.51100000000E-03 0. -1.
         11   -1    0    0    0    0 -0.00000000000E+00 -0.00000000000E+00 -0.45593999997E+02  0.45594000000E+02  0.51100000000E-03 0.  1.
    9900012    2    1    2    0    0 -0.27394101443E+02 -0.20088788072E+02  0.22342094731E+02  0.50528863302E+02  0.30000010494E+02 0.  0.
        -12    1    1    2    0    0  0.27394101443E+02  0.20088788072E+02 -0.22342094731E+02  0.40659136698E+02  0.00000000000E+00 0.  1.
         11    1    3    3    0    0 -0.15772066605E+02 -0.12239620392E+02  0.13205671945E+02  0.23936502754E+02  0.51100000000E-03 0. -1.
        -11    1    3    3    0    0 -0.15883974318E+02 -0.79232942411E-01  0.41232222630E+01  0.16410602673E+02  0.51100000000E-03 0.  1.
         12    1    3    3    0    0  0.42619394798E+01 -0.77699347375E+01  0.50132005229E+01  0.10181757876E+02  0.00000000000E+00 0. -1.
</event>
<event>
 7    1  0.3129575E-011  0.5052886E+02  0.7816164E-02  0.1300439E+00
        -11   -1    0    0    0    0  0.00000000000E+00  0.00000000000E+00  0.45593999997E+02  0.45594000000E+02  0.51100000000E-03 0. -1.
         11   -1    0    0    0    0 -0.00000000000E+00 -0.00000000000E+00 -0.45593999997E+02  0.45594000000E+02  0.51100000000E-03 0.  1.
    9900012    2    1    2    0    0 -0.22360257501E+02 -0.30334369978E+02  0.15264681208E+02  0.50528860685E+02  0.30000002538E+02 0.  0.
        -12    1    1    2    0    0  0.22360257501E+02  0.30334369978E+02 -0.15264681208E+02  0.40659139315E+02  0.00000000000E+00 0.  1.
         11    1    3    3    0    0 -0.91825991178E-01  0.12985094120E+01  0.16850501415E+01  0.21293080910E+01  0.51100000000E-03 0.  1.
        -11    1    3    3    0    0 -0.22890362287E+02 -0.35536532798E+02  0.10997031904E+02  0.43677781078E+02  0.51100000000E-03 0. -1.
         12    1    3    3    0    0  0.62193077686E+00  0.39036534079E+01  0.25825991619E+01  0.47217715163E+01  0.00000000000E+00 0. -1.
</event>
<event>
 7    1  0.3129575E-011  0.5052880E+02  0.7816164E-02  0.1300439E+00
        -11   -1    0    0    0    0  0.00000000000E+00  0.00000000000E+00  0.45593999997E+02  0.45594000000E+02  0.51100000000E-03 0.  1.
         11   -1    0    0    0    0 -0.00000000000E+00 -0.00000000000E+00 -0.45593999997E+02  0.45594000000E+02  0.51100000000E-03 0. -1.
    9900012    2    1    2    0    0  0.24523223892E+02 -0.24190502403E+02 -0.21600960123E+02  0.50528801843E+02  0.29999823681E+02 0.  0.
        -12    1    1    2    0    0 -0.24523223892E+02  0.24190502403E+02  0.21600960123E+02  0.40659198157E+02  0.00000000000E+00 0.  1.
         11    1    3    3    0    0  0.16404091636E+02 -0.80150568559E+01 -0.22770413006E+02  0.29186076604E+02  0.51100000000E-03 0. -1.
        -11    1    3    3    0    0  0.28001496927E+01 -0.11767636135E+02 -0.39717278444E+01  0.12731563958E+02  0.51100000000E-03 0.  1.
        -12    1    3    3    0    0  0.53189825633E+01 -0.44078094122E+01  0.51411807274E+01  0.86111612803E+01  0.00000000000E+00 0.  1.
</event>
<event>
 7    1  0.3129575E-011  0.5052886E+02  0.7816164E-02  0.1300439E+00
        -11   -1    0    0    0    0  0.00000000000E+00  0.00000000000E+00  0.45593999997E+02  0.45594000000E+02  0.51100000000E-03 0. -1.
         11   -1    0    0    0    0 -0.00000000000E+00 -0.00000000000E+00 -0.45593999997E+02  0.45594000000E+02  0.51100000000E-03 0.  1.
    9900012    2    1    2    0    0 -0.21682772047E+02 -0.86003276603E+01  0.33302518962E+02  0.50528855780E+02  0.29999987629E+02 0.  0.
        -12    1    1    2    0    0  0.21682772047E+02  0.86003276603E+01 -0.33302518962E+02  0.40659144220E+02  0.00000000000E+00 0.  1.
         11    1    3    3    0    0 -0.62282763962E+01 -0.23751894775E+01  0.17104700486E+01  0.68817628534E+01  0.51100000000E-03 0. -1.
        -11    1    3    3    0    0  0.15947422016E+01 -0.92964160902E+01  0.21787013668E+02  0.23741114541E+02  0.51100000000E-03 0.  1.
         12    1    3    3    0    0 -0.17049237853E+02  0.30712779075E+01  0.98050352448E+01  0.19905978386E+02  0.00000000000E+00 0. -1.
</event>
<event>
 7    1  0.3129575E-011  0.5052887E+02  0.7816164E-02  0.1300439E+00
        -11   -1    0    0    0    0  0.00000000000E+00  0.00000000000E+00  0.45593999997E+02  0.45594000000E+02  0.51100000000E-03 0. -1.
         11   -1    0    0    0    0 -0.00000000000E+00 -0.00000000000E+00 -0.45593999997E+02  0.45594000000E+02  0.51100000000E-03 0.  1.
    9900012    2    1    2    0    0 -0.28487952210E+02  0.27028482020E+02  0.10538626533E+02  0.50528869284E+02  0.30000028676E+02 0.  0.
        -12    1    1    2    0    0  0.28487952210E+02 -0.27028482020E+02 -0.10538626533E+02  0.40659130716E+02  0.00000000000E+00 0.  1.
         11    1    3    3    0    0 -0.16191794762E+02  0.24277610382E+02  0.38318227587E+01  0.29432285834E+02  0.51100000000E-03 0. -1.
        -11    1    3    3    0    0 -0.63669727103E+01  0.91390485506E+01  0.24845812619E+01  0.11411997819E+02  0.51100000000E-03 0.  1.
        -12    1    3    3    0    0 -0.59291847372E+01 -0.63881769130E+01  0.42222225123E+01  0.96845856319E+01  0.00000000000E+00 0.  1.
</event>
<event>
 7    1  0.3129575E-011  0.5052885E+02  0.7816164E-02  0.1300439E+00
        -11   -1    0    0    0    0  0.00000000000E+00  0.00000000000E+00  0.45593999997E+02  0.45594000000E+02  0.51100000000E-03 0.  1.
         11   -1    0    0    0    0 -0.00000000000E+00 -0.00000000000E+00 -0.45593999997E+02  0.45594000000E+02  0.51100000000E-03 0. -1.
    9900012    2    1    2    0    0 -0.30682189482E+02  0.13017397996E+02 -0.23287710002E+02  0.50528845568E+02  0.29999956588E+02 0.  0.
        -12    1    1    2    0    0  0.30682189482E+02 -0.13017397996E+02  0.23287710002E+02  0.40659154432E+02  0.00000000000E+00 0.  1.
         11    1    3    3    0    0 -0.10074851512E+02  0.44366080132E+01 -0.17636180180E+02  0.20789924850E+02  0.51100000000E-03 0. -1.
        -11    1    3    3    0    0 -0.20845906108E+02  0.37438027832E+01 -0.98236182620E+01  0.23346762876E+02  0.51100000000E-03 0.  1.
        -12    1    3    3    0    0  0.23856813838E+00  0.48369872001E+01  0.41720884404E+01  0.63921578426E+01  0.00000000000E+00 0.  1.
</event>
<event>
 7    1  0.3129575E-011  0.5052887E+02  0.7816164E-02  0.1300439E+00
        -11   -1    0    0    0    0  0.00000000000E+00  0.00000000000E+00  0.45593999997E+02  0.45594000000E+02  0.51100000000E-03 0. -1.
         11   -1    0    0    0    0 -0.00000000000E+00 -0.00000000000E+00 -0.45593999997E+02  0.45594000000E+02  0.51100000000E-03 0.  1.
    9900012    2    1    2    0    0  0.38507752717E+01  0.27565746240E+02  0.29638926550E+02  0.50528870607E+02  0.30000032698E+02 0.  0.
        -12    1    1    2    0    0 -0.38507752717E+01 -0.27565746240E+02 -0.29638926550E+02  0.40659129393E+02  0.00000000000E+00 0.  1.
         11    1    3    3    0    0 -0.22311999914E+01  0.46050807019E+01  0.10843790894E+02  0.11990530551E+02  0.51100000000E-03 0. -1.
        -11    1    3    3    0    0  0.99238619696E+01  0.22728931799E+02  0.22285426713E+02  0.33342579702E+02  0.51100000000E-03 0.  1.
        -12    1    3    3    0    0 -0.38418867065E+01  0.23173373910E+00 -0.34902910581E+01  0.51957603546E+01  0.00000000000E+00 0.  1.
</event>
<event>
 7    1  0.3129575E-011  0.5052896E+02  0.7816164E-02  0.1300438E+00
        -11   -1    0    0    0    0  0.00000000000E+00  0.00000000000E+00  0.45593999997E+02  0.45594000000E+02  0.51100000000E-03 0. -1.
         11   -1    0    0    0    0 -0.00000000000E+00 -0.00000000000E+00 -0.45593999997E+02  0.45594000000E+02  0.51100000000E-03 0.  1.
    9900012    2    1    2    0    0 -0.18109029477E+02  0.51715429732E+00  0.36399905120E+02  0.50528960539E+02  0.30000306051E+02 0.  0.
        -12    1    1    2    0    0  0.18109029477E+02 -0.51715429732E+00 -0.36399905120E+02  0.40659039461E+02  0.00000000000E+00 0.  1.
         11    1    3    3    0    0 -0.56244585078E+01 -0.35273791287E+01  0.21489516136E+01  0.69781752860E+01  0.51100000000E-03 0. -1.
        -11    1    3    3    0    0  0.55971629063E+01  0.61224654979E+01  0.14403373581E+02  0.16621371398E+02  0.51100000000E-03 0.  1.
         12    1    3    3    0    0 -0.18081733876E+02 -0.20779320719E+01  0.19847579926E+02  0.26929413855E+02  0.00000000000E+00 0. -1.
</event>
<event>
 7    1  0.3129575E-011  0.5052886E+02  0.7816164E-02  0.1300439E+00
        -11   -1    0    0    0    0  0.00000000000E+00  0.00000000000E+00  0.45593999997E+02  0.45594000000E+02  0.51100000000E-03 0.  1.
         11   -1    0    0    0    0 -0.00000000000E+00 -0.00000000000E+00 -0.45593999997E+02  0.45594000000E+02  0.51100000000E-03 0. -1.
    9900012    2    1    2    0    0 -0.11057152677E+02  0.33756289266E+02 -0.19784285019E+02  0.50528860510E+02  0.30000002005E+02 0.  0.
        -12    1    1    2    0    0  0.11057152677E+02 -0.33756289266E+02  0.19784285019E+02  0.40659139490E+02  0.00000000000E+00 0.  1.
         11    1    3    3    0    0  0.31463147976E+01  0.96826447043E+01  0.19658372410E-01  0.10181026077E+02  0.51100000000E-03 0.  1.
        -11    1    3    3    0    0 -0.13871315965E+01  0.21111397226E+02 -0.16376206695E+02  0.26754352410E+02  0.51100000000E-03 0. -1.
        -12    1    3    3    0    0 -0.12816335879E+02  0.29622473366E+01 -0.34277366971E+01  0.13593482023E+02  0.00000000000E+00 0.  1.
</event>
<event>
 7    1  0.3129575E-011  0.5052886E+02  0.7816164E-02  0.1300439E+00
        -11   -1    0    0    0    0  0.00000000000E+00  0.00000000000E+00  0.45593999997E+02  0.45594000000E+02  0.51100000000E-03 0.  1.
         11   -1    0    0    0    0 -0.00000000000E+00 -0.00000000000E+00 -0.45593999997E+02  0.45594000000E+02  0.51100000000E-03 0. -1.
    9900012    2    1    2    0    0  0.16016467045E+02 -0.23823511252E+02 -0.28793730808E+02  0.50528857869E+02  0.29999993979E+02 0.  0.
        -12    1    1    2    0    0 -0.16016467045E+02  0.23823511252E+02  0.28793730808E+02  0.40659142131E+02  0.00000000000E+00 0.  1.
         11    1    3    3    0    0  0.77169059110E+00 -0.13838510236E+02 -0.16462769008E+02  0.21520284282E+02  0.51100000000E-03 0. -1.
        -11    1    3    3    0    0  0.50609884662E+01  0.45001315685E+01 -0.85420701682E+01  0.10900997725E+02  0.51100000000E-03 0.  1.
         12    1    3    3    0    0  0.10183787988E+02 -0.14485132585E+02 -0.37888916311E+01  0.18107575862E+02  0.00000000000E+00 0. -1.
</event>
<event>
 7    1  0.3129575E-011  0.5052886E+02  0.7816164E-02  0.1300439E+00
        -11   -1    0    0    0    0  0.00000000000E+00  0.00000000000E+00  0.45593999997E+02  0.45594000000E+02  0.51100000000E-03 0. -1.
         11   -1    0    0    0    0 -0.00000000000E+00 -0.00000000000E+00 -0.45593999997E+02  0.45594000000E+02  0.51100000000E-03 0.  1.
    9900012    2    1    2    0    0  0.83973973956E+01  0.34762280664E+02  0.19345103955E+02  0.50528862196E+02  0.30000007130E+02 0.  0.
        -12    1    1    2    0    0 -0.83973973956E+01 -0.34762280664E+02 -0.19345103955E+02  0.40659137804E+02  0.00000000000E+00 0.  1.
         11    1    3    3    0    0  0.52011204203E+01  0.18546044378E+02  0.20751173438E+02  0.28312870130E+02  0.51100000000E-03 0. -1.
        -11    1    3    3    0    0 -0.44413655089E+01  0.15442323956E+01  0.23459531558E+01  0.52548908405E+01  0.51100000000E-03 0.  1.
        -12    1    3    3    0    0  0.76376424842E+01  0.14672003890E+02 -0.37520226387E+01  0.16961101225E+02  0.00000000000E+00 0.  1.
</event>
<event>
 7    1  0.3129575E-011  0.5052886E+02  0.7816164E-02  0.1300439E+00
        -11   -1    0    0    0    0  0.00000000000E+00  0.00000000000E+00  0.45593999997E+02  0.45594000000E+02  0.51100000000E-03 0.  1.
         11   -1    0    0    0    0 -0.00000000000E+00 -0.00000000000E+00 -0.45593999997E+02  0.45594000000E+02  0.51100000000E-03 0. -1.
    9900012    2    1    2    0    0  0.23697905808E+02 -0.24763901064E+02 -0.21870627472E+02  0.50528857343E+02  0.29999992380E+02 0.  0.
        -12    1    1    2    0    0 -0.23697905808E+02  0.24763901064E+02  0.21870627472E+02  0.40659142657E+02  0.00000000000E+00 0.  1.
         11    1    3    3    0    0  0.58551225170E+01 -0.10717177890E+02 -0.16033626551E+02  0.20154839177E+02  0.51100000000E-03 0. -1.
        -11    1    3    3    0    0  0.90136120809E+01 -0.17358604317E+02 -0.72075992066E+01  0.20845043372E+02  0.51100000000E-03 0.  1.
         12    1    3    3    0    0  0.88291712103E+01  0.33118811430E+01  0.13705982863E+01  0.95289747942E+01  0.00000000000E+00 0. -1.
</event>
<event>
 7    1  0.3129575E-011  0.5052886E+02  0.7816164E-02  0.1300439E+00
        -11   -1    0    0    0    0  0.00000000000E+00  0.00000000000E+00  0.45593999997E+02  0.45594000000E+02  0.51100000000E-03 0. -1.
         11   -1    0    0    0    0 -0.00000000000E+00 -0.00000000000E+00 -0.45593999997E+02  0.45594000000E+02  0.51100000000E-03 0.  1.
    9900012    2    1    2    0    0  0.16170451652E+02  0.36667118499E+02  0.68705592421E+01  0.50528859946E+02  0.30000000291E+02 0.  0.
        -12    1    1    2    0    0 -0.16170451652E+02 -0.36667118499E+02 -0.68705592421E+01  0.40659140054E+02  0.00000000000E+00 0.  1.
         11    1    3    3    0    0  0.41010939318E+01  0.12894327411E+01  0.82619848393E+01  0.93135386389E+01  0.51100000000E-03 0. -1.
        -11    1    3    3    0    0 -0.41123392729E+01  0.46217728914E+01  0.14246884805E+01  0.63483743181E+01  0.51100000000E-03 0.  1.
         12    1    3    3    0    0  0.16181696993E+02  0.30755912866E+02 -0.28161140778E+01  0.34866946989E+02  0.00000000000E+00 0. -1.
</event>
<event>
 7    1  0.3129575E-011  0.5052886E+02  0.7816164E-02  0.1300439E+00
        -11   -1    0    0    0    0  0.00000000000E+00  0.00000000000E+00  0.45593999997E+02  0.45594000000E+02  0.51100000000E-03 0. -1.
         11   -1    0    0    0    0 -0.00000000000E+00 -0.00000000000E+00 -0.45593999997E+02  0.45594000000E+02  0.51100000000E-03 0.  1.
    9900012    2    1    2    0    0  0.22947451073E+02  0.10267275499E+02  0.31955645627E+02  0.50528859030E+02  0.29999997509E+02 0.  0.
        -12    1    1    2    0    0 -0.22947451073E+02 -0.10267275499E+02 -0.31955645627E+02  0.40659140970E+02  0.00000000000E+00 0.  1.
         11    1    3    3    0    0 -0.17807362900E+01  0.16139871138E+01 -0.11679453483E+00  0.24061623724E+01  0.51100000000E-03 0. -1.
        -11    1    3    3    0    0 -0.38944962220E+01  0.32232283101E+01  0.11188086733E+02  0.12277197831E+02  0.51100000000E-03 0.  1.
         12    1    3    3    0    0  0.28622683585E+02  0.54300600751E+01  0.20884353429E+02  0.35845498827E+02  0.00000000000E+00 0. -1.
</event>
<event>
 7    1  0.3129575E-011  0.5052888E+02  0.7816164E-02  0.1300439E+00
        -11   -1    0    0    0    0  0.00000000000E+00  0.00000000000E+00  0.45593999997E+02  0.45594000000E+02  0.51100000000E-03 0.  1.
         11   -1    0    0    0    0 -0.00000000000E+00 -0.00000000000E+00 -0.45593999997E+02  0.45594000000E+02  0.51100000000E-03 0. -1.
    9900012    2    1    2    0    0  0.37314790529E+02 -0.15435064420E+02 -0.47464798267E+01  0.50528881999E+02  0.30000067324E+02 0.  0.
        -12    1    1    2    0    0 -0.37314790529E+02  0.15435064420E+02  0.47464798267E+01  0.40659118001E+02  0.00000000000E+00 0.  1.
         11    1    3    3    0    0  0.22183719815E+02 -0.19147149952E+01 -0.11763207075E+02  0.25182466108E+02  0.51100000000E-03 0. -1.
        -11    1    3    3    0    0  0.12025789443E+02 -0.79931605517E+01 -0.17306374550E+01  0.14543222944E+02  0.51100000000E-03 0.  1.
         12    1    3    3    0    0  0.31052812712E+01 -0.55271888728E+01  0.87473647030E+01  0.10803192947E+02  0.00000000000E+00 0. -1.
</event>
<event>
 7    1  0.3129575E-011  0.5052886E+02  0.7816164E-02  0.1300439E+00
        -11   -1    0    0    0    0  0.00000000000E+00  0.00000000000E+00  0.45593999997E+02  0.45594000000E+02  0.51100000000E-03 0. -1.
         11   -1    0    0    0    0 -0.00000000000E+00 -0.00000000000E+00 -0.45593999997E+02  0.45594000000E+02  0.51100000000E-03 0.  1.
    9900012    2    1    2    0    0  0.38362040751E+02  0.12416208344E+02  0.52304516645E+01  0.50528855581E+02  0.29999987025E+02 0.  0.
        -12    1    1    2    0    0 -0.38362040751E+02 -0.12416208344E+02 -0.52304516645E+01  0.40659144419E+02  0.00000000000E+00 0.  1.
         11    1    3    3    0    0  0.10444504139E+02  0.47772078683E+01 -0.23887828154E+01  0.11730970349E+02  0.51100000000E-03 0. -1.
        -11    1    3    3    0    0  0.16804944320E+02  0.16195088140E+02  0.82634129699E+01  0.24758251708E+02  0.51100000000E-03 0.  1.
         12    1    3    3    0    0  0.11112592292E+02 -0.85560876642E+01 -0.64417848993E+00  0.14039633524E+02  0.00000000000E+00 0. -1.
</event>
<event>
 7    1  0.3129575E-011  0.5052886E+02  0.7816164E-02  0.1300439E+00
        -11   -1    0    0    0    0  0.00000000000E+00  0.00000000000E+00  0.45593999997E+02  0.45594000000E+02  0.51100000000E-03 0. -1.
         11   -1    0    0    0    0 -0.00000000000E+00 -0.00000000000E+00 -0.45593999997E+02  0.45594000000E+02  0.51100000000E-03 0.  1.
    9900012    2    1    2    0    0 -0.21230537067E+02  0.33810240062E+02 -0.77005012942E+01  0.50528858871E+02  0.29999997023E+02 0.  0.
        -12    1    1    2    0    0  0.21230537067E+02 -0.33810240062E+02  0.77005012942E+01  0.40659141129E+02  0.00000000000E+00 0.  1.
         11    1    3    3    0    0 -0.11394203701E+02  0.86774601967E+01  0.56615425576E+01  0.15400625242E+02  0.51100000000E-03 0. -1.
        -11    1    3    3    0    0  0.27700653308E+01  0.10842655569E+01 -0.64605123974E+01  0.71124619108E+01  0.51100000000E-03 0.  1.
         12    1    3    3    0    0 -0.12606398697E+02  0.24048514308E+02 -0.69015314544E+01  0.28015771718E+02  0.00000000000E+00 0. -1.
</event>
<event>
 7    1  0.3129575E-011  0.5052887E+02  0.7816164E-02  0.1300439E+00
        -11   -1    0    0    0    0  0.00000000000E+00  0.00000000000E+00  0.45593999997E+02  0.45594000000E+02  0.51100000000E-03 0. -1.
         11   -1    0    0    0    0 -0.00000000000E+00 -0.00000000000E+00 -0.45593999997E+02  0.45594000000E+02  0.51100000000E-03 0.  1.
    9900012    2    1    2    0    0  0.95447864325E+01 -0.39252912026E+02 -0.46120679572E+01  0.50528865461E+02  0.30000017057E+02 0.  0.
        -12    1    1    2    0    0 -0.95447864325E+01  0.39252912026E+02  0.46120679572E+01  0.40659134539E+02  0.00000000000E+00 0.  1.
         11    1    3    3    0    0  0.46198281773E+01 -0.11516630962E+01 -0.46985852563E+01  0.66892334349E+01  0.51100000000E-03 0.  1.
        -11    1    3    3    0    0  0.12852866660E+02 -0.19483437837E+02 -0.23455696363E+01  0.23458521448E+02  0.51100000000E-03 0. -1.
         12    1    3    3    0    0 -0.79279084047E+01 -0.18617811093E+02  0.24320869354E+01  0.20381110579E+02  0.00000000000E+00 0. -1.
</event>
<event>
 7    1  0.3129575E-011  0.5052886E+02  0.7816164E-02  0.1300439E+00
        -11   -1    0    0    0    0  0.00000000000E+00  0.00000000000E+00  0.45593999997E+02  0.45594000000E+02  0.51100000000E-03 0.  1.
         11   -1    0    0    0    0 -0.00000000000E+00 -0.00000000000E+00 -0.45593999997E+02  0.45594000000E+02  0.51100000000E-03 0. -1.
    9900012    2    1    2    0    0 -0.13984035805E+02 -0.34990611411E+02  0.15273171872E+02  0.50528856830E+02  0.29999990819E+02 0.  0.
        -12    1    1    2    0    0  0.13984035805E+02  0.34990611411E+02 -0.15273171872E+02  0.40659143170E+02  0.00000000000E+00 0.  1.
         11    1    3    3    0    0 -0.12130602077E+02 -0.19897228384E+02  0.47575490498E+01  0.23784143401E+02  0.51100000000E-03 0. -1.
        -11    1    3    3    0    0 -0.55959651627E+01  0.62949100137E-01 -0.27708243004E+01  0.62446982518E+01  0.51100000000E-03 0.  1.
        -12    1    3    3    0    0  0.37425314346E+01 -0.15156332127E+02  0.13286447122E+02  0.20500015176E+02  0.00000000000E+00 0.  1.
</event>
<event>
 7    1  0.3129575E-011  0.5052887E+02  0.7816164E-02  0.1300439E+00
        -11   -1    0    0    0    0  0.00000000000E+00  0.00000000000E+00  0.45593999997E+02  0.45594000000E+02  0.51100000000E-03 0.  1.
         11   -1    0    0    0    0 -0.00000000000E+00 -0.00000000000E+00 -0.45593999997E+02  0.45594000000E+02  0.51100000000E-03 0. -1.
    9900012    2    1    2    0    0 -0.27319689095E+02 -0.25499324724E+02  0.16018227049E+02  0.50528873455E+02  0.30000041352E+02 0.  0.
        -12    1    1    2    0    0  0.27319689095E+02  0.25499324724E+02 -0.16018227049E+02  0.40659126545E+02  0.00000000000E+00 0.  1.
         11    1    3    3    0    0 -0.11108848315E+02  0.24756777331E+01 -0.34621706794E+01  0.11896306872E+02  0.51100000000E-03 0.  1.
        -11    1    3    3    0    0 -0.13189382632E+02 -0.14768139839E+02  0.11035955175E+02  0.22668261411E+02  0.51100000000E-03 0. -1.
        -12    1    3    3    0    0 -0.30214581483E+01 -0.13206862619E+02  0.84444425533E+01  0.15964305171E+02  0.00000000000E+00 0.  1.
</event>
<event>
 7    1  0.3224256E-011  0.5052886E+02  0.7816164E-02  0.1300439E+00
        -11   -1    0    0    0    0  0.00000000000E+00  0.00000000000E+00  0.45593999997E+02  0.45594000000E+02  0.51100000000E-03 0.  1.
         11   -1    0    0    0    0 -0.00000000000E+00 -0.00000000000E+00 -0.45593999997E+02  0.45594000000E+02  0.51100000000E-03 0. -1.
    9900012    2    1    2    0    0  0.37238200743E+01  0.33492258651E+02 -0.22750102592E+02  0.50528863346E+02  0.30000010626E+02 0.  0.
        -12    1    1    2    0    0 -0.37238200743E+01 -0.33492258651E+02  0.22750102592E+02  0.40659136654E+02  0.00000000000E+00 0.  1.
         11    1    3    3    0    0  0.89801792705E+01  0.20722025738E+02 -0.10566136643E+02  0.24933696362E+02  0.51100000000E-03 0. -1.
        -11    1    3    3    0    0  0.19938707653E+01  0.24688295028E+01  0.39876308987E+01  0.50962574688E+01  0.51100000000E-03 0.  1.
         12    1    3    3    0    0 -0.72502299615E+01  0.10301403410E+02 -0.16171596848E+02  0.20498909515E+02  0.00000000000E+00 0. -1.
</event>
<event>
 7    1  0.3129575E-011  0.5052885E+02  0.7816164E-02  0.1300439E+00
        -11   -1    0    0    0    0  0.00000000000E+00  0.00000000000E+00  0.45593999997E+02  0.45594000000E+02  0.51100000000E-03 0.  1.
         11   -1    0    0    0    0 -0.00000000000E+00 -0.00000000000E+00 -0.45593999997E+02  0.45594000000E+02  0.51100000000E-03 0. -1.
    9900012    2    1    2    0    0 -0.21409569432E+02 -0.27031646773E+02 -0.21542673238E+02  0.50528851450E+02  0.29999974468E+02 0.  0.
        -12    1    1    2    0    0  0.21409569432E+02  0.27031646773E+02  0.21542673238E+02  0.40659148550E+02  0.00000000000E+00 0.  1.
         11    1    3    3    0    0 -0.23745922500E+02 -0.20652628667E+02 -0.20247276299E+02  0.37421278760E+02  0.51100000000E-03 0. -1.
        -11    1    3    3    0    0 -0.30626107789E+01 -0.15754028405E+01  0.31130485620E+01  0.46424724558E+01  0.51100000000E-03 0.  1.
        -12    1    3    3    0    0  0.53989638468E+01 -0.48036152656E+01 -0.44084455017E+01  0.84651002345E+01  0.00000000000E+00 0.  1.
</event>
<event>
 7    1  0.3129575E-011  0.5052885E+02  0.7816164E-02  0.1300439E+00
        -11   -1    0    0    0    0  0.00000000000E+00  0.00000000000E+00  0.45593999997E+02  0.45594000000E+02  0.51100000000E-03 0.  1.
         11   -1    0    0    0    0 -0.00000000000E+00 -0.00000000000E+00 -0.45593999997E+02  0.45594000000E+02  0.51100000000E-03 0. -1.
    9900012    2    1    2    0    0 -0.21670784047E+02 -0.83045325395E+01 -0.33385297104E+02  0.50528853371E+02  0.29999980306E+02 0.  0.
        -12    1    1    2    0    0  0.21670784047E+02  0.83045325395E+01  0.33385297104E+02  0.40659146629E+02  0.00000000000E+00 0.  1.
         11    1    3    3    0    0 -0.90229802384E+01 -0.57802594276E+01 -0.14876622914E+02  0.18334107042E+02  0.51100000000E-03 0. -1.
        -11    1    3    3    0    0  0.37447593620E+01  0.30931348361E+01 -0.13209649300E+02  0.14074286507E+02  0.51100000000E-03 0.  1.
         12    1    3    3    0    0 -0.16392563171E+02 -0.56174079481E+01 -0.52990248895E+01  0.18120459822E+02  0.00000000000E+00 0. -1.
</event>
<event>
 7    1  0.3129575E-011  0.5052886E+02  0.7816164E-02  0.1300439E+00
        -11   -1    0    0    0    0  0.00000000000E+00  0.00000000000E+00  0.45593999997E+02  0.45594000000E+02  0.51100000000E-03 0.  1.
         11   -1    0    0    0    0 -0.00000000000E+00 -0.00000000000E+00 -0.45593999997E+02  0.45594000000E+02  0.51100000000E-03 0. -1.
    9900012    2    1    2    0    0  0.37134457745E+02  0.15173270274E+02 -0.66309427991E+01  0.50528862217E+02  0.30000007196E+02 0.  0.
        -12    1    1    2    0    0 -0.37134457745E+02 -0.15173270274E+02  0.66309427991E+01  0.40659137783E+02  0.00000000000E+00 0.  1.
         11    1    3    3    0    0  0.10754549829E+02  0.10923157186E+01 -0.74891759827E+00  0.10835791318E+02  0.51100000000E-03 0. -1.
        -11    1    3    3    0    0  0.14815204365E+02 -0.36513448092E+01 -0.98397991562E+01  0.18156107705E+02  0.51100000000E-03 0.  1.
        -12    1    3    3    0    0  0.11564703551E+02  0.17732299365E+02  0.39577739554E+01  0.21536963195E+02  0.00000000000E+00 0.  1.
</event>
<event>
 7    1  0.3129575E-011  0.5052886E+02  0.7816164E-02  0.1300439E+00
        -11   -1    0    0    0    0  0.00000000000E+00  0.00000000000E+00  0.45593999997E+02  0.45594000000E+02  0.51100000000E-03 0.  1.
         11   -1    0    0    0    0 -0.00000000000E+00 -0.00000000000E+00 -0.45593999997E+02  0.45594000000E+02  0.51100000000E-03 0. -1.
    9900012    2    1    2    0    0  0.25114053088E+02 -0.67711603282E+01 -0.31250624282E+02  0.50528858436E+02  0.29999995703E+02 0.  0.
        -12    1    1    2    0    0 -0.25114053088E+02  0.67711603282E+01  0.31250624282E+02  0.40659141564E+02  0.00000000000E+00 0.  1.
         11    1    3    3    0    0  0.15613437247E+01 -0.14420180427E+01 -0.62031750640E+01  0.65571786157E+01  0.51100000000E-03 0. -1.
        -11    1    3    3    0    0  0.46941020656E+01  0.19414307845E+01  0.54081146512E+01  0.74196665717E+01  0.51100000000E-03 0.  1.
        -12    1    3    3    0    0  0.18858607298E+02 -0.72705730701E+01 -0.30455563869E+02  0.36552013249E+02  0.00000000000E+00 0.  1.
</event>
<event>
 7    1  0.3129575E-011  0.5052887E+02  0.7816164E-02  0.1300439E+00
        -11   -1    0    0    0    0  0.00000000000E+00  0.00000000000E+00  0.45593999997E+02  0.45594000000E+02  0.51100000000E-03 0.  1.
         11   -1    0    0    0    0 -0.00000000000E+00 -0.00000000000E+00 -0.45593999997E+02  0.45594000000E+02  0.51100000000E-03 0. -1.
    9900012    2    1    2    0    0  0.22263157994E+02 -0.34004384721E+02  0.11039502349E+01  0.50528867074E+02  0.30000021958E+02 0.  0.
        -12    1    1    2    0    0 -0.22263157994E+02  0.34004384721E+02 -0.11039502349E+01  0.40659132926E+02  0.00000000000E+00 0.  1.
         11    1    3    3    0    0 -0.18525726168E+01 -0.36337305471E+01 -0.20003775053E+01  0.45428552051E+01  0.51100000000E-03 0. -1.
        -11    1    3    3    0    0  0.13589068759E+01 -0.33862950889E+01  0.94419598117E+01  0.10122461542E+02  0.51100000000E-03 0.  1.
         12    1    3    3    0    0  0.22756823735E+02 -0.26984359085E+02 -0.63376320715E+01  0.35863550327E+02  0.00000000000E+00 0. -1.
</event>
<event>
 7    1  0.3129575E-011  0.5052897E+02  0.7816164E-02  0.1300438E+00
        -11   -1    0    0    0    0  0.00000000000E+00  0.00000000000E+00  0.45593999997E+02  0.45594000000E+02  0.51100000000E-03 0.  1.
         11   -1    0    0    0    0 -0.00000000000E+00 -0.00000000000E+00 -0.45593999997E+02  0.45594000000E+02  0.51100000000E-03 0. -1.
    9900012    2    1    2    0    0  0.14185177317E+02  0.38005871260E+02 -0.27370073238E+01  0.50528970070E+02  0.30000335023E+02 0.  0.
        -12    1    1    2    0    0 -0.14185177317E+02 -0.38005871260E+02  0.27370073238E+01  0.40659029930E+02  0.00000000000E+00 0.  1.
         11    1    3    3    0    0  0.29382623920E+01  0.32297116779E+02 -0.62055820573E+01  0.33018879252E+02  0.51100000000E-03 0. -1.
        -11    1    3    3    0    0 -0.54383611611E-01  0.61539842698E+00 -0.33199545224E+01  0.33769470078E+01  0.51100000000E-03 0.  1.
        -12    1    3    3    0    0  0.11301298537E+02  0.50933560540E+01  0.67885292559E+01  0.14133143810E+02  0.00000000000E+00 0.  1.
</event>
<event>
 7    1  0.3129575E-011  0.5052887E+02  0.7816164E-02  0.1300439E+00
        -11   -1    0    0    0    0  0.00000000000E+00  0.00000000000E+00  0.45593999997E+02  0.45594000000E+02  0.51100000000E-03 0.  1.
         11   -1    0    0    0    0 -0.00000000000E+00 -0.00000000000E+00 -0.45593999997E+02  0.45594000000E+02  0.51100000000E-03 0. -1.
    9900012    2    1    2    0    0  0.30065891529E+02  0.59774602267E+01 -0.26710996938E+02  0.50528865459E+02  0.30000017049E+02 0.  0.
        -12    1    1    2    0    0 -0.30065891529E+02 -0.59774602267E+01  0.26710996938E+02  0.40659134541E+02  0.00000000000E+00 0.  1.
         11    1    3    3    0    0  0.22135377807E+02  0.25134060905E+01 -0.16639370678E+02  0.27805769503E+02  0.51100000000E-03 0. -1.
        -11    1    3    3    0    0  0.94460541537E+01  0.95521274624E+01 -0.94367816327E+01  0.16417183863E+02  0.51100000000E-03 0.  1.
        -12    1    3    3    0    0 -0.15155404319E+01 -0.60880733262E+01 -0.63484462745E+00  0.63059120931E+01  0.00000000000E+00 0.  1.
</event>
<event>
 7    1  0.3129575E-011  0.5052886E+02  0.7816164E-02  0.1300439E+00
        -11   -1    0    0    0    0  0.00000000000E+00  0.00000000000E+00  0.45593999997E+02  0.45594000000E+02  0.51100000000E-03 0.  1.
         11   -1    0    0    0    0 -0.00000000000E+00 -0.00000000000E+00 -0.45593999997E+02  0.45594000000E+02  0.51100000000E-03 0. -1.
    9900012    2    1    2    0    0 -0.29396578150E+02 -0.21609115109E+02 -0.17945844882E+02  0.50528855748E+02  0.29999987533E+02 0.  0.
        -12    1    1    2    0    0  0.29396578150E+02  0.21609115109E+02  0.17945844882E+02  0.40659144252E+02  0.00000000000E+00 0.  1.
         11    1    3    3    0    0  0.11638134871E+01 -0.41007437337E+01 -0.87433731432E+00  0.43514396471E+01  0.51100000000E-03 0. -1.
        -11    1    3    3    0    0 -0.90320742755E+01  0.60789832991E+01 -0.56139532597E+01  0.12249443870E+02  0.51100000000E-03 0.  1.
         12    1    3    3    0    0 -0.21528317362E+02 -0.23587354674E+02 -0.11457554308E+02  0.33927972231E+02  0.00000000000E+00 0. -1.
</event>
<event>
 7    1  0.3129575E-011  0.5052886E+02  0.7816164E-02  0.1300439E+00
        -11   -1    0    0    0    0  0.00000000000E+00  0.00000000000E+00  0.45593999997E+02  0.45594000000E+02  0.51100000000E-03 0. -1.
         11   -1    0    0    0    0 -0.00000000000E+00 -0.00000000000E+00 -0.45593999997E+02  0.45594000000E+02  0.51100000000E-03 0.  1.
    9900012    2    1    2    0    0 -0.93672845188E+01  0.30903025556E+02  0.24706727496E+02  0.50528863372E+02  0.30000010704E+02 0.  0.
        -12    1    1    2    0    0  0.93672845188E+01 -0.30903025556E+02 -0.24706727496E+02  0.40659136628E+02  0.00000000000E+00 0.  1.
         11    1    3    3    0    0 -0.12375465669E+02  0.87865422403E+01  0.20312703012E+02  0.25356683122E+02  0.51100000000E-03 0. -1.
        -11    1    3    3    0    0  0.17001129664E+01 -0.60390719944E+00  0.12571873377E+01  0.21990016524E+01  0.51100000000E-03 0.  1.
         12    1    3    3    0    0  0.13080681839E+01  0.22720390516E+02  0.31368371470E+01  0.22973178597E+02  0.00000000000E+00 0. -1.
</event>
<event>
 7    1  0.3129575E-011  0.5052885E+02  0.7816164E-02  0.1300439E+00
        -11   -1    0    0    0    0  0.00000000000E+00  0.00000000000E+00  0.45593999997E+02  0.45594000000E+02  0.51100000000E-03 0. -1.
         11   -1    0    0    0    0 -0.00000000000E+00 -0.00000000000E+00 -0.45593999997E+02  0.45594000000E+02  0.51100000000E-03 0.  1.
    9900012    2    1    2    0    0 -0.25478646165E+02  0.30354258416E+02  0.90897724165E+01  0.50528851251E+02  0.29999973862E+02 0.  0.
        -12    1    1    2    0    0  0.25478646165E+02 -0.30354258416E+02 -0.90897724165E+01  0.40659148749E+02  0.00000000000E+00 0.  1.
         11    1    3    3    0    0 -0.75643905223E+01  0.18014145955E+02  0.64291270962E+01  0.20568498583E+02  0.51100000000E-03 0. -1.
        -11    1    3    3    0    0 -0.14665820587E+01  0.11476136953E+02 -0.39322755089E+01  0.12219466978E+02  0.51100000000E-03 0.  1.
        -12    1    3    3    0    0 -0.16447673584E+02  0.86397550847E+00  0.65929208291E+01  0.17740885690E+02  0.00000000000E+00 0.  1.
</event>
<event>
 7    1  0.3129575E-011  0.5052881E+02  0.7816164E-02  0.1300439E+00
        -11   -1    0    0    0    0  0.00000000000E+00  0.00000000000E+00  0.45593999997E+02  0.45594000000E+02  0.51100000000E-03 0.  1.
         11   -1    0    0    0    0 -0.00000000000E+00 -0.00000000000E+00 -0.45593999997E+02  0.45594000000E+02  0.51100000000E-03 0. -1.
    9900012    2    1    2    0    0  0.92198260589E+01 -0.58207615141E+01 -0.39169926723E+02  0.50528811412E+02  0.29999852766E+02 0.  0.
        -12    1    1    2    0    0 -0.92198260589E+01  0.58207615141E+01  0.39169926723E+02  0.40659188588E+02  0.00000000000E+00 0.  1.
         11    1    3    3    0    0 -0.24242069006E+01  0.22522759781E+01  0.13219026438E+01  0.35632784116E+01  0.51100000000E-03 0. -1.
        -11    1    3    3    0    0  0.53439446036E+01 -0.99670888435E+01 -0.80959833260E+01  0.13908470448E+02  0.51100000000E-03 0.  1.
         12    1    3    3    0    0  0.63000883558E+01  0.18940513513E+01 -0.32395846041E+02  0.33057062551E+02  0.00000000000E+00 0. -1.
</event>
<event>
 7    1  0.3129575E-011  0.5052886E+02  0.7816164E-02  0.1300439E+00
        -11   -1    0    0    0    0  0.00000000000E+00  0.00000000000E+00  0.45593999997E+02  0.45594000000E+02  0.51100000000E-03 0.  1.
         11   -1    0    0    0    0 -0.00000000000E+00 -0.00000000000E+00 -0.45593999997E+02  0.45594000000E+02  0.51100000000E-03 0. -1.
    9900012    2    1    2    0    0 -0.57961384126E+01 -0.35665915730E+02 -0.18641696739E+02  0.50528860527E+02  0.30000002059E+02 0.  0.
        -12    1    1    2    0    0  0.57961384126E+01  0.35665915730E+02  0.18641696739E+02  0.40659139473E+02  0.00000000000E+00 0.  1.
         11    1    3    3    0    0 -0.26026291335E+01 -0.18660354162E+02  0.27544915846E+01  0.19041263614E+02  0.51100000000E-03 0. -1.
        -11    1    3    3    0    0  0.66367792502E+00 -0.23150739139E+01  0.23074487168E+01  0.33353193935E+01  0.51100000000E-03 0.  1.
         12    1    3    3    0    0 -0.38571872041E+01 -0.14690487654E+02 -0.23703637040E+02  0.28152277520E+02  0.00000000000E+00 0. -1.
</event>
<event>
 7    1  0.3129575E-011  0.5052888E+02  0.7816164E-02  0.1300439E+00
        -11   -1    0    0    0    0  0.00000000000E+00  0.00000000000E+00  0.45593999997E+02  0.45594000000E+02  0.51100000000E-03 0.  1.
         11   -1    0    0    0    0 -0.00000000000E+00 -0.00000000000E+00 -0.45593999997E+02  0.45594000000E+02  0.51100000000E-03 0. -1.
    9900012    2    1    2    0    0  0.25320621185E+02  0.37337014458E+01 -0.31592558371E+02  0.50528878906E+02  0.30000057923E+02 0.  0.
        -12    1    1    2    0    0 -0.25320621185E+02 -0.37337014458E+01  0.31592558371E+02  0.40659121094E+02  0.00000000000E+00 0.  1.
         11    1    3    3    0    0  0.24369230048E+02  0.10412003038E+02 -0.16196147311E+02  0.31057758586E+02  0.51100000000E-03 0.  1.
        -11    1    3    3    0    0  0.31622480881E+01  0.11674863287E+01 -0.69970585697E+01  0.77667024011E+01  0.51100000000E-03 0. -1.
        -12    1    3    3    0    0 -0.22108569514E+01 -0.78457879211E+01 -0.83993524907E+01  0.11704417919E+02  0.00000000000E+00 0.  1.
</event>
<event>
 7    1  0.3129575E-011  0.5052886E+02  0.7816164E-02  0.1300439E+00
        -11   -1    0    0    0    0  0.00000000000E+00  0.00000000000E+00  0.45593999997E+02  0.45594000000E+02  0.51100000000E-03 0.  1.
         11   -1    0    0    0    0 -0.00000000000E+00 -0.00000000000E+00 -0.45593999997E+02  0.45594000000E+02  0.51100000000E-03 0. -1.
    9900012    2    1    2    0    0  0.48420230174E+01 -0.15399776411E+02 -0.37317121409E+02  0.50528857724E+02  0.29999993537E+02 0.  0.
        -12    1    1    2    0    0 -0.48420230174E+01  0.15399776411E+02  0.37317121409E+02  0.40659142276E+02  0.00000000000E+00 0.  1.
         11    1    3    3    0    0  0.34626852734E+00  0.38391708515E+00 -0.14215142669E+02  0.14224541313E+02  0.51100000000E-03 0. -1.
        -11    1    3    3    0    0  0.28557492713E+01  0.34094978422E+01  0.18200699194E+01  0.48054796024E+01  0.51100000000E-03 0.  1.
         12    1    3    3    0    0  0.16400052188E+01 -0.19193191338E+02 -0.24922048660E+02  0.31498836808E+02  0.00000000000E+00 0. -1.
</event>
<event>
 7    1  0.3129575E-011  0.5052886E+02  0.7816164E-02  0.1300439E+00
        -11   -1    0    0    0    0  0.00000000000E+00  0.00000000000E+00  0.45593999997E+02  0.45594000000E+02  0.51100000000E-03 0. -1.
         11   -1    0    0    0    0 -0.00000000000E+00 -0.00000000000E+00 -0.45593999997E+02  0.45594000000E+02  0.51100000000E-03 0.  1.
    9900012    2    1    2    0    0 -0.24548793213E+02 -0.31862667211E+02  0.59407770550E+01  0.50528860289E+02  0.30000001335E+02 0.  0.
        -12    1    1    2    0    0  0.24548793213E+02  0.31862667211E+02 -0.59407770550E+01  0.40659139711E+02  0.00000000000E+00 0.  1.
         11    1    3    3    0    0 -0.10542247434E+02 -0.10613691307E+01  0.24119368047E+01  0.10866596744E+02  0.51100000000E-03 0.  1.
        -11    1    3    3    0    0 -0.71919614684E+01 -0.18285368552E+02  0.12058285599E+02  0.23053877434E+02  0.51100000000E-03 0. -1.
        -12    1    3    3    0    0 -0.68145843107E+01 -0.12515929527E+02 -0.85294453492E+01  0.16608386111E+02  0.00000000000E+00 0.  1.
</event>
<event>
 7    1  0.3129575E-011  0.5052892E+02  0.7816164E-02  0.1300439E+00
        -11   -1    0    0    0    0  0.00000000000E+00  0.00000000000E+00  0.45593999997E+02  0.45594000000E+02  0.51100000000E-03 0.  1.
         11   -1    0    0    0    0 -0.00000000000E+00 -0.00000000000E+00 -0.45593999997E+02  0.45594000000E+02  0.51100000000E-03 0. -1.
    9900012    2    1    2    0    0 -0.17624937666E+02 -0.32898020487E+02 -0.16132024472E+02  0.50528924835E+02  0.30000197528E+02 0.  0.
        -12    1    1    2    0    0  0.17624937666E+02  0.32898020487E+02  0.16132024472E+02  0.40659075165E+02  0.00000000000E+00 0.  1.
         11    1    3    3    0    0 -0.41293008106E+01 -0.39594849604E+01 -0.55564122373E+01  0.79751089991E+01  0.51100000000E-03 0. -1.
        -11    1    3    3    0    0 -0.85742729411E+01 -0.33291384471E+02 -0.70345696522E+01  0.35090163963E+02  0.51100000000E-03 0.  1.
        -12    1    3    3    0    0 -0.49213639140E+01  0.43528489446E+01 -0.35410425825E+01  0.74636518729E+01  0.00000000000E+00 0.  1.
</event>
<event>
 7    1  0.3129575E-011  0.5052886E+02  0.7816164E-02  0.1300439E+00
        -11   -1    0    0    0    0  0.00000000000E+00  0.00000000000E+00  0.45593999997E+02  0.45594000000E+02  0.51100000000E-03 0.  1.
         11   -1    0    0    0    0 -0.00000000000E+00 -0.00000000000E+00 -0.45593999997E+02  0.45594000000E+02  0.51100000000E-03 0. -1.
    9900012    2    1    2    0    0 -0.17639410746E+02 -0.24514824699E+02 -0.27222053401E+02  0.50528860402E+02  0.30000001677E+02 0.  0.
        -12    1    1    2    0    0  0.17639410746E+02  0.24514824699E+02  0.27222053401E+02  0.40659139598E+02  0.00000000000E+00 0.  1.
         11    1    3    3    0    0  0.50083651845E+01 -0.59826193532E+01 -0.63150355955E+00  0.78277872450E+01  0.51100000000E-03 0.  1.
        -11    1    3    3    0    0 -0.80574302720E+01 -0.11130880579E+01 -0.56715233061E+00  0.81536991384E+01  0.51100000000E-03 0. -1.
         12    1    3    3    0    0 -0.14590345658E+02 -0.17419117288E+02 -0.26023397511E+02  0.34547374018E+02  0.00000000000E+00 0. -1.
</event>
<event>
 7    1  0.3129575E-011  0.5052887E+02  0.7816164E-02  0.1300439E+00
        -11   -1    0    0    0    0  0.00000000000E+00  0.00000000000E+00  0.45593999997E+02  0.45594000000E+02  0.51100000000E-03 0.  1.
         11   -1    0    0    0    0 -0.00000000000E+00 -0.00000000000E+00 -0.45593999997E+02  0.45594000000E+02  0.51100000000E-03 0. -1.
    9900012    2    1    2    0    0  0.26815202968E+02 -0.40651464910E+01 -0.30291657316E+02  0.50528867826E+02  0.30000024244E+02 0.  0.
        -12    1    1    2    0    0 -0.26815202968E+02  0.40651464910E+01  0.30291657316E+02  0.40659132174E+02  0.00000000000E+00 0.  1.
         11    1    3    3    0    0  0.14620605919E+02  0.33321966324E+01 -0.12840929678E+02  0.19742216874E+02  0.51100000000E-03 0. -1.
        -11    1    3    3    0    0  0.12788620185E+02  0.44021470440E+01 -0.99764175111E+01  0.16806445533E+02  0.51100000000E-03 0.  1.
        -12    1    3    3    0    0 -0.59402313641E+00 -0.11799490167E+02 -0.74743101268E+01  0.13980205419E+02  0.00000000000E+00 0.  1.
</event>
<event>
 7    1  0.3129575E-011  0.5052886E+02  0.7816164E-02  0.1300439E+00
        -11   -1    0    0    0    0  0.00000000000E+00  0.00000000000E+00  0.45593999997E+02  0.45594000000E+02  0.51100000000E-03 0. -1.
         11   -1    0    0    0    0 -0.00000000000E+00 -0.00000000000E+00 -0.45593999997E+02  0.45594000000E+02  0.51100000000E-03 0.  1.
    9900012    2    1    2    0    0  0.20553524290E+02 -0.84838663427E+00  0.35071334826E+02  0.50528860227E+02  0.30000001146E+02 0.  0.
        -12    1    1    2    0    0 -0.20553524290E+02  0.84838663427E+00 -0.35071334826E+02  0.40659139773E+02  0.00000000000E+00 0.  1.
         11    1    3    3    0    0  0.12518368329E+02 -0.25280968812E+01  0.90966395618E+01  0.15679594096E+02  0.51100000000E-03 0.  1.
        -11    1    3    3    0    0 -0.13050410126E+01 -0.80135881727E+01  0.39314775894E+01  0.90209336403E+01  0.51100000000E-03 0. -1.
         12    1    3    3    0    0  0.93401969742E+01  0.96932984196E+01  0.22043217675E+02  0.25828332490E+02  0.00000000000E+00 0. -1.
</event>
<event>
 7    1  0.3129575E-011  0.5052889E+02  0.7816164E-02  0.1300439E+00
        -11   -1    0    0    0    0  0.00000000000E+00  0.00000000000E+00  0.45593999997E+02  0.45594000000E+02  0.51100000000E-03 0.  1.
         11   -1    0    0    0    0 -0.00000000000E+00 -0.00000000000E+00 -0.45593999997E+02  0.45594000000E+02  0.51100000000E-03 0. -1.
    9900012    2    1    2    0    0 -0.16313737626E+02  0.21475821899E+02 -0.30427202359E+02  0.50528885339E+02  0.30000077476E+02 0.  0.
        -12    1    1    2    0    0  0.16313737626E+02 -0.21475821899E+02  0.30427202359E+02  0.40659114661E+02  0.00000000000E+00 0.  1.
         11    1    3    3    0    0  0.18996578989E+01 -0.10952112315E+01 -0.22026948448E+01  0.31080625179E+01  0.51100000000E-03 0. -1.
        -11    1    3    3    0    0 -0.19673484893E+01  0.21250590379E+02 -0.12294371568E+02  0.24629446280E+02  0.51100000000E-03 0.  1.
         12    1    3    3    0    0 -0.16246047036E+02  0.13204427514E+01 -0.15930135947E+02  0.22791376541E+02  0.00000000000E+00 0. -1.
</event>
<event>
 7    1  0.3129575E-011  0.5052886E+02  0.7816164E-02  0.1300439E+00
        -11   -1    0    0    0    0  0.00000000000E+00  0.00000000000E+00  0.45593999997E+02  0.45594000000E+02  0.51100000000E-03 0. -1.
         11   -1    0    0    0    0 -0.00000000000E+00 -0.00000000000E+00 -0.45593999997E+02  0.45594000000E+02  0.51100000000E-03 0.  1.
    9900012    2    1    2    0    0 -0.30711630162E+02  0.20101063923E+01  0.26569164706E+02  0.50528864888E+02  0.30000015313E+02 0.  0.
        -12    1    1    2    0    0  0.30711630162E+02 -0.20101063923E+01 -0.26569164706E+02  0.40659135112E+02  0.00000000000E+00 0.  1.
         11    1    3    3    0    0 -0.11818479428E+02  0.10498101062E+02  0.33426510961E+01  0.16157348127E+02  0.51100000000E-03 0. -1.
        -11    1    3    3    0    0 -0.86885092472E+00 -0.25815781758E+01 -0.15765989447E+01  0.31472388376E+01  0.51100000000E-03 0.  1.
        -12    1    3    3    0    0 -0.18024299809E+02 -0.59064164937E+01  0.24803112555E+02  0.31224277923E+02  0.00000000000E+00 0.  1.
</event>
<event>
 7    1  0.3129575E-011  0.5052886E+02  0.7816164E-02  0.1300439E+00
        -11   -1    0    0    0    0  0.00000000000E+00  0.00000000000E+00  0.45593999997E+02  0.45594000000E+02  0.51100000000E-03 0. -1.
         11   -1    0    0    0    0 -0.00000000000E+00 -0.00000000000E+00 -0.45593999997E+02  0.45594000000E+02  0.51100000000E-03 0.  1.
    9900012    2    1    2    0    0 -0.31993063843E+02  0.10123793091E+02  0.22959064272E+02  0.50528856467E+02  0.29999989717E+02 0.  0.
        -12    1    1    2    0    0  0.31993063843E+02 -0.10123793091E+02 -0.22959064272E+02  0.40659143533E+02  0.00000000000E+00 0.  1.
         11    1    3    3    0    0 -0.24300822572E+00 -0.43819426248E+01  0.73201853122E+00  0.44493061881E+01  0.51100000000E-03 0. -1.
        -11    1    3    3    0    0  0.19571727405E+01  0.44703623728E+01  0.94027234877E+00  0.49697864372E+01  0.51100000000E-03 0.  1.
         12    1    3    3    0    0 -0.33707228358E+02  0.10035373343E+02  0.21286773392E+02  0.41109763842E+02  0.00000000000E+00 0. -1.
</event>
<event>
 7    1  0.3129575E-011  0.5052886E+02  0.7816164E-02  0.1300439E+00
        -11   -1    0    0    0    0  0.00000000000E+00  0.00000000000E+00  0.45593999997E+02  0.45594000000E+02  0.51100000000E-03 0.  1.
         11   -1    0    0    0    0 -0.00000000000E+00 -0.00000000000E+00 -0.45593999997E+02  0.45594000000E+02  0.51100000000E-03 0. -1.
    9900012    2    1    2    0    0  0.45397469389E+01  0.15340386542E+02 -0.37379525036E+02  0.50528860148E+02  0.30000000907E+02 0.  0.
        -12    1    1    2    0    0 -0.45397469389E+01 -0.15340386542E+02  0.37379525036E+02  0.40659139852E+02  0.00000000000E+00 0.  1.
         11    1    3    3    0    0  0.33545713813E+01  0.23370992489E+01 -0.39654660708E+01  0.56956214298E+01  0.51100000000E-03 0. -1.
        -11    1    3    3    0    0 -0.84169578638E+01  0.95129881117E+01 -0.32113088827E+02  0.34533933989E+02  0.51100000000E-03 0.  1.
        -12    1    3    3    0    0  0.96021334214E+01  0.34902991812E+01 -0.13009701390E+01  0.10299304730E+02  0.00000000000E+00 0.  1.
</event>
<event>
 7    1  0.3254693E-011  0.5052886E+02  0.7816164E-02  0.1300439E+00
        -11   -1    0    0    0    0  0.00000000000E+00  0.00000000000E+00  0.45593999997E+02  0.45594000000E+02  0.51100000000E-03 0. -1.
         11   -1    0    0    0    0 -0.00000000000E+00 -0.00000000000E+00 -0.45593999997E+02  0.45594000000E+02  0.51100000000E-03 0.  1.
    9900012    2    1    2    0    0  0.99903472977E+01 -0.31458518373E+02  0.23742797855E+02  0.50528857519E+02  0.29999992915E+02 0.  0.
        -12    1    1    2    0    0 -0.99903472977E+01  0.31458518373E+02 -0.23742797855E+02  0.40659142481E+02  0.00000000000E+00 0.  1.
         11    1    3    3    0    0  0.12135180164E+01 -0.10672635529E+02 -0.68438113994E+00  0.10763185073E+02  0.51100000000E-03 0. -1.
        -11    1    3    3    0    0 -0.56814838557E+01  0.43576123933E+00  0.42770329845E+01  0.71247567026E+01  0.51100000000E-03 0.  1.
         12    1    3    3    0    0  0.14458313137E+02 -0.21221644083E+02  0.20150146010E+02  0.32640915744E+02  0.00000000000E+00 0. -1.
</event>
<event>
 7    1  0.3129575E-011  0.5052887E+02  0.7816164E-02  0.1300439E+00
        -11   -1    0    0    0    0  0.00000000000E+00  0.00000000000E+00  0.45593999997E+02  0.45594000000E+02  0.51100000000E-03 0. -1.
         11   -1    0    0    0    0 -0.00000000000E+00 -0.00000000000E+00 -0.45593999997E+02  0.45594000000E+02  0.51100000000E-03 0.  1.
    9900012    2    1    2    0    0 -0.79999845733E+00 -0.41701370030E+01  0.40436803565E+02  0.50528866675E+02  0.30000020745E+02 0.  0.
        -12    1    1    2    0    0  0.79999845733E+00  0.41701370030E+01 -0.40436803565E+02  0.40659133325E+02  0.00000000000E+00 0.  1.
         11    1    3    3    0    0  0.61235224674E+00 -0.93772815545E+01  0.15808543553E+02  0.18390715977E+02  0.51100000000E-03 0. -1.
        -11    1    3    3    0    0  0.80099187605E+01 -0.22418862244E+01  0.73795918217E+01  0.11119497655E+02  0.51100000000E-03 0.  1.
         12    1    3    3    0    0 -0.94222694645E+01  0.74490307758E+01  0.17248668191E+02  0.21018653043E+02  0.00000000000E+00 0. -1.
</event>
<event>
 7    1  0.3129575E-011  0.5052885E+02  0.7816164E-02  0.1300439E+00
        -11   -1    0    0    0    0  0.00000000000E+00  0.00000000000E+00  0.45593999997E+02  0.45594000000E+02  0.51100000000E-03 0.  1.
         11   -1    0    0    0    0 -0.00000000000E+00 -0.00000000000E+00 -0.45593999997E+02  0.45594000000E+02  0.51100000000E-03 0. -1.
    9900012    2    1    2    0    0 -0.43846250416E+01 -0.21104376488E+02 -0.34475303717E+02  0.50528853303E+02  0.29999980101E+02 0.  0.
        -12    1    1    2    0    0  0.43846250416E+01  0.21104376488E+02  0.34475303717E+02  0.40659146697E+02  0.00000000000E+00 0.  1.
         11    1    3    3    0    0 -0.12777129316E+00 -0.27220795544E+01 -0.59213370240E+01  0.65183030780E+01  0.51100000000E-03 0. -1.
        -11    1    3    3    0    0 -0.11122200477E+02 -0.12251019753E+02 -0.29568387173E+01  0.16808739510E+02  0.51100000000E-03 0.  1.
         12    1    3    3    0    0  0.68653467290E+01 -0.61312771806E+01 -0.25597127976E+02  0.27201810715E+02  0.00000000000E+00 0. -1.
</event>
<event>
 7    1  0.3129575E-011  0.5052886E+02  0.7816164E-02  0.1300439E+00
        -11   -1    0    0    0    0  0.00000000000E+00  0.00000000000E+00  0.45593999997E+02  0.45594000000E+02  0.51100000000E-03 0. -1.
         11   -1    0    0    0    0 -0.00000000000E+00 -0.00000000000E+00 -0.45593999997E+02  0.45594000000E+02  0.51100000000E-03 0.  1.
    9900012    2    1    2    0    0  0.23155041910E+02 -0.72886779534E+01  0.32617250703E+02  0.50528857909E+02  0.29999994100E+02 0.  0.
        -12    1    1    2    0    0 -0.23155041910E+02  0.72886779534E+01 -0.32617250703E+02  0.40659142091E+02  0.00000000000E+00 0.  1.
         11    1    3    3    0    0 -0.89160934366E+00 -0.22784927356E+01  0.11380276414E+02  0.11640325936E+02  0.51100000000E-03 0. -1.
        -11    1    3    3    0    0  0.11030632793E+02 -0.11858369633E+02  0.49311728915E+01  0.16929626591E+02  0.51100000000E-03 0.  1.
        -12    1    3    3    0    0  0.13016018461E+02  0.68481844153E+01  0.16305801397E+02  0.21958905382E+02  0.00000000000E+00 0.  1.
</event>
<event>
 7    1  0.3129575E-011  0.5052885E+02  0.7816164E-02  0.1300439E+00
        -11   -1    0    0    0    0  0.00000000000E+00  0.00000000000E+00  0.45593999997E+02  0.45594000000E+02  0.51100000000E-03 0.  1.
         11   -1    0    0    0    0 -0.00000000000E+00 -0.00000000000E+00 -0.45593999997E+02  0.45594000000E+02  0.51100000000E-03 0. -1.
    9900012    2    1    2    0    0 -0.14349118174E+02  0.34038920728E+02 -0.16988843372E+02  0.50528854463E+02  0.29999983625E+02 0.  0.
        -12    1    1    2    0    0  0.14349118174E+02 -0.34038920728E+02  0.16988843372E+02  0.40659145537E+02  0.00000000000E+00 0.  1.
         11    1    3    3    0    0  0.11032137889E+01  0.26362323742E+02 -0.16009094631E+02  0.30862279645E+02  0.51100000000E-03 0. -1.
        -11    1    3    3    0    0 -0.81987080401E+01  0.78812590194E+01  0.24609229154E+01  0.11635686448E+02  0.51100000000E-03 0.  1.
        -12    1    3    3    0    0 -0.72536239230E+01 -0.20466203321E+00 -0.34406716563E+01  0.80308883700E+01  0.00000000000E+00 0.  1.
</event>
<event>
 7    1  0.3129575E-011  0.5052887E+02  0.7816164E-02  0.1300439E+00
        -11   -1    0    0    0    0  0.00000000000E+00  0.00000000000E+00  0.45593999997E+02  0.45594000000E+02  0.51100000000E-03 0.  1.
         11   -1    0    0    0    0 -0.00000000000E+00 -0.00000000000E+00 -0.45593999997E+02  0.45594000000E+02  0.51100000000E-03 0. -1.
    9900012    2    1    2    0    0  0.33060613058E+01 -0.12367956295E+02 -0.38591046465E+02  0.50528865091E+02  0.30000015931E+02 0.  0.
        -12    1    1    2    0    0 -0.33060613058E+01  0.12367956295E+02  0.38591046465E+02  0.40659134909E+02  0.00000000000E+00 0.  1.
         11    1    3    3    0    0  0.87692997465E+01 -0.12260042099E+02 -0.32602163695E+02  0.35918105854E+02  0.51100000000E-03 0. -1.
        -11    1    3    3    0    0  0.30440624818E+01  0.10576953749E+00 -0.52489231109E+01  0.60686652300E+01  0.51100000000E-03 0.  1.
        -12    1    3    3    0    0 -0.85073009225E+01 -0.21368373322E+00 -0.73995965952E+00  0.85420940068E+01  0.00000000000E+00 0.  1.
</event>
<event>
 7    1  0.3129575E-011  0.5052884E+02  0.7816164E-02  0.1300439E+00
        -11   -1    0    0    0    0  0.00000000000E+00  0.00000000000E+00  0.45593999997E+02  0.45594000000E+02  0.51100000000E-03 0. -1.
         11   -1    0    0    0    0 -0.00000000000E+00 -0.00000000000E+00 -0.45593999997E+02  0.45594000000E+02  0.51100000000E-03 0.  1.
    9900012    2    1    2    0    0 -0.29317199611E+02 -0.24717039076E+02 -0.13518013510E+02  0.50528844783E+02  0.29999954201E+02 0.  0.
        -12    1    1    2    0    0  0.29317199611E+02  0.24717039076E+02  0.13518013510E+02  0.40659155217E+02  0.00000000000E+00 0.  1.
         11    1    3    3    0    0 -0.49012439134E+01 -0.20279313965E+02  0.19391657212E+01  0.20953117447E+02  0.51100000000E-03 0.  1.
        -11    1    3    3    0    0 -0.10897338599E+02 -0.25794598596E+01 -0.44745252507E+01  0.12059310851E+02  0.51100000000E-03 0. -1.
        -12    1    3    3    0    0 -0.13518617099E+02 -0.18582652512E+01 -0.10982653981E+02  0.17516416485E+02  0.00000000000E+00 0.  1.
</event>
<event>
 7    1  0.3695547E-011  0.5052887E+02  0.7816164E-02  0.1300439E+00
        -11   -1    0    0    0    0  0.00000000000E+00  0.00000000000E+00  0.45593999997E+02  0.45594000000E+02  0.51100000000E-03 0.  1.
         11   -1    0    0    0    0 -0.00000000000E+00 -0.00000000000E+00 -0.45593999997E+02  0.45594000000E+02  0.51100000000E-03 0. -1.
    9900012    2    1    2    0    0 -0.37693217325E+02 -0.51246714574E+01 -0.14357031537E+02  0.50528865179E+02  0.30000016198E+02 0.  0.
        -12    1    1    2    0    0  0.37693217325E+02  0.51246714574E+01  0.14357031537E+02  0.40659134821E+02  0.00000000000E+00 0.  1.
         11    1    3    3    0    0 -0.28357860506E+02 -0.56105992012E+01 -0.10523657964E+02  0.30763524718E+02  0.51100000000E-03 0. -1.
        -11    1    3    3    0    0 -0.95018595961E+01 -0.21303635778E+01  0.47184579249E+01  0.10820703776E+02  0.51100000000E-03 0.  1.
         12    1    3    3    0    0  0.16650277745E+00  0.26162913217E+01 -0.85518314977E+01  0.89446366847E+01  0.00000000000E+00 0. -1.
</event>
<event>
 7    1  0.3129575E-011  0.5052887E+02  0.7816164E-02  0.1300439E+00
        -11   -1    0    0    0    0  0.00000000000E+00  0.00000000000E+00  0.45593999997E+02  0.45594000000E+02  0.51100000000E-03 0.  1.
         11   -1    0    0    0    0 -0.00000000000E+00 -0.00000000000E+00 -0.45593999997E+02  0.45594000000E+02  0.51100000000E-03 0. -1.
    9900012    2    1    2    0    0 -0.18441252785E+02  0.66240491755E+01 -0.35625926484E+02  0.50528874707E+02  0.30000045159E+02 0.  0.
        -12    1    1    2    0    0  0.18441252785E+02 -0.66240491755E+01  0.35625926484E+02  0.40659125293E+02  0.00000000000E+00 0.  1.
         11    1    3    3    0    0 -0.15549611322E+02  0.20477800633E+01 -0.22967835167E+02  0.27811962677E+02  0.51100000000E-03 0. -1.
        -11    1    3    3    0    0  0.35077505719E+01  0.94910230499E+01 -0.39962118278E+01  0.10879041403E+02  0.51100000000E-03 0.  1.
         12    1    3    3    0    0 -0.63993920356E+01 -0.49147539377E+01 -0.86618794889E+01  0.11837870627E+02  0.00000000000E+00 0. -1.
</event>
<event>
 7    1  0.3129575E-011  0.5052886E+02  0.7816164E-02  0.1300439E+00
        -11   -1    0    0    0    0  0.00000000000E+00  0.00000000000E+00  0.45593999997E+02  0.45594000000E+02  0.51100000000E-03 0. -1.
         11   -1    0    0    0    0 -0.00000000000E+00 -0.00000000000E+00 -0.45593999997E+02  0.45594000000E+02  0.51100000000E-03 0.  1.
    9900012    2    1    2    0    0 -0.21459121454E+02  0.19481597846E+02  0.28515598232E+02  0.50528857231E+02  0.29999992038E+02 0.  0.
        -12    1    1    2    0    0  0.21459121454E+02 -0.19481597846E+02 -0.28515598232E+02  0.40659142769E+02  0.00000000000E+00 0.  1.
         11    1    3    3    0    0  0.51043428530E+01  0.31368378352E+01  0.55223607096E+01  0.81480387599E+01  0.51100000000E-03 0. -1.
        -11    1    3    3    0    0 -0.10486621353E+02  0.99237819136E+01  0.11134979905E+01  0.14480695871E+02  0.51100000000E-03 0.  1.
        -12    1    3    3    0    0 -0.16076842954E+02  0.64209780975E+01  0.21879739532E+02  0.27900122600E+02  0.00000000000E+00 0.  1.
</event>
<event>
 7    1  0.3129575E-011  0.5052887E+02  0.7816164E-02  0.1300439E+00
        -11   -1    0    0    0    0  0.00000000000E+00  0.00000000000E+00  0.45593999997E+02  0.45594000000E+02  0.51100000000E-03 0.  1.
         11   -1    0    0    0    0 -0.00000000000E+00 -0.00000000000E+00 -0.45593999997E+02  0.45594000000E+02  0.51100000000E-03 0. -1.
    9900012    2    1    2    0    0 -0.83963655707E+01  0.32346034764E+02 -0.23160314085E+02  0.50528867345E+02  0.30000022781E+02 0.  0.
        -12    1    1    2    0    0  0.83963655707E+01 -0.32346034764E+02  0.23160314085E+02  0.40659132655E+02  0.00000000000E+00 0.  1.
         11    1    3    3    0    0  0.40666988312E+01  0.19788851341E+02 -0.16348944103E+02  0.25988933229E+02  0.51100000000E-03 0. -1.
        -11    1    3    3    0    0 -0.14830835819E+01  0.11508115786E+02 -0.51684925009E-01  0.11603401978E+02  0.51100000000E-03 0.  1.
        -12    1    3    3    0    0 -0.10979980820E+02  0.10490676364E+01 -0.67596850564E+01  0.12936532139E+02  0.00000000000E+00 0.  1.
</event>
<event>
 7    1  0.3129575E-011  0.5052885E+02  0.7816164E-02  0.1300439E+00
        -11   -1    0    0    0    0  0.00000000000E+00  0.00000000000E+00  0.45593999997E+02  0.45594000000E+02  0.51100000000E-03 0.  1.
         11   -1    0    0    0    0 -0.00000000000E+00 -0.00000000000E+00 -0.45593999997E+02  0.45594000000E+02  0.51100000000E-03 0. -1.
    9900012    2    1    2    0    0 -0.23462355285E+02  0.21802619719E+02 -0.25046556499E+02  0.50528851773E+02  0.29999975448E+02 0.  0.
        -12    1    1    2    0    0  0.23462355285E+02 -0.21802619719E+02  0.25046556499E+02  0.40659148227E+02  0.00000000000E+00 0.  1.
         11    1    3    3    0    0 -0.13432967818E+02  0.15233597638E+02 -0.14541578244E+02  0.24979283806E+02  0.51100000000E-03 0. -1.
        -11    1    3    3    0    0 -0.48998263440E+00  0.12180486282E+02 -0.48342633546E+01  0.13113902222E+02  0.51100000000E-03 0.  1.
         12    1    3    3    0    0 -0.95394048322E+01 -0.56114642004E+01 -0.56707149009E+01  0.12435665745E+02  0.00000000000E+00 0. -1.
</event>
<event>
 7    1  0.3129575E-011  0.5052885E+02  0.7816164E-02  0.1300439E+00
        -11   -1    0    0    0    0  0.00000000000E+00  0.00000000000E+00  0.45593999997E+02  0.45594000000E+02  0.51100000000E-03 0.  1.
         11   -1    0    0    0    0 -0.00000000000E+00 -0.00000000000E+00 -0.45593999997E+02  0.45594000000E+02  0.51100000000E-03 0. -1.
    9900012    2    1    2    0    0 -0.34628739458E+02  0.91737275315E+01 -0.19231724736E+02  0.50528854540E+02  0.29999983859E+02 0.  0.
        -12    1    1    2    0    0  0.34628739458E+02 -0.91737275315E+01  0.19231724736E+02  0.40659145460E+02  0.00000000000E+00 0.  1.
         11    1    3    3    0    0  0.11184606044E+00 -0.42066621173E+01  0.25601494006E+01  0.49257365870E+01  0.51100000000E-03 0. -1.
        -11    1    3    3    0    0  0.78116216974E+00 -0.12224730685E+01 -0.11375400619E-01  0.14507875101E+01  0.51100000000E-03 0.  1.
         12    1    3    3    0    0 -0.35521747688E+02  0.14602862717E+02 -0.21780498736E+02  0.44152330443E+02  0.00000000000E+00 0. -1.
</event>
<event>
 7    1  0.3129575E-011  0.5052884E+02  0.7816164E-02  0.1300439E+00
        -11   -1    0    0    0    0  0.00000000000E+00  0.00000000000E+00  0.45593999997E+02  0.45594000000E+02  0.51100000000E-03 0.  1.
         11   -1    0    0    0    0 -0.00000000000E+00 -0.00000000000E+00 -0.45593999997E+02  0.45594000000E+02  0.51100000000E-03 0. -1.
    9900012    2    1    2    0    0  0.14434381983E+02  0.12848491794E+02 -0.35773347061E+02  0.50528837631E+02  0.29999932463E+02 0.  0.
        -12    1    1    2    0    0 -0.14434381983E+02 -0.12848491794E+02  0.35773347061E+02  0.40659162369E+02  0.00000000000E+00 0.  1.
         11    1    3    3    0    0  0.63401717069E+01 -0.65833148065E+01 -0.76731292371E+01  0.11933764019E+02  0.51100000000E-03 0.  1.
        -11    1    3    3    0    0  0.63943161905E+01  0.34093989010E+01 -0.18430335435E+02  0.19803750779E+02  0.51100000000E-03 0. -1.
        -12    1    3    3    0    0  0.16998940860E+01  0.16022407699E+02 -0.96698823884E+01  0.18791322832E+02  0.00000000000E+00 0.  1.
</event>
<event>
 7    1  0.3129575E-011  0.5052886E+02  0.7816164E-02  0.1300439E+00
        -11   -1    0    0    0    0  0.00000000000E+00  0.00000000000E+00  0.45593999997E+02  0.45594000000E+02  0.51100000000E-03 0. -1.
         11   -1    0    0    0    0 -0.00000000000E+00 -0.00000000000E+00 -0.45593999997E+02  0.45594000000E+02  0.51100000000E-03 0.  1.
    9900012    2    1    2    0    0  0.79281405699E+01  0.36456176463E+02  0.16163451487E+02  0.50528863522E+02  0.30000011161E+02 0.  0.
        -12    1    1    2    0    0 -0.79281405699E+01 -0.36456176463E+02 -0.16163451487E+02  0.40659136478E+02  0.00000000000E+00 0.  1.
         11    1    3    3    0    0  0.33231501213E+01  0.81800367588E+01  0.13185785251E+02  0.15868877120E+02  0.51100000000E-03 0. -1.
        -11    1    3    3    0    0  0.47879773386E+01  0.51491454169E+01  0.83504143663E+01  0.10916402607E+02  0.51100000000E-03 0.  1.
         12    1    3    3    0    0 -0.18298688998E+00  0.23126994287E+02 -0.53727481304E+01  0.23743583795E+02  0.00000000000E+00 0. -1.
</event>
<event>
 7    1  0.3129575E-011  0.5052887E+02  0.7816164E-02  0.1300439E+00
        -11   -1    0    0    0    0  0.00000000000E+00  0.00000000000E+00  0.45593999997E+02  0.45594000000E+02  0.51100000000E-03 0.  1.
         11   -1    0    0    0    0 -0.00000000000E+00 -0.00000000000E+00 -0.45593999997E+02  0.45594000000E+02  0.51100000000E-03 0. -1.
    9900012    2    1    2    0    0 -0.14406105461E+02 -0.70232728022E+01 -0.37367133407E+02  0.50528869482E+02  0.30000029279E+02 0.  0.
        -12    1    1    2    0    0  0.14406105461E+02  0.70232728022E+01  0.37367133407E+02  0.40659130518E+02  0.00000000000E+00 0.  1.
         11    1    3    3    0    0 -0.66721849104E+01 -0.60219358412E+01 -0.76116106121E+01  0.11777876682E+02  0.51100000000E-03 0. -1.
        -11    1    3    3    0    0  0.34203687177E+01 -0.98447836641E+01 -0.14829809686E+02  0.18125726003E+02  0.51100000000E-03 0.  1.
        -12    1    3    3    0    0 -0.11154289269E+02  0.88434467031E+01 -0.14925713108E+02  0.20625266798E+02  0.00000000000E+00 0.  1.
</event>
<event>
 7    1  0.3129575E-011  0.5052887E+02  0.7816164E-02  0.1300439E+00
        -11   -1    0    0    0    0  0.00000000000E+00  0.00000000000E+00  0.45593999997E+02  0.45594000000E+02  0.51100000000E-03 0. -1.
         11   -1    0    0    0    0 -0.00000000000E+00 -0.00000000000E+00 -0.45593999997E+02  0.45594000000E+02  0.51100000000E-03 0.  1.
    9900012    2    1    2    0    0 -0.36024258377E+02  0.15308792906E+02  0.11002665398E+02  0.50528868458E+02  0.30000026166E+02 0.  0.
        -12    1    1    2    0    0  0.36024258377E+02 -0.15308792906E+02 -0.11002665398E+02  0.40659131542E+02  0.00000000000E+00 0.  1.
         11    1    3    3    0    0 -0.18050199509E+02  0.94241774331E+00  0.60646224005E+00  0.18084956462E+02  0.51100000000E-03 0. -1.
        -11    1    3    3    0    0 -0.31907948521E+01 -0.52614709077E+01  0.23698232325E+01  0.65939601390E+01  0.51100000000E-03 0.  1.
        -12    1    3    3    0    0 -0.14783264016E+02  0.19627846070E+02  0.80263799251E+01  0.25849951857E+02  0.00000000000E+00 0.  1.
</event>
<event>
 7    1  0.3129575E-011  0.5052886E+02  0.7816164E-02  0.1300439E+00
        -11   -1    0    0    0    0  0.00000000000E+00  0.00000000000E+00  0.45593999997E+02  0.45594000000E+02  0.51100000000E-03 0.  1.
         11   -1    0    0    0    0 -0.00000000000E+00 -0.00000000000E+00 -0.45593999997E+02  0.45594000000E+02  0.51100000000E-03 0. -1.
    9900012    2    1    2    0    0  0.22012671945E+02 -0.19933730702E+02 -0.27771466506E+02  0.50528859604E+02  0.29999999252E+02 0.  0.
        -12    1    1    2    0    0 -0.22012671945E+02  0.19933730702E+02  0.27771466506E+02  0.40659140396E+02  0.00000000000E+00 0.  1.
         11    1    3    3    0    0  0.51163910965E+01 -0.15741934491E+02 -0.98170018757E+01  0.19244726173E+02  0.51100000000E-03 0. -1.
        -11    1    3    3    0    0  0.19620416075E+02 -0.76431277238E+01 -0.16126150209E+02  0.26522270815E+02  0.51100000000E-03 0.  1.
        -12    1    3    3    0    0 -0.27241352266E+01  0.34513315133E+01 -0.18283144216E+01  0.47618626158E+01  0.00000000000E+00 0.  1.
</event>
<event>
 7    1  0.3129575E-011  0.5052886E+02  0.7816164E-02  0.1300439E+00
        -11   -1    0    0    0    0  0.00000000000E+00  0.00000000000E+00  0.45593999997E+02  0.45594000000E+02  0.51100000000E-03 0.  1.
         11   -1    0    0    0    0 -0.00000000000E+00 -0.00000000000E+00 -0.45593999997E+02  0.45594000000E+02  0.51100000000E-03 0. -1.
    9900012    2    1    2    0    0 -0.51558944845E+01  0.33566630867E+02  0.22357635325E+02  0.50528858186E+02  0.29999994943E+02 0.  0.
        -12    1    1    2    0    0  0.51558944845E+01 -0.33566630867E+02 -0.22357635325E+02  0.40659141814E+02  0.00000000000E+00 0.  1.
         11    1    3    3    0    0 -0.24823302067E+01  0.17207184928E+02  0.18272281627E+02  0.25221527561E+02  0.51100000000E-03 0. -1.
        -11    1    3    3    0    0 -0.36441796670E+01  0.99357082780E+01  0.11379147844E+02  0.15539734565E+02  0.51100000000E-03 0.  1.
         12    1    3    3    0    0  0.97061538910E+00  0.64237376609E+01 -0.72937941455E+01  0.97675960608E+01  0.00000000000E+00 0. -1.
</event>
<event>
 7    1  0.3129575E-011  0.5052886E+02  0.7816164E-02  0.1300439E+00
        -11   -1    0    0    0    0  0.00000000000E+00  0.00000000000E+00  0.45593999997E+02  0.45594000000E+02  0.51100000000E-03 0.  1.
         11   -1    0    0    0    0 -0.00000000000E+00 -0.00000000000E+00 -0.45593999997E+02  0.45594000000E+02  0.51100000000E-03 0. -1.
    9900012    2    1    2    0    0  0.32560726835E+02  0.24178341347E+02  0.28934753387E+01  0.50528864227E+02  0.30000013304E+02 0.  0.
        -12    1    1    2    0    0 -0.32560726835E+02 -0.24178341347E+02 -0.28934753387E+01  0.40659135773E+02  0.00000000000E+00 0.  1.
         11    1    3    3    0    0  0.10710395513E+02  0.17330015881E+02 -0.80017783495E+01  0.21887678714E+02  0.51100000000E-03 0. -1.
        -11    1    3    3    0    0  0.58928142088E+01 -0.28307928837E+01 -0.84538893452E+00  0.65919140135E+01  0.51100000000E-03 0.  1.
        -12    1    3    3    0    0  0.15957517113E+02  0.96791183493E+01  0.11740642623E+02  0.22049271499E+02  0.00000000000E+00 0.  1.
</event>
<event>
 7    1  0.3129575E-011  0.5052885E+02  0.7816164E-02  0.1300439E+00
        -11   -1    0    0    0    0  0.00000000000E+00  0.00000000000E+00  0.45593999997E+02  0.45594000000E+02  0.51100000000E-03 0.  1.
         11   -1    0    0    0    0 -0.00000000000E+00 -0.00000000000E+00 -0.45593999997E+02  0.45594000000E+02  0.51100000000E-03 0. -1.
    9900012    2    1    2    0    0 -0.25919392503E+02 -0.20056264742E+02 -0.24064453794E+02  0.50528848515E+02  0.29999965545E+02 0.  0.
        -12    1    1    2    0    0  0.25919392503E+02  0.20056264742E+02  0.24064453794E+02  0.40659151485E+02  0.00000000000E+00 0.  1.
         11    1    3    3    0    0 -0.30327466529E+01 -0.13579786293E+02 -0.17012976718E+02  0.21978387682E+02  0.51100000000E-03 0. -1.
        -11    1    3    3    0    0 -0.14457228970E+01 -0.30626528631E+01 -0.59073812259E+01  0.68093399434E+01  0.51100000000E-03 0.  1.
        -12    1    3    3    0    0 -0.21440922953E+02 -0.34138255853E+01 -0.11440958503E+01  0.21741120889E+02  0.00000000000E+00 0.  1.
</event>
<event>
 7    1  0.3129575E-011  0.5052887E+02  0.7816164E-02  0.1300439E+00
        -11   -1    0    0    0    0  0.00000000000E+00  0.00000000000E+00  0.45593999997E+02  0.45594000000E+02  0.51100000000E-03 0.  1.
         11   -1    0    0    0    0 -0.00000000000E+00 -0.00000000000E+00 -0.45593999997E+02  0.45594000000E+02  0.51100000000E-03 0. -1.
    9900012    2    1    2    0    0  0.46921686067E+01 -0.36390675864E+01 -0.40223195078E+02  0.50528872102E+02  0.30000037243E+02 0.  0.
        -12    1    1    2    0    0 -0.46921686067E+01  0.36390675864E+01  0.40223195078E+02  0.40659127898E+02  0.00000000000E+00 0.  1.
         11    1    3    3    0    0  0.58324988657E+01 -0.11613461640E+02 -0.17700414477E+02  0.21958943672E+02  0.51100000000E-03 0. -1.
        -11    1    3    3    0    0 -0.45644237801E+01 -0.34042281264E+01 -0.74120979968E+01  0.93467604311E+01  0.51100000000E-03 0.  1.
         12    1    3    3    0    0  0.34240935211E+01  0.11378622180E+02 -0.15110682604E+02  0.19223167999E+02  0.00000000000E+00 0. -1.
</event>
<event>
 7    1  0.3129575E-011  0.5052881E+02  0.7816164E-02  0.1300439E+00
        -11   -1    0    0    0    0  0.00000000000E+00  0.00000000000E+00  0.45593999997E+02  0.45594000000E+02  0.51100000000E-03 0.  1.
         11   -1    0    0    0    0 -0.00000000000E+00 -0.00000000000E+00 -0.45593999997E+02  0.45594000000E+02  0.51100000000E-03 0. -1.
    9900012    2    1    2    0    0  0.74290525145E+01 -0.34431320570E+02 -0.20309184790E+02  0.50528811072E+02  0.29999851733E+02 0.  0.
        -12    1    1    2    0    0 -0.74290525145E+01  0.34431320570E+02  0.20309184790E+02  0.40659188928E+02  0.00000000000E+00 0.  1.
         11    1    3    3    0    0 -0.35140267371E+01 -0.11846160392E+02 -0.10144249009E+02  0.15987047512E+02  0.51100000000E-03 0. -1.
        -11    1    3    3    0    0 -0.24874905573E+01  0.20567605385E+00  0.38626355628E+01  0.45988983098E+01  0.51100000000E-03 0.  1.
         12    1    3    3    0    0  0.13430569809E+02 -0.22790836232E+02 -0.14027571344E+02  0.29942865250E+02  0.00000000000E+00 0. -1.
</event>
<event>
 7    1  0.3129575E-011  0.5052885E+02  0.7816164E-02  0.1300439E+00
        -11   -1    0    0    0    0  0.00000000000E+00  0.00000000000E+00  0.45593999997E+02  0.45594000000E+02  0.51100000000E-03 0.  1.
         11   -1    0    0    0    0 -0.00000000000E+00 -0.00000000000E+00 -0.45593999997E+02  0.45594000000E+02  0.51100000000E-03 0. -1.
    9900012    2    1    2    0    0 -0.26675897556E+02 -0.15061362745E+02 -0.26734212476E+02  0.50528852507E+02  0.29999977679E+02 0.  0.
        -12    1    1    2    0    0  0.26675897556E+02  0.15061362745E+02  0.26734212476E+02  0.40659147493E+02  0.00000000000E+00 0.  1.
         11    1    3    3    0    0 -0.13186664707E+02 -0.65240016679E+01 -0.72335134648E+01  0.16394341743E+02  0.51100000000E-03 0. -1.
        -11    1    3    3    0    0 -0.98137717399E+01 -0.40350253322E+00  0.27170056529E+01  0.10190929792E+02  0.51100000000E-03 0.  1.
         12    1    3    3    0    0 -0.36754611087E+01 -0.81338585438E+01 -0.22217704665E+02  0.23943580971E+02  0.00000000000E+00 0. -1.
</event>
<event>
 7    1  0.3129575E-011  0.5052885E+02  0.7816164E-02  0.1300439E+00
        -11   -1    0    0    0    0  0.00000000000E+00  0.00000000000E+00  0.45593999997E+02  0.45594000000E+02  0.51100000000E-03 0. -1.
         11   -1    0    0    0    0 -0.00000000000E+00 -0.00000000000E+00 -0.45593999997E+02  0.45594000000E+02  0.51100000000E-03 0.  1.
    9900012    2    1    2    0    0 -0.61529900178E+00  0.13585663212E+02  0.38317326063E+02  0.50528852021E+02  0.29999976203E+02 0.  0.
        -12    1    1    2    0    0  0.61529900178E+00 -0.13585663212E+02 -0.38317326063E+02  0.40659147979E+02  0.00000000000E+00 0.  1.
         11    1    3    3    0    0 -0.95946337416E+01  0.43171258576E+01  0.15193649258E+02  0.18480842793E+02  0.51100000000E-03 0. -1.
        -11    1    3    3    0    0  0.49366425203E+01 -0.21598848074E+01 -0.58482338062E+00  0.54201070471E+01  0.51100000000E-03 0.  1.
         12    1    3    3    0    0  0.40426922196E+01  0.11428422162E+02  0.23708500186E+02  0.26627902181E+02  0.00000000000E+00 0. -1.
</event>
<event>
 7    1  0.3129575E-011  0.5052886E+02  0.7816164E-02  0.1300439E+00
        -11   -1    0    0    0    0  0.00000000000E+00  0.00000000000E+00  0.45593999997E+02  0.45594000000E+02  0.51100000000E-03 0. -1.
         11   -1    0    0    0    0 -0.00000000000E+00 -0.00000000000E+00 -0.45593999997E+02  0.45594000000E+02  0.51100000000E-03 0.  1.
    9900012    2    1    2    0    0 -0.81632337348E+01 -0.35488228177E+02 -0.18086260321E+02  0.50528861587E+02  0.30000005279E+02 0.  0.
        -12    1    1    2    0    0  0.81632337348E+01  0.35488228177E+02  0.18086260321E+02  0.40659138413E+02  0.00000000000E+00 0.  1.
         11    1    3    3    0    0  0.13810451664E+01  0.17095544855E+00  0.30876913646E+01  0.33867904779E+01  0.51100000000E-03 0. -1.
        -11    1    3    3    0    0 -0.10091516267E+02 -0.29138873544E+02 -0.24879891798E+02  0.39622237041E+02  0.51100000000E-03 0.  1.
         12    1    3    3    0    0  0.54723736550E+00 -0.65203100808E+01  0.37059401127E+01  0.75198340675E+01  0.00000000000E+00 0. -1.
</event>
<event>
 7    1  0.3129575E-011  0.5052886E+02  0.7816164E-02  0.1300439E+00
        -11   -1    0    0    0    0  0.00000000000E+00  0.00000000000E+00  0.45593999997E+02  0.45594000000E+02  0.51100000000E-03 0.  1.
         11   -1    0    0    0    0 -0.00000000000E+00 -0.00000000000E+00 -0.45593999997E+02  0.45594000000E+02  0.51100000000E-03 0. -1.
    9900012    2    1    2    0    0  0.23607630057E+02  0.30258467422E+02 -0.13426491230E+02  0.50528859399E+02  0.29999998630E+02 0.  0.
        -12    1    1    2    0    0 -0.23607630057E+02 -0.30258467422E+02  0.13426491230E+02  0.40659140601E+02  0.00000000000E+00 0.  1.
         11    1    3    3    0    0  0.82830579785E+01  0.17900536400E+02 -0.13503188841E+02  0.23903438288E+02  0.51100000000E-03 0. -1.
        -11    1    3    3    0    0  0.15914251504E+02  0.11505158155E+02 -0.59429940508E+01  0.20517096375E+02  0.51100000000E-03 0.  1.
        -12    1    3    3    0    0 -0.58967942574E+00  0.85277286716E+00  0.60196916612E+01  0.61083247363E+01  0.00000000000E+00 0.  1.
</event>
<event>
 7    1  0.3129575E-011  0.5052886E+02  0.7816164E-02  0.1300439E+00
        -11   -1    0    0    0    0  0.00000000000E+00  0.00000000000E+00  0.45593999997E+02  0.45594000000E+02  0.51100000000E-03 0.  1.
         11   -1    0    0    0    0 -0.00000000000E+00 -0.00000000000E+00 -0.45593999997E+02  0.45594000000E+02  0.51100000000E-03 0. -1.
    9900012    2    1    2    0    0 -0.13290817809E+02 -0.34832078830E+02 -0.16224854931E+02  0.50528862390E+02  0.30000007721E+02 0.  0.
        -12    1    1    2    0    0  0.13290817809E+02  0.34832078830E+02  0.16224854931E+02  0.40659137610E+02  0.00000000000E+00 0.  1.
         11    1    3    3    0    0 -0.23110919649E+01  0.29006626677E+00 -0.61071910197E+01  0.65362884668E+01  0.51100000000E-03 0. -1.
        -11    1    3    3    0    0 -0.94001745805E+01 -0.46391761180E+01  0.27964923198E+01  0.10849221481E+02  0.51100000000E-03 0.  1.
        -12    1    3    3    0    0 -0.15795512640E+01 -0.30482968978E+02 -0.12914156231E+02  0.33143352442E+02  0.00000000000E+00 0.  1.
</event>
<event>
 7    1  0.3129575E-011  0.5052886E+02  0.7816164E-02  0.1300439E+00
        -11   -1    0    0    0    0  0.00000000000E+00  0.00000000000E+00  0.45593999997E+02  0.45594000000E+02  0.51100000000E-03 0.  1.
         11   -1    0    0    0    0 -0.00000000000E+00 -0.00000000000E+00 -0.45593999997E+02  0.45594000000E+02  0.51100000000E-03 0. -1.
    9900012    2    1    2    0    0  0.19789214093E+02 -0.33651621300E+01 -0.35358568561E+02  0.50528859807E+02  0.29999999868E+02 0.  0.
        -12    1    1    2    0    0 -0.19789214093E+02  0.33651621300E+01  0.35358568561E+02  0.40659140193E+02  0.00000000000E+00 0.  1.
         11    1    3    3    0    0 -0.73149672830E+00  0.12169787289E+01 -0.29939583099E+01  0.33135949229E+01  0.51100000000E-03 0. -1.
        -11    1    3    3    0    0  0.25529093099E+02  0.24383089640E+01 -0.22541895421E+02  0.34144062361E+02  0.51100000000E-03 0.  1.
        -12    1    3    3    0    0 -0.50083822780E+01 -0.70204498229E+01 -0.98227148297E+01  0.13071202523E+02  0.00000000000E+00 0.  1.
</event>
<event>
 7    1  0.3129575E-011  0.5052886E+02  0.7816164E-02  0.1300439E+00
        -11   -1    0    0    0    0  0.00000000000E+00  0.00000000000E+00  0.45593999997E+02  0.45594000000E+02  0.51100000000E-03 0.  1.
         11   -1    0    0    0    0 -0.00000000000E+00 -0.00000000000E+00 -0.45593999997E+02  0.45594000000E+02  0.51100000000E-03 0. -1.
    9900012    2    1    2    0    0 -0.20288393149E+02 -0.35223554852E+02  0.92088700924E+00  0.50528859012E+02  0.29999997454E+02 0.  0.
        -12    1    1    2    0    0  0.20288393149E+02  0.35223554852E+02 -0.92088700924E+00  0.40659140988E+02  0.00000000000E+00 0.  1.
         11    1    3    3    0    0 -0.11930957634E+02 -0.24713114560E+02  0.13039915441E+02  0.30382975106E+02  0.51100000000E-03 0. -1.
        -11    1    3    3    0    0 -0.71842178409E-01  0.12548292256E+01 -0.26128359398E+01  0.28994257351E+01  0.51100000000E-03 0.  1.
        -12    1    3    3    0    0 -0.82855933366E+01 -0.11765269518E+02 -0.95061924918E+01  0.17246458171E+02  0.00000000000E+00 0.  1.
</event>
<event>
 7    1  0.3129575E-011  0.5052886E+02  0.7816164E-02  0.1300439E+00
        -11   -1    0    0    0    0  0.00000000000E+00  0.00000000000E+00  0.45593999997E+02  0.45594000000E+02  0.51100000000E-03 0.  1.
         11   -1    0    0    0    0 -0.00000000000E+00 -0.00000000000E+00 -0.45593999997E+02  0.45594000000E+02  0.51100000000E-03 0. -1.
    9900012    2    1    2    0    0 -0.17015651685E+01  0.17276843915E+02 -0.36766579796E+02  0.50528855277E+02  0.29999986100E+02 0.  0.
        -12    1    1    2    0    0  0.17015651685E+01 -0.17276843915E+02  0.36766579796E+02  0.40659144723E+02  0.00000000000E+00 0.  1.
         11    1    3    3    0    0 -0.71368527422E+01 -0.14847051335E+01 -0.13302472099E+02  0.15168875390E+02  0.51100000000E-03 0. -1.
        -11    1    3    3    0    0  0.28674480425E+01  0.54757939572E+01  0.20227495047E+01  0.65036984523E+01  0.51100000000E-03 0.  1.
         12    1    3    3    0    0  0.25678395312E+01  0.13285755091E+02 -0.25486857203E+02  0.28856281435E+02  0.00000000000E+00 0. -1.
</event>
<event>
 7    1  0.3129575E-011  0.5052885E+02  0.7816164E-02  0.1300439E+00
        -11   -1    0    0    0    0  0.00000000000E+00  0.00000000000E+00  0.45593999997E+02  0.45594000000E+02  0.51100000000E-03 0.  1.
         11   -1    0    0    0    0 -0.00000000000E+00 -0.00000000000E+00 -0.45593999997E+02  0.45594000000E+02  0.51100000000E-03 0. -1.
    9900012    2    1    2    0    0 -0.28818829537E+02  0.35993899643E+01 -0.28454977724E+02  0.50528852183E+02  0.29999976694E+02 0.  0.
        -12    1    1    2    0    0  0.28818829537E+02 -0.35993899643E+01  0.28454977724E+02  0.40659147817E+02  0.00000000000E+00 0.  1.
         11    1    3    3    0    0 -0.46597407838E+01  0.26979746539E+01 -0.18024313001E+02  0.18811382480E+02  0.51100000000E-03 0. -1.
        -11    1    3    3    0    0 -0.14982163456E+02  0.40210135476E+01 -0.14473046042E+02  0.21215627112E+02  0.51100000000E-03 0.  1.
        -12    1    3    3    0    0 -0.91769252971E+01 -0.31195982372E+01  0.40423813188E+01  0.10501842591E+02  0.00000000000E+00 0.  1.
</event>
<event>
 7    1  0.3129575E-011  0.5052885E+02  0.7816164E-02  0.1300439E+00
        -11   -1    0    0    0    0  0.00000000000E+00  0.00000000000E+00  0.45593999997E+02  0.45594000000E+02  0.51100000000E-03 0. -1.
         11   -1    0    0    0    0 -0.00000000000E+00 -0.00000000000E+00 -0.45593999997E+02  0.45594000000E+02  0.51100000000E-03 0.  1.
    9900012    2    1    2    0    0 -0.95910871636E+01  0.63357905474E+01 -0.39000450733E+02  0.50528851555E+02  0.29999974787E+02 0.  0.
        -12    1    1    2    0    0  0.95910871636E+01 -0.63357905474E+01  0.39000450733E+02  0.40659148445E+02  0.00000000000E+00 0.  1.
         11    1    3    3    0    0 -0.79969150654E+00 -0.66814494282E+00 -0.13174460171E+02  0.13215609151E+02  0.51100000000E-03 0. -1.
        -11    1    3    3    0    0 -0.97220059054E+01 -0.75070766224E+01 -0.10175790197E+02  0.15950558129E+02  0.51100000000E-03 0.  1.
         12    1    3    3    0    0  0.93061024839E+00  0.14511012113E+02 -0.15650200366E+02  0.21362684275E+02  0.00000000000E+00 0. -1.
</event>
<event>
 7    1  0.3129575E-011  0.5052886E+02  0.7816164E-02  0.1300439E+00
        -11   -1    0    0    0    0  0.00000000000E+00  0.00000000000E+00  0.45593999997E+02  0.45594000000E+02  0.51100000000E-03 0.  1.
         11   -1    0    0    0    0 -0.00000000000E+00 -0.00000000000E+00 -0.45593999997E+02  0.45594000000E+02  0.51100000000E-03 0. -1.
    9900012    2    1    2    0    0 -0.21600500932E+02 -0.91940937714E+01 -0.33197179660E+02  0.50528859107E+02  0.29999997741E+02 0.  0.
        -12    1    1    2    0    0  0.21600500932E+02  0.91940937714E+01  0.33197179660E+02  0.40659140893E+02  0.00000000000E+00 0.  1.
         11    1    3    3    0    0 -0.90643900676E+00 -0.93610488965E+01 -0.46395599122E+01  0.10486962599E+02  0.51100000000E-03 0. -1.
        -11    1    3    3    0    0 -0.32139163290E+01  0.50138277682E+01  0.29278605573E+00  0.59626714646E+01  0.51100000000E-03 0.  1.
        -12    1    3    3    0    0 -0.17480145596E+02 -0.48468726431E+01 -0.28850405804E+02  0.34079225043E+02  0.00000000000E+00 0.  1.
</event>
<event>
 7    1  0.3129575E-011  0.5052886E+02  0.7816164E-02  0.1300439E+00
        -11   -1    0    0    0    0  0.00000000000E+00  0.00000000000E+00  0.45593999997E+02  0.45594000000E+02  0.51100000000E-03 0. -1.
         11   -1    0    0    0    0 -0.00000000000E+00 -0.00000000000E+00 -0.45593999997E+02  0.45594000000E+02  0.51100000000E-03 0.  1.
    9900012    2    1    2    0    0 -0.98555997942E+00 -0.38408465140E+02  0.13303538607E+02  0.50528860039E+02  0.30000000574E+02 0.  0.
        -12    1    1    2    0    0  0.98555997942E+00  0.38408465140E+02 -0.13303538607E+02  0.40659139961E+02  0.00000000000E+00 0.  1.
         11    1    3    3    0    0 -0.84420680717E+01 -0.13670483346E+02  0.41105709789E+01  0.16584553725E+02  0.51100000000E-03 0. -1.
        -11    1    3    3    0    0 -0.31137515004E+01  0.19317444411E+01 -0.42048519241E+00  0.36883455708E+01  0.51100000000E-03 0.  1.
         12    1    3    3    0    0  0.10570259593E+02 -0.26669726235E+02  0.96134528207E+01  0.30255960743E+02  0.00000000000E+00 0. -1.
</event>
<event>
 7    1  0.3129575E-011  0.5052886E+02  0.7816164E-02  0.1300439E+00
        -11   -1    0    0    0    0  0.00000000000E+00  0.00000000000E+00  0.45593999997E+02  0.45594000000E+02  0.51100000000E-03 0.  1.
         11   -1    0    0    0    0 -0.00000000000E+00 -0.00000000000E+00 -0.45593999997E+02  0.45594000000E+02  0.51100000000E-03 0. -1.
    9900012    2    1    2    0    0 -0.21710134103E+02 -0.34217494550E+02  0.33164195450E+01  0.50528862102E+02  0.30000006845E+02 0.  0.
        -12    1    1    2    0    0  0.21710134103E+02  0.34217494550E+02 -0.33164195450E+01  0.40659137898E+02  0.00000000000E+00 0.  1.
         11    1    3    3    0    0  0.13912750609E+01  0.23384321334E+00 -0.32502991345E+00  0.14477477851E+01  0.51100000000E-03 0. -1.
        -11    1    3    3    0    0 -0.18819833577E+02 -0.65600241011E+01  0.58655194535E+01  0.20775571492E+02  0.51100000000E-03 0.  1.
        -12    1    3    3    0    0 -0.42815755863E+01 -0.27891313662E+02 -0.22240699951E+01  0.28305542825E+02  0.00000000000E+00 0.  1.
</event>
<event>
 7    1  0.3129575E-011  0.5052885E+02  0.7816164E-02  0.1300439E+00
        -11   -1    0    0    0    0  0.00000000000E+00  0.00000000000E+00  0.45593999997E+02  0.45594000000E+02  0.51100000000E-03 0. -1.
         11   -1    0    0    0    0 -0.00000000000E+00 -0.00000000000E+00 -0.45593999997E+02  0.45594000000E+02  0.51100000000E-03 0.  1.
    9900012    2    1    2    0    0  0.10536696680E+02  0.17484933285E+02  0.35162784378E+02  0.50528852516E+02  0.29999977708E+02 0.  0.
        -12    1    1    2    0    0 -0.10536696680E+02 -0.17484933285E+02 -0.35162784378E+02  0.40659147484E+02  0.00000000000E+00 0.  1.
         11    1    3    3    0    0 -0.23830154661E+01  0.68447533422E+01  0.71622101895E+01  0.10189537089E+02  0.51100000000E-03 0. -1.
        -11    1    3    3    0    0  0.69055285026E+01  0.10838603358E+02  0.12407654827E+01  0.12911279794E+02  0.51100000000E-03 0.  1.
         12    1    3    3    0    0  0.60141836434E+01 -0.19842341565E+00  0.26759808706E+02  0.27428035634E+02  0.00000000000E+00 0. -1.
</event>
<event>
 7    1  0.3129575E-011  0.5052888E+02  0.7816164E-02  0.1300439E+00
        -11   -1    0    0    0    0  0.00000000000E+00  0.00000000000E+00  0.45593999997E+02  0.45594000000E+02  0.51100000000E-03 0.  1.
         11   -1    0    0    0    0 -0.00000000000E+00 -0.00000000000E+00 -0.45593999997E+02  0.45594000000E+02  0.51100000000E-03 0. -1.
    9900012    2    1    2    0    0  0.39359080975E+02 -0.69040701548E+01 -0.75073848039E+01  0.50528877204E+02  0.30000052750E+02 0.  0.
        -12    1    1    2    0    0 -0.39359080975E+02  0.69040701548E+01  0.75073848039E+01  0.40659122796E+02  0.00000000000E+00 0.  1.
         11    1    3    3    0    0  0.24750966217E+02 -0.13138225191E+02  0.55221187438E+01  0.28560761292E+02  0.51100000000E-03 0. -1.
        -11    1    3    3    0    0  0.78815983690E+01 -0.60801883587E+00 -0.43126387742E+01  0.90048949584E+01  0.51100000000E-03 0.  1.
        -12    1    3    3    0    0  0.67265163890E+01  0.68421738724E+01 -0.87168647735E+01  0.12963220954E+02  0.00000000000E+00 0.  1.
</event>
<event>
 7    1  0.3129575E-011  0.5052886E+02  0.7816164E-02  0.1300439E+00
        -11   -1    0    0    0    0  0.00000000000E+00  0.00000000000E+00  0.45593999997E+02  0.45594000000E+02  0.51100000000E-03 0. -1.
         11   -1    0    0    0    0 -0.00000000000E+00 -0.00000000000E+00 -0.45593999997E+02  0.45594000000E+02  0.51100000000E-03 0.  1.
    9900012    2    1    2    0    0  0.39321032042E+02  0.88813273246E+01 -0.53051019925E+01  0.50528860276E+02  0.30000001296E+02 0.  0.
        -12    1    1    2    0    0 -0.39321032042E+02 -0.88813273246E+01  0.53051019925E+01  0.40659139724E+02  0.00000000000E+00 0.  1.
         11    1    3    3    0    0  0.23117129025E+02  0.13748508428E+01 -0.16655298758E+01  0.23217791868E+02  0.51100000000E-03 0. -1.
        -11    1    3    3    0    0  0.58885987139E+01 -0.70055584495E+01 -0.69014160174E-01  0.91519510061E+01  0.51100000000E-03 0.  1.
         12    1    3    3    0    0  0.10315304304E+02  0.14512034931E+02 -0.35705579565E+01  0.18159117403E+02  0.00000000000E+00 0. -1.
</event>
<event>
 7    1  0.3129575E-011  0.5052886E+02  0.7816164E-02  0.1300439E+00
        -11   -1    0    0    0    0  0.00000000000E+00  0.00000000000E+00  0.45593999997E+02  0.45594000000E+02  0.51100000000E-03 0.  1.
         11   -1    0    0    0    0 -0.00000000000E+00 -0.00000000000E+00 -0.45593999997E+02  0.45594000000E+02  0.51100000000E-03 0. -1.
    9900012    2    1    2    0    0 -0.35371376132E+02 -0.16558729641E+02 -0.11306627292E+02  0.50528860836E+02  0.30000002998E+02 0.  0.
        -12    1    1    2    0    0  0.35371376132E+02  0.16558729641E+02  0.11306627292E+02  0.40659139164E+02  0.00000000000E+00 0.  1.
         11    1    3    3    0    0 -0.94802811584E+01 -0.10832181536E+02  0.44616056355E+01  0.15070428421E+02  0.51100000000E-03 0. -1.
        -11    1    3    3    0    0 -0.12535571384E+01  0.42075983121E+01  0.31930813472E+00  0.44019594502E+01  0.51100000000E-03 0.  1.
        -12    1    3    3    0    0 -0.24637537836E+02 -0.99341464168E+01 -0.16087541062E+02  0.31056472965E+02  0.00000000000E+00 0.  1.
</event>
<event>
 7    1  0.3129575E-011  0.5052893E+02  0.7816164E-02  0.1300439E+00
        -11   -1    0    0    0    0  0.00000000000E+00  0.00000000000E+00  0.45593999997E+02  0.45594000000E+02  0.51100000000E-03 0.  1.
         11   -1    0    0    0    0 -0.00000000000E+00 -0.00000000000E+00 -0.45593999997E+02  0.45594000000E+02  0.51100000000E-03 0. -1.
    9900012    2    1    2    0    0  0.53462850537E+01  0.34967377810E+02 -0.20046447627E+02  0.50528925524E+02  0.30000199623E+02 0.  0.
        -12    1    1    2    0    0 -0.53462850537E+01 -0.34967377810E+02  0.20046447627E+02  0.40659074476E+02  0.00000000000E+00 0.  1.
         11    1    3    3    0    0 -0.41629712205E+01  0.17258150467E+02 -0.14101873879E+02  0.22672382629E+02  0.51100000000E-03 0. -1.
        -11    1    3    3    0    0  0.98321949738E+01  0.48595734666E+01 -0.95111235603E+01  0.14517196145E+02  0.51100000000E-03 0.  1.
         12    1    3    3    0    0 -0.32293869965E+00  0.12849653876E+02  0.35665498126E+01  0.13339346750E+02  0.00000000000E+00 0. -1.
</event>
<event>
 7    1  0.3129575E-011  0.5052886E+02  0.7816164E-02  0.1300439E+00
        -11   -1    0    0    0    0  0.00000000000E+00  0.00000000000E+00  0.45593999997E+02  0.45594000000E+02  0.51100000000E-03 0.  1.
         11   -1    0    0    0    0 -0.00000000000E+00 -0.00000000000E+00 -0.45593999997E+02  0.45594000000E+02  0.51100000000E-03 0. -1.
    9900012    2    1    2    0    0 -0.22696331545E+02  0.48401801312E+01 -0.33385853524E+02  0.50528855582E+02  0.29999987027E+02 0.  0.
        -12    1    1    2    0    0  0.22696331545E+02 -0.48401801312E+01  0.33385853524E+02  0.40659144418E+02  0.00000000000E+00 0.  1.
         11    1    3    3    0    0  0.10249501679E+01  0.90129777462E-02  0.31869136667E+01  0.33476892121E+01  0.51100000000E-03 0. -1.
        -11    1    3    3    0    0  0.46047052324E+00 -0.20878089894E+01  0.67009492008E+00  0.22405371994E+01  0.51100000000E-03 0.  1.
         12    1    3    3    0    0 -0.24181752236E+02  0.69189761429E+01 -0.37242862110E+02  0.44940629171E+02  0.00000000000E+00 0. -1.
</event>
<event>
 7    1  0.3129575E-011  0.5052887E+02  0.7816164E-02  0.1300439E+00
        -11   -1    0    0    0    0  0.00000000000E+00  0.00000000000E+00  0.45593999997E+02  0.45594000000E+02  0.51100000000E-03 0. -1.
         11   -1    0    0    0    0 -0.00000000000E+00 -0.00000000000E+00 -0.45593999997E+02  0.45594000000E+02  0.51100000000E-03 0.  1.
    9900012    2    1    2    0    0 -0.34064752802E+02  0.20955775129E+02  0.73221043922E+01  0.50528866863E+02  0.30000021318E+02 0.  0.
        -12    1    1    2    0    0  0.34064752802E+02 -0.20955775129E+02 -0.73221043922E+01  0.40659133137E+02  0.00000000000E+00 0.  1.
         11    1    3    3    0    0 -0.92688669259E+01  0.13444637740E+02 -0.27410434159E+01  0.16558487169E+02  0.51100000000E-03 0. -1.
        -11    1    3    3    0    0 -0.13045335681E+02 -0.84769263478E+00 -0.41571471376E+01  0.13717916694E+02  0.51100000000E-03 0.  1.
        -12    1    3    3    0    0 -0.11750550194E+02  0.83588300236E+01  0.14220294946E+02  0.20252463000E+02  0.00000000000E+00 0.  1.
</event>
<event>
 7    1  0.3129575E-011  0.5052886E+02  0.7816164E-02  0.1300439E+00
        -11   -1    0    0    0    0  0.00000000000E+00  0.00000000000E+00  0.45593999997E+02  0.45594000000E+02  0.51100000000E-03 0. -1.
         11   -1    0    0    0    0 -0.00000000000E+00 -0.00000000000E+00 -0.45593999997E+02  0.45594000000E+02  0.51100000000E-03 0.  1.
    9900012    2    1    2    0    0 -0.34252553377E+02 -0.15403914725E+02  0.15577149424E+02  0.50528860979E+02  0.30000003433E+02 0.  0.
        -12    1    1    2    0    0  0.34252553377E+02  0.15403914725E+02 -0.15577149424E+02  0.40659139021E+02  0.00000000000E+00 0.  1.
         11    1    3    3    0    0 -0.31837508275E+02 -0.10213537871E+02  0.19202279826E+02  0.38557370759E+02  0.51100000000E-03 0. -1.
        -11    1    3    3    0    0  0.15607351286E+01  0.14479499756E+01  0.15753614007E+01  0.26484367233E+01  0.51100000000E-03 0.  1.
        -12    1    3    3    0    0 -0.39757802305E+01 -0.66383268289E+01 -0.52004918026E+01  0.93230534975E+01  0.00000000000E+00 0.  1.
</event>
<event>
 7    1  0.3129575E-011  0.5052883E+02  0.7816164E-02  0.1300439E+00
        -11   -1    0    0    0    0  0.00000000000E+00  0.00000000000E+00  0.45593999997E+02  0.45594000000E+02  0.51100000000E-03 0. -1.
         11   -1    0    0    0    0 -0.00000000000E+00 -0.00000000000E+00 -0.45593999997E+02  0.45594000000E+02  0.51100000000E-03 0.  1.
    9900012    2    1    2    0    0 -0.19298700453E+02 -0.34909035306E+02 -0.78795378410E+01  0.50528834960E+02  0.29999924343E+02 0.  0.
        -12    1    1    2    0    0  0.19298700453E+02  0.34909035306E+02  0.78795378410E+01  0.40659165040E+02  0.00000000000E+00 0.  1.
         11    1    3    3    0    0 -0.13723941354E+01 -0.22020827382E+01  0.39769459403E+01  0.47485506549E+01  0.51100000000E-03 0. -1.
        -11    1    3    3    0    0 -0.46303913872E+01 -0.26677623169E+02 -0.16550533641E+00  0.27076991978E+02  0.51100000000E-03 0.  1.
        -12    1    3    3    0    0 -0.13295914930E+02 -0.60293293996E+01 -0.11690978445E+02  0.18703292326E+02  0.00000000000E+00 0.  1.
</event>
<event>
 7    1  0.3129575E-011  0.5052886E+02  0.7816164E-02  0.1300439E+00
        -11   -1    0    0    0    0  0.00000000000E+00  0.00000000000E+00  0.45593999997E+02  0.45594000000E+02  0.51100000000E-03 0. -1.
         11   -1    0    0    0    0 -0.00000000000E+00 -0.00000000000E+00 -0.45593999997E+02  0.45594000000E+02  0.51100000000E-03 0.  1.
    9900012    2    1    2    0    0 -0.12860586183E+02 -0.37682660239E+02  0.82333376327E+01  0.50528863164E+02  0.30000010074E+02 0.  0.
        -12    1    1    2    0    0  0.12860586183E+02  0.37682660239E+02 -0.82333376327E+01  0.40659136836E+02  0.00000000000E+00 0.  1.
         11    1    3    3    0    0 -0.94060232772E+01 -0.32525188312E+02  0.50395837901E+01  0.34230958995E+02  0.51100000000E-03 0. -1.
        -11    1    3    3    0    0  0.49729677991E+00 -0.46321529275E+01  0.84808656145E+01  0.96762196473E+01  0.51100000000E-03 0.  1.
        -12    1    3    3    0    0 -0.39518596855E+01 -0.52531899904E+00 -0.52871117719E+01  0.66216845223E+01  0.00000000000E+00 0.  1.
</event>
<event>
 7    1  0.3129575E-011  0.5052885E+02  0.7816164E-02  0.1300439E+00
        -11   -1    0    0    0    0  0.00000000000E+00  0.00000000000E+00  0.45593999997E+02  0.45594000000E+02  0.51100000000E-03 0. -1.
         11   -1    0    0    0    0 -0.00000000000E+00 -0.00000000000E+00 -0.45593999997E+02  0.45594000000E+02  0.51100000000E-03 0.  1.
    9900012    2    1    2    0    0  0.34606016394E+02 -0.20885692460E+02  0.44020640957E+01  0.50528847420E+02  0.29999962218E+02 0.  0.
        -12    1    1    2    0    0 -0.34606016394E+02  0.20885692460E+02 -0.44020640957E+01  0.40659152580E+02  0.00000000000E+00 0.  1.
         11    1    3    3    0    0  0.75090291349E+01 -0.10785119699E+02 -0.10558906308E+02  0.16858079017E+02  0.51100000000E-03 0. -1.
        -11    1    3    3    0    0  0.81704466071E+01 -0.64357285372E+01  0.81897703869E+01  0.13238094229E+02  0.51100000000E-03 0.  1.
        -12    1    3    3    0    0  0.18926540653E+02 -0.36648442240E+01  0.67712000163E+01  0.20432674174E+02  0.00000000000E+00 0.  1.
</event>
<event>
 7    1  0.3129575E-011  0.5052885E+02  0.7816164E-02  0.1300439E+00
        -11   -1    0    0    0    0  0.00000000000E+00  0.00000000000E+00  0.45593999997E+02  0.45594000000E+02  0.51100000000E-03 0. -1.
         11   -1    0    0    0    0 -0.00000000000E+00 -0.00000000000E+00 -0.45593999997E+02  0.45594000000E+02  0.51100000000E-03 0.  1.
    9900012    2    1    2    0    0 -0.20530131902E+02 -0.26780690618E+02  0.22682028772E+02  0.50528854225E+02  0.29999982903E+02 0.  0.
        -12    1    1    2    0    0  0.20530131902E+02  0.26780690618E+02 -0.22682028772E+02  0.40659145775E+02  0.00000000000E+00 0.  1.
         11    1    3    3    0    0 -0.14914491768E+02 -0.21787893479E+02  0.38259381003E+01  0.26679433456E+02  0.51100000000E-03 0. -1.
        -11    1    3    3    0    0 -0.44370593898E+01  0.98308638238E+00  0.57570450585E+00  0.45809814235E+01  0.51100000000E-03 0.  1.
         12    1    3    3    0    0 -0.11785807445E+01 -0.59758835221E+01  0.18280386166E+02  0.19268439346E+02  0.00000000000E+00 0. -1.
</event>
<event>
 7    1  0.3129575E-011  0.5052886E+02  0.7816164E-02  0.1300439E+00
        -11   -1    0    0    0    0  0.00000000000E+00  0.00000000000E+00  0.45593999997E+02  0.45594000000E+02  0.51100000000E-03 0.  1.
         11   -1    0    0    0    0 -0.00000000000E+00 -0.00000000000E+00 -0.45593999997E+02  0.45594000000E+02  0.51100000000E-03 0. -1.
    9900012    2    1    2    0    0 -0.33213118024E+02  0.15281944351E+02 -0.17790905636E+02  0.50528863814E+02  0.30000012050E+02 0.  0.
        -12    1    1    2    0    0  0.33213118024E+02 -0.15281944351E+02  0.17790905636E+02  0.40659136186E+02  0.00000000000E+00 0.  1.
         11    1    3    3    0    0 -0.98448914882E+01  0.31764877166E+01 -0.37267307059E+01  0.10995475644E+02  0.51100000000E-03 0. -1.
        -11    1    3    3    0    0 -0.22122878868E+01 -0.71026954227E+01  0.50938967861E+00  0.74566733915E+01  0.51100000000E-03 0.  1.
         12    1    3    3    0    0 -0.21155938649E+02  0.19208152057E+02 -0.14573564608E+02  0.32076714778E+02  0.00000000000E+00 0. -1.
</event>
<event>
 7    1  0.3129575E-011  0.5052886E+02  0.7816164E-02  0.1300439E+00
        -11   -1    0    0    0    0  0.00000000000E+00  0.00000000000E+00  0.45593999997E+02  0.45594000000E+02  0.51100000000E-03 0. -1.
         11   -1    0    0    0    0 -0.00000000000E+00 -0.00000000000E+00 -0.45593999997E+02  0.45594000000E+02  0.51100000000E-03 0.  1.
    9900012    2    1    2    0    0 -0.13403837861E+02 -0.38369352889E+02 -0.11383643801E+01  0.50528856084E+02  0.29999988552E+02 0.  0.
        -12    1    1    2    0    0  0.13403837861E+02  0.38369352889E+02  0.11383643801E+01  0.40659143916E+02  0.00000000000E+00 0.  1.
         11    1    3    3    0    0 -0.27082072063E+01 -0.20146554941E+02 -0.23771214319E+01  0.20466283709E+02  0.51100000000E-03 0. -1.
        -11    1    3    3    0    0 -0.10226972280E+02 -0.15575895546E+02 -0.81198003944E+01  0.20325615434E+02  0.51100000000E-03 0.  1.
         12    1    3    3    0    0 -0.46865837557E+00 -0.26469024017E+01  0.93585574462E+01  0.97369569410E+01  0.00000000000E+00 0. -1.
</event>
<event>
 7    1  0.3129575E-011  0.5052887E+02  0.7816164E-02  0.1300439E+00
        -11   -1    0    0    0    0  0.00000000000E+00  0.00000000000E+00  0.45593999997E+02  0.45594000000E+02  0.51100000000E-03 0.  1.
         11   -1    0    0    0    0 -0.00000000000E+00 -0.00000000000E+00 -0.45593999997E+02  0.45594000000E+02  0.51100000000E-03 0. -1.
    9900012    2    1    2    0    0  0.21034371073E+02 -0.72803392491E+01 -0.34025239163E+02  0.50528868109E+02  0.30000025106E+02 0.  0.
        -12    1    1    2    0    0 -0.21034371073E+02  0.72803392491E+01  0.34025239163E+02  0.40659131891E+02  0.00000000000E+00 0.  1.
         11    1    3    3    0    0  0.26854084914E+02 -0.27779733755E+01 -0.20955942815E+02  0.34176169361E+02  0.51100000000E-03 0. -1.
        -11    1    3    3    0    0 -0.29766904402E+01 -0.23725657013E+01 -0.12428968506E+01  0.40043160248E+01  0.51100000000E-03 0.  1.
        -12    1    3    3    0    0 -0.28430234012E+01 -0.21298001722E+01 -0.11826399497E+02  0.12348382724E+02  0.00000000000E+00 0.  1.
</event>
<event>
 7    1  0.3129575E-011  0.5052885E+02  0.7816164E-02  0.1300439E+00
        -11   -1    0    0    0    0  0.00000000000E+00  0.00000000000E+00  0.45593999997E+02  0.45594000000E+02  0.51100000000E-03 0.  1.
         11   -1    0    0    0    0 -0.00000000000E+00 -0.00000000000E+00 -0.45593999997E+02  0.45594000000E+02  0.51100000000E-03 0. -1.
    9900012    2    1    2    0    0 -0.38309631032E+02 -0.11915885467E+02 -0.65992420197E+01  0.50528854024E+02  0.29999982292E+02 0.  0.
        -12    1    1    2    0    0  0.38309631032E+02  0.11915885467E+02  0.65992420197E+01  0.40659145976E+02  0.00000000000E+00 0.  1.
         11    1    3    3    0    0 -0.17090551509E+02 -0.14458566389E+02 -0.69979648585E+01  0.23454394158E+02  0.51100000000E-03 0. -1.
        -11    1    3    3    0    0 -0.23501542624E+02 -0.78252822407E-01 -0.41360928465E+00  0.23505312211E+02  0.51100000000E-03 0.  1.
        -12    1    3    3    0    0  0.22824631019E+01  0.26209337447E+01  0.81233212340E+00  0.35691476551E+01  0.00000000000E+00 0.  1.
</event>
<event>
 7    1  0.3129575E-011  0.5052886E+02  0.7816164E-02  0.1300439E+00
        -11   -1    0    0    0    0  0.00000000000E+00  0.00000000000E+00  0.45593999997E+02  0.45594000000E+02  0.51100000000E-03 0.  1.
         11   -1    0    0    0    0 -0.00000000000E+00 -0.00000000000E+00 -0.45593999997E+02  0.45594000000E+02  0.51100000000E-03 0. -1.
    9900012    2    1    2    0    0  0.74075293168E+01  0.25745177309E+02 -0.30585615576E+02  0.50528861723E+02  0.30000005693E+02 0.  0.
        -12    1    1    2    0    0 -0.74075293168E+01 -0.25745177309E+02  0.30585615576E+02  0.40659138277E+02  0.00000000000E+00 0.  1.
         11    1    3    3    0    0 -0.40001540871E+01  0.10150281725E+02 -0.25772990802E+02  0.27987077499E+02  0.51100000000E-03 0. -1.
        -11    1    3    3    0    0  0.39761424959E+00 -0.15331532347E+01  0.12921612204E+00  0.15891359287E+01  0.51100000000E-03 0.  1.
        -12    1    3    3    0    0  0.11010069154E+02  0.17128048819E+02 -0.49418408965E+01  0.20952648295E+02  0.00000000000E+00 0.  1.
</event>
<event>
 7    1  0.3129575E-011  0.5052900E+02  0.7816164E-02  0.1300438E+00
        -11   -1    0    0    0    0  0.00000000000E+00  0.00000000000E+00  0.45593999997E+02  0.45594000000E+02  0.51100000000E-03 0.  1.
         11   -1    0    0    0    0 -0.00000000000E+00 -0.00000000000E+00 -0.45593999997E+02  0.45594000000E+02  0.51100000000E-03 0. -1.
    9900012    2    1    2    0    0  0.36965640648E+02 -0.15561383781E+02 -0.66737834921E+01  0.50528995588E+02  0.30000412586E+02 0.  0.
        -12    1    1    2    0    0 -0.36965640648E+02  0.15561383781E+02  0.66737834921E+01  0.40659004412E+02  0.00000000000E+00 0.  1.
         11    1    3    3    0    0  0.22603097406E+02 -0.12047376503E+02 -0.36279560982E+01  0.25868926507E+02  0.51100000000E-03 0. -1.
        -11    1    3    3    0    0  0.48757281562E+01  0.75456421781E+01  0.20660410028E+01  0.92183494520E+01  0.51100000000E-03 0.  1.
         12    1    3    3    0    0  0.94868150861E+01 -0.11059649456E+02 -0.51118683967E+01  0.15441719628E+02  0.00000000000E+00 0. -1.
</event>
<event>
 7    1  0.3129575E-011  0.5052887E+02  0.7816164E-02  0.1300439E+00
        -11   -1    0    0    0    0  0.00000000000E+00  0.00000000000E+00  0.45593999997E+02  0.45594000000E+02  0.51100000000E-03 0. -1.
         11   -1    0    0    0    0 -0.00000000000E+00 -0.00000000000E+00 -0.45593999997E+02  0.45594000000E+02  0.51100000000E-03 0.  1.
    9900012    2    1    2    0    0 -0.24400559238E+02  0.16994847334E+02  0.27729999056E+02  0.50528868495E+02  0.30000026279E+02 0.  0.
        -12    1    1    2    0    0  0.24400559238E+02 -0.16994847334E+02 -0.27729999056E+02  0.40659131505E+02  0.00000000000E+00 0.  1.
         11    1    3    3    0    0 -0.19186911861E+02  0.13551522941E+02  0.23626424753E+02  0.33316502032E+02  0.51100000000E-03 0. -1.
        -11    1    3    3    0    0 -0.10585077452E+01 -0.54545967534E+01  0.48341668515E+01  0.73649327083E+01  0.51100000000E-03 0.  1.
         12    1    3    3    0    0 -0.41551396322E+01  0.88979211461E+01 -0.73059254845E+00  0.98474337549E+01  0.00000000000E+00 0. -1.
</event>
<event>
 7    1  0.3129575E-011  0.5052886E+02  0.7816164E-02  0.1300439E+00
        -11   -1    0    0    0    0  0.00000000000E+00  0.00000000000E+00  0.45593999997E+02  0.45594000000E+02  0.51100000000E-03 0.  1.
         11   -1    0    0    0    0 -0.00000000000E+00 -0.00000000000E+00 -0.45593999997E+02  0.45594000000E+02  0.51100000000E-03 0. -1.
    9900012    2    1    2    0    0  0.57781109259E+01  0.80023070568E+01 -0.39442898234E+02  0.50528859513E+02  0.29999998974E+02 0.  0.
        -12    1    1    2    0    0 -0.57781109259E+01 -0.80023070568E+01  0.39442898234E+02  0.40659140487E+02  0.00000000000E+00 0.  1.
         11    1    3    3    0    0 -0.59699592621E+01 -0.88145414794E-01 -0.19439317106E+02  0.20335565717E+02  0.51100000000E-03 0. -1.
        -11    1    3    3    0    0  0.16093808378E+01 -0.45410942721E+01 -0.50408576471E+00  0.48441455994E+01  0.51100000000E-03 0.  1.
        -12    1    3    3    0    0  0.10138689350E+02  0.12631546744E+02 -0.19499495363E+02  0.25349148196E+02  0.00000000000E+00 0.  1.
</event>
<event>
 7    1  0.3129575E-011  0.5052886E+02  0.7816164E-02  0.1300439E+00
        -11   -1    0    0    0    0  0.00000000000E+00  0.00000000000E+00  0.45593999997E+02  0.45594000000E+02  0.51100000000E-03 0. -1.
         11   -1    0    0    0    0 -0.00000000000E+00 -0.00000000000E+00 -0.45593999997E+02  0.45594000000E+02  0.51100000000E-03 0.  1.
    9900012    2    1    2    0    0 -0.97105820043E+01  0.27410027466E+01  0.39387273567E+02  0.50528858126E+02  0.29999994760E+02 0.  0.
        -12    1    1    2    0    0  0.97105820043E+01 -0.27410027466E+01 -0.39387273567E+02  0.40659141874E+02  0.00000000000E+00 0.  1.
         11    1    3    3    0    0 -0.28402911197E+01  0.88070487633E+01  0.27974500643E+02  0.29465302443E+02  0.51100000000E-03 0. -1.
        -11    1    3    3    0    0  0.27985014263E+01 -0.65419567670E+01  0.82161152535E+01  0.10868917089E+02  0.51100000000E-03 0.  1.
        -12    1    3    3    0    0 -0.96687923109E+01  0.47591075028E+00  0.31966576697E+01  0.10194638593E+02  0.00000000000E+00 0.  1.
</event>
<event>
 7    1  0.3129575E-011  0.5052886E+02  0.7816164E-02  0.1300439E+00
        -11   -1    0    0    0    0  0.00000000000E+00  0.00000000000E+00  0.45593999997E+02  0.45594000000E+02  0.51100000000E-03 0.  1.
         11   -1    0    0    0    0 -0.00000000000E+00 -0.00000000000E+00 -0.45593999997E+02  0.45594000000E+02  0.51100000000E-03 0. -1.
    9900012    2    1    2    0    0 -0.24040394016E+01 -0.45861230780E+01 -0.40328074331E+02  0.50528861918E+02  0.30000006285E+02 0.  0.
        -12    1    1    2    0    0  0.24040394016E+01  0.45861230780E+01  0.40328074331E+02  0.40659138082E+02  0.00000000000E+00 0.  1.
         11    1    3    3    0    0 -0.11372619626E+02 -0.47922781326E+01 -0.23193828251E+02  0.26272724946E+02  0.51100000000E-03 0. -1.
        -11    1    3    3    0    0  0.26250385613E+01 -0.68164458755E+01 -0.10100732365E+02  0.12465133629E+02  0.51100000000E-03 0.  1.
        -12    1    3    3    0    0  0.63435416631E+01  0.70226009301E+01 -0.70335137146E+01  0.11791003343E+02  0.00000000000E+00 0.  1.
</event>
<event>
 7    1  0.3129575E-011  0.5052886E+02  0.7816164E-02  0.1300439E+00
        -11   -1    0    0    0    0  0.00000000000E+00  0.00000000000E+00  0.45593999997E+02  0.45594000000E+02  0.51100000000E-03 0.  1.
         11   -1    0    0    0    0 -0.00000000000E+00 -0.00000000000E+00 -0.45593999997E+02  0.45594000000E+02  0.51100000000E-03 0. -1.
    9900012    2    1    2    0    0 -0.30368363272E+02  0.50646510842E+01 -0.26557062705E+02  0.50528858864E+02  0.29999997004E+02 0.  0.
        -12    1    1    2    0    0  0.30368363272E+02 -0.50646510842E+01  0.26557062705E+02  0.40659141136E+02  0.00000000000E+00 0.  1.
         11    1    3    3    0    0 -0.23289070911E+01  0.71742327851E+01 -0.99045984564E+01  0.12449678515E+02  0.51100000000E-03 0. -1.
        -11    1    3    3    0    0  0.21228700285E+00  0.47518583526E+01 -0.40398188398E+00  0.47737223629E+01  0.51100000000E-03 0.  1.
         12    1    3    3    0    0 -0.28251743183E+02 -0.68614400535E+01 -0.16248482364E+02  0.33305457986E+02  0.00000000000E+00 0. -1.
</event>
<event>
 7    1  0.3129575E-011  0.5052887E+02  0.7816164E-02  0.1300439E+00
        -11   -1    0    0    0    0  0.00000000000E+00  0.00000000000E+00  0.45593999997E+02  0.45594000000E+02  0.51100000000E-03 0.  1.
         11   -1    0    0    0    0 -0.00000000000E+00 -0.00000000000E+00 -0.45593999997E+02  0.45594000000E+02  0.51100000000E-03 0. -1.
    9900012    2    1    2    0    0  0.24665968410E+02  0.25852827602E+02 -0.19400672988E+02  0.50528870582E+02  0.30000032621E+02 0.  0.
        -12    1    1    2    0    0 -0.24665968410E+02 -0.25852827602E+02  0.19400672988E+02  0.40659129418E+02  0.00000000000E+00 0.  1.
         11    1    3    3    0    0  0.11075515398E+02  0.21497097170E+02 -0.18628465168E+02  0.30525594881E+02  0.51100000000E-03 0. -1.
        -11    1    3    3    0    0  0.14684834044E+02  0.48738428248E+01 -0.44757184093E+01  0.16106854141E+02  0.51100000000E-03 0.  1.
         12    1    3    3    0    0 -0.10943810317E+01 -0.51811239273E+00  0.37035105885E+01  0.38964215600E+01  0.00000000000E+00 0. -1.
</event>
<event>
 7    1  0.3129575E-011  0.5052886E+02  0.7816164E-02  0.1300439E+00
        -11   -1    0    0    0    0  0.00000000000E+00  0.00000000000E+00  0.45593999997E+02  0.45594000000E+02  0.51100000000E-03 0.  1.
         11   -1    0    0    0    0 -0.00000000000E+00 -0.00000000000E+00 -0.45593999997E+02  0.45594000000E+02  0.51100000000E-03 0. -1.
    9900012    2    1    2    0    0 -0.15104409433E+02  0.70358394414E+01 -0.37087997623E+02  0.50528858486E+02  0.29999995854E+02 0.  0.
        -12    1    1    2    0    0  0.15104409433E+02 -0.70358394414E+01  0.37087997623E+02  0.40659141514E+02  0.00000000000E+00 0.  1.
         11    1    3    3    0    0  0.40969003498E+01  0.99263276198E+01 -0.15644833783E+02  0.18975705437E+02  0.51100000000E-03 0. -1.
        -11    1    3    3    0    0 -0.31262970512E+01 -0.30295730710E+00 -0.12679071805E+02  0.13062326687E+02  0.51100000000E-03 0.  1.
        -12    1    3    3    0    0 -0.16075012731E+02 -0.25875308713E+01 -0.87640920352E+01  0.18490826361E+02  0.00000000000E+00 0.  1.
</event>
<event>
 7    1  0.3129575E-011  0.5052886E+02  0.7816164E-02  0.1300439E+00
        -11   -1    0    0    0    0  0.00000000000E+00  0.00000000000E+00  0.45593999997E+02  0.45594000000E+02  0.51100000000E-03 0.  1.
         11   -1    0    0    0    0 -0.00000000000E+00 -0.00000000000E+00 -0.45593999997E+02  0.45594000000E+02  0.51100000000E-03 0. -1.
    9900012    2    1    2    0    0  0.55100959729E+01 -0.17491092800E+02 -0.36288645298E+02  0.50528864956E+02  0.30000015521E+02 0.  0.
        -12    1    1    2    0    0 -0.55100959729E+01  0.17491092800E+02  0.36288645298E+02  0.40659135044E+02  0.00000000000E+00 0.  1.
         11    1    3    3    0    0 -0.31091786237E+01 -0.44650042878E+01 -0.10648848695E+02  0.11958312330E+02  0.51100000000E-03 0. -1.
        -11    1    3    3    0    0  0.83130724796E+01 -0.75093534317E+01  0.11087616846E+01  0.11257304995E+02  0.51100000000E-03 0.  1.
         12    1    3    3    0    0  0.30620211706E+00 -0.55167350805E+01 -0.26748558288E+02  0.27313247631E+02  0.00000000000E+00 0. -1.
</event>
<event>
 7    1  0.3129575E-011  0.5052887E+02  0.7816164E-02  0.1300439E+00
        -11   -1    0    0    0    0  0.00000000000E+00  0.00000000000E+00  0.45593999997E+02  0.45594000000E+02  0.51100000000E-03 0. -1.
         11   -1    0    0    0    0 -0.00000000000E+00 -0.00000000000E+00 -0.45593999997E+02  0.45594000000E+02  0.51100000000E-03 0.  1.
    9900012    2    1    2    0    0  0.19551970230E+02 -0.19294781858E+02  0.29976608874E+02  0.50528865400E+02  0.30000016870E+02 0.  0.
        -12    1    1    2    0    0 -0.19551970230E+02  0.19294781858E+02 -0.29976608874E+02  0.40659134600E+02  0.00000000000E+00 0.  1.
         11    1    3    3    0    0  0.19751633986E+02 -0.84276300256E+01  0.20535790442E+02  0.29713139893E+02  0.51100000000E-03 0.  1.
        -11    1    3    3    0    0  0.78287379458E+00  0.19920526345E+01  0.74684352003E+01  0.77690855111E+01  0.51100000000E-03 0. -1.
        -12    1    3    3    0    0 -0.98253755076E+00 -0.12859204467E+02  0.19723832314E+01  0.13046639996E+02  0.00000000000E+00 0.  1.
</event>
<event>
 7    1  0.3129575E-011  0.5052886E+02  0.7816164E-02  0.1300439E+00
        -11   -1    0    0    0    0  0.00000000000E+00  0.00000000000E+00  0.45593999997E+02  0.45594000000E+02  0.51100000000E-03 0.  1.
         11   -1    0    0    0    0 -0.00000000000E+00 -0.00000000000E+00 -0.45593999997E+02  0.45594000000E+02  0.51100000000E-03 0. -1.
    9900012    2    1    2    0    0 -0.97833167479E+00  0.12731516177E+02 -0.38602036130E+02  0.50528857972E+02  0.29999994293E+02 0.  0.
        -12    1    1    2    0    0  0.97833167479E+00 -0.12731516177E+02  0.38602036130E+02  0.40659142028E+02  0.00000000000E+00 0.  1.
         11    1    3    3    0    0  0.78040901576E+01 -0.26748968610E+01 -0.90503290189E+01  0.12246115793E+02  0.51100000000E-03 0. -1.
        -11    1    3    3    0    0 -0.16520884481E+00 -0.24087330964E+01  0.33541279208E+00  0.24375789411E+01  0.51100000000E-03 0.  1.
         12    1    3    3    0    0 -0.86172129876E+01  0.17815146135E+02 -0.29887119903E+02  0.35845163238E+02  0.00000000000E+00 0. -1.
</event>
<event>
 7    1  0.3129575E-011  0.5052885E+02  0.7816164E-02  0.1300439E+00
        -11   -1    0    0    0    0  0.00000000000E+00  0.00000000000E+00  0.45593999997E+02  0.45594000000E+02  0.51100000000E-03 0.  1.
         11   -1    0    0    0    0 -0.00000000000E+00 -0.00000000000E+00 -0.45593999997E+02  0.45594000000E+02  0.51100000000E-03 0. -1.
    9900012    2    1    2    0    0 -0.88450973764E+01  0.12117228698E+02 -0.37790256052E+02  0.50528850582E+02  0.29999971828E+02 0.  0.
        -12    1    1    2    0    0  0.88450973764E+01 -0.12117228698E+02  0.37790256052E+02  0.40659149418E+02  0.00000000000E+00 0.  1.
         11    1    3    3    0    0 -0.12834760635E+02  0.10298674367E+02 -0.21276693492E+02  0.26897796573E+02  0.51100000000E-03 0. -1.
        -11    1    3    3    0    0 -0.12420585011E+01 -0.11015334505E+01  0.28848542433E+01  0.33284334947E+01  0.51100000000E-03 0.  1.
        -12    1    3    3    0    0  0.52317217600E+01  0.29200877809E+01 -0.19398416804E+02  0.20302620514E+02  0.00000000000E+00 0.  1.
</event>
<event>
 7    1  0.3129575E-011  0.5052886E+02  0.7816164E-02  0.1300439E+00
        -11   -1    0    0    0    0  0.00000000000E+00  0.00000000000E+00  0.45593999997E+02  0.45594000000E+02  0.51100000000E-03 0.  1.
         11   -1    0    0    0    0 -0.00000000000E+00 -0.00000000000E+00 -0.45593999997E+02  0.45594000000E+02  0.51100000000E-03 0. -1.
    9900012    2    1    2    0    0 -0.13334535758E+02  0.35004378652E+02 -0.15812937811E+02  0.50528863623E+02  0.30000011470E+02 0.  0.
        -12    1    1    2    0    0  0.13334535758E+02 -0.35004378652E+02  0.15812937811E+02  0.40659136377E+02  0.00000000000E+00 0.  1.
         11    1    3    3    0    0 -0.39825122366E+00  0.93774823594E+01 -0.73314131508E+01  0.11909886586E+02  0.51100000000E-03 0. -1.
        -11    1    3    3    0    0 -0.48735117460E+01  0.24522258519E+02  0.23038474390E+01  0.25107767581E+02  0.51100000000E-03 0.  1.
         12    1    3    3    0    0 -0.80627727887E+01  0.11046377728E+01 -0.10785372099E+02  0.13511209456E+02  0.00000000000E+00 0. -1.
</event>
<event>
 7    1  0.3129575E-011  0.5052886E+02  0.7816164E-02  0.1300439E+00
        -11   -1    0    0    0    0  0.00000000000E+00  0.00000000000E+00  0.45593999997E+02  0.45594000000E+02  0.51100000000E-03 0. -1.
         11   -1    0    0    0    0 -0.00000000000E+00 -0.00000000000E+00 -0.45593999997E+02  0.45594000000E+02  0.51100000000E-03 0.  1.
    9900012    2    1    2    0    0  0.14379214903E+02 -0.13378369615E+02  0.35600889366E+02  0.50528856891E+02  0.29999991005E+02 0.  0.
        -12    1    1    2    0    0 -0.14379214903E+02  0.13378369615E+02 -0.35600889366E+02  0.40659143109E+02  0.00000000000E+00 0.  1.
         11    1    3    3    0    0 -0.19401950108E+00 -0.41887637979E+01  0.97674998744E+01  0.10629555013E+02  0.51100000000E-03 0. -1.
        -11    1    3    3    0    0 -0.18862466002E+01 -0.97797950548E+01  0.87768469610E+00  0.99986323184E+01  0.51100000000E-03 0.  1.
         12    1    3    3    0    0  0.16459481004E+02  0.59018923796E+00  0.24955704795E+02  0.29900669559E+02  0.00000000000E+00 0. -1.
</event>
<event>
 7    1  0.3129575E-011  0.5052886E+02  0.7816164E-02  0.1300439E+00
        -11   -1    0    0    0    0  0.00000000000E+00  0.00000000000E+00  0.45593999997E+02  0.45594000000E+02  0.51100000000E-03 0.  1.
         11   -1    0    0    0    0 -0.00000000000E+00 -0.00000000000E+00 -0.45593999997E+02  0.45594000000E+02  0.51100000000E-03 0. -1.
    9900012    2    1    2    0    0  0.37904046729E+02  0.14709401623E+02  0.28687589165E+00  0.50528861392E+02  0.30000004688E+02 0.  0.
        -12    1    1    2    0    0 -0.37904046729E+02 -0.14709401623E+02 -0.28687589165E+00  0.40659138608E+02  0.00000000000E+00 0.  1.
         11    1    3    3    0    0  0.20108625975E+02 -0.45957615182E+01 -0.35092271685E+01  0.20923492493E+02  0.51100000000E-03 0.  1.
        -11    1    3    3    0    0  0.15553324756E+02  0.74438815915E+01  0.14097545974E+01  0.17300424631E+02  0.51100000000E-03 0. -1.
        -12    1    3    3    0    0  0.22420959983E+01  0.11861281550E+02  0.23863484628E+01  0.12304944269E+02  0.00000000000E+00 0.  1.
</event>
<event>
 7    1  0.3129575E-011  0.5052886E+02  0.7816164E-02  0.1300439E+00
        -11   -1    0    0    0    0  0.00000000000E+00  0.00000000000E+00  0.45593999997E+02  0.45594000000E+02  0.51100000000E-03 0.  1.
         11   -1    0    0    0    0 -0.00000000000E+00 -0.00000000000E+00 -0.45593999997E+02  0.45594000000E+02  0.51100000000E-03 0. -1.
    9900012    2    1    2    0    0 -0.29325872985E+02 -0.31775560527E+01 -0.27983248164E+02  0.50528857527E+02  0.29999992940E+02 0.  0.
        -12    1    1    2    0    0  0.29325872985E+02  0.31775560527E+01  0.27983248164E+02  0.40659142473E+02  0.00000000000E+00 0.  1.
         11    1    3    3    0    0 -0.19322476962E+02 -0.76648633864E+01 -0.30476738077E+01  0.21009439844E+02  0.51100000000E-03 0. -1.
        -11    1    3    3    0    0 -0.26961240353E+01  0.39358516792E+01 -0.15556637733E+01  0.50179780083E+01  0.51100000000E-03 0.  1.
         12    1    3    3    0    0 -0.73072719875E+01  0.55145565448E+00 -0.23379910583E+02  0.24501439675E+02  0.00000000000E+00 0. -1.
</event>
<event>
 7    1  0.3129575E-011  0.5052887E+02  0.7816164E-02  0.1300439E+00
        -11   -1    0    0    0    0  0.00000000000E+00  0.00000000000E+00  0.45593999997E+02  0.45594000000E+02  0.51100000000E-03 0.  1.
         11   -1    0    0    0    0 -0.00000000000E+00 -0.00000000000E+00 -0.45593999997E+02  0.45594000000E+02  0.51100000000E-03 0. -1.
    9900012    2    1    2    0    0 -0.12371474624E+02 -0.26283498953E+02 -0.28448008378E+02  0.50528869633E+02  0.30000029736E+02 0.  0.
        -12    1    1    2    0    0  0.12371474624E+02  0.26283498953E+02  0.28448008378E+02  0.40659130367E+02  0.00000000000E+00 0.  1.
         11    1    3    3    0    0 -0.45718344474E+01 -0.25352185806E+02 -0.14410919620E+02  0.29517953857E+02  0.51100000000E-03 0. -1.
        -11    1    3    3    0    0 -0.95516851361E+01 -0.52099350788E+01 -0.85636853111E+01  0.13846112048E+02  0.51100000000E-03 0.  1.
        -12    1    3    3    0    0  0.17520449598E+01  0.42786219319E+01 -0.54734034460E+01  0.71648037279E+01  0.00000000000E+00 0.  1.
</event>
<event>
 7    1  0.3129575E-011  0.5052886E+02  0.7816164E-02  0.1300439E+00
        -11   -1    0    0    0    0  0.00000000000E+00  0.00000000000E+00  0.45593999997E+02  0.45594000000E+02  0.51100000000E-03 0.  1.
         11   -1    0    0    0    0 -0.00000000000E+00 -0.00000000000E+00 -0.45593999997E+02  0.45594000000E+02  0.51100000000E-03 0. -1.
    9900012    2    1    2    0    0  0.39943478641E+02  0.73519266984E+01  0.19061614179E+01  0.50528858796E+02  0.29999996797E+02 0.  0.
        -12    1    1    2    0    0 -0.39943478641E+02 -0.73519266984E+01 -0.19061614179E+01  0.40659141204E+02  0.00000000000E+00 0.  1.
         11    1    3    3    0    0  0.12551147879E+02 -0.89290400690E+01 -0.10438184410E+01  0.15438543547E+02  0.51100000000E-03 0.  1.
        -11    1    3    3    0    0  0.15487864660E+01  0.33585226344E+01 -0.39212977682E+01  0.53902681056E+01  0.51100000000E-03 0. -1.
        -12    1    3    3    0    0  0.25843544295E+02  0.12922444133E+02  0.68712776271E+01  0.29700047144E+02  0.00000000000E+00 0.  1.
</event>
<event>
 7    1  0.3129575E-011  0.5052888E+02  0.7816164E-02  0.1300439E+00
        -11   -1    0    0    0    0  0.00000000000E+00  0.00000000000E+00  0.45593999997E+02  0.45594000000E+02  0.51100000000E-03 0. -1.
         11   -1    0    0    0    0 -0.00000000000E+00 -0.00000000000E+00 -0.45593999997E+02  0.45594000000E+02  0.51100000000E-03 0.  1.
    9900012    2    1    2    0    0 -0.33789813000E+02 -0.17549178378E+02  0.14263204703E+02  0.50528878850E+02  0.30000057752E+02 0.  0.
        -12    1    1    2    0    0  0.33789813000E+02  0.17549178378E+02 -0.14263204703E+02  0.40659121150E+02  0.00000000000E+00 0.  1.
         11    1    3    3    0    0 -0.39214371654E+01 -0.11672456750E+02  0.81441469394E+01  0.14763165164E+02  0.51100000000E-03 0. -1.
        -11    1    3    3    0    0 -0.10571663287E+02 -0.98295568467E+01 -0.17775111971E+01  0.14544407818E+02  0.51100000000E-03 0.  1.
         12    1    3    3    0    0 -0.19296712548E+02  0.39528352189E+01  0.78965689607E+01  0.21221305869E+02  0.00000000000E+00 0. -1.
</event>
<event>
 7    1  0.3129575E-011  0.5052887E+02  0.7816164E-02  0.1300439E+00
        -11   -1    0    0    0    0  0.00000000000E+00  0.00000000000E+00  0.45593999997E+02  0.45594000000E+02  0.51100000000E-03 0. -1.
         11   -1    0    0    0    0 -0.00000000000E+00 -0.00000000000E+00 -0.45593999997E+02  0.45594000000E+02  0.51100000000E-03 0.  1.
    9900012    2    1    2    0    0  0.14440891275E+02  0.37990777392E+02  0.11515936406E+01  0.50528872174E+02  0.30000037461E+02 0.  0.
        -12    1    1    2    0    0 -0.14440891275E+02 -0.37990777392E+02 -0.11515936406E+01  0.40659127826E+02  0.00000000000E+00 0.  1.
         11    1    3    3    0    0  0.36461929391E+01  0.78612992816E+01 -0.27871401686E+01  0.91029061252E+01  0.51100000000E-03 0. -1.
        -11    1    3    3    0    0  0.61680936036E+01  0.34188472848E+02  0.14012875312E+01  0.34768673564E+02  0.51100000000E-03 0.  1.
        -12    1    3    3    0    0  0.46266047318E+01 -0.40589947376E+01  0.25374462780E+01  0.66572924856E+01  0.00000000000E+00 0.  1.
</event>
<event>
 7    1  0.3129575E-011  0.5052887E+02  0.7816164E-02  0.1300439E+00
        -11   -1    0    0    0    0  0.00000000000E+00  0.00000000000E+00  0.45593999997E+02  0.45594000000E+02  0.51100000000E-03 0.  1.
         11   -1    0    0    0    0 -0.00000000000E+00 -0.00000000000E+00 -0.45593999997E+02  0.45594000000E+02  0.51100000000E-03 0. -1.
    9900012    2    1    2    0    0 -0.56469057975E+01  0.36321018985E+02 -0.17379889350E+02  0.50528874099E+02  0.30000043312E+02 0.  0.
        -12    1    1    2    0    0  0.56469057975E+01 -0.36321018985E+02  0.17379889350E+02  0.40659125901E+02  0.00000000000E+00 0.  1.
         11    1    3    3    0    0 -0.79906865241E+01  0.21159318380E+02 -0.20970697974E+01  0.22714874585E+02  0.51100000000E-03 0. -1.
        -11    1    3    3    0    0 -0.60959047383E+01  0.37420229215E+01 -0.10742339410E+02  0.12905837686E+02  0.51100000000E-03 0.  1.
        -12    1    3    3    0    0  0.84396854649E+01  0.11419677684E+02 -0.45404801423E+01  0.14908161827E+02  0.00000000000E+00 0.  1.
</event>
<event>
 7    1  0.3129575E-011  0.5052886E+02  0.7816164E-02  0.1300439E+00
        -11   -1    0    0    0    0  0.00000000000E+00  0.00000000000E+00  0.45593999997E+02  0.45594000000E+02  0.51100000000E-03 0.  1.
         11   -1    0    0    0    0 -0.00000000000E+00 -0.00000000000E+00 -0.45593999997E+02  0.45594000000E+02  0.51100000000E-03 0. -1.
    9900012    2    1    2    0    0 -0.27082038795E+02 -0.20472946379E+02 -0.22373802948E+02  0.50528863055E+02  0.30000009742E+02 0.  0.
        -12    1    1    2    0    0  0.27082038795E+02  0.20472946379E+02  0.22373802948E+02  0.40659136945E+02  0.00000000000E+00 0.  1.
         11    1    3    3    0    0 -0.75375951138E+01 -0.75297733079E+00 -0.83591068404E+01  0.11280823657E+02  0.51100000000E-03 0. -1.
        -11    1    3    3    0    0 -0.11820221515E+02 -0.97877248716E+01 -0.20085860306E+02  0.25277637930E+02  0.51100000000E-03 0.  1.
        -12    1    3    3    0    0 -0.77242221665E+01 -0.99322441767E+01  0.60711641975E+01  0.13970401468E+02  0.00000000000E+00 0.  1.
</event>
<event>
 7    1  0.3129575E-011  0.5052885E+02  0.7816164E-02  0.1300439E+00
        -11   -1    0    0    0    0  0.00000000000E+00  0.00000000000E+00  0.45593999997E+02  0.45594000000E+02  0.51100000000E-03 0.  1.
         11   -1    0    0    0    0 -0.00000000000E+00 -0.00000000000E+00 -0.45593999997E+02  0.45594000000E+02  0.51100000000E-03 0. -1.
    9900012    2    1    2    0    0  0.13979175283E+02 -0.36356054722E+02 -0.11661304249E+02  0.50528854985E+02  0.29999985214E+02 0.  0.
        -12    1    1    2    0    0 -0.13979175283E+02  0.36356054722E+02  0.11661304249E+02  0.40659145015E+02  0.00000000000E+00 0.  1.
         11    1    3    3    0    0 -0.35555366648E+01 -0.10513014352E+02 -0.21768460839E+01  0.11309463775E+02  0.51100000000E-03 0. -1.
        -11    1    3    3    0    0  0.91898927176E+01 -0.26669290579E+02 -0.25232055886E+01  0.28320871365E+02  0.51100000000E-03 0.  1.
         12    1    3    3    0    0  0.83448192305E+01  0.82625020935E+00 -0.69612525768E+01  0.10898519846E+02  0.00000000000E+00 0. -1.
</event>
<event>
 7    1  0.3129575E-011  0.5052886E+02  0.7816164E-02  0.1300439E+00
        -11   -1    0    0    0    0  0.00000000000E+00  0.00000000000E+00  0.45593999997E+02  0.45594000000E+02  0.51100000000E-03 0.  1.
         11   -1    0    0    0    0 -0.00000000000E+00 -0.00000000000E+00 -0.45593999997E+02  0.45594000000E+02  0.51100000000E-03 0. -1.
    9900012    2    1    2    0    0 -0.13523669440E+02 -0.15344089173E+02 -0.35140212974E+02  0.50528864796E+02  0.30000015033E+02 0.  0.
        -12    1    1    2    0    0  0.13523669440E+02  0.15344089173E+02  0.35140212974E+02  0.40659135204E+02  0.00000000000E+00 0.  1.
         11    1    3    3    0    0 -0.95225398668E+01 -0.11158866235E+02 -0.15032378488E+02  0.21004082090E+02  0.51100000000E-03 0.  1.
        -11    1    3    3    0    0 -0.96589384952E+01 -0.96787871380E+01 -0.11685872654E+02  0.17987040704E+02  0.51100000000E-03 0. -1.
        -12    1    3    3    0    0  0.56578089218E+01  0.54935641999E+01 -0.84219618322E+01  0.11537742003E+02  0.00000000000E+00 0.  1.
</event>
<event>
 7    1  0.3129575E-011  0.5052893E+02  0.7816164E-02  0.1300439E+00
        -11   -1    0    0    0    0  0.00000000000E+00  0.00000000000E+00  0.45593999997E+02  0.45594000000E+02  0.51100000000E-03 0.  1.
         11   -1    0    0    0    0 -0.00000000000E+00 -0.00000000000E+00 -0.45593999997E+02  0.45594000000E+02  0.51100000000E-03 0. -1.
    9900012    2    1    2    0    0 -0.38415621826E+02  0.24432322815E+01 -0.13093165306E+02  0.50528925219E+02  0.30000198696E+02 0.  0.
        -12    1    1    2    0    0  0.38415621826E+02 -0.24432322815E+01  0.13093165306E+02  0.40659074781E+02  0.00000000000E+00 0.  1.
         11    1    3    3    0    0 -0.11250174312E+02  0.24933751215E+01  0.49633401996E+01  0.12546636511E+02  0.51100000000E-03 0. -1.
        -11    1    3    3    0    0 -0.18853447168E+02  0.89137412688E+01 -0.87380515218E+01  0.22611076891E+02  0.51100000000E-03 0.  1.
         12    1    3    3    0    0 -0.83120003466E+01 -0.89638841087E+01 -0.93184539840E+01  0.15371211817E+02  0.00000000000E+00 0. -1.
</event>
<event>
 7    1  0.3129575E-011  0.5052885E+02  0.7816164E-02  0.1300439E+00
        -11   -1    0    0    0    0  0.00000000000E+00  0.00000000000E+00  0.45593999997E+02  0.45594000000E+02  0.51100000000E-03 0.  1.
         11   -1    0    0    0    0 -0.00000000000E+00 -0.00000000000E+00 -0.45593999997E+02  0.45594000000E+02  0.51100000000E-03 0. -1.
    9900012    2    1    2    0    0 -0.18867255373E+02 -0.16839475907E+02 -0.31837484107E+02  0.50528847667E+02  0.29999962969E+02 0.  0.
        -12    1    1    2    0    0  0.18867255373E+02  0.16839475907E+02  0.31837484107E+02  0.40659152333E+02  0.00000000000E+00 0.  1.
         11    1    3    3    0    0 -0.72052754833E+01 -0.14658103005E+02 -0.93293227189E+01  0.18809897426E+02  0.51100000000E-03 0. -1.
        -11    1    3    3    0    0 -0.10860439255E+02 -0.88448597714E+01 -0.20281072958E+02  0.24647567949E+02  0.51100000000E-03 0.  1.
        -12    1    3    3    0    0 -0.80154063416E+00  0.66634868699E+01 -0.22270884304E+01  0.70713822928E+01  0.00000000000E+00 0.  1.
</event>
<event>
 7    1  0.4275916E-011  0.5052886E+02  0.7816164E-02  0.1300439E+00
        -11   -1    0    0    0    0  0.00000000000E+00  0.00000000000E+00  0.45593999997E+02  0.45594000000E+02  0.51100000000E-03 0.  1.
         11   -1    0    0    0    0 -0.00000000000E+00 -0.00000000000E+00 -0.45593999997E+02  0.45594000000E+02  0.51100000000E-03 0. -1.
    9900012    2    1    2    0    0  0.87920929170E+01  0.39011224617E+02 -0.73477386854E+01  0.50528858251E+02  0.29999995140E+02 0.  0.
        -12    1    1    2    0    0 -0.87920929170E+01 -0.39011224617E+02  0.73477386854E+01  0.40659141749E+02  0.00000000000E+00 0.  1.
         11    1    3    3    0    0  0.80161080375E+01  0.19112932608E+02 -0.10041333446E+02  0.23030209695E+02  0.51100000000E-03 0.  1.
        -11    1    3    3    0    0  0.49714963015E+01  0.22055791109E+02  0.16671587107E+01  0.22670534077E+02  0.51100000000E-03 0. -1.
        -12    1    3    3    0    0 -0.41955114220E+01 -0.21574991001E+01  0.10264360501E+01  0.48281144792E+01  0.00000000000E+00 0.  1.
</event>
<event>
 7    1  0.3129575E-011  0.5052886E+02  0.7816164E-02  0.1300439E+00
        -11   -1    0    0    0    0  0.00000000000E+00  0.00000000000E+00  0.45593999997E+02  0.45594000000E+02  0.51100000000E-03 0.  1.
         11   -1    0    0    0    0 -0.00000000000E+00 -0.00000000000E+00 -0.45593999997E+02  0.45594000000E+02  0.51100000000E-03 0. -1.
    9900012    2    1    2    0    0 -0.20269375055E+02  0.34296165172E+02 -0.81296426997E+01  0.50528860793E+02  0.30000002866E+02 0.  0.
        -12    1    1    2    0    0  0.20269375055E+02 -0.34296165172E+02  0.81296426997E+01  0.40659139207E+02  0.00000000000E+00 0.  1.
         11    1    3    3    0    0 -0.68172540637E+01  0.17267975836E+02  0.59489970197E+01  0.19494832861E+02  0.51100000000E-03 0. -1.
        -11    1    3    3    0    0  0.20143709671E+01 -0.33521491774E+00  0.19247778591E+01  0.28062126616E+01  0.51100000000E-03 0.  1.
         12    1    3    3    0    0 -0.15466491958E+02  0.17363404253E+02 -0.16003417579E+02  0.28227815271E+02  0.00000000000E+00 0. -1.
</event>
<event>
 7    1  0.3129575E-011  0.5052885E+02  0.7816164E-02  0.1300439E+00
        -11   -1    0    0    0    0  0.00000000000E+00  0.00000000000E+00  0.45593999997E+02  0.45594000000E+02  0.51100000000E-03 0.  1.
         11   -1    0    0    0    0 -0.00000000000E+00 -0.00000000000E+00 -0.45593999997E+02  0.45594000000E+02  0.51100000000E-03 0. -1.
    9900012    2    1    2    0    0 -0.76006587011E+01  0.37728983347E+02 -0.13111831719E+02  0.50528851852E+02  0.29999975690E+02 0.  0.
        -12    1    1    2    0    0  0.76006587011E+01 -0.37728983347E+02  0.13111831719E+02  0.40659148148E+02  0.00000000000E+00 0.  1.
         11    1    3    3    0    0  0.79013180830E+00  0.17893079369E+02  0.16675319492E+01  0.17987975446E+02  0.51100000000E-03 0. -1.
        -11    1    3    3    0    0 -0.72829127180E+01  0.78810240089E+01  0.29498520528E+01  0.11128925576E+02  0.51100000000E-03 0.  1.
        -12    1    3    3    0    0 -0.11078777913E+01  0.11954879969E+02 -0.17729215721E+02  0.21411950830E+02  0.00000000000E+00 0.  1.
</event>
<event>
 7    1  0.3129575E-011  0.5052886E+02  0.7816164E-02  0.1300439E+00
        -11   -1    0    0    0    0  0.00000000000E+00  0.00000000000E+00  0.45593999997E+02  0.45594000000E+02  0.51100000000E-03 0.  1.
         11   -1    0    0    0    0 -0.00000000000E+00 -0.00000000000E+00 -0.45593999997E+02  0.45594000000E+02  0.51100000000E-03 0. -1.
    9900012    2    1    2    0    0  0.38869532228E+02  0.60886377589E+01 -0.10259337828E+02  0.50528855173E+02  0.29999985784E+02 0.  0.
        -12    1    1    2    0    0 -0.38869532228E+02 -0.60886377589E+01  0.10259337828E+02  0.40659144827E+02  0.00000000000E+00 0.  1.
         11    1    3    3    0    0  0.21505937839E+02  0.57076986443E+01 -0.86732691352E+01  0.23881138664E+02  0.51100000000E-03 0. -1.
        -11    1    3    3    0    0  0.68986504968E+01  0.23390277350E+01 -0.10488267697E+02  0.12769737232E+02  0.51100000000E-03 0.  1.
        -12    1    3    3    0    0  0.10464943892E+02 -0.19580886203E+01  0.89021990044E+01  0.13877979277E+02  0.00000000000E+00 0.  1.
</event>
<event>
 7    1  0.3129575E-011  0.5052889E+02  0.7816164E-02  0.1300439E+00
        -11   -1    0    0    0    0  0.00000000000E+00  0.00000000000E+00  0.45593999997E+02  0.45594000000E+02  0.51100000000E-03 0. -1.
         11   -1    0    0    0    0 -0.00000000000E+00 -0.00000000000E+00 -0.45593999997E+02  0.45594000000E+02  0.51100000000E-03 0.  1.
    9900012    2    1    2    0    0  0.39426690573E+02 -0.30853793756E+01  0.94434841476E+01  0.50528894153E+02  0.30000104269E+02 0.  0.
        -12    1    1    2    0    0 -0.39426690573E+02  0.30853793756E+01 -0.94434841476E+01  0.40659105847E+02  0.00000000000E+00 0.  1.
         11    1    3    3    0    0  0.16560156765E+02 -0.29491472691E+01 -0.15073163316E+01  0.16888110152E+02  0.51100000000E-03 0. -1.
        -11    1    3    3    0    0  0.10199802321E+02 -0.11049267912E+02  0.42290389873E+01  0.15620725329E+02  0.51100000000E-03 0.  1.
        -12    1    3    3    0    0  0.12666731486E+02  0.10913035805E+02  0.67217614919E+01  0.18020058673E+02  0.00000000000E+00 0.  1.
</event>
<event>
 7    1  0.3129575E-011  0.5052888E+02  0.7816164E-02  0.1300439E+00
        -11   -1    0    0    0    0  0.00000000000E+00  0.00000000000E+00  0.45593999997E+02  0.45594000000E+02  0.51100000000E-03 0. -1.
         11   -1    0    0    0    0 -0.00000000000E+00 -0.00000000000E+00 -0.45593999997E+02  0.45594000000E+02  0.51100000000E-03 0.  1.
    9900012    2    1    2    0    0 -0.48781524758E+01  0.24248743063E+02  0.32270211033E+02  0.50528875171E+02  0.30000046570E+02 0.  0.
        -12    1    1    2    0    0  0.48781524758E+01 -0.24248743063E+02 -0.32270211033E+02  0.40659124829E+02  0.00000000000E+00 0.  1.
         11    1    3    3    0    0 -0.39616841445E+01  0.74371425722E+01  0.39582488515E+01  0.93098746035E+01  0.51100000000E-03 0. -1.
        -11    1    3    3    0    0  0.59023382894E+01  0.92732865542E+01 -0.15318242488E+00  0.10993402836E+02  0.51100000000E-03 0.  1.
         12    1    3    3    0    0 -0.68188066208E+01  0.75383139367E+01  0.28465144607E+02  0.30225597731E+02  0.00000000000E+00 0. -1.
</event>
<event>
 7    1  0.3129575E-011  0.5052886E+02  0.7816164E-02  0.1300439E+00
        -11   -1    0    0    0    0  0.00000000000E+00  0.00000000000E+00  0.45593999997E+02  0.45594000000E+02  0.51100000000E-03 0.  1.
         11   -1    0    0    0    0 -0.00000000000E+00 -0.00000000000E+00 -0.45593999997E+02  0.45594000000E+02  0.51100000000E-03 0. -1.
    9900012    2    1    2    0    0  0.22655300661E+01  0.39884340242E+02 -0.75678594975E+01  0.50528859325E+02  0.29999998406E+02 0.  0.
        -12    1    1    2    0    0 -0.22655300661E+01 -0.39884340242E+02  0.75678594975E+01  0.40659140675E+02  0.00000000000E+00 0.  1.
         11    1    3    3    0    0 -0.65448633893E+01  0.28804964711E+02 -0.10858305749E+02  0.31471638546E+02  0.51100000000E-03 0. -1.
        -11    1    3    3    0    0  0.99965990164E+00 -0.28354640508E+00 -0.35259279504E+01  0.36758518272E+01  0.51100000000E-03 0.  1.
        -12    1    3    3    0    0  0.78107335537E+01  0.11362921936E+02  0.68163742022E+01  0.15381368952E+02  0.00000000000E+00 0.  1.
</event>
<event>
 7    1  0.3129575E-011  0.5052885E+02  0.7816164E-02  0.1300439E+00
        -11   -1    0    0    0    0  0.00000000000E+00  0.00000000000E+00  0.45593999997E+02  0.45594000000E+02  0.51100000000E-03 0.  1.
         11   -1    0    0    0    0 -0.00000000000E+00 -0.00000000000E+00 -0.45593999997E+02  0.45594000000E+02  0.51100000000E-03 0. -1.
    9900012    2    1    2    0    0 -0.63329358693E+00 -0.15790080428E+02 -0.37462500739E+02  0.50528847742E+02  0.29999963196E+02 0.  0.
        -12    1    1    2    0    0  0.63329358693E+00  0.15790080428E+02  0.37462500739E+02  0.40659152258E+02  0.00000000000E+00 0.  1.
         11    1    3    3    0    0 -0.41388574525E+01  0.15947753745E+01  0.36392648801E+00  0.44503811362E+01  0.51100000000E-03 0. -1.
        -11    1    3    3    0    0  0.38097382270E+01 -0.16612273798E+02 -0.13511950859E+02  0.21749817525E+02  0.51100000000E-03 0.  1.
         12    1    3    3    0    0 -0.30417436145E+00 -0.77258200438E+00 -0.24314476369E+02  0.24328649080E+02  0.00000000000E+00 0. -1.
</event>
<event>
 7    1  0.3129575E-011  0.5052886E+02  0.7816164E-02  0.1300439E+00
        -11   -1    0    0    0    0  0.00000000000E+00  0.00000000000E+00  0.45593999997E+02  0.45594000000E+02  0.51100000000E-03 0.  1.
         11   -1    0    0    0    0 -0.00000000000E+00 -0.00000000000E+00 -0.45593999997E+02  0.45594000000E+02  0.51100000000E-03 0. -1.
    9900012    2    1    2    0    0 -0.11552679638E+00 -0.36889137387E+02 -0.17098077725E+02  0.50528855082E+02  0.29999985507E+02 0.  0.
        -12    1    1    2    0    0  0.11552679638E+00  0.36889137387E+02  0.17098077725E+02  0.40659144918E+02  0.00000000000E+00 0.  1.
         11    1    3    3    0    0 -0.23779364490E+01 -0.30632142473E+02 -0.15022926897E+02  0.34200454193E+02  0.51100000000E-03 0. -1.
        -11    1    3    3    0    0 -0.51929667054E+01 -0.67496467810E+01  0.19859349920E+00  0.85184549368E+01  0.51100000000E-03 0.  1.
        -12    1    3    3    0    0  0.74553763581E+01  0.49265186664E+00 -0.22737443272E+01  0.78099459516E+01  0.00000000000E+00 0.  1.
</event>
<event>
 7    1  0.3129575E-011  0.5052886E+02  0.7816164E-02  0.1300439E+00
        -11   -1    0    0    0    0  0.00000000000E+00  0.00000000000E+00  0.45593999997E+02  0.45594000000E+02  0.51100000000E-03 0.  1.
         11   -1    0    0    0    0 -0.00000000000E+00 -0.00000000000E+00 -0.45593999997E+02  0.45594000000E+02  0.51100000000E-03 0. -1.
    9900012    2    1    2    0    0  0.20504345808E+02 -0.28871524833E+01 -0.34991448594E+02  0.50528864235E+02  0.30000013328E+02 0.  0.
        -12    1    1    2    0    0 -0.20504345808E+02  0.28871524833E+01  0.34991448594E+02  0.40659135765E+02  0.00000000000E+00 0.  1.
         11    1    3    3    0    0  0.10803035172E+02 -0.58512081046E+01 -0.13120903153E+01  0.12355718776E+02  0.51100000000E-03 0. -1.
        -11    1    3    3    0    0  0.10803206565E+02 -0.32247483110E+01 -0.17519036676E+02  0.20833264748E+02  0.51100000000E-03 0.  1.
        -12    1    3    3    0    0 -0.11018959292E+01  0.61888039323E+01 -0.16160321603E+02  0.17339880711E+02  0.00000000000E+00 0.  1.
</event>
<event>
 7    1  0.3129575E-011  0.5052885E+02  0.7816164E-02  0.1300439E+00
        -11   -1    0    0    0    0  0.00000000000E+00  0.00000000000E+00  0.45593999997E+02  0.45594000000E+02  0.51100000000E-03 0.  1.
         11   -1    0    0    0    0 -0.00000000000E+00 -0.00000000000E+00 -0.45593999997E+02  0.45594000000E+02  0.51100000000E-03 0. -1.
    9900012    2    1    2    0    0 -0.19012461929E+02  0.35634965755E+02  0.46735689740E+01  0.50528846788E+02  0.29999960298E+02 0.  0.
        -12    1    1    2    0    0  0.19012461929E+02 -0.35634965755E+02 -0.46735689740E+01  0.40659153212E+02  0.00000000000E+00 0.  1.
         11    1    3    3    0    0  0.44802863185E+01  0.24165322863E+01 -0.46086778099E+01  0.68667681775E+01  0.51100000000E-03 0. -1.
        -11    1    3    3    0    0 -0.13033077751E+01 -0.71241249997E+00 -0.10560380629E+01  0.18224597055E+01  0.51100000000E-03 0.  1.
         12    1    3    3    0    0 -0.22189440472E+02  0.33930845968E+02  0.10338284847E+02  0.41839618905E+02  0.00000000000E+00 0. -1.
</event>
<event>
 7    1  0.3129575E-011  0.5052890E+02  0.7816164E-02  0.1300439E+00
        -11   -1    0    0    0    0  0.00000000000E+00  0.00000000000E+00  0.45593999997E+02  0.45594000000E+02  0.51100000000E-03 0.  1.
         11   -1    0    0    0    0 -0.00000000000E+00 -0.00000000000E+00 -0.45593999997E+02  0.45594000000E+02  0.51100000000E-03 0. -1.
    9900012    2    1    2    0    0  0.12331917259E+01 -0.31527556831E+02 -0.25644778249E+02  0.50528901965E+02  0.30000128012E+02 0.  0.
        -12    1    1    2    0    0 -0.12331917259E+01  0.31527556831E+02  0.25644778249E+02  0.40659098035E+02  0.00000000000E+00 0.  1.
         11    1    3    3    0    0  0.29626834526E+01 -0.78758794703E+01 -0.11928070047E+02  0.14597459573E+02  0.51100000000E-03 0. -1.
        -11    1    3    3    0    0  0.41178446430E+01  0.21606661891E+01  0.20963031441E+01  0.51009420717E+01  0.51100000000E-03 0.  1.
         12    1    3    3    0    0 -0.58473363697E+01 -0.25812343550E+02 -0.15813011346E+02  0.30830500320E+02  0.00000000000E+00 0. -1.
</event>
<event>
 7    1  0.3129575E-011  0.5052885E+02  0.7816164E-02  0.1300439E+00
        -11   -1    0    0    0    0  0.00000000000E+00  0.00000000000E+00  0.45593999997E+02  0.45594000000E+02  0.51100000000E-03 0.  1.
         11   -1    0    0    0    0 -0.00000000000E+00 -0.00000000000E+00 -0.45593999997E+02  0.45594000000E+02  0.51100000000E-03 0. -1.
    9900012    2    1    2    0    0 -0.34556024645E+02  0.67708527858E+01 -0.20327398799E+02  0.50528850616E+02  0.29999971933E+02 0.  0.
        -12    1    1    2    0    0  0.34556024645E+02 -0.67708527858E+01  0.20327398799E+02  0.40659149384E+02  0.00000000000E+00 0.  1.
         11    1    3    3    0    0 -0.10050654267E+02  0.83576649905E+01 -0.80719597728E+01  0.15363031931E+02  0.51100000000E-03 0. -1.
        -11    1    3    3    0    0 -0.79627889384E+01  0.86498824099E+01 -0.10270321384E+02  0.15611085003E+02  0.51100000000E-03 0.  1.
        -12    1    3    3    0    0 -0.16542581440E+02 -0.10236694615E+02 -0.19851176419E+01  0.19554733682E+02  0.00000000000E+00 0.  1.
</event>
<event>
 7    1  0.3129575E-011  0.5052886E+02  0.7816164E-02  0.1300439E+00
        -11   -1    0    0    0    0  0.00000000000E+00  0.00000000000E+00  0.45593999997E+02  0.45594000000E+02  0.51100000000E-03 0.  1.
         11   -1    0    0    0    0 -0.00000000000E+00 -0.00000000000E+00 -0.45593999997E+02  0.45594000000E+02  0.51100000000E-03 0. -1.
    9900012    2    1    2    0    0 -0.12972793812E+02 -0.18078844887E+01 -0.38491604848E+02  0.50528862412E+02  0.30000007788E+02 0.  0.
        -12    1    1    2    0    0  0.12972793812E+02  0.18078844887E+01  0.38491604848E+02  0.40659137588E+02  0.00000000000E+00 0.  1.
         11    1    3    3    0    0 -0.20659687413E+01  0.12346867148E+01 -0.90886294114E+01  0.94019074109E+01  0.51100000000E-03 0. -1.
        -11    1    3    3    0    0 -0.14038076778E+02  0.38968281438E+01 -0.47476147478E+01  0.15322947343E+02  0.51100000000E-03 0.  1.
         12    1    3    3    0    0  0.31312517077E+01 -0.69393993473E+01 -0.24655360689E+02  0.25804007659E+02  0.00000000000E+00 0. -1.
</event>
<event>
 7    1  0.3129575E-011  0.5052886E+02  0.7816164E-02  0.1300439E+00
        -11   -1    0    0    0    0  0.00000000000E+00  0.00000000000E+00  0.45593999997E+02  0.45594000000E+02  0.51100000000E-03 0.  1.
         11   -1    0    0    0    0 -0.00000000000E+00 -0.00000000000E+00 -0.45593999997E+02  0.45594000000E+02  0.51100000000E-03 0. -1.
    9900012    2    1    2    0    0  0.18108099661E+02  0.35698974571E+02 -0.71305892681E+01  0.50528863732E+02  0.30000011799E+02 0.  0.
        -12    1    1    2    0    0 -0.18108099661E+02 -0.35698974571E+02  0.71305892681E+01  0.40659136268E+02  0.00000000000E+00 0.  1.
         11    1    3    3    0    0  0.50379680443E+01  0.13108501011E+01 -0.10367386673E+02  0.11600954991E+02  0.51100000000E-03 0. -1.
        -11    1    3    3    0    0  0.87437320187E-02  0.70637247692E+00  0.27077855754E+01  0.27984176801E+01  0.51100000000E-03 0.  1.
         12    1    3    3    0    0  0.13061387885E+02  0.33681751993E+02  0.52901182970E+00  0.36129491061E+02  0.00000000000E+00 0. -1.
</event>
<event>
 7    1  0.3129575E-011  0.5052886E+02  0.7816164E-02  0.1300439E+00
        -11   -1    0    0    0    0  0.00000000000E+00  0.00000000000E+00  0.45593999997E+02  0.45594000000E+02  0.51100000000E-03 0. -1.
         11   -1    0    0    0    0 -0.00000000000E+00 -0.00000000000E+00 -0.45593999997E+02  0.45594000000E+02  0.51100000000E-03 0.  1.
    9900012    2    1    2    0    0 -0.33374285122E+02  0.16168558306E+02  0.16670335355E+02  0.50528864914E+02  0.30000015393E+02 0.  0.
        -12    1    1    2    0    0  0.33374285122E+02 -0.16168558306E+02 -0.16670335355E+02  0.40659135086E+02  0.00000000000E+00 0.  1.
         11    1    3    3    0    0 -0.32877743462E+02  0.14168304385E+02  0.10660469955E+02  0.37354149491E+02  0.51100000000E-03 0.  1.
        -11    1    3    3    0    0 -0.53118239984E+01  0.34144228310E+00  0.60806411204E+01  0.80812284783E+01  0.51100000000E-03 0. -1.
        -12    1    3    3    0    0  0.48152823386E+01  0.16588116381E+01 -0.70775721342E-01  0.50934869445E+01  0.00000000000E+00 0.  1.
</event>
<event>
 7    1  0.3129575E-011  0.5052886E+02  0.7816164E-02  0.1300439E+00
        -11   -1    0    0    0    0  0.00000000000E+00  0.00000000000E+00  0.45593999997E+02  0.45594000000E+02  0.51100000000E-03 0.  1.
         11   -1    0    0    0    0 -0.00000000000E+00 -0.00000000000E+00 -0.45593999997E+02  0.45594000000E+02  0.51100000000E-03 0. -1.
    9900012    2    1    2    0    0 -0.71153143608E+01  0.11545611683E+02 -0.38330621332E+02  0.50528863520E+02  0.30000011156E+02 0.  0.
        -12    1    1    2    0    0  0.71153143608E+01 -0.11545611683E+02  0.38330621332E+02  0.40659136480E+02  0.00000000000E+00 0.  1.
         11    1    3    3    0    0 -0.39645088829E+01  0.78138621361E+01 -0.21304973524E+02  0.23036398792E+02  0.51100000000E-03 0. -1.
        -11    1    3    3    0    0 -0.11821780851E+02  0.68080179053E+00 -0.64634129216E+01  0.13490504083E+02  0.51100000000E-03 0.  1.
        -12    1    3    3    0    0  0.86709753729E+01  0.30509477567E+01 -0.10562234886E+02  0.14001960645E+02  0.00000000000E+00 0.  1.
</event>
<event>
 7    1  0.3129575E-011  0.5052887E+02  0.7816164E-02  0.1300439E+00
        -11   -1    0    0    0    0  0.00000000000E+00  0.00000000000E+00  0.45593999997E+02  0.45594000000E+02  0.51100000000E-03 0.  1.
         11   -1    0    0    0    0 -0.00000000000E+00 -0.00000000000E+00 -0.45593999997E+02  0.45594000000E+02  0.51100000000E-03 0. -1.
    9900012    2    1    2    0    0 -0.27388390597E+02  0.29490400349E+02  0.57755361697E+01  0.50528874699E+02  0.30000045134E+02 0.  0.
        -12    1    1    2    0    0  0.27388390597E+02 -0.29490400349E+02 -0.57755361697E+01  0.40659125301E+02  0.00000000000E+00 0.  1.
         11    1    3    3    0    0 -0.15619310662E+02  0.20303645159E+02 -0.65116806817E+01  0.26431096418E+02  0.51100000000E-03 0. -1.
        -11    1    3    3    0    0 -0.10392317038E+02  0.23088102558E+01  0.84823541660E+00  0.10679436398E+02  0.51100000000E-03 0.  1.
        -12    1    3    3    0    0 -0.13767628968E+01  0.68779449344E+01  0.11438981435E+02  0.13418341882E+02  0.00000000000E+00 0.  1.
</event>
<event>
 7    1  0.3129575E-011  0.5052886E+02  0.7816164E-02  0.1300439E+00
        -11   -1    0    0    0    0  0.00000000000E+00  0.00000000000E+00  0.45593999997E+02  0.45594000000E+02  0.51100000000E-03 0.  1.
         11   -1    0    0    0    0 -0.00000000000E+00 -0.00000000000E+00 -0.45593999997E+02  0.45594000000E+02  0.51100000000E-03 0. -1.
    9900012    2    1    2    0    0  0.18677061266E+02  0.73550109755E-01 -0.36115481148E+02  0.50528855817E+02  0.29999987740E+02 0.  0.
        -12    1    1    2    0    0 -0.18677061266E+02 -0.73550109755E-01  0.36115481148E+02  0.40659144183E+02  0.00000000000E+00 0.  1.
         11    1    3    3    0    0  0.92111958255E+01  0.70257969550E+01 -0.23646490973E+02  0.26331815110E+02  0.51100000000E-03 0. -1.
        -11    1    3    3    0    0  0.56266105133E+01 -0.73355796831E+01 -0.16313054432E+02  0.18750605866E+02  0.51100000000E-03 0.  1.
        -12    1    3    3    0    0  0.38392549274E+01  0.38333283787E+00  0.38440642571E+01  0.54464348408E+01  0.00000000000E+00 0.  1.
</event>
<event>
 7    1  0.3129575E-011  0.5052886E+02  0.7816164E-02  0.1300439E+00
        -11   -1    0    0    0    0  0.00000000000E+00  0.00000000000E+00  0.45593999997E+02  0.45594000000E+02  0.51100000000E-03 0.  1.
         11   -1    0    0    0    0 -0.00000000000E+00 -0.00000000000E+00 -0.45593999997E+02  0.45594000000E+02  0.51100000000E-03 0. -1.
    9900012    2    1    2    0    0  0.40334635397E+02 -0.32943141751E+01  0.39281365434E+01  0.50528861111E+02  0.30000003834E+02 0.  0.
        -12    1    1    2    0    0 -0.40334635397E+02  0.32943141751E+01 -0.39281365434E+01  0.40659138889E+02  0.00000000000E+00 0.  1.
         11    1    3    3    0    0  0.17094763070E+02  0.15553603443E+01 -0.32132989409E+01  0.17463543757E+02  0.51100000000E-03 0. -1.
        -11    1    3    3    0    0  0.36113326755E+01 -0.48897735851E+01 -0.67004833370E+01  0.90469932363E+01  0.51100000000E-03 0.  1.
        -12    1    3    3    0    0  0.19628539651E+02  0.40099065688E-01  0.13841918821E+02  0.24018324118E+02  0.00000000000E+00 0.  1.
</event>
<event>
 7    1  0.3129575E-011  0.5052886E+02  0.7816164E-02  0.1300439E+00
        -11   -1    0    0    0    0  0.00000000000E+00  0.00000000000E+00  0.45593999997E+02  0.45594000000E+02  0.51100000000E-03 0.  1.
         11   -1    0    0    0    0 -0.00000000000E+00 -0.00000000000E+00 -0.45593999997E+02  0.45594000000E+02  0.51100000000E-03 0. -1.
    9900012    2    1    2    0    0 -0.17645498018E+02 -0.35905763406E+02 -0.72511100174E+01  0.50528855364E+02  0.29999986363E+02 0.  0.
        -12    1    1    2    0    0  0.17645498018E+02  0.35905763406E+02  0.72511100174E+01  0.40659144636E+02  0.00000000000E+00 0.  1.
         11    1    3    3    0    0 -0.17374323003E+02 -0.16479893533E+02  0.47150211806E+01  0.24406667443E+02  0.51100000000E-03 0.  1.
        -11    1    3    3    0    0  0.52566502369E+01 -0.42642454285E+01 -0.16441165420E+01  0.69655782425E+01  0.51100000000E-03 0. -1.
        -12    1    3    3    0    0 -0.55278252519E+01 -0.15161624444E+02 -0.10322014656E+02  0.19156609678E+02  0.00000000000E+00 0.  1.
</event>
<event>
 7    1  0.3129575E-011  0.5052898E+02  0.7816164E-02  0.1300438E+00
        -11   -1    0    0    0    0  0.00000000000E+00  0.00000000000E+00  0.45593999997E+02  0.45594000000E+02  0.51100000000E-03 0.  1.
         11   -1    0    0    0    0 -0.00000000000E+00 -0.00000000000E+00 -0.45593999997E+02  0.45594000000E+02  0.51100000000E-03 0. -1.
    9900012    2    1    2    0    0  0.30080772767E+01  0.27660739127E+02 -0.29647783857E+02  0.50528977562E+02  0.30000357796E+02 0.  0.
        -12    1    1    2    0    0 -0.30080772767E+01 -0.27660739127E+02  0.29647783857E+02  0.40659022438E+02  0.00000000000E+00 0.  1.
         11    1    3    3    0    0 -0.40016274051E+01  0.23180971092E+02 -0.16095478255E+02  0.28503243029E+02  0.51100000000E-03 0. -1.
        -11    1    3    3    0    0  0.96654716247E+00  0.87823600822E+01 -0.34338385080E+01  0.94792040378E+01  0.51100000000E-03 0.  1.
         12    1    3    3    0    0  0.60431575193E+01 -0.43025920471E+01 -0.10118467094E+02  0.12546530495E+02  0.00000000000E+00 0. -1.
</event>
<event>
 7    1  0.3129575E-011  0.5052886E+02  0.7816164E-02  0.1300439E+00
        -11   -1    0    0    0    0  0.00000000000E+00  0.00000000000E+00  0.45593999997E+02  0.45594000000E+02  0.51100000000E-03 0. -1.
         11   -1    0    0    0    0 -0.00000000000E+00 -0.00000000000E+00 -0.45593999997E+02  0.45594000000E+02  0.51100000000E-03 0.  1.
    9900012    2    1    2    0    0  0.36336669026E+02 -0.16110375637E+02  0.85596645751E+01  0.50528861092E+02  0.30000003776E+02 0.  0.
        -12    1    1    2    0    0 -0.36336669026E+02  0.16110375637E+02 -0.85596645751E+01  0.40659138908E+02  0.00000000000E+00 0.  1.
         11    1    3    3    0    0  0.23877107465E+02 -0.41003821048E+01  0.67562910358E+01  0.25151080755E+02  0.51100000000E-03 0. -1.
        -11    1    3    3    0    0  0.28778132418E+01  0.63985392156E+00  0.78580436759E+01  0.83928584385E+01  0.51100000000E-03 0.  1.
        -12    1    3    3    0    0  0.95817483192E+01 -0.12649847454E+02 -0.60546701365E+01  0.16984921899E+02  0.00000000000E+00 0.  1.
</event>
<event>
 7    1  0.3129575E-011  0.5052886E+02  0.7816164E-02  0.1300439E+00
        -11   -1    0    0    0    0  0.00000000000E+00  0.00000000000E+00  0.45593999997E+02  0.45594000000E+02  0.51100000000E-03 0.  1.
         11   -1    0    0    0    0 -0.00000000000E+00 -0.00000000000E+00 -0.45593999997E+02  0.45594000000E+02  0.51100000000E-03 0. -1.
    9900012    2    1    2    0    0 -0.10496202211E+02  0.15216650943E+01 -0.39251496177E+02  0.50528859851E+02  0.30000000002E+02 0.  0.
        -12    1    1    2    0    0  0.10496202211E+02 -0.15216650943E+01  0.39251496177E+02  0.40659140149E+02  0.00000000000E+00 0.  1.
         11    1    3    3    0    0  0.48256327443E+01  0.61231149100E+01 -0.10046997704E+02  0.12716974118E+02  0.51100000000E-03 0. -1.
        -11    1    3    3    0    0 -0.49002862297E+01 -0.58195888624E+01 -0.25617274254E+02  0.26723120329E+02  0.51100000000E-03 0.  1.
        -12    1    3    3    0    0 -0.10421548726E+02  0.12181390467E+01 -0.35872242191E+01  0.11088765404E+02  0.00000000000E+00 0.  1.
</event>
<event>
 7    1  0.3129575E-011  0.5052883E+02  0.7816164E-02  0.1300439E+00
        -11   -1    0    0    0    0  0.00000000000E+00  0.00000000000E+00  0.45593999997E+02  0.45594000000E+02  0.51100000000E-03 0. -1.
         11   -1    0    0    0    0 -0.00000000000E+00 -0.00000000000E+00 -0.45593999997E+02  0.45594000000E+02  0.51100000000E-03 0.  1.
    9900012    2    1    2    0    0  0.76577248509E+01  0.29471602792E+02  0.26943496198E+02  0.50528829960E+02  0.29999909145E+02 0.  0.
        -12    1    1    2    0    0 -0.76577248509E+01 -0.29471602792E+02 -0.26943496198E+02  0.40659170040E+02  0.00000000000E+00 0.  1.
         11    1    3    3    0    0  0.10430907590E+02  0.42174927991E+01  0.10439863229E+02  0.15348674964E+02  0.51100000000E-03 0. -1.
        -11    1    3    3    0    0  0.43177677443E+01  0.23295265154E+02  0.12047169291E+02  0.26579066670E+02  0.51100000000E-03 0.  1.
        -12    1    3    3    0    0 -0.70909504835E+01  0.19588448388E+01  0.44564636786E+01  0.86010883253E+01  0.00000000000E+00 0.  1.
</event>
<event>
 7    1  0.3129575E-011  0.5052886E+02  0.7816164E-02  0.1300439E+00
        -11   -1    0    0    0    0  0.00000000000E+00  0.00000000000E+00  0.45593999997E+02  0.45594000000E+02  0.51100000000E-03 0. -1.
         11   -1    0    0    0    0 -0.00000000000E+00 -0.00000000000E+00 -0.45593999997E+02  0.45594000000E+02  0.51100000000E-03 0.  1.
    9900012    2    1    2    0    0  0.46693000746E+01  0.13006620466E+02  0.38238612467E+02  0.50528855610E+02  0.29999987111E+02 0.  0.
        -12    1    1    2    0    0 -0.46693000746E+01 -0.13006620466E+02 -0.38238612467E+02  0.40659144390E+02  0.00000000000E+00 0.  1.
         11    1    3    3    0    0 -0.17931846163E+01  0.15159973409E+01 -0.21762691007E+01  0.32015475110E+01  0.51100000000E-03 0. -1.
        -11    1    3    3    0    0  0.46523898675E+01  0.17231701397E+02  0.24500965815E+02  0.30312927781E+02  0.51100000000E-03 0.  1.
         12    1    3    3    0    0  0.18100948234E+01 -0.57410782723E+01  0.15913915753E+02  0.17014380317E+02  0.00000000000E+00 0. -1.
</event>
<event>
 7    1  0.3129575E-011  0.5052885E+02  0.7816164E-02  0.1300439E+00
        -11   -1    0    0    0    0  0.00000000000E+00  0.00000000000E+00  0.45593999997E+02  0.45594000000E+02  0.51100000000E-03 0.  1.
         11   -1    0    0    0    0 -0.00000000000E+00 -0.00000000000E+00 -0.45593999997E+02  0.45594000000E+02  0.51100000000E-03 0. -1.
    9900012    2    1    2    0    0 -0.70740658909E+01 -0.34327971332E+02 -0.20608609210E+02  0.50528846079E+02  0.29999958141E+02 0.  0.
        -12    1    1    2    0    0  0.70740658909E+01  0.34327971332E+02  0.20608609210E+02  0.40659153921E+02  0.00000000000E+00 0.  1.
         11    1    3    3    0    0  0.51753662557E+01 -0.24232176868E+02 -0.82004489095E+01  0.26100386477E+02  0.51100000000E-03 0. -1.
        -11    1    3    3    0    0 -0.66315454924E+01 -0.12239684215E+02 -0.12038323608E+02  0.18404034907E+02  0.51100000000E-03 0.  1.
        -12    1    3    3    0    0 -0.56178866542E+01  0.21438897512E+01 -0.36983669268E+00  0.60244246948E+01  0.00000000000E+00 0.  1.
</event>
<event>
 7    1  0.3129575E-011  0.5052883E+02  0.7816164E-02  0.1300439E+00
        -11   -1    0    0    0    0  0.00000000000E+00  0.00000000000E+00  0.45593999997E+02  0.45594000000E+02  0.51100000000E-03 0.  1.
         11   -1    0    0    0    0 -0.00000000000E+00 -0.00000000000E+00 -0.45593999997E+02  0.45594000000E+02  0.51100000000E-03 0. -1.
    9900012    2    1    2    0    0  0.38446636491E+02  0.13012193608E+02  0.23889983646E+01  0.50528826950E+02  0.29999899996E+02 0.  0.
        -12    1    1    2    0    0 -0.38446636491E+02 -0.13012193608E+02 -0.23889983646E+01  0.40659173050E+02  0.00000000000E+00 0.  1.
         11    1    3    3    0    0  0.73379904497E+01  0.38859433214E+01 -0.72299364410E+01  0.11009933721E+02  0.51100000000E-03 0.  1.
        -11    1    3    3    0    0  0.32205507962E+02  0.35666269708E+01  0.97914055084E+01  0.33849478476E+02  0.51100000000E-03 0. -1.
         12    1    3    3    0    0 -0.10968619210E+01  0.55596233163E+01 -0.17247070288E+00  0.56694147525E+01  0.00000000000E+00 0. -1.
</event>
<event>
 7    1  0.3129575E-011  0.5052886E+02  0.7816164E-02  0.1300439E+00
        -11   -1    0    0    0    0  0.00000000000E+00  0.00000000000E+00  0.45593999997E+02  0.45594000000E+02  0.51100000000E-03 0.  1.
         11   -1    0    0    0    0 -0.00000000000E+00 -0.00000000000E+00 -0.45593999997E+02  0.45594000000E+02  0.51100000000E-03 0. -1.
    9900012    2    1    2    0    0  0.30510587451E+02  0.13250450199E+02 -0.23381519849E+02  0.50528857762E+02  0.29999993653E+02 0.  0.
        -12    1    1    2    0    0 -0.30510587451E+02 -0.13250450199E+02  0.23381519849E+02  0.40659142238E+02  0.00000000000E+00 0.  1.
         11    1    3    3    0    0  0.75737504466E+01 -0.47937352615E+01  0.26040256646E+00  0.89671290469E+01  0.51100000000E-03 0.  1.
        -11    1    3    3    0    0  0.23079075827E+02  0.89263363735E+01 -0.14658195765E+02  0.28760840138E+02  0.51100000000E-03 0. -1.
         12    1    3    3    0    0 -0.14223882209E+00  0.91178490867E+01 -0.89837266501E+01  0.12800888578E+02  0.00000000000E+00 0. -1.
</event>
<event>
 7    1  0.3129575E-011  0.5052886E+02  0.7816164E-02  0.1300439E+00
        -11   -1    0    0    0    0  0.00000000000E+00  0.00000000000E+00  0.45593999997E+02  0.45594000000E+02  0.51100000000E-03 0.  1.
         11   -1    0    0    0    0 -0.00000000000E+00 -0.00000000000E+00 -0.45593999997E+02  0.45594000000E+02  0.51100000000E-03 0. -1.
    9900012    2    1    2    0    0 -0.41230316621E+01 -0.27458379761E+02 -0.29701915386E+02  0.50528858509E+02  0.29999995923E+02 0.  0.
        -12    1    1    2    0    0  0.41230316621E+01  0.27458379761E+02  0.29701915386E+02  0.40659141491E+02  0.00000000000E+00 0.  1.
         11    1    3    3    0    0 -0.37142847732E+01 -0.10395045672E+01  0.24331960799E+01  0.45603645190E+01  0.51100000000E-03 0. -1.
        -11    1    3    3    0    0  0.23451400529E+01 -0.24350679795E+02 -0.15454570969E+02  0.28936120204E+02  0.51100000000E-03 0.  1.
         12    1    3    3    0    0 -0.27538869418E+01 -0.20681953990E+01 -0.16680540497E+02  0.17032373786E+02  0.00000000000E+00 0. -1.
</event>
<event>
 7    1  0.3129575E-011  0.5052887E+02  0.7816164E-02  0.1300439E+00
        -11   -1    0    0    0    0  0.00000000000E+00  0.00000000000E+00  0.45593999997E+02  0.45594000000E+02  0.51100000000E-03 0. -1.
         11   -1    0    0    0    0 -0.00000000000E+00 -0.00000000000E+00 -0.45593999997E+02  0.45594000000E+02  0.51100000000E-03 0.  1.
    9900012    2    1    2    0    0 -0.35401890953E+02  0.18094666999E+02  0.85120077434E+01  0.50528866553E+02  0.30000020374E+02 0.  0.
        -12    1    1    2    0    0  0.35401890953E+02 -0.18094666999E+02 -0.85120077434E+01  0.40659133447E+02  0.00000000000E+00 0.  1.
         11    1    3    3    0    0  0.39653166701E+01  0.23455751465E+01  0.54798611875E+01  0.71592135013E+01  0.51100000000E-03 0. -1.
        -11    1    3    3    0    0 -0.44886708188E+01 -0.91630624156E+00 -0.14734901582E+00  0.45836115500E+01  0.51100000000E-03 0.  1.
        -12    1    3    3    0    0 -0.34878536804E+02  0.16665398094E+02  0.31794955717E+01  0.38786041501E+02  0.00000000000E+00 0.  1.
</event>
<event>
 7    1  0.3129575E-011  0.5052887E+02  0.7816164E-02  0.1300439E+00
        -11   -1    0    0    0    0  0.00000000000E+00  0.00000000000E+00  0.45593999997E+02  0.45594000000E+02  0.51100000000E-03 0. -1.
         11   -1    0    0    0    0 -0.00000000000E+00 -0.00000000000E+00 -0.45593999997E+02  0.45594000000E+02  0.51100000000E-03 0.  1.
    9900012    2    1    2    0    0  0.20458161377E+02  0.25699489224E+02  0.23961743324E+02  0.50528865031E+02  0.30000015747E+02 0.  0.
        -12    1    1    2    0    0 -0.20458161377E+02 -0.25699489224E+02 -0.23961743324E+02  0.40659134969E+02  0.00000000000E+00 0.  1.
         11    1    3    3    0    0  0.78232894160E+01  0.94038660256E+01  0.15061585156E+02  0.19403296142E+02  0.51100000000E-03 0. -1.
        -11    1    3    3    0    0  0.15782254695E+02  0.17424127713E+02  0.21680940712E+01  0.23608905565E+02  0.51100000000E-03 0.  1.
        -12    1    3    3    0    0 -0.31473827340E+01 -0.11285045141E+01  0.67320640967E+01  0.75166633232E+01  0.00000000000E+00 0.  1.
</event>
<event>
 7    1  0.3129575E-011  0.5052884E+02  0.7816164E-02  0.1300439E+00
        -11   -1    0    0    0    0  0.00000000000E+00  0.00000000000E+00  0.45593999997E+02  0.45594000000E+02  0.51100000000E-03 0.  1.
         11   -1    0    0    0    0 -0.00000000000E+00 -0.00000000000E+00 -0.45593999997E+02  0.45594000000E+02  0.51100000000E-03 0. -1.
    9900012    2    1    2    0    0 -0.32178657543E+02  0.81500078182E+01 -0.23479332749E+02  0.50528835043E+02  0.29999924595E+02 0.  0.
        -12    1    1    2    0    0  0.32178657543E+02 -0.81500078182E+01  0.23479332749E+02  0.40659164957E+02  0.00000000000E+00 0.  1.
         11    1    3    3    0    0  0.12735398273E+00  0.74945727740E+00  0.35680671558E+01  0.36481514137E+01  0.51100000000E-03 0. -1.
        -11    1    3    3    0    0 -0.70782781850E+01  0.77952987918E+01 -0.16413387250E+02  0.19500461190E+02  0.51100000000E-03 0.  1.
         12    1    3    3    0    0 -0.25227733341E+02 -0.39474825098E+00 -0.10634012654E+02  0.27380222439E+02  0.00000000000E+00 0. -1.
</event>
<event>
 7    1  0.3129575E-011  0.5052883E+02  0.7816164E-02  0.1300439E+00
        -11   -1    0    0    0    0  0.00000000000E+00  0.00000000000E+00  0.45593999997E+02  0.45594000000E+02  0.51100000000E-03 0. -1.
         11   -1    0    0    0    0 -0.00000000000E+00 -0.00000000000E+00 -0.45593999997E+02  0.45594000000E+02  0.51100000000E-03 0.  1.
    9900012    2    1    2    0    0  0.48852219616E+01 -0.21582867827E+02  0.34109855993E+02  0.50528833099E+02  0.29999918688E+02 0.  0.
        -12    1    1    2    0    0 -0.48852219616E+01  0.21582867827E+02 -0.34109855993E+02  0.40659166901E+02  0.00000000000E+00 0.  1.
         11    1    3    3    0    0  0.25246061031E+01  0.52983088370E+00  0.39595913782E+01  0.47257508276E+01  0.51100000000E-03 0.  1.
        -11    1    3    3    0    0 -0.48025397552E+01 -0.13907024632E+02  0.10722643543E+01  0.14751931173E+02  0.51100000000E-03 0. -1.
         12    1    3    3    0    0  0.71631556138E+01 -0.82056740779E+01  0.29078000260E+02  0.31051151099E+02  0.00000000000E+00 0. -1.
</event>
<event>
 7    1  0.3129575E-011  0.5052888E+02  0.7816164E-02  0.1300439E+00
        -11   -1    0    0    0    0  0.00000000000E+00  0.00000000000E+00  0.45593999997E+02  0.45594000000E+02  0.51100000000E-03 0. -1.
         11   -1    0    0    0    0 -0.00000000000E+00 -0.00000000000E+00 -0.45593999997E+02  0.45594000000E+02  0.51100000000E-03 0.  1.
    9900012    2    1    2    0    0 -0.15705751781E+02 -0.20057057620E+02  0.31689236344E+02  0.50528881718E+02  0.30000066471E+02 0.  0.
        -12    1    1    2    0    0  0.15705751781E+02  0.20057057620E+02 -0.31689236344E+02  0.40659118282E+02  0.00000000000E+00 0.  1.
         11    1    3    3    0    0 -0.76056325680E+01  0.27780338622E+01  0.70684803394E+01  0.10748327008E+02  0.51100000000E-03 0. -1.
        -11    1    3    3    0    0  0.55071914332E+01 -0.10950845436E+02  0.53769470325E+01  0.13385131038E+02  0.51100000000E-03 0.  1.
         12    1    3    3    0    0 -0.13607310646E+02 -0.11884246046E+02  0.19243808972E+02  0.26395423672E+02  0.00000000000E+00 0. -1.
</event>
<event>
 7    1  0.3129575E-011  0.5052891E+02  0.7816164E-02  0.1300439E+00
        -11   -1    0    0    0    0  0.00000000000E+00  0.00000000000E+00  0.45593999997E+02  0.45594000000E+02  0.51100000000E-03 0.  1.
         11   -1    0    0    0    0 -0.00000000000E+00 -0.00000000000E+00 -0.45593999997E+02  0.45594000000E+02  0.51100000000E-03 0. -1.
    9900012    2    1    2    0    0  0.13720835080E+02  0.24006344708E+02 -0.29809320512E+02  0.50528911337E+02  0.30000156500E+02 0.  0.
        -12    1    1    2    0    0 -0.13720835080E+02 -0.24006344708E+02  0.29809320512E+02  0.40659088663E+02  0.00000000000E+00 0.  1.
         11    1    3    3    0    0 -0.99506269484E+00  0.17230866223E+02 -0.15878266196E+02  0.23452339717E+02  0.51100000000E-03 0. -1.
        -11    1    3    3    0    0  0.15913720326E+01  0.46181151174E+01  0.28565510940E+01  0.56585631213E+01  0.51100000000E-03 0.  1.
         12    1    3    3    0    0  0.13124525742E+02  0.21573633677E+01 -0.16787605410E+02  0.21418008499E+02  0.00000000000E+00 0. -1.
</event>
<event>
 7    1  0.3129575E-011  0.5052885E+02  0.7816164E-02  0.1300439E+00
        -11   -1    0    0    0    0  0.00000000000E+00  0.00000000000E+00  0.45593999997E+02  0.45594000000E+02  0.51100000000E-03 0.  1.
         11   -1    0    0    0    0 -0.00000000000E+00 -0.00000000000E+00 -0.45593999997E+02  0.45594000000E+02  0.51100000000E-03 0. -1.
    9900012    2    1    2    0    0  0.37100131696E+02  0.81393518214E+01 -0.14508537761E+02  0.50528849887E+02  0.29999969718E+02 0.  0.
        -12    1    1    2    0    0 -0.37100131696E+02 -0.81393518214E+01  0.14508537761E+02  0.40659150113E+02  0.00000000000E+00 0.  1.
         11    1    3    3    0    0  0.15240498159E+02  0.10241531697E+02 -0.11095183765E+02  0.21453784251E+02  0.51100000000E-03 0. -1.
        -11    1    3    3    0    0  0.67922571248E+01  0.77662207849E+01  0.14495163120E+01  0.10418735045E+02  0.51100000000E-03 0.  1.
         12    1    3    3    0    0  0.15067376411E+02 -0.98684006604E+01 -0.48628703080E+01  0.18656330592E+02  0.00000000000E+00 0. -1.
</event>
<event>
 7    1  0.3129575E-011  0.5052886E+02  0.7816164E-02  0.1300439E+00
        -11   -1    0    0    0    0  0.00000000000E+00  0.00000000000E+00  0.45593999997E+02  0.45594000000E+02  0.51100000000E-03 0.  1.
         11   -1    0    0    0    0 -0.00000000000E+00 -0.00000000000E+00 -0.45593999997E+02  0.45594000000E+02  0.51100000000E-03 0. -1.
    9900012    2    1    2    0    0  0.39012115022E+02  0.76893024546E+01 -0.84908906660E+01  0.50528859392E+02  0.29999998607E+02 0.  0.
        -12    1    1    2    0    0 -0.39012115022E+02 -0.76893024546E+01  0.84908906660E+01  0.40659140608E+02  0.00000000000E+00 0.  1.
         11    1    3    3    0    0  0.26648163384E+02  0.52315531111E+00 -0.75231662094E+01  0.27694698650E+02  0.51100000000E-03 0. -1.
        -11    1    3    3    0    0  0.14028701322E+02  0.34904838732E+01  0.52852635219E+01  0.15392269138E+02  0.51100000000E-03 0.  1.
        -12    1    3    3    0    0 -0.16647496848E+01  0.36756632702E+01 -0.62529879785E+01  0.74418916041E+01  0.00000000000E+00 0.  1.
</event>
<event>
 7    1  0.3129575E-011  0.5052887E+02  0.7816164E-02  0.1300439E+00
        -11   -1    0    0    0    0  0.00000000000E+00  0.00000000000E+00  0.45593999997E+02  0.45594000000E+02  0.51100000000E-03 0.  1.
         11   -1    0    0    0    0 -0.00000000000E+00 -0.00000000000E+00 -0.45593999997E+02  0.45594000000E+02  0.51100000000E-03 0. -1.
    9900012    2    1    2    0    0 -0.36255216526E+02 -0.10802798507E+02  0.14900457880E+02  0.50528870324E+02  0.30000031838E+02 0.  0.
        -12    1    1    2    0    0  0.36255216526E+02  0.10802798507E+02 -0.14900457880E+02  0.40659129676E+02  0.00000000000E+00 0.  1.
         11    1    3    3    0    0 -0.23531032962E+02 -0.10636179921E+02  0.91889502402E+01  0.27409389675E+02  0.51100000000E-03 0. -1.
        -11    1    3    3    0    0 -0.15570907333E+02  0.50670349088E+00 -0.11890796544E+01  0.15624462048E+02  0.51100000000E-03 0.  1.
        -12    1    3    3    0    0  0.28467237689E+01 -0.67332207747E+00  0.69005872938E+01  0.74950186015E+01  0.00000000000E+00 0.  1.
</event>
<event>
 7    1  0.4006387E-011  0.5052886E+02  0.7816164E-02  0.1300439E+00
        -11   -1    0    0    0    0  0.00000000000E+00  0.00000000000E+00  0.45593999997E+02  0.45594000000E+02  0.51100000000E-03 0. -1.
         11   -1    0    0    0    0 -0.00000000000E+00 -0.00000000000E+00 -0.45593999997E+02  0.45594000000E+02  0.51100000000E-03 0.  1.
    9900012    2    1    2    0    0  0.10027946229E+01 -0.28653821547E+02  0.28829130189E+02  0.50528857931E+02  0.29999994168E+02 0.  0.
        -12    1    1    2    0    0 -0.10027946229E+01  0.28653821547E+02 -0.28829130189E+02  0.40659142069E+02  0.00000000000E+00 0.  1.
         11    1    3    3    0    0 -0.60497923050E+01 -0.38593725777E+01  0.75736911198E+01  0.10433385887E+02  0.51100000000E-03 0. -1.
        -11    1    3    3    0    0  0.30667436789E+01 -0.34072237997E+01 -0.44710365199E+01  0.64034567725E+01  0.51100000000E-03 0.  1.
         12    1    3    3    0    0  0.39858432490E+01 -0.21387225170E+02  0.25726475589E+02  0.33692015272E+02  0.00000000000E+00 0. -1.
</event>
<event>
 7    1  0.3129575E-011  0.5052886E+02  0.7816164E-02  0.1300439E+00
        -11   -1    0    0    0    0  0.00000000000E+00  0.00000000000E+00  0.45593999997E+02  0.45594000000E+02  0.51100000000E-03 0.  1.
         11   -1    0    0    0    0 -0.00000000000E+00 -0.00000000000E+00 -0.45593999997E+02  0.45594000000E+02  0.51100000000E-03 0. -1.
    9900012    2    1    2    0    0 -0.38519538009E+02  0.33231663937E+01 -0.12584409638E+02  0.50528860693E+02  0.30000002561E+02 0.  0.
        -12    1    1    2    0    0  0.38519538009E+02 -0.33231663937E+01  0.12584409638E+02  0.40659139307E+02  0.00000000000E+00 0.  1.
         11    1    3    3    0    0 -0.33990582650E+02  0.10422958802E+01 -0.14296957652E+02  0.36889688098E+02  0.51100000000E-03 0. -1.
        -11    1    3    3    0    0  0.17091037516E+01  0.73215325924E+00 -0.43953716398E+01  0.47724601770E+01  0.51100000000E-03 0.  1.
        -12    1    3    3    0    0 -0.62380591107E+01  0.15487172543E+01  0.61079196540E+01  0.88667124179E+01  0.00000000000E+00 0.  1.
</event>
<event>
 7    1  0.3129575E-011  0.5052886E+02  0.7816164E-02  0.1300439E+00
        -11   -1    0    0    0    0  0.00000000000E+00  0.00000000000E+00  0.45593999997E+02  0.45594000000E+02  0.51100000000E-03 0.  1.
         11   -1    0    0    0    0 -0.00000000000E+00 -0.00000000000E+00 -0.45593999997E+02  0.45594000000E+02  0.51100000000E-03 0. -1.
    9900012    2    1    2    0    0  0.12026954885E+02  0.37106553627E+02  0.11472639738E+02  0.50528862915E+02  0.30000009318E+02 0.  0.
        -12    1    1    2    0    0 -0.12026954885E+02 -0.37106553627E+02 -0.11472639738E+02  0.40659137085E+02  0.00000000000E+00 0.  1.
         11    1    3    3    0    0  0.61181399389E+01  0.16213735156E+02 -0.89052400628E+01  0.19483843175E+02  0.51100000000E-03 0. -1.
        -11    1    3    3    0    0 -0.11523750815E+00  0.21637656448E+01  0.68094172286E+01  0.71458606692E+01  0.51100000000E-03 0.  1.
        -12    1    3    3    0    0  0.60240524546E+01  0.18729052827E+02  0.13568462572E+02  0.23899159071E+02  0.00000000000E+00 0.  1.
</event>
<event>
 7    1  0.3129575E-011  0.5052886E+02  0.7816164E-02  0.1300439E+00
        -11   -1    0    0    0    0  0.00000000000E+00  0.00000000000E+00  0.45593999997E+02  0.45594000000E+02  0.51100000000E-03 0.  1.
         11   -1    0    0    0    0 -0.00000000000E+00 -0.00000000000E+00 -0.45593999997E+02  0.45594000000E+02  0.51100000000E-03 0. -1.
    9900012    2    1    2    0    0 -0.29427172748E+02 -0.14845254503E+02 -0.23808094435E+02  0.50528862800E+02  0.30000008967E+02 0.  0.
        -12    1    1    2    0    0  0.29427172748E+02  0.14845254503E+02  0.23808094435E+02  0.40659137200E+02  0.00000000000E+00 0.  1.
         11    1    3    3    0    0  0.22872476794E+01 -0.72871189706E+00 -0.99708805898E-01  0.24025954888E+01  0.51100000000E-03 0. -1.
        -11    1    3    3    0    0 -0.16025535828E+02 -0.16806547626E+02 -0.53550778946E+01  0.23831800209E+02  0.51100000000E-03 0.  1.
         12    1    3    3    0    0 -0.15688884599E+02  0.26900050195E+01 -0.18353307735E+02  0.24294467102E+02  0.00000000000E+00 0. -1.
</event>
<event>
 7    1  0.3129575E-011  0.5052888E+02  0.7816164E-02  0.1300439E+00
        -11   -1    0    0    0    0  0.00000000000E+00  0.00000000000E+00  0.45593999997E+02  0.45594000000E+02  0.51100000000E-03 0. -1.
         11   -1    0    0    0    0 -0.00000000000E+00 -0.00000000000E+00 -0.45593999997E+02  0.45594000000E+02  0.51100000000E-03 0.  1.
    9900012    2    1    2    0    0  0.40390463956E+02 -0.45899742358E+01 -0.84079599892E+00  0.50528875809E+02  0.30000048509E+02 0.  0.
        -12    1    1    2    0    0 -0.40390463956E+02  0.45899742358E+01  0.84079599892E+00  0.40659124191E+02  0.00000000000E+00 0.  1.
         11    1    3    3    0    0 -0.17199274588E+01 -0.13474164897E+01 -0.11171776835E-02  0.21848760078E+01  0.51100000000E-03 0. -1.
        -11    1    3    3    0    0  0.12285704425E+02  0.64039984996E+01  0.77067930610E+01  0.15853844630E+02  0.51100000000E-03 0.  1.
         12    1    3    3    0    0  0.29824686990E+02 -0.96465562457E+01 -0.85464718822E+01  0.32490155171E+02  0.00000000000E+00 0. -1.
</event>
<event>
 7    1  0.3129575E-011  0.5052886E+02  0.7816164E-02  0.1300439E+00
        -11   -1    0    0    0    0  0.00000000000E+00  0.00000000000E+00  0.45593999997E+02  0.45594000000E+02  0.51100000000E-03 0.  1.
         11   -1    0    0    0    0 -0.00000000000E+00 -0.00000000000E+00 -0.45593999997E+02  0.45594000000E+02  0.51100000000E-03 0. -1.
    9900012    2    1    2    0    0 -0.94049951466E+01  0.17553132893E+02 -0.35448542731E+02  0.50528860931E+02  0.30000003286E+02 0.  0.
        -12    1    1    2    0    0  0.94049951466E+01 -0.17553132893E+02  0.35448542731E+02  0.40659139069E+02  0.00000000000E+00 0.  1.
         11    1    3    3    0    0 -0.50509552297E+01  0.96372448859E+01 -0.23151199788E+02  0.25580592049E+02  0.51100000000E-03 0. -1.
        -11    1    3    3    0    0  0.41344828907E+01 -0.42796722922E+01 -0.69667011011E+01  0.91621213807E+01  0.51100000000E-03 0.  1.
        -12    1    3    3    0    0 -0.84885228076E+01  0.12195560300E+02 -0.53306418418E+01  0.15786147501E+02  0.00000000000E+00 0.  1.
</event>
<event>
 7    1  0.3129575E-011  0.5052886E+02  0.7816164E-02  0.1300439E+00
        -11   -1    0    0    0    0  0.00000000000E+00  0.00000000000E+00  0.45593999997E+02  0.45594000000E+02  0.51100000000E-03 0.  1.
         11   -1    0    0    0    0 -0.00000000000E+00 -0.00000000000E+00 -0.45593999997E+02  0.45594000000E+02  0.51100000000E-03 0. -1.
    9900012    2    1    2    0    0 -0.37287297559E+02 -0.15405255769E+02 -0.50498498449E+01  0.50528862675E+02  0.30000008587E+02 0.  0.
        -12    1    1    2    0    0  0.37287297559E+02  0.15405255769E+02  0.50498498449E+01  0.40659137325E+02  0.00000000000E+00 0.  1.
         11    1    3    3    0    0 -0.21184638036E+02  0.38270064657E+01 -0.46383828938E+01  0.22021568140E+02  0.51100000000E-03 0. -1.
        -11    1    3    3    0    0 -0.15857941762E+02 -0.94866905247E+01  0.16179795385E+01  0.18549648840E+02  0.51100000000E-03 0.  1.
        -12    1    3    3    0    0 -0.24471776088E+00 -0.97455717102E+01 -0.20294464896E+01  0.99576456955E+01  0.00000000000E+00 0.  1.
</event>
<event>
 7    1  0.3129575E-011  0.5052886E+02  0.7816164E-02  0.1300439E+00
        -11   -1    0    0    0    0  0.00000000000E+00  0.00000000000E+00  0.45593999997E+02  0.45594000000E+02  0.51100000000E-03 0.  1.
         11   -1    0    0    0    0 -0.00000000000E+00 -0.00000000000E+00 -0.45593999997E+02  0.45594000000E+02  0.51100000000E-03 0. -1.
    9900012    2    1    2    0    0 -0.29629386476E+02  0.19662946669E+02 -0.19713789093E+02  0.50528862097E+02  0.30000006831E+02 0.  0.
        -12    1    1    2    0    0  0.29629386476E+02 -0.19662946669E+02  0.19713789093E+02  0.40659137903E+02  0.00000000000E+00 0.  1.
         11    1    3    3    0    0 -0.68204982554E+01  0.40942872647E+00  0.16394120771E+01  0.70266991221E+01  0.51100000000E-03 0. -1.
        -11    1    3    3    0    0 -0.14267431009E+02 -0.19306391958E+01 -0.12285829062E+02  0.18926926621E+02  0.51100000000E-03 0.  1.
         12    1    3    3    0    0 -0.85414572112E+01  0.21184157138E+02 -0.90673721076E+01  0.24575236354E+02  0.00000000000E+00 0. -1.
</event>
<event>
 7    1  0.4520428E-011  0.5052886E+02  0.7816164E-02  0.1300439E+00
        -11   -1    0    0    0    0  0.00000000000E+00  0.00000000000E+00  0.45593999997E+02  0.45594000000E+02  0.51100000000E-03 0. -1.
         11   -1    0    0    0    0 -0.00000000000E+00 -0.00000000000E+00 -0.45593999997E+02  0.45594000000E+02  0.51100000000E-03 0.  1.
    9900012    2    1    2    0    0 -0.27010253118E+02 -0.21821393561E+01  0.30312536701E+02  0.50528863426E+02  0.30000010870E+02 0.  0.
        -12    1    1    2    0    0  0.27010253118E+02  0.21821393561E+01 -0.30312536701E+02  0.40659136574E+02  0.00000000000E+00 0.  1.
         11    1    3    3    0    0 -0.15549825814E+02 -0.48341423574E+01  0.12620286103E+02  0.20601884301E+02  0.51100000000E-03 0. -1.
        -11    1    3    3    0    0  0.33478086726E+01 -0.46745246452E+01  0.40844267293E-01  0.57498410484E+01  0.51100000000E-03 0.  1.
         12    1    3    3    0    0 -0.14808235977E+02  0.73265276465E+01  0.17651406331E+02  0.24177138076E+02  0.00000000000E+00 0. -1.
</event>
<event>
 7    1  0.3129575E-011  0.5052886E+02  0.7816164E-02  0.1300439E+00
        -11   -1    0    0    0    0  0.00000000000E+00  0.00000000000E+00  0.45593999997E+02  0.45594000000E+02  0.51100000000E-03 0. -1.
         11   -1    0    0    0    0 -0.00000000000E+00 -0.00000000000E+00 -0.45593999997E+02  0.45594000000E+02  0.51100000000E-03 0.  1.
    9900012    2    1    2    0    0 -0.28301382374E+02  0.69777816705E+00  0.29184078582E+02  0.50528861036E+02  0.30000003604E+02 0.  0.
        -12    1    1    2    0    0  0.28301382374E+02 -0.69777816705E+00 -0.29184078582E+02  0.40659138964E+02  0.00000000000E+00 0.  1.
         11    1    3    3    0    0 -0.15209900928E+02 -0.12470747379E+01  0.92230265169E+01  0.17831446941E+02  0.51100000000E-03 0. -1.
        -11    1    3    3    0    0 -0.54582921222E+01 -0.62262506078E+01  0.19858055209E+02  0.21515145978E+02  0.51100000000E-03 0.  1.
        -12    1    3    3    0    0 -0.76331893240E+01  0.81711035128E+01  0.10299685674E+00  0.11182268116E+02  0.00000000000E+00 0.  1.
</event>
<event>
 7    1  0.3129575E-011  0.5052886E+02  0.7816164E-02  0.1300439E+00
        -11   -1    0    0    0    0  0.00000000000E+00  0.00000000000E+00  0.45593999997E+02  0.45594000000E+02  0.51100000000E-03 0.  1.
         11   -1    0    0    0    0 -0.00000000000E+00 -0.00000000000E+00 -0.45593999997E+02  0.45594000000E+02  0.51100000000E-03 0. -1.
    9900012    2    1    2    0    0  0.53459739715E+01 -0.40295662167E+02  0.91974444121E+00  0.50528858875E+02  0.29999997037E+02 0.  0.
        -12    1    1    2    0    0 -0.53459739715E+01  0.40295662167E+02 -0.91974444121E+00  0.40659141125E+02  0.00000000000E+00 0.  1.
         11    1    3    3    0    0 -0.23911618049E+01 -0.13689902222E+02 -0.10965147247E+00  0.13897593365E+02  0.51100000000E-03 0. -1.
        -11    1    3    3    0    0 -0.19797778676E+01 -0.44489457855E+01  0.97624199269E+01  0.10909513376E+02  0.51100000000E-03 0.  1.
         12    1    3    3    0    0  0.97169136439E+01 -0.22156814159E+02 -0.87330240132E+01  0.25721752134E+02  0.00000000000E+00 0. -1.
</event>
<event>
 7    1  0.3129575E-011  0.5052884E+02  0.7816164E-02  0.1300439E+00
        -11   -1    0    0    0    0  0.00000000000E+00  0.00000000000E+00  0.45593999997E+02  0.45594000000E+02  0.51100000000E-03 0. -1.
         11   -1    0    0    0    0 -0.00000000000E+00 -0.00000000000E+00 -0.45593999997E+02  0.45594000000E+02  0.51100000000E-03 0.  1.
    9900012    2    1    2    0    0  0.15344805137E+02  0.34281344195E+02 -0.15572210821E+02  0.50528839232E+02  0.29999937331E+02 0.  0.
        -12    1    1    2    0    0 -0.15344805137E+02 -0.34281344195E+02  0.15572210821E+02  0.40659160768E+02  0.00000000000E+00 0.  1.
         11    1    3    3    0    0  0.16811028709E+02  0.21931179395E+02  0.87892594058E+00  0.27647058197E+02  0.51100000000E-03 0. -1.
        -11    1    3    3    0    0  0.28816338251E+01  0.23701410799E+01 -0.88508290011E+01  0.96051317799E+01  0.51100000000E-03 0.  1.
        -12    1    3    3    0    0 -0.43478573970E+01  0.99800237202E+01 -0.76003077605E+01  0.13276649256E+02  0.00000000000E+00 0.  1.
</event>
<event>
 7    1  0.3129575E-011  0.5052890E+02  0.7816164E-02  0.1300439E+00
        -11   -1    0    0    0    0  0.00000000000E+00  0.00000000000E+00  0.45593999997E+02  0.45594000000E+02  0.51100000000E-03 0. -1.
         11   -1    0    0    0    0 -0.00000000000E+00 -0.00000000000E+00 -0.45593999997E+02  0.45594000000E+02  0.51100000000E-03 0.  1.
    9900012    2    1    2    0    0 -0.32807909224E+02 -0.20073102133E+02  0.13186146217E+02  0.50528895374E+02  0.30000107979E+02 0.  0.
        -12    1    1    2    0    0  0.32807909224E+02  0.20073102133E+02 -0.13186146217E+02  0.40659104626E+02  0.00000000000E+00 0.  1.
         11    1    3    3    0    0 -0.74405785868E+01 -0.72600738000E+01  0.24273875654E+01  0.10675349734E+02  0.51100000000E-03 0. -1.
        -11    1    3    3    0    0 -0.20120733162E+02 -0.44790684856E+01  0.18209700188E+02  0.27504529421E+02  0.51100000000E-03 0.  1.
        -12    1    3    3    0    0 -0.52465974757E+01 -0.83339598475E+01 -0.74509415361E+01  0.12349016219E+02  0.00000000000E+00 0.  1.
</event>
<event>
 7    1  0.3129575E-011  0.5052886E+02  0.7816164E-02  0.1300439E+00
        -11   -1    0    0    0    0  0.00000000000E+00  0.00000000000E+00  0.45593999997E+02  0.45594000000E+02  0.51100000000E-03 0. -1.
         11   -1    0    0    0    0 -0.00000000000E+00 -0.00000000000E+00 -0.45593999997E+02  0.45594000000E+02  0.51100000000E-03 0.  1.
    9900012    2    1    2    0    0  0.48531762055E+01 -0.34328026581E+02  0.21241448913E+02  0.50528857361E+02  0.29999992433E+02 0.  0.
        -12    1    1    2    0    0 -0.48531762055E+01  0.34328026581E+02 -0.21241448913E+02  0.40659142639E+02  0.00000000000E+00 0.  1.
         11    1    3    3    0    0  0.34282419018E+01 -0.13259474665E+02  0.12090654840E+02  0.18268838103E+02  0.51100000000E-03 0. -1.
        -11    1    3    3    0    0 -0.72822200457E+01 -0.66681337304E+01  0.11623419988E+02  0.15251184502E+02  0.51100000000E-03 0.  1.
        -12    1    3    3    0    0  0.87071543494E+01 -0.14400418186E+02 -0.24726259155E+01  0.17008834755E+02  0.00000000000E+00 0.  1.
</event>
<event>
 7    1  0.3129575E-011  0.5052885E+02  0.7816164E-02  0.1300439E+00
        -11   -1    0    0    0    0  0.00000000000E+00  0.00000000000E+00  0.45593999997E+02  0.45594000000E+02  0.51100000000E-03 0.  1.
         11   -1    0    0    0    0 -0.00000000000E+00 -0.00000000000E+00 -0.45593999997E+02  0.45594000000E+02  0.51100000000E-03 0. -1.
    9900012    2    1    2    0    0 -0.92620598909E+01 -0.11965329986E+02 -0.37738723043E+02  0.50528854755E+02  0.29999984513E+02 0.  0.
        -12    1    1    2    0    0  0.92620598909E+01  0.11965329986E+02  0.37738723043E+02  0.40659145245E+02  0.00000000000E+00 0.  1.
         11    1    3    3    0    0 -0.10654245060E+02 -0.46905087519E+01 -0.46631794681E+01  0.12540297172E+02  0.51100000000E-03 0.  1.
        -11    1    3    3    0    0 -0.24988279762E+01  0.51172771911E+01 -0.98366056392E+01  0.11366154929E+02  0.51100000000E-03 0. -1.
         12    1    3    3    0    0  0.38910131451E+01 -0.12392098426E+02 -0.23238937936E+02  0.26622402654E+02  0.00000000000E+00 0. -1.
</event>
<event>
 7    1  0.3129575E-011  0.5052886E+02  0.7816164E-02  0.1300439E+00
        -11   -1    0    0    0    0  0.00000000000E+00  0.00000000000E+00  0.45593999997E+02  0.45594000000E+02  0.51100000000E-03 0.  1.
         11   -1    0    0    0    0 -0.00000000000E+00 -0.00000000000E+00 -0.45593999997E+02  0.45594000000E+02  0.51100000000E-03 0. -1.
    9900012    2    1    2    0    0 -0.16004620328E+02 -0.28336969090E+02 -0.24372807033E+02  0.50528863121E+02  0.30000009942E+02 0.  0.
        -12    1    1    2    0    0  0.16004620328E+02  0.28336969090E+02  0.24372807033E+02  0.40659136879E+02  0.00000000000E+00 0.  1.
         11    1    3    3    0    0  0.21909854264E+01 -0.64595200318E+01 -0.57799723855E+01  0.89405758885E+01  0.51100000000E-03 0. -1.
        -11    1    3    3    0    0 -0.88642570336E+00 -0.16694439216E+02 -0.16167076153E+01  0.16795945792E+02  0.51100000000E-03 0.  1.
         12    1    3    3    0    0 -0.17309180051E+02 -0.51830098422E+01 -0.16976127032E+02  0.24792341440E+02  0.00000000000E+00 0. -1.
</event>
<event>
 7    1  0.3129575E-011  0.5052886E+02  0.7816164E-02  0.1300439E+00
        -11   -1    0    0    0    0  0.00000000000E+00  0.00000000000E+00  0.45593999997E+02  0.45594000000E+02  0.51100000000E-03 0.  1.
         11   -1    0    0    0    0 -0.00000000000E+00 -0.00000000000E+00 -0.45593999997E+02  0.45594000000E+02  0.51100000000E-03 0. -1.
    9900012    2    1    2    0    0 -0.38239889980E+02 -0.14321969321E+01 -0.13741381494E+02  0.50528856636E+02  0.29999990230E+02 0.  0.
        -12    1    1    2    0    0  0.38239889980E+02  0.14321969321E+01  0.13741381494E+02  0.40659143364E+02  0.00000000000E+00 0.  1.
         11    1    3    3    0    0 -0.11701596561E+01  0.93391513331E+00  0.50412140633E+01  0.52588316754E+01  0.51100000000E-03 0.  1.
        -11    1    3    3    0    0 -0.10801849262E+02 -0.30451590372E+00 -0.15242827256E+02  0.18684658425E+02  0.51100000000E-03 0. -1.
        -12    1    3    3    0    0 -0.26267881062E+02 -0.20615961617E+01 -0.35397683012E+01  0.26585366536E+02  0.00000000000E+00 0.  1.
</event>
<event>
 7    1  0.3129575E-011  0.5052886E+02  0.7816164E-02  0.1300439E+00
        -11   -1    0    0    0    0  0.00000000000E+00  0.00000000000E+00  0.45593999997E+02  0.45594000000E+02  0.51100000000E-03 0.  1.
         11   -1    0    0    0    0 -0.00000000000E+00 -0.00000000000E+00 -0.45593999997E+02  0.45594000000E+02  0.51100000000E-03 0. -1.
    9900012    2    1    2    0    0  0.15954671719E+02  0.20850939713E+02 -0.31045971093E+02  0.50528861326E+02  0.30000004487E+02 0.  0.
        -12    1    1    2    0    0 -0.15954671719E+02 -0.20850939713E+02  0.31045971093E+02  0.40659138674E+02  0.00000000000E+00 0.  1.
         11    1    3    3    0    0  0.72088625444E+01  0.11528089391E+02 -0.99676211283E+01  0.16858766722E+02  0.51100000000E-03 0. -1.
        -11    1    3    3    0    0 -0.40530773366E+01  0.48851988828E+01 -0.18915478104E+02  0.19952140642E+02  0.51100000000E-03 0.  1.
         12    1    3    3    0    0  0.12798886511E+02  0.44376514395E+01 -0.21628718610E+01  0.13717953962E+02  0.00000000000E+00 0. -1.
</event>
<event>
 7    1  0.3129575E-011  0.5052887E+02  0.7816164E-02  0.1300439E+00
        -11   -1    0    0    0    0  0.00000000000E+00  0.00000000000E+00  0.45593999997E+02  0.45594000000E+02  0.51100000000E-03 0.  1.
         11   -1    0    0    0    0 -0.00000000000E+00 -0.00000000000E+00 -0.45593999997E+02  0.45594000000E+02  0.51100000000E-03 0. -1.
    9900012    2    1    2    0    0  0.14503749294E+02 -0.37380848388E+02  0.67437825242E+01  0.50528866063E+02  0.30000018886E+02 0.  0.
        -12    1    1    2    0    0 -0.14503749294E+02  0.37380848388E+02 -0.67437825242E+01  0.40659133937E+02  0.00000000000E+00 0.  1.
         11    1    3    3    0    0  0.18006332653E+02 -0.25077157368E+02  0.76822437879E+01  0.31813655985E+02  0.51100000000E-03 0. -1.
        -11    1    3    3    0    0  0.15072583432E+01 -0.14894178896E+01 -0.55461658967E+01  0.59371836571E+01  0.51100000000E-03 0.  1.
        -12    1    3    3    0    0 -0.50098417030E+01 -0.10814273130E+02  0.46077046330E+01  0.12778026421E+02  0.00000000000E+00 0.  1.
</event>
<event>
 7    1  0.3129575E-011  0.5052885E+02  0.7816164E-02  0.1300439E+00
        -11   -1    0    0    0    0  0.00000000000E+00  0.00000000000E+00  0.45593999997E+02  0.45594000000E+02  0.51100000000E-03 0. -1.
         11   -1    0    0    0    0 -0.00000000000E+00 -0.00000000000E+00 -0.45593999997E+02  0.45594000000E+02  0.51100000000E-03 0.  1.
    9900012    2    1    2    0    0 -0.17560998969E+02 -0.34909924440E+02  0.11228295722E+02  0.50528854239E+02  0.29999982944E+02 0.  0.
        -12    1    1    2    0    0  0.17560998969E+02  0.34909924440E+02 -0.11228295722E+02  0.40659145761E+02  0.00000000000E+00 0.  1.
         11    1    3    3    0    0 -0.13696801750E+02 -0.11597113526E+02  0.16529617507E+02  0.24399255634E+02  0.51100000000E-03 0. -1.
        -11    1    3    3    0    0  0.16847801257E+01 -0.57356635059E+01 -0.48398570332E+01  0.76915886712E+01  0.51100000000E-03 0.  1.
        -12    1    3    3    0    0 -0.55489773449E+01 -0.17577147408E+02 -0.46146475133E+00  0.18438009933E+02  0.00000000000E+00 0.  1.
</event>
<event>
 7    1  0.3129575E-011  0.5052887E+02  0.7816164E-02  0.1300439E+00
        -11   -1    0    0    0    0  0.00000000000E+00  0.00000000000E+00  0.45593999997E+02  0.45594000000E+02  0.51100000000E-03 0.  1.
         11   -1    0    0    0    0 -0.00000000000E+00 -0.00000000000E+00 -0.45593999997E+02  0.45594000000E+02  0.51100000000E-03 0. -1.
    9900012    2    1    2    0    0 -0.23933379128E+02 -0.22219105693E+02 -0.24221268192E+02  0.50528866621E+02  0.30000020581E+02 0.  0.
        -12    1    1    2    0    0  0.23933379128E+02  0.22219105693E+02  0.24221268192E+02  0.40659133379E+02  0.00000000000E+00 0.  1.
         11    1    3    3    0    0  0.43638115039E+01 -0.89003048837E+01 -0.45083806504E+01  0.10889617726E+02  0.51100000000E-03 0. -1.
        -11    1    3    3    0    0 -0.52422506963E+01 -0.42359198150E+01  0.16314107406E+01  0.69343860800E+01  0.51100000000E-03 0.  1.
         12    1    3    3    0    0 -0.23054939935E+02 -0.90828809945E+01 -0.21344298283E+02  0.32704862815E+02  0.00000000000E+00 0. -1.
</event>
<event>
 7    1  0.3129575E-011  0.5052884E+02  0.7816164E-02  0.1300439E+00
        -11   -1    0    0    0    0  0.00000000000E+00  0.00000000000E+00  0.45593999997E+02  0.45594000000E+02  0.51100000000E-03 0.  1.
         11   -1    0    0    0    0 -0.00000000000E+00 -0.00000000000E+00 -0.45593999997E+02  0.45594000000E+02  0.51100000000E-03 0. -1.
    9900012    2    1    2    0    0  0.35615153752E+02  0.11699618603E+02 -0.15743146568E+02  0.50528844622E+02  0.29999953713E+02 0.  0.
        -12    1    1    2    0    0 -0.35615153752E+02 -0.11699618603E+02  0.15743146568E+02  0.40659155378E+02  0.00000000000E+00 0.  1.
         11    1    3    3    0    0  0.11685638230E+02 -0.22386422020E+01 -0.12632203250E+02  0.17353334520E+02  0.51100000000E-03 0. -1.
        -11    1    3    3    0    0  0.24992170563E+02  0.83007213416E+01 -0.55976420670E+01  0.26922930026E+02  0.51100000000E-03 0.  1.
        -12    1    3    3    0    0 -0.10626550407E+01  0.56375394634E+01  0.24866987491E+01  0.62525800759E+01  0.00000000000E+00 0.  1.
</event>
<event>
 7    1  0.3129575E-011  0.5052881E+02  0.7816164E-02  0.1300439E+00
        -11   -1    0    0    0    0  0.00000000000E+00  0.00000000000E+00  0.45593999997E+02  0.45594000000E+02  0.51100000000E-03 0.  1.
         11   -1    0    0    0    0 -0.00000000000E+00 -0.00000000000E+00 -0.45593999997E+02  0.45594000000E+02  0.51100000000E-03 0. -1.
    9900012    2    1    2    0    0  0.30247952979E+02  0.89404649907E+01 -0.25657346137E+02  0.50528806889E+02  0.29999839018E+02 0.  0.
        -12    1    1    2    0    0 -0.30247952979E+02 -0.89404649907E+01  0.25657346137E+02  0.40659193111E+02  0.00000000000E+00 0.  1.
         11    1    3    3    0    0  0.16078936376E+02 -0.96587136823E+00 -0.16366125253E+02  0.22963343802E+02  0.51100000000E-03 0. -1.
        -11    1    3    3    0    0  0.35706977784E+01 -0.58985914423E+01 -0.30396228070E+01  0.75354210697E+01  0.51100000000E-03 0.  1.
         12    1    3    3    0    0  0.10598318825E+02  0.15804927801E+02 -0.62515980767E+01  0.20030042018E+02  0.00000000000E+00 0. -1.
</event>
<event>
 7    1  0.3129575E-011  0.5052895E+02  0.7816164E-02  0.1300438E+00
        -11   -1    0    0    0    0  0.00000000000E+00  0.00000000000E+00  0.45593999997E+02  0.45594000000E+02  0.51100000000E-03 0. -1.
         11   -1    0    0    0    0 -0.00000000000E+00 -0.00000000000E+00 -0.45593999997E+02  0.45594000000E+02  0.51100000000E-03 0.  1.
    9900012    2    1    2    0    0  0.10717764574E+02  0.35090890865E+02  0.17519049548E+02  0.50528951853E+02  0.30000279651E+02 0.  0.
        -12    1    1    2    0    0 -0.10717764574E+02 -0.35090890865E+02 -0.17519049548E+02  0.40659048147E+02  0.00000000000E+00 0.  1.
         11    1    3    3    0    0 -0.20777069395E+01 -0.73759162138E-02 -0.12914571322E+01  0.24463814739E+01  0.51100000000E-03 0. -1.
        -11    1    3    3    0    0  0.15048630951E+01 -0.36169189649E+01  0.14624850202E+01  0.41815760700E+01  0.51100000000E-03 0.  1.
         12    1    3    3    0    0  0.11290608419E+02  0.38715185746E+02  0.17348021660E+02  0.43900994309E+02  0.00000000000E+00 0. -1.
</event>
<event>
 7    1  0.3129575E-011  0.5052887E+02  0.7816164E-02  0.1300439E+00
        -11   -1    0    0    0    0  0.00000000000E+00  0.00000000000E+00  0.45593999997E+02  0.45594000000E+02  0.51100000000E-03 0.  1.
         11   -1    0    0    0    0 -0.00000000000E+00 -0.00000000000E+00 -0.45593999997E+02  0.45594000000E+02  0.51100000000E-03 0. -1.
    9900012    2    1    2    0    0  0.11433049551E+02  0.25700820490E+02 -0.29358434635E+02  0.50528874578E+02  0.30000044767E+02 0.  0.
        -12    1    1    2    0    0 -0.11433049551E+02 -0.25700820490E+02  0.29358434635E+02  0.40659125422E+02  0.00000000000E+00 0.  1.
         11    1    3    3    0    0  0.97735440950E+01  0.19548008966E+02 -0.10751394181E+02  0.24356504179E+02  0.51100000000E-03 0. -1.
        -11    1    3    3    0    0 -0.25899372314E+01  0.11331092615E+02 -0.12982827989E+02  0.17425706802E+02  0.51100000000E-03 0.  1.
         12    1    3    3    0    0  0.42494426879E+01 -0.51782810913E+01 -0.56242124649E+01  0.87466635964E+01  0.00000000000E+00 0. -1.
</event>
<event>
 7    1  0.3129575E-011  0.5052887E+02  0.7816164E-02  0.1300439E+00
        -11   -1    0    0    0    0  0.00000000000E+00  0.00000000000E+00  0.45593999997E+02  0.45594000000E+02  0.51100000000E-03 0.  1.
         11   -1    0    0    0    0 -0.00000000000E+00 -0.00000000000E+00 -0.45593999997E+02  0.45594000000E+02  0.51100000000E-03 0. -1.
    9900012    2    1    2    0    0  0.26185574217E+02  0.30974933243E+02 -0.28345050393E+01  0.50528865660E+02  0.30000017659E+02 0.  0.
        -12    1    1    2    0    0 -0.26185574217E+02 -0.30974933243E+02  0.28345050393E+01  0.40659134340E+02  0.00000000000E+00 0.  1.
         11    1    3    3    0    0  0.43359208509E+01  0.91744603402E+01 -0.84088378791E+01  0.13178751341E+02  0.51100000000E-03 0. -1.
        -11    1    3    3    0    0  0.22437090318E+02  0.96214298036E+01  0.60361791821E+01  0.25148168776E+02  0.51100000000E-03 0.  1.
         12    1    3    3    0    0 -0.58743695248E+00  0.12179043099E+02 -0.46184634225E+00  0.12201945543E+02  0.00000000000E+00 0. -1.
</event>
<event>
 7    1  0.3129575E-011  0.5052885E+02  0.7816164E-02  0.1300439E+00
        -11   -1    0    0    0    0  0.00000000000E+00  0.00000000000E+00  0.45593999997E+02  0.45594000000E+02  0.51100000000E-03 0.  1.
         11   -1    0    0    0    0 -0.00000000000E+00 -0.00000000000E+00 -0.45593999997E+02  0.45594000000E+02  0.51100000000E-03 0. -1.
    9900012    2    1    2    0    0  0.53633685390E+00  0.28225859324E+02 -0.29260544093E+02  0.50528853029E+02  0.29999979266E+02 0.  0.
        -12    1    1    2    0    0 -0.53633685390E+00 -0.28225859324E+02  0.29260544093E+02  0.40659146971E+02  0.00000000000E+00 0.  1.
         11    1    3    3    0    0 -0.62638837360E+01  0.93088194618E+01 -0.13467878230E+02  0.17529235680E+02  0.51100000000E-03 0. -1.
        -11    1    3    3    0    0 -0.14658497885E+01  0.17105815184E+02 -0.26551176169E+01  0.17372601375E+02  0.51100000000E-03 0.  1.
         12    1    3    3    0    0  0.82660703784E+01  0.18112246782E+01 -0.13137548246E+02  0.15627015974E+02  0.00000000000E+00 0. -1.
</event>
<event>
 7    1  0.3129575E-011  0.5052891E+02  0.7816164E-02  0.1300439E+00
        -11   -1    0    0    0    0  0.00000000000E+00  0.00000000000E+00  0.45593999997E+02  0.45594000000E+02  0.51100000000E-03 0.  1.
         11   -1    0    0    0    0 -0.00000000000E+00 -0.00000000000E+00 -0.45593999997E+02  0.45594000000E+02  0.51100000000E-03 0. -1.
    9900012    2    1    2    0    0  0.35333533313E+02  0.72776423365E+01 -0.18754714733E+02  0.50528905334E+02  0.30000138251E+02 0.  0.
        -12    1    1    2    0    0 -0.35333533313E+02 -0.72776423365E+01  0.18754714733E+02  0.40659094666E+02  0.00000000000E+00 0.  1.
         11    1    3    3    0    0  0.56033975751E+01  0.62545953083E+01 -0.83442544993E+01  0.11838268888E+02  0.51100000000E-03 0. -1.
        -11    1    3    3    0    0  0.25701422906E+02  0.97183622758E+01 -0.94602018533E+01  0.29060370337E+02  0.51100000000E-03 0.  1.
         12    1    3    3    0    0  0.40287128318E+01 -0.86953152476E+01 -0.95025838031E+00  0.96302661088E+01  0.00000000000E+00 0. -1.
</event>
<event>
 7    1  0.3129575E-011  0.5052889E+02  0.7816164E-02  0.1300439E+00
        -11   -1    0    0    0    0  0.00000000000E+00  0.00000000000E+00  0.45593999997E+02  0.45594000000E+02  0.51100000000E-03 0.  1.
         11   -1    0    0    0    0 -0.00000000000E+00 -0.00000000000E+00 -0.45593999997E+02  0.45594000000E+02  0.51100000000E-03 0. -1.
    9900012    2    1    2    0    0  0.98603660912E+01  0.27421757596E+02 -0.28354602329E+02  0.50528891767E+02  0.30000097015E+02 0.  0.
        -12    1    1    2    0    0 -0.98603660912E+01 -0.27421757596E+02  0.28354602329E+02  0.40659108233E+02  0.00000000000E+00 0.  1.
         11    1    3    3    0    0  0.81260873767E+01  0.17041158463E+02 -0.14818573423E+02  0.24000510335E+02  0.51100000000E-03 0. -1.
        -11    1    3    3    0    0 -0.10328105602E+01  0.99585090235E+01 -0.18382222385E+02  0.20931906260E+02  0.51100000000E-03 0.  1.
        -12    1    3    3    0    0  0.27670892747E+01  0.42209010908E+00  0.48461934784E+01  0.55964751714E+01  0.00000000000E+00 0.  1.
</event>
<event>
 7    1  0.3129575E-011  0.5052886E+02  0.7816164E-02  0.1300439E+00
        -11   -1    0    0    0    0  0.00000000000E+00  0.00000000000E+00  0.45593999997E+02  0.45594000000E+02  0.51100000000E-03 0.  1.
         11   -1    0    0    0    0 -0.00000000000E+00 -0.00000000000E+00 -0.45593999997E+02  0.45594000000E+02  0.51100000000E-03 0. -1.
    9900012    2    1    2    0    0 -0.83413078904E+01 -0.96980435408E+01 -0.38594507209E+02  0.50528862619E+02  0.30000008416E+02 0.  0.
        -12    1    1    2    0    0  0.83413078904E+01  0.96980435408E+01  0.38594507209E+02  0.40659137381E+02  0.00000000000E+00 0.  1.
         11    1    3    3    0    0 -0.40907425103E+01 -0.67752508269E+01 -0.22763479848E+02  0.24100087409E+02  0.51100000000E-03 0. -1.
        -11    1    3    3    0    0 -0.11965486445E+02 -0.22592914376E+00 -0.13258172120E+02  0.17860656149E+02  0.51100000000E-03 0.  1.
         12    1    3    3    0    0  0.77149210647E+01 -0.26968635701E+01 -0.25728552407E+01  0.85681190608E+01  0.00000000000E+00 0. -1.
</event>
<event>
 7    1  0.3129575E-011  0.5052886E+02  0.7816164E-02  0.1300439E+00
        -11   -1    0    0    0    0  0.00000000000E+00  0.00000000000E+00  0.45593999997E+02  0.45594000000E+02  0.51100000000E-03 0. -1.
         11   -1    0    0    0    0 -0.00000000000E+00 -0.00000000000E+00 -0.45593999997E+02  0.45594000000E+02  0.51100000000E-03 0.  1.
    9900012    2    1    2    0    0 -0.33870788484E+02  0.29901708857E+01 -0.22293373369E+02  0.50528856740E+02  0.29999990547E+02 0.  0.
        -12    1    1    2    0    0  0.33870788484E+02 -0.29901708857E+01  0.22293373369E+02  0.40659143260E+02  0.00000000000E+00 0.  1.
         11    1    3    3    0    0 -0.17182822409E+01  0.31171497887E+01 -0.99236384241E+01  0.10542661737E+02  0.51100000000E-03 0.  1.
        -11    1    3    3    0    0 -0.66991704758E+01 -0.55011805964E+01  0.36820199716E+01  0.94180223163E+01  0.51100000000E-03 0. -1.
         12    1    3    3    0    0 -0.25453335767E+02  0.53742016933E+01 -0.16051754916E+02  0.30568172687E+02  0.00000000000E+00 0. -1.
</event>
<event>
 7    1  0.3129575E-011  0.5052893E+02  0.7816164E-02  0.1300439E+00
        -11   -1    0    0    0    0  0.00000000000E+00  0.00000000000E+00  0.45593999997E+02  0.45594000000E+02  0.51100000000E-03 0.  1.
         11   -1    0    0    0    0 -0.00000000000E+00 -0.00000000000E+00 -0.45593999997E+02  0.45594000000E+02  0.51100000000E-03 0. -1.
    9900012    2    1    2    0    0 -0.20665908348E+02 -0.26851743624E+02 -0.22473633703E+02  0.50528928253E+02  0.30000207917E+02 0.  0.
        -12    1    1    2    0    0  0.20665908348E+02  0.26851743624E+02  0.22473633703E+02  0.40659071747E+02  0.00000000000E+00 0.  1.
         11    1    3    3    0    0 -0.25230239873E+02 -0.26484173027E+02 -0.22472981647E+02  0.42930307819E+02  0.51100000000E-03 0. -1.
        -11    1    3    3    0    0  0.22916713233E+01 -0.91074206212E+00  0.29434460392E+01  0.38399327344E+01  0.51100000000E-03 0.  1.
        -12    1    3    3    0    0  0.22726602019E+01  0.54317146551E+00 -0.29440980950E+01  0.37586877001E+01  0.00000000000E+00 0.  1.
</event>
<event>
 7    1  0.3129575E-011  0.5052885E+02  0.7816164E-02  0.1300439E+00
        -11   -1    0    0    0    0  0.00000000000E+00  0.00000000000E+00  0.45593999997E+02  0.45594000000E+02  0.51100000000E-03 0. -1.
         11   -1    0    0    0    0 -0.00000000000E+00 -0.00000000000E+00 -0.45593999997E+02  0.45594000000E+02  0.51100000000E-03 0.  1.
    9900012    2    1    2    0    0  0.27783341187E+01  0.18760666844E+02  0.35965042982E+02  0.50528854933E+02  0.29999985054E+02 0.  0.
        -12    1    1    2    0    0 -0.27783341187E+01 -0.18760666844E+02 -0.35965042982E+02  0.40659145067E+02  0.00000000000E+00 0.  1.
         11    1    3    3    0    0 -0.10038102339E+01 -0.65101323834E+00  0.11888860365E+02  0.11948910170E+02  0.51100000000E-03 0. -1.
        -11    1    3    3    0    0  0.11830955749E+02  0.15147488374E+02  0.22045732677E+02  0.29247773377E+02  0.51100000000E-03 0.  1.
        -12    1    3    3    0    0 -0.80488113962E+01  0.42641917084E+01  0.20304499404E+01  0.93321713860E+01  0.00000000000E+00 0.  1.
</event>
<event>
 7    1  0.3129575E-011  0.5052885E+02  0.7816164E-02  0.1300439E+00
        -11   -1    0    0    0    0  0.00000000000E+00  0.00000000000E+00  0.45593999997E+02  0.45594000000E+02  0.51100000000E-03 0.  1.
         11   -1    0    0    0    0 -0.00000000000E+00 -0.00000000000E+00 -0.45593999997E+02  0.45594000000E+02  0.51100000000E-03 0. -1.
    9900012    2    1    2    0    0 -0.17743123400E+02  0.19279337561E+01 -0.36532602110E+02  0.50528851294E+02  0.29999973994E+02 0.  0.
        -12    1    1    2    0    0  0.17743123400E+02 -0.19279337561E+01  0.36532602110E+02  0.40659148706E+02  0.00000000000E+00 0.  1.
         11    1    3    3    0    0  0.41559483349E+00  0.10881825292E+00  0.33017937999E+01  0.33296250594E+01  0.51100000000E-03 0. -1.
        -11    1    3    3    0    0 -0.10332989544E+02  0.20058110526E+01 -0.52926724609E+01  0.11781609946E+02  0.51100000000E-03 0.  1.
         12    1    3    3    0    0 -0.78257286899E+01 -0.18669554940E+00 -0.34541723449E+02  0.35417616289E+02  0.00000000000E+00 0. -1.
</event>
<event>
 7    1  0.3129575E-011  0.5052884E+02  0.7816164E-02  0.1300439E+00
        -11   -1    0    0    0    0  0.00000000000E+00  0.00000000000E+00  0.45593999997E+02  0.45594000000E+02  0.51100000000E-03 0. -1.
         11   -1    0    0    0    0 -0.00000000000E+00 -0.00000000000E+00 -0.45593999997E+02  0.45594000000E+02  0.51100000000E-03 0.  1.
    9900012    2    1    2    0    0 -0.28586644004E+02 -0.94141687246E+01  0.27337595226E+02  0.50528844808E+02  0.29999954280E+02 0.  0.
        -12    1    1    2    0    0  0.28586644004E+02  0.94141687246E+01 -0.27337595226E+02  0.40659155192E+02  0.00000000000E+00 0.  1.
         11    1    3    3    0    0 -0.19325214024E+02  0.36411234491E+01  0.21847790403E+02  0.29394686983E+02  0.51100000000E-03 0. -1.
        -11    1    3    3    0    0 -0.95403798267E+01 -0.25227856485E+01  0.24409941570E+01  0.10165714308E+02  0.51100000000E-03 0.  1.
        -12    1    3    3    0    0  0.27894984711E+00 -0.10532506525E+02  0.30488106657E+01  0.10968443517E+02  0.00000000000E+00 0.  1.
</event>
<event>
 7    1  0.3129575E-011  0.5052886E+02  0.7816164E-02  0.1300439E+00
        -11   -1    0    0    0    0  0.00000000000E+00  0.00000000000E+00  0.45593999997E+02  0.45594000000E+02  0.51100000000E-03 0.  1.
         11   -1    0    0    0    0 -0.00000000000E+00 -0.00000000000E+00 -0.45593999997E+02  0.45594000000E+02  0.51100000000E-03 0. -1.
    9900012    2    1    2    0    0  0.20752182643E+02  0.32923146093E+02  0.11771950091E+02  0.50528862748E+02  0.30000008810E+02 0.  0.
        -12    1    1    2    0    0 -0.20752182643E+02 -0.32923146093E+02 -0.11771950091E+02  0.40659137252E+02  0.00000000000E+00 0.  1.
         11    1    3    3    0    0  0.57017346954E+01 -0.28332238143E+01  0.56097114799E+01  0.84856230689E+01  0.51100000000E-03 0.  1.
        -11    1    3    3    0    0  0.61707762261E+01  0.67496405083E+01 -0.40954889725E+01  0.10020436937E+02  0.51100000000E-03 0. -1.
         12    1    3    3    0    0  0.88796717219E+01  0.29006729399E+02  0.10257727583E+02  0.32022802742E+02  0.00000000000E+00 0. -1.
</event>
<event>
 7    1  0.3129575E-011  0.5052885E+02  0.7816164E-02  0.1300439E+00
        -11   -1    0    0    0    0  0.00000000000E+00  0.00000000000E+00  0.45593999997E+02  0.45594000000E+02  0.51100000000E-03 0.  1.
         11   -1    0    0    0    0 -0.00000000000E+00 -0.00000000000E+00 -0.45593999997E+02  0.45594000000E+02  0.51100000000E-03 0. -1.
    9900012    2    1    2    0    0  0.22621901476E+02  0.31556680035E+02 -0.12066151263E+02  0.50528849892E+02  0.29999969732E+02 0.  0.
        -12    1    1    2    0    0 -0.22621901476E+02 -0.31556680035E+02  0.12066151263E+02  0.40659150108E+02  0.00000000000E+00 0.  1.
         11    1    3    3    0    0 -0.49253021489E+01  0.69645645465E+01  0.14073960481E+01  0.86454915694E+01  0.51100000000E-03 0. -1.
        -11    1    3    3    0    0  0.26357695851E+01  0.10422009634E+02 -0.57967478730E+01  0.12213429178E+02  0.51100000000E-03 0.  1.
        -12    1    3    3    0    0  0.24911434040E+02  0.14170105854E+02 -0.76767994379E+01  0.29669929145E+02  0.00000000000E+00 0.  1.
</event>
<event>
 7    1  0.3129575E-011  0.5052885E+02  0.7816164E-02  0.1300439E+00
        -11   -1    0    0    0    0  0.00000000000E+00  0.00000000000E+00  0.45593999997E+02  0.45594000000E+02  0.51100000000E-03 0. -1.
         11   -1    0    0    0    0 -0.00000000000E+00 -0.00000000000E+00 -0.45593999997E+02  0.45594000000E+02  0.51100000000E-03 0.  1.
    9900012    2    1    2    0    0 -0.28386038547E+02  0.36999196502E+01  0.28874031650E+02  0.50528852278E+02  0.29999976983E+02 0.  0.
        -12    1    1    2    0    0  0.28386038547E+02 -0.36999196502E+01 -0.28874031650E+02  0.40659147722E+02  0.00000000000E+00 0.  1.
         11    1    3    3    0    0 -0.12370748828E+02  0.13628132324E+01  0.36077999253E+01  0.12957966932E+02  0.51100000000E-03 0. -1.
        -11    1    3    3    0    0 -0.24671215435E+00  0.66361936664E+01 -0.91840844586E+00  0.67039844570E+01  0.51100000000E-03 0.  1.
         12    1    3    3    0    0 -0.15768577565E+02 -0.42990872487E+01  0.26184640170E+02  0.30866900888E+02  0.00000000000E+00 0. -1.
</event>
<event>
 7    1  0.3129575E-011  0.5052885E+02  0.7816164E-02  0.1300439E+00
        -11   -1    0    0    0    0  0.00000000000E+00  0.00000000000E+00  0.45593999997E+02  0.45594000000E+02  0.51100000000E-03 0.  1.
         11   -1    0    0    0    0 -0.00000000000E+00 -0.00000000000E+00 -0.45593999997E+02  0.45594000000E+02  0.51100000000E-03 0. -1.
    9900012    2    1    2    0    0 -0.19626730933E+02  0.30088449139E+02 -0.19043187727E+02  0.50528851736E+02  0.29999975337E+02 0.  0.
        -12    1    1    2    0    0  0.19626730933E+02 -0.30088449139E+02  0.19043187727E+02  0.40659148264E+02  0.00000000000E+00 0.  1.
         11    1    3    3    0    0 -0.24168836087E+02  0.17663043046E+02 -0.63721619797E+01  0.30605884663E+02  0.51100000000E-03 0. -1.
        -11    1    3    3    0    0 -0.14885250537E+01  0.36460327948E+01 -0.65375726257E+01  0.76321109841E+01  0.51100000000E-03 0.  1.
        -12    1    3    3    0    0  0.60306302074E+01  0.87793732986E+01 -0.61334531220E+01  0.12290856090E+02  0.00000000000E+00 0.  1.
</event>
<event>
 7    1  0.3129575E-011  0.5052886E+02  0.7816164E-02  0.1300439E+00
        -11   -1    0    0    0    0  0.00000000000E+00  0.00000000000E+00  0.45593999997E+02  0.45594000000E+02  0.51100000000E-03 0. -1.
         11   -1    0    0    0    0 -0.00000000000E+00 -0.00000000000E+00 -0.45593999997E+02  0.45594000000E+02  0.51100000000E-03 0.  1.
    9900012    2    1    2    0    0  0.24403484485E+02  0.10709177477E+02  0.30707476895E+02  0.50528859889E+02  0.30000000120E+02 0.  0.
        -12    1    1    2    0    0 -0.24403484485E+02 -0.10709177477E+02 -0.30707476895E+02  0.40659140111E+02  0.00000000000E+00 0.  1.
         11    1    3    3    0    0  0.14591730299E+01  0.63965412137E+01  0.11532074830E+02  0.13267768296E+02  0.51100000000E-03 0. -1.
        -11    1    3    3    0    0  0.14079565630E+02 -0.50687442984E+01  0.19214219646E+02  0.24353902643E+02  0.51100000000E-03 0.  1.
        -12    1    3    3    0    0  0.88647458253E+01  0.93813805615E+01 -0.38817579877E-01  0.12907188950E+02  0.00000000000E+00 0.  1.
</event>
<event>
 7    1  0.3129575E-011  0.5052887E+02  0.7816164E-02  0.1300439E+00
        -11   -1    0    0    0    0  0.00000000000E+00  0.00000000000E+00  0.45593999997E+02  0.45594000000E+02  0.51100000000E-03 0. -1.
         11   -1    0    0    0    0 -0.00000000000E+00 -0.00000000000E+00 -0.45593999997E+02  0.45594000000E+02  0.51100000000E-03 0.  1.
    9900012    2    1    2    0    0  0.37568361715E+02 -0.15548991141E+02 -0.11022281053E+00  0.50528867243E+02  0.30000022473E+02 0.  0.
        -12    1    1    2    0    0 -0.37568361715E+02  0.15548991141E+02  0.11022281053E+00  0.40659132757E+02  0.00000000000E+00 0.  1.
         11    1    3    3    0    0  0.78411511699E+01  0.14356283879E+01  0.13221383816E+01  0.80803917416E+01  0.51100000000E-03 0. -1.
        -11    1    3    3    0    0 -0.37649149902E+00 -0.25347746507E+01  0.74639773762E+01  0.78916276466E+01  0.51100000000E-03 0.  1.
         12    1    3    3    0    0  0.30103702044E+02 -0.14449844878E+02 -0.88963385683E+01  0.34556847855E+02  0.00000000000E+00 0. -1.
</event>
<event>
 7    1  0.3129575E-011  0.5052886E+02  0.7816164E-02  0.1300439E+00
        -11   -1    0    0    0    0  0.00000000000E+00  0.00000000000E+00  0.45593999997E+02  0.45594000000E+02  0.51100000000E-03 0. -1.
         11   -1    0    0    0    0 -0.00000000000E+00 -0.00000000000E+00 -0.45593999997E+02  0.45594000000E+02  0.51100000000E-03 0.  1.
    9900012    2    1    2    0    0 -0.24138141755E+02 -0.14824580660E+02  0.29167576270E+02  0.50528860995E+02  0.30000003481E+02 0.  0.
        -12    1    1    2    0    0  0.24138141755E+02  0.14824580660E+02 -0.29167576270E+02  0.40659139005E+02  0.00000000000E+00 0.  1.
         11    1    3    3    0    0 -0.14351038991E+02 -0.16912767993E+02  0.11020082482E+02  0.24767645417E+02  0.51100000000E-03 0. -1.
        -11    1    3    3    0    0 -0.29602656227E+01 -0.65944635051E+01  0.76094520697E+01  0.10495421980E+02  0.51100000000E-03 0.  1.
        -12    1    3    3    0    0 -0.68268371412E+01  0.86826508383E+01  0.10538041719E+02  0.15265793599E+02  0.00000000000E+00 0.  1.
</event>
<event>
 7    1  0.3129575E-011  0.5052887E+02  0.7816164E-02  0.1300439E+00
        -11   -1    0    0    0    0  0.00000000000E+00  0.00000000000E+00  0.45593999997E+02  0.45594000000E+02  0.51100000000E-03 0. -1.
         11   -1    0    0    0    0 -0.00000000000E+00 -0.00000000000E+00 -0.45593999997E+02  0.45594000000E+02  0.51100000000E-03 0.  1.
    9900012    2    1    2    0    0 -0.34469502145E+01  0.25333933530E+02  0.31614480233E+02  0.50528868009E+02  0.30000024800E+02 0.  0.
        -12    1    1    2    0    0  0.34469502145E+01 -0.25333933530E+02 -0.31614480233E+02  0.40659131991E+02  0.00000000000E+00 0.  1.
         11    1    3    3    0    0  0.10396016808E+01  0.10194084413E+02  0.17349659863E+02  0.20149710328E+02  0.51100000000E-03 0. -1.
        -11    1    3    3    0    0 -0.43638345290E+01  0.10373699636E+02  0.19982948911E+02  0.22934143615E+02  0.51100000000E-03 0.  1.
        -12    1    3    3    0    0 -0.12271736632E+00  0.47661494804E+01 -0.57181285410E+01  0.74450140653E+01  0.00000000000E+00 0.  1.
</event>
<event>
 7    1  0.3129575E-011  0.5052886E+02  0.7816164E-02  0.1300439E+00
        -11   -1    0    0    0    0  0.00000000000E+00  0.00000000000E+00  0.45593999997E+02  0.45594000000E+02  0.51100000000E-03 0.  1.
         11   -1    0    0    0    0 -0.00000000000E+00 -0.00000000000E+00 -0.45593999997E+02  0.45594000000E+02  0.51100000000E-03 0. -1.
    9900012    2    1    2    0    0  0.10491657565E+02 -0.29015566211E+02 -0.26479949049E+02  0.50528860036E+02  0.30000000565E+02 0.  0.
        -12    1    1    2    0    0 -0.10491657565E+02  0.29015566211E+02  0.26479949049E+02  0.40659139964E+02  0.00000000000E+00 0.  1.
         11    1    3    3    0    0  0.35017918911E+00  0.16969568333E+01 -0.13719701925E+02  0.13828684288E+02  0.51100000000E-03 0. -1.
        -11    1    3    3    0    0 -0.24008966160E+01 -0.72770612098E+01 -0.13817513586E+01  0.77864729814E+01  0.51100000000E-03 0.  1.
         12    1    3    3    0    0  0.12542374991E+02 -0.23435461834E+02 -0.11378495765E+02  0.28913702767E+02  0.00000000000E+00 0. -1.
</event>
<event>
 7    1  0.3129575E-011  0.5052886E+02  0.7816164E-02  0.1300439E+00
        -11   -1    0    0    0    0  0.00000000000E+00  0.00000000000E+00  0.45593999997E+02  0.45594000000E+02  0.51100000000E-03 0. -1.
         11   -1    0    0    0    0 -0.00000000000E+00 -0.00000000000E+00 -0.45593999997E+02  0.45594000000E+02  0.51100000000E-03 0.  1.
    9900012    2    1    2    0    0  0.31852594889E+02 -0.99083992973E+01  0.23246534538E+02  0.50528861472E+02  0.30000004930E+02 0.  0.
        -12    1    1    2    0    0 -0.31852594889E+02  0.99083992973E+01 -0.23246534538E+02  0.40659138528E+02  0.00000000000E+00 0.  1.
         11    1    3    3    0    0  0.13560986092E+02 -0.15407105637E+02  0.10741562497E+02  0.23165932164E+02  0.51100000000E-03 0. -1.
        -11    1    3    3    0    0 -0.20307820527E+01 -0.11651442110E+01  0.33774113699E+01  0.41095674469E+01  0.51100000000E-03 0.  1.
         12    1    3    3    0    0  0.20322390850E+02  0.66638505507E+01  0.91275606717E+01  0.23253361861E+02  0.00000000000E+00 0. -1.
</event>
<event>
 7    1  0.3129575E-011  0.5052887E+02  0.7816164E-02  0.1300439E+00
        -11   -1    0    0    0    0  0.00000000000E+00  0.00000000000E+00  0.45593999997E+02  0.45594000000E+02  0.51100000000E-03 0. -1.
         11   -1    0    0    0    0 -0.00000000000E+00 -0.00000000000E+00 -0.45593999997E+02  0.45594000000E+02  0.51100000000E-03 0.  1.
    9900012    2    1    2    0    0  0.27538125733E+02 -0.71749023890E+01  0.29040267599E+02  0.50528871438E+02  0.30000035223E+02 0.  0.
        -12    1    1    2    0    0 -0.27538125733E+02  0.71749023890E+01 -0.29040267599E+02  0.40659128562E+02  0.00000000000E+00 0.  1.
         11    1    3    3    0    0  0.13594046696E+02 -0.17265175741E+02  0.11114464012E+02  0.24625509325E+02  0.51100000000E-03 0. -1.
        -11    1    3    3    0    0  0.76785249175E+01  0.50865582217E+01  0.44658414841E+01  0.10236042198E+02  0.51100000000E-03 0.  1.
        -12    1    3    3    0    0  0.62655541199E+01  0.50037151306E+01  0.13459962103E+02  0.15667319916E+02  0.00000000000E+00 0.  1.
</event>
<event>
 7    1  0.3129575E-011  0.5052885E+02  0.7816164E-02  0.1300439E+00
        -11   -1    0    0    0    0  0.00000000000E+00  0.00000000000E+00  0.45593999997E+02  0.45594000000E+02  0.51100000000E-03 0. -1.
         11   -1    0    0    0    0 -0.00000000000E+00 -0.00000000000E+00 -0.45593999997E+02  0.45594000000E+02  0.51100000000E-03 0.  1.
    9900012    2    1    2    0    0 -0.29995984244E+02  0.16817660354E+02  0.21692714770E+02  0.50528847960E+02  0.29999963858E+02 0.  0.
        -12    1    1    2    0    0  0.29995984244E+02 -0.16817660354E+02 -0.21692714770E+02  0.40659152040E+02  0.00000000000E+00 0.  1.
         11    1    3    3    0    0 -0.63700206302E+01 -0.35606441678E+01  0.66616025832E+01  0.98809057761E+01  0.51100000000E-03 0. -1.
        -11    1    3    3    0    0 -0.25815601330E+02  0.12125259099E+02  0.14738463416E+02  0.32104353044E+02  0.51100000000E-03 0.  1.
        -12    1    3    3    0    0  0.21896377162E+01  0.82530454227E+01  0.29264877004E+00  0.85435891392E+01  0.00000000000E+00 0.  1.
</event>
<event>
 7    1  0.3129575E-011  0.5052886E+02  0.7816164E-02  0.1300439E+00
        -11   -1    0    0    0    0  0.00000000000E+00  0.00000000000E+00  0.45593999997E+02  0.45594000000E+02  0.51100000000E-03 0.  1.
         11   -1    0    0    0    0 -0.00000000000E+00 -0.00000000000E+00 -0.45593999997E+02  0.45594000000E+02  0.51100000000E-03 0. -1.
    9900012    2    1    2    0    0  0.26414535966E+00  0.54686672837E+01 -0.40288829352E+02  0.50528857545E+02  0.29999992992E+02 0.  0.
        -12    1    1    2    0    0 -0.26414535966E+00 -0.54686672837E+01  0.40288829352E+02  0.40659142455E+02  0.00000000000E+00 0.  1.
         11    1    3    3    0    0  0.67761247990E+00 -0.36991183874E+01 -0.19463897209E+02  0.19823872738E+02  0.51100000000E-03 0. -1.
        -11    1    3    3    0    0 -0.81332210992E+01  0.67384217861E+01 -0.19938974110E+02  0.22563650025E+02  0.51100000000E-03 0.  1.
        -12    1    3    3    0    0  0.77197539790E+01  0.24293638850E+01 -0.88595803279E+00  0.81413347811E+01  0.00000000000E+00 0.  1.
</event>
<event>
 7    1  0.3129575E-011  0.5052886E+02  0.7816164E-02  0.1300439E+00
        -11   -1    0    0    0    0  0.00000000000E+00  0.00000000000E+00  0.45593999997E+02  0.45594000000E+02  0.51100000000E-03 0.  1.
         11   -1    0    0    0    0 -0.00000000000E+00 -0.00000000000E+00 -0.45593999997E+02  0.45594000000E+02  0.51100000000E-03 0. -1.
    9900012    2    1    2    0    0 -0.16566827083E+02  0.10547205703E+01 -0.37115947930E+02  0.50528858521E+02  0.29999995961E+02 0.  0.
        -12    1    1    2    0    0  0.16566827083E+02 -0.10547205703E+01  0.37115947930E+02  0.40659141479E+02  0.00000000000E+00 0.  1.
         11    1    3    3    0    0 -0.23737279330E+01 -0.41929969219E+01 -0.23130641118E+02  0.23627153157E+02  0.51100000000E-03 0. -1.
        -11    1    3    3    0    0 -0.49609469701E+01 -0.56896963639E+01 -0.10721007460E+01  0.76245025952E+01  0.51100000000E-03 0.  1.
        -12    1    3    3    0    0 -0.92321521795E+01  0.10937413856E+02 -0.12913206065E+02  0.19277202769E+02  0.00000000000E+00 0.  1.
</event>
<event>
 7    1  0.4028521E-011  0.5052886E+02  0.7816164E-02  0.1300439E+00
        -11   -1    0    0    0    0  0.00000000000E+00  0.00000000000E+00  0.45593999997E+02  0.45594000000E+02  0.51100000000E-03 0.  1.
         11   -1    0    0    0    0 -0.00000000000E+00 -0.00000000000E+00 -0.45593999997E+02  0.45594000000E+02  0.51100000000E-03 0. -1.
    9900012    2    1    2    0    0  0.32356758805E+02  0.18970415958E+02 -0.15694884088E+02  0.50528857012E+02  0.29999991374E+02 0.  0.
        -12    1    1    2    0    0 -0.32356758805E+02 -0.18970415958E+02  0.15694884088E+02  0.40659142988E+02  0.00000000000E+00 0.  1.
         11    1    3    3    0    0  0.12179611049E+02 -0.30929323815E+01 -0.31480685240E+00  0.12570133637E+02  0.51100000000E-03 0. -1.
        -11    1    3    3    0    0 -0.24386474149E+01  0.46516262601E+01  0.53535708715E+00  0.52793215047E+01  0.51100000000E-03 0.  1.
         12    1    3    3    0    0  0.22615795171E+02  0.17411722079E+02 -0.15915434323E+02  0.32679401871E+02  0.00000000000E+00 0. -1.
</event>
<event>
 7    1  0.3129575E-011  0.5052886E+02  0.7816164E-02  0.1300439E+00
        -11   -1    0    0    0    0  0.00000000000E+00  0.00000000000E+00  0.45593999997E+02  0.45594000000E+02  0.51100000000E-03 0. -1.
         11   -1    0    0    0    0 -0.00000000000E+00 -0.00000000000E+00 -0.45593999997E+02  0.45594000000E+02  0.51100000000E-03 0.  1.
    9900012    2    1    2    0    0 -0.10825048442E+02  0.36826991953E+01  0.39018220372E+02  0.50528862428E+02  0.30000007835E+02 0.  0.
        -12    1    1    2    0    0  0.10825048442E+02 -0.36826991953E+01 -0.39018220372E+02  0.40659137572E+02  0.00000000000E+00 0.  1.
         11    1    3    3    0    0 -0.10491102848E+02  0.11026287439E+02  0.12226227227E+02  0.19522368866E+02  0.51100000000E-03 0. -1.
        -11    1    3    3    0    0 -0.42311258508E+01 -0.29854775742E+01  0.23954522792E+02  0.24507849044E+02  0.51100000000E-03 0.  1.
        -12    1    3    3    0    0  0.38971802571E+01 -0.43581106698E+01  0.28374703531E+01  0.64986445180E+01  0.00000000000E+00 0.  1.
</event>
<event>
 7    1  0.3129575E-011  0.5052885E+02  0.7816164E-02  0.1300439E+00
        -11   -1    0    0    0    0  0.00000000000E+00  0.00000000000E+00  0.45593999997E+02  0.45594000000E+02  0.51100000000E-03 0. -1.
         11   -1    0    0    0    0 -0.00000000000E+00 -0.00000000000E+00 -0.45593999997E+02  0.45594000000E+02  0.51100000000E-03 0.  1.
    9900012    2    1    2    0    0  0.17507660269E+02  0.36563795736E+02 -0.31204105802E+01  0.50528852335E+02  0.29999977156E+02 0.  0.
        -12    1    1    2    0    0 -0.17507660269E+02 -0.36563795736E+02  0.31204105802E+01  0.40659147665E+02  0.00000000000E+00 0.  1.
         11    1    3    3    0    0  0.65360923604E+00  0.32885079778E+01  0.81473643992E+01  0.88102801697E+01  0.51100000000E-03 0.  1.
        -11    1    3    3    0    0 -0.11136855518E+01  0.30973588506E+01  0.23550586625E+01  0.40472495503E+01  0.51100000000E-03 0. -1.
        -12    1    3    3    0    0  0.17967736584E+02  0.30177928907E+02 -0.13622833642E+02  0.37671322615E+02  0.00000000000E+00 0.  1.
</event>
<event>
 7    1  0.3129575E-011  0.5052892E+02  0.7816164E-02  0.1300439E+00
        -11   -1    0    0    0    0  0.00000000000E+00  0.00000000000E+00  0.45593999997E+02  0.45594000000E+02  0.51100000000E-03 0.  1.
         11   -1    0    0    0    0 -0.00000000000E+00 -0.00000000000E+00 -0.45593999997E+02  0.45594000000E+02  0.51100000000E-03 0. -1.
    9900012    2    1    2    0    0  0.42531454013E+01 -0.13347275124E+02 -0.38169649683E+02  0.50528915456E+02  0.30000169019E+02 0.  0.
        -12    1    1    2    0    0 -0.42531454013E+01  0.13347275124E+02  0.38169649683E+02  0.40659084544E+02  0.00000000000E+00 0.  1.
         11    1    3    3    0    0  0.81070031325E+01 -0.13611689314E+01 -0.97874611951E+00  0.82785400209E+01  0.51100000000E-03 0. -1.
        -11    1    3    3    0    0 -0.29288807007E+01  0.23428664507E+01 -0.20170977402E+01  0.42586440235E+01  0.51100000000E-03 0.  1.
         12    1    3    3    0    0 -0.92497703049E+00 -0.14328972643E+02 -0.35173805823E+02  0.37991731411E+02  0.00000000000E+00 0. -1.
</event>
<event>
 7    1  0.3129575E-011  0.5052887E+02  0.7816164E-02  0.1300439E+00
        -11   -1    0    0    0    0  0.00000000000E+00  0.00000000000E+00  0.45593999997E+02  0.45594000000E+02  0.51100000000E-03 0. -1.
         11   -1    0    0    0    0 -0.00000000000E+00 -0.00000000000E+00 -0.45593999997E+02  0.45594000000E+02  0.51100000000E-03 0.  1.
    9900012    2    1    2    0    0  0.41816505539E+01 -0.32283667035E+02 -0.24360702228E+02  0.50528866074E+02  0.30000018918E+02 0.  0.
        -12    1    1    2    0    0 -0.41816505539E+01  0.32283667035E+02  0.24360702228E+02  0.40659133926E+02  0.00000000000E+00 0.  1.
         11    1    3    3    0    0 -0.14652042255E+01 -0.59523988969E+00  0.56413702158E+01  0.58588558713E+01  0.51100000000E-03 0. -1.
        -11    1    3    3    0    0 -0.15676810318E-02 -0.88376434885E+01 -0.12630481192E+02  0.15415349503E+02  0.51100000000E-03 0.  1.
        -12    1    3    3    0    0  0.56484224604E+01 -0.22850783657E+02 -0.17371591252E+02  0.29254660699E+02  0.00000000000E+00 0.  1.
</event>
<event>
 7    1  0.3129575E-011  0.5052886E+02  0.7816164E-02  0.1300439E+00
        -11   -1    0    0    0    0  0.00000000000E+00  0.00000000000E+00  0.45593999997E+02  0.45594000000E+02  0.51100000000E-03 0.  1.
         11   -1    0    0    0    0 -0.00000000000E+00 -0.00000000000E+00 -0.45593999997E+02  0.45594000000E+02  0.51100000000E-03 0. -1.
    9900012    2    1    2    0    0  0.38252392488E+02  0.87334042813E+01 -0.10660560699E+02  0.50528862825E+02  0.30000009042E+02 0.  0.
        -12    1    1    2    0    0 -0.38252392488E+02 -0.87334042813E+01  0.10660560699E+02  0.40659137175E+02  0.00000000000E+00 0.  1.
         11    1    3    3    0    0  0.11792650266E+02  0.23899343884E+01  0.66230339338E+01  0.13734735724E+02  0.51100000000E-03 0. -1.
        -11    1    3    3    0    0  0.35403046732E+01 -0.47030199976E+01 -0.75023991742E+01  0.95361495325E+01  0.51100000000E-03 0.  1.
         12    1    3    3    0    0  0.22919437549E+02  0.11046489890E+02 -0.97811954588E+01  0.27257977568E+02  0.00000000000E+00 0. -1.
</event>
<event>
 7    1  0.3129575E-011  0.5052886E+02  0.7816164E-02  0.1300439E+00
        -11   -1    0    0    0    0  0.00000000000E+00  0.00000000000E+00  0.45593999997E+02  0.45594000000E+02  0.51100000000E-03 0.  1.
         11   -1    0    0    0    0 -0.00000000000E+00 -0.00000000000E+00 -0.45593999997E+02  0.45594000000E+02  0.51100000000E-03 0. -1.
    9900012    2    1    2    0    0 -0.59673936173E+01  0.18286565969E+02 -0.35821191092E+02  0.50528855730E+02  0.29999987476E+02 0.  0.
        -12    1    1    2    0    0  0.59673936173E+01 -0.18286565969E+02  0.35821191092E+02  0.40659144270E+02  0.00000000000E+00 0.  1.
         11    1    3    3    0    0  0.28919885362E+01 -0.18488972897E+01  0.97801974260E+00  0.35691093790E+01  0.51100000000E-03 0.  1.
        -11    1    3    3    0    0 -0.10133439937E+02  0.50637837337E+01 -0.64138737993E+01  0.13017921802E+02  0.51100000000E-03 0. -1.
         12    1    3    3    0    0  0.12740577836E+01  0.15071679525E+02 -0.30385337036E+02  0.33941824549E+02  0.00000000000E+00 0. -1.
</event>
<event>
 7    1  0.3129575E-011  0.5052886E+02  0.7816164E-02  0.1300439E+00
        -11   -1    0    0    0    0  0.00000000000E+00  0.00000000000E+00  0.45593999997E+02  0.45594000000E+02  0.51100000000E-03 0.  1.
         11   -1    0    0    0    0 -0.00000000000E+00 -0.00000000000E+00 -0.45593999997E+02  0.45594000000E+02  0.51100000000E-03 0. -1.
    9900012    2    1    2    0    0 -0.17082571260E+02  0.12650613947E+02 -0.34659967501E+02  0.50528860545E+02  0.30000002111E+02 0.  0.
        -12    1    1    2    0    0  0.17082571260E+02 -0.12650613947E+02  0.34659967501E+02  0.40659139455E+02  0.00000000000E+00 0.  1.
         11    1    3    3    0    0 -0.26569119699E+01  0.56016559314E+01 -0.19273670301E+00  0.62028121112E+01  0.51100000000E-03 0. -1.
        -11    1    3    3    0    0 -0.16996461582E+02 -0.26901354647E+01 -0.17165135424E+02  0.24305522202E+02  0.51100000000E-03 0.  1.
         12    1    3    3    0    0  0.25708022921E+01  0.97390934803E+01 -0.17302095374E+02  0.20020526231E+02  0.00000000000E+00 0. -1.
</event>
<event>
 7    1  0.3129575E-011  0.5052886E+02  0.7816164E-02  0.1300439E+00
        -11   -1    0    0    0    0  0.00000000000E+00  0.00000000000E+00  0.45593999997E+02  0.45594000000E+02  0.51100000000E-03 0.  1.
         11   -1    0    0    0    0 -0.00000000000E+00 -0.00000000000E+00 -0.45593999997E+02  0.45594000000E+02  0.51100000000E-03 0. -1.
    9900012    2    1    2    0    0  0.30568077088E+02  0.23692365073E+02 -0.12547108589E+02  0.50528862852E+02  0.30000009126E+02 0.  0.
        -12    1    1    2    0    0 -0.30568077088E+02 -0.23692365073E+02  0.12547108589E+02  0.40659137148E+02  0.00000000000E+00 0.  1.
         11    1    3    3    0    0  0.19983659174E+01 -0.10397246596E+01 -0.64819682927E+01  0.68622450347E+01  0.51100000000E-03 0. -1.
        -11    1    3    3    0    0  0.98602219709E+01 -0.14167329359E+01 -0.57710234311E+01  0.11512420303E+02  0.51100000000E-03 0.  1.
         12    1    3    3    0    0  0.18709489200E+02  0.26148822669E+02 -0.29411686536E+00  0.32154197515E+02  0.00000000000E+00 0. -1.
</event>
<event>
 7    1  0.3129575E-011  0.5052888E+02  0.7816164E-02  0.1300439E+00
        -11   -1    0    0    0    0  0.00000000000E+00  0.00000000000E+00  0.45593999997E+02  0.45594000000E+02  0.51100000000E-03 0.  1.
         11   -1    0    0    0    0 -0.00000000000E+00 -0.00000000000E+00 -0.45593999997E+02  0.45594000000E+02  0.51100000000E-03 0. -1.
    9900012    2    1    2    0    0 -0.13897288625E+02  0.59128400492E+01 -0.37750064717E+02  0.50528884236E+02  0.30000074122E+02 0.  0.
        -12    1    1    2    0    0  0.13897288625E+02 -0.59128400492E+01  0.37750064717E+02  0.40659115764E+02  0.00000000000E+00 0.  1.
         11    1    3    3    0    0  0.54946333519E+01  0.30252073415E+01 -0.57227936559E+01  0.84907739706E+01  0.51100000000E-03 0. -1.
        -11    1    3    3    0    0 -0.31645710748E+00 -0.54400503531E+01 -0.27162408123E+01  0.60886991514E+01  0.51100000000E-03 0.  1.
        -12    1    3    3    0    0 -0.19075464869E+02  0.83276830608E+01 -0.29311030249E+02  0.35949411114E+02  0.00000000000E+00 0.  1.
</event>
<event>
 7    1  0.3129575E-011  0.5052886E+02  0.7816164E-02  0.1300439E+00
        -11   -1    0    0    0    0  0.00000000000E+00  0.00000000000E+00  0.45593999997E+02  0.45594000000E+02  0.51100000000E-03 0.  1.
         11   -1    0    0    0    0 -0.00000000000E+00 -0.00000000000E+00 -0.45593999997E+02  0.45594000000E+02  0.51100000000E-03 0. -1.
    9900012    2    1    2    0    0 -0.29918441750E+02  0.76573498062E+01 -0.26446504299E+02  0.50528858931E+02  0.29999997208E+02 0.  0.
        -12    1    1    2    0    0  0.29918441750E+02 -0.76573498062E+01  0.26446504299E+02  0.40659141069E+02  0.00000000000E+00 0.  1.
         11    1    3    3    0    0 -0.28416653995E+01  0.57956668270E+01 -0.13002719032E-01  0.64548420232E+01  0.51100000000E-03 0. -1.
        -11    1    3    3    0    0  0.37353930330E+01 -0.11366507664E+01 -0.53316873623E+01  0.66084814040E+01  0.51100000000E-03 0.  1.
         12    1    3    3    0    0 -0.30812169383E+02  0.29983337456E+01 -0.21101814218E+02  0.37465535504E+02  0.00000000000E+00 0. -1.
</event>
<event>
 7    1  0.3129575E-011  0.5052886E+02  0.7816164E-02  0.1300439E+00
        -11   -1    0    0    0    0  0.00000000000E+00  0.00000000000E+00  0.45593999997E+02  0.45594000000E+02  0.51100000000E-03 0.  1.
         11   -1    0    0    0    0 -0.00000000000E+00 -0.00000000000E+00 -0.45593999997E+02  0.45594000000E+02  0.51100000000E-03 0. -1.
    9900012    2    1    2    0    0  0.14929606464E+02 -0.37692443499E+02 -0.30906822375E+01  0.50528858804E+02  0.29999996822E+02 0.  0.
        -12    1    1    2    0    0 -0.14929606464E+02  0.37692443499E+02  0.30906822375E+01  0.40659141196E+02  0.00000000000E+00 0.  1.
         11    1    3    3    0    0  0.14066285783E+02 -0.11091215555E+02 -0.58001450212E+01  0.18828625567E+02  0.51100000000E-03 0. -1.
        -11    1    3    3    0    0  0.29331633970E+01 -0.70092950289E+01  0.82689794047E+01  0.11229856854E+02  0.51100000000E-03 0.  1.
         12    1    3    3    0    0 -0.20698427160E+01 -0.19591932914E+02 -0.55595166209E+01  0.20470376383E+02  0.00000000000E+00 0. -1.
</event>
<event>
 7    1  0.3129575E-011  0.5052886E+02  0.7816164E-02  0.1300439E+00
        -11   -1    0    0    0    0  0.00000000000E+00  0.00000000000E+00  0.45593999997E+02  0.45594000000E+02  0.51100000000E-03 0.  1.
         11   -1    0    0    0    0 -0.00000000000E+00 -0.00000000000E+00 -0.45593999997E+02  0.45594000000E+02  0.51100000000E-03 0. -1.
    9900012    2    1    2    0    0  0.23954980864E+02 -0.27047129770E+02 -0.18648779224E+02  0.50528864451E+02  0.30000013986E+02 0.  0.
        -12    1    1    2    0    0 -0.23954980864E+02  0.27047129770E+02  0.18648779224E+02  0.40659135549E+02  0.00000000000E+00 0.  1.
         11    1    3    3    0    0 -0.17670149947E+01 -0.10252165024E+02 -0.11032224932E+01  0.10461659993E+02  0.51100000000E-03 0. -1.
        -11    1    3    3    0    0  0.23537369086E+01  0.33829778630E+01 -0.56212723708E+01  0.69701735979E+01  0.51100000000E-03 0.  1.
        -12    1    3    3    0    0  0.23368258950E+02 -0.20177942609E+02 -0.11924284360E+02  0.33097030861E+02  0.00000000000E+00 0.  1.
</event>
<event>
 7    1  0.3129575E-011  0.5052886E+02  0.7816164E-02  0.1300439E+00
        -11   -1    0    0    0    0  0.00000000000E+00  0.00000000000E+00  0.45593999997E+02  0.45594000000E+02  0.51100000000E-03 0. -1.
         11   -1    0    0    0    0 -0.00000000000E+00 -0.00000000000E+00 -0.45593999997E+02  0.45594000000E+02  0.51100000000E-03 0.  1.
    9900012    2    1    2    0    0  0.26904161647E+02  0.26894815248E+02  0.14352717297E+02  0.50528862098E+02  0.30000006833E+02 0.  0.
        -12    1    1    2    0    0 -0.26904161647E+02 -0.26894815248E+02 -0.14352717297E+02  0.40659137902E+02  0.00000000000E+00 0.  1.
         11    1    3    3    0    0  0.19138567976E+02  0.23276701356E+02  0.93980277455E+01  0.31566002850E+02  0.51100000000E-03 0. -1.
        -11    1    3    3    0    0  0.50022148359E+01  0.65575254023E+01  0.97012957479E+01  0.12733359027E+02  0.51100000000E-03 0.  1.
         12    1    3    3    0    0  0.27633788351E+01 -0.29394115107E+01 -0.47466061960E+01  0.62295002204E+01  0.00000000000E+00 0. -1.
</event>
<event>
 7    1  0.3129575E-011  0.5052886E+02  0.7816164E-02  0.1300439E+00
        -11   -1    0    0    0    0  0.00000000000E+00  0.00000000000E+00  0.45593999997E+02  0.45594000000E+02  0.51100000000E-03 0.  1.
         11   -1    0    0    0    0 -0.00000000000E+00 -0.00000000000E+00 -0.45593999997E+02  0.45594000000E+02  0.51100000000E-03 0. -1.
    9900012    2    1    2    0    0  0.14372924673E+02  0.34267629459E+02 -0.16501944594E+02  0.50528861202E+02  0.30000004110E+02 0.  0.
        -12    1    1    2    0    0 -0.14372924673E+02 -0.34267629459E+02  0.16501944594E+02  0.40659138798E+02  0.00000000000E+00 0.  1.
         11    1    3    3    0    0  0.17039891729E+02  0.24921424022E+02 -0.16294771367E+02  0.34306775710E+02  0.51100000000E-03 0. -1.
        -11    1    3    3    0    0 -0.42362660566E+00  0.13968426679E+01 -0.59730644733E+01  0.61488314664E+01  0.51100000000E-03 0.  1.
         12    1    3    3    0    0 -0.22433404508E+01  0.79493627692E+01  0.57658912461E+01  0.10073254026E+02  0.00000000000E+00 0. -1.
</event>
<event>
 7    1  0.3129575E-011  0.5052885E+02  0.7816164E-02  0.1300439E+00
        -11   -1    0    0    0    0  0.00000000000E+00  0.00000000000E+00  0.45593999997E+02  0.45594000000E+02  0.51100000000E-03 0.  1.
         11   -1    0    0    0    0 -0.00000000000E+00 -0.00000000000E+00 -0.45593999997E+02  0.45594000000E+02  0.51100000000E-03 0. -1.
    9900012    2    1    2    0    0 -0.22465403635E+02 -0.83902038411E+01 -0.32834076706E+02  0.50528850057E+02  0.29999970233E+02 0.  0.
        -12    1    1    2    0    0  0.22465403635E+02  0.83902038411E+01  0.32834076706E+02  0.40659149943E+02  0.00000000000E+00 0.  1.
         11    1    3    3    0    0 -0.11923000825E+02 -0.71034327924E+01 -0.98109704915E+01  0.16996230416E+02  0.51100000000E-03 0. -1.
        -11    1    3    3    0    0 -0.41200207355E+01 -0.39130737197E+01  0.31213987066E+01  0.64830430311E+01  0.51100000000E-03 0.  1.
        -12    1    3    3    0    0 -0.64223820746E+01  0.26263026710E+01 -0.26144504921E+02  0.27049576610E+02  0.00000000000E+00 0.  1.
</event>
<event>
 7    1  0.3129575E-011  0.5052885E+02  0.7816164E-02  0.1300439E+00
        -11   -1    0    0    0    0  0.00000000000E+00  0.00000000000E+00  0.45593999997E+02  0.45594000000E+02  0.51100000000E-03 0.  1.
         11   -1    0    0    0    0 -0.00000000000E+00 -0.00000000000E+00 -0.45593999997E+02  0.45594000000E+02  0.51100000000E-03 0. -1.
    9900012    2    1    2    0    0  0.27935494299E+02 -0.29417839502E+02 -0.27138550362E+01  0.50528854265E+02  0.29999983025E+02 0.  0.
        -12    1    1    2    0    0 -0.27935494299E+02  0.29417839502E+02  0.27138550362E+01  0.40659145735E+02  0.00000000000E+00 0.  1.
         11    1    3    3    0    0  0.17059145497E+02 -0.98584845666E+01 -0.11793780831E+02  0.22962957771E+02  0.51100000000E-03 0. -1.
        -11    1    3    3    0    0  0.36474697210E+01 -0.99192081498E+01 -0.24933610835E+01  0.10858709658E+02  0.51100000000E-03 0.  1.
         12    1    3    3    0    0  0.72288790813E+01 -0.96401467858E+01  0.11573286878E+02  0.16707186837E+02  0.00000000000E+00 0. -1.
</event>
<event>
 7    1  0.3129575E-011  0.5052885E+02  0.7816164E-02  0.1300439E+00
        -11   -1    0    0    0    0  0.00000000000E+00  0.00000000000E+00  0.45593999997E+02  0.45594000000E+02  0.51100000000E-03 0.  1.
         11   -1    0    0    0    0 -0.00000000000E+00 -0.00000000000E+00 -0.45593999997E+02  0.45594000000E+02  0.51100000000E-03 0. -1.
    9900012    2    1    2    0    0 -0.25383515238E+02  0.28875506343E+02  0.13230585024E+02  0.50528854749E+02  0.29999984496E+02 0.  0.
        -12    1    1    2    0    0  0.25383515238E+02 -0.28875506343E+02 -0.13230585024E+02  0.40659145251E+02  0.00000000000E+00 0.  1.
         11    1    3    3    0    0 -0.17202634042E+02  0.12947966259E+02 -0.20628162267E+01  0.21629508993E+02  0.51100000000E-03 0. -1.
        -11    1    3    3    0    0  0.88926419293E+00  0.57531297344E+01 -0.26249865955E+01  0.63859100709E+01  0.51100000000E-03 0.  1.
         12    1    3    3    0    0 -0.90701453889E+01  0.10174410350E+02  0.17918387846E+02  0.22513435685E+02  0.00000000000E+00 0. -1.
</event>
<event>
 7    1  0.3129575E-011  0.5052887E+02  0.7816164E-02  0.1300439E+00
        -11   -1    0    0    0    0  0.00000000000E+00  0.00000000000E+00  0.45593999997E+02  0.45594000000E+02  0.51100000000E-03 0.  1.
         11   -1    0    0    0    0 -0.00000000000E+00 -0.00000000000E+00 -0.45593999997E+02  0.45594000000E+02  0.51100000000E-03 0. -1.
    9900012    2    1    2    0    0  0.29255440637E+02 -0.41389265250E+01 -0.27931226268E+02  0.50528869162E+02  0.30000028305E+02 0.  0.
        -12    1    1    2    0    0 -0.29255440637E+02  0.41389265250E+01  0.27931226268E+02  0.40659130838E+02  0.00000000000E+00 0.  1.
         11    1    3    3    0    0  0.44915256089E+01 -0.68376145689E+01 -0.13198586089E+02  0.15528343450E+02  0.51100000000E-03 0. -1.
        -11    1    3    3    0    0  0.30478772124E+01 -0.46756651643E+01  0.26933150563E+01  0.61972047315E+01  0.51100000000E-03 0.  1.
         12    1    3    3    0    0  0.21716037815E+02  0.73743532082E+01 -0.17425955235E+02  0.28803320980E+02  0.00000000000E+00 0. -1.
</event>
<event>
 7    1  0.3129575E-011  0.5052885E+02  0.7816164E-02  0.1300439E+00
        -11   -1    0    0    0    0  0.00000000000E+00  0.00000000000E+00  0.45593999997E+02  0.45594000000E+02  0.51100000000E-03 0. -1.
         11   -1    0    0    0    0 -0.00000000000E+00 -0.00000000000E+00 -0.45593999997E+02  0.45594000000E+02  0.51100000000E-03 0.  1.
    9900012    2    1    2    0    0  0.16411126400E+01  0.40357463725E+02  0.46634970655E+01  0.50528851781E+02  0.29999975473E+02 0.  0.
        -12    1    1    2    0    0 -0.16411126400E+01 -0.40357463725E+02 -0.46634970655E+01  0.40659148219E+02  0.00000000000E+00 0.  1.
         11    1    3    3    0    0 -0.38065521471E+01  0.38405605542E+02  0.12238892712E+02  0.40487910187E+02  0.51100000000E-03 0. -1.
        -11    1    3    3    0    0  0.14864715651E+00  0.11815612731E+01 -0.18641568527E+01  0.22120723432E+01  0.51100000000E-03 0.  1.
         12    1    3    3    0    0  0.52990176306E+01  0.77029691022E+00 -0.57112387936E+01  0.78288692502E+01  0.00000000000E+00 0. -1.
</event>
<event>
 7    1  0.3129575E-011  0.5052886E+02  0.7816164E-02  0.1300439E+00
        -11   -1    0    0    0    0  0.00000000000E+00  0.00000000000E+00  0.45593999997E+02  0.45594000000E+02  0.51100000000E-03 0.  1.
         11   -1    0    0    0    0 -0.00000000000E+00 -0.00000000000E+00 -0.45593999997E+02  0.45594000000E+02  0.51100000000E-03 0. -1.
    9900012    2    1    2    0    0 -0.60305604898E+01 -0.54311703751E+01 -0.39840933805E+02  0.50528864767E+02  0.30000014945E+02 0.  0.
        -12    1    1    2    0    0  0.60305604898E+01  0.54311703751E+01  0.39840933805E+02  0.40659135233E+02  0.00000000000E+00 0.  1.
         11    1    3    3    0    0  0.86432857868E+01  0.19510220315E+01 -0.11851678875E+02  0.14797809587E+02  0.51100000000E-03 0. -1.
        -11    1    3    3    0    0 -0.52075278623E+01  0.18145189203E+01 -0.18945254678E+02  0.19731535684E+02  0.51100000000E-03 0.  1.
         12    1    3    3    0    0 -0.94663184142E+01 -0.91967113268E+01 -0.90440002516E+01  0.15999519496E+02  0.00000000000E+00 0. -1.
</event>
<event>
 7    1  0.3129575E-011  0.5052886E+02  0.7816164E-02  0.1300439E+00
        -11   -1    0    0    0    0  0.00000000000E+00  0.00000000000E+00  0.45593999997E+02  0.45594000000E+02  0.51100000000E-03 0.  1.
         11   -1    0    0    0    0 -0.00000000000E+00 -0.00000000000E+00 -0.45593999997E+02  0.45594000000E+02  0.51100000000E-03 0. -1.
    9900012    2    1    2    0    0  0.84135428541E+01 -0.33319697674E+02 -0.21729602904E+02  0.50528860821E+02  0.30000002952E+02 0.  0.
        -12    1    1    2    0    0 -0.84135428541E+01  0.33319697674E+02  0.21729602904E+02  0.40659139179E+02  0.00000000000E+00 0.  1.
         11    1    3    3    0    0  0.35233015061E+01 -0.29507545524E+02 -0.10204112167E+02  0.31420261006E+02  0.51100000000E-03 0. -1.
        -11    1    3    3    0    0  0.21966389275E+01 -0.79548960606E+01 -0.21777122784E+01  0.85351054441E+01  0.51100000000E-03 0.  1.
         12    1    3    3    0    0  0.26936024205E+01  0.41427439104E+01 -0.93477784580E+01  0.10573494371E+02  0.00000000000E+00 0. -1.
</event>
<event>
 7    1  0.3129575E-011  0.5052886E+02  0.7816164E-02  0.1300439E+00
        -11   -1    0    0    0    0  0.00000000000E+00  0.00000000000E+00  0.45593999997E+02  0.45594000000E+02  0.51100000000E-03 0. -1.
         11   -1    0    0    0    0 -0.00000000000E+00 -0.00000000000E+00 -0.45593999997E+02  0.45594000000E+02  0.51100000000E-03 0.  1.
    9900012    2    1    2    0    0  0.24008413930E+02 -0.19829725567E+02  0.26144675060E+02  0.50528856016E+02  0.29999988347E+02 0.  0.
        -12    1    1    2    0    0 -0.24008413930E+02  0.19829725567E+02 -0.26144675060E+02  0.40659143984E+02  0.00000000000E+00 0.  1.
         11    1    3    3    0    0  0.63816052757E+01 -0.12368057956E+02  0.73079455003E+01  0.15719408742E+02  0.51100000000E-03 0. -1.
        -11    1    3    3    0    0  0.20964515128E+02 -0.79530451157E-01  0.15380077564E+02  0.26001230851E+02  0.51100000000E-03 0.  1.
         12    1    3    3    0    0 -0.33377064733E+01 -0.73821371595E+01  0.34566519957E+01  0.88082164235E+01  0.00000000000E+00 0. -1.
</event>
<event>
 7    1  0.3129575E-011  0.5052886E+02  0.7816164E-02  0.1300439E+00
        -11   -1    0    0    0    0  0.00000000000E+00  0.00000000000E+00  0.45593999997E+02  0.45594000000E+02  0.51100000000E-03 0.  1.
         11   -1    0    0    0    0 -0.00000000000E+00 -0.00000000000E+00 -0.45593999997E+02  0.45594000000E+02  0.51100000000E-03 0. -1.
    9900012    2    1    2    0    0  0.23319051537E+02  0.29329849579E+02  0.15784399804E+02  0.50528861813E+02  0.30000005967E+02 0.  0.
        -12    1    1    2    0    0 -0.23319051537E+02 -0.29329849579E+02 -0.15784399804E+02  0.40659138187E+02  0.00000000000E+00 0.  1.
         11    1    3    3    0    0  0.24482676610E+02  0.19538456622E+02  0.81785763198E+01  0.32373474513E+02  0.51100000000E-03 0. -1.
        -11    1    3    3    0    0 -0.17928922851E+01  0.11384712924E+02  0.12731888547E+01  0.11595135240E+02  0.51100000000E-03 0.  1.
        -12    1    3    3    0    0  0.62926721270E+00 -0.15933199676E+01  0.63326346297E+01  0.65602520605E+01  0.00000000000E+00 0.  1.
</event>
<event>
 7    1  0.3129575E-011  0.5052885E+02  0.7816164E-02  0.1300439E+00
        -11   -1    0    0    0    0  0.00000000000E+00  0.00000000000E+00  0.45593999997E+02  0.45594000000E+02  0.51100000000E-03 0.  1.
         11   -1    0    0    0    0 -0.00000000000E+00 -0.00000000000E+00 -0.45593999997E+02  0.45594000000E+02  0.51100000000E-03 0. -1.
    9900012    2    1    2    0    0 -0.17818087085E+02  0.23350743852E+02 -0.28114496970E+02  0.50528850898E+02  0.29999972790E+02 0.  0.
        -12    1    1    2    0    0  0.17818087085E+02 -0.23350743852E+02  0.28114496970E+02  0.40659149102E+02  0.00000000000E+00 0.  1.
         11    1    3    3    0    0 -0.42635124041E+01  0.20794535826E+02 -0.93260836577E+01  0.23185471634E+02  0.51100000000E-03 0. -1.
        -11    1    3    3    0    0  0.18628214366E+01  0.53357521526E+00  0.99679732395E+00  0.21790849871E+01  0.51100000000E-03 0.  1.
        -12    1    3    3    0    0 -0.15417396117E+02  0.20226328108E+01 -0.19785210636E+02  0.25164294277E+02  0.00000000000E+00 0.  1.
</event>
<event>
 7    1  0.3129575E-011  0.5052886E+02  0.7816164E-02  0.1300439E+00
        -11   -1    0    0    0    0  0.00000000000E+00  0.00000000000E+00  0.45593999997E+02  0.45594000000E+02  0.51100000000E-03 0.  1.
         11   -1    0    0    0    0 -0.00000000000E+00 -0.00000000000E+00 -0.45593999997E+02  0.45594000000E+02  0.51100000000E-03 0. -1.
    9900012    2    1    2    0    0  0.66003754625E+01  0.42157473568E+01 -0.39897723771E+02  0.50528857804E+02  0.29999993781E+02 0.  0.
        -12    1    1    2    0    0 -0.66003754625E+01 -0.42157473568E+01  0.39897723771E+02  0.40659142196E+02  0.00000000000E+00 0.  1.
         11    1    3    3    0    0  0.41821670144E+01  0.47518839115E+01 -0.71302226327E+01  0.95347258323E+01  0.51100000000E-03 0. -1.
        -11    1    3    3    0    0 -0.63932179997E+01  0.76033750931E+01 -0.58593351210E+01  0.11533271761E+02  0.51100000000E-03 0.  1.
         12    1    3    3    0    0  0.88114264478E+01 -0.81395116479E+01 -0.26908166017E+02  0.29460860210E+02  0.00000000000E+00 0. -1.
</event>
<event>
 7    1  0.3129575E-011  0.5052886E+02  0.7816164E-02  0.1300439E+00
        -11   -1    0    0    0    0  0.00000000000E+00  0.00000000000E+00  0.45593999997E+02  0.45594000000E+02  0.51100000000E-03 0. -1.
         11   -1    0    0    0    0 -0.00000000000E+00 -0.00000000000E+00 -0.45593999997E+02  0.45594000000E+02  0.51100000000E-03 0.  1.
    9900012    2    1    2    0    0  0.36028669843E+02  0.60954917042E+01  0.17831022692E+02  0.50528862773E+02  0.30000008886E+02 0.  0.
        -12    1    1    2    0    0 -0.36028669843E+02 -0.60954917042E+01 -0.17831022692E+02  0.40659137227E+02  0.00000000000E+00 0.  1.
         11    1    3    3    0    0  0.94874790653E+01  0.92338908836E+01 -0.11308198885E+01  0.13287428410E+02  0.51100000000E-03 0. -1.
        -11    1    3    3    0    0  0.19458858258E+02  0.28065370082E+01  0.46504683198E+01  0.20202739184E+02  0.51100000000E-03 0.  1.
         12    1    3    3    0    0  0.70823325200E+01 -0.59449361875E+01  0.14311374261E+02  0.17038695180E+02  0.00000000000E+00 0. -1.
</event>
<event>
 7    1  0.3129575E-011  0.5052887E+02  0.7816164E-02  0.1300439E+00
        -11   -1    0    0    0    0  0.00000000000E+00  0.00000000000E+00  0.45593999997E+02  0.45594000000E+02  0.51100000000E-03 0. -1.
         11   -1    0    0    0    0 -0.00000000000E+00 -0.00000000000E+00 -0.45593999997E+02  0.45594000000E+02  0.51100000000E-03 0.  1.
    9900012    2    1    2    0    0 -0.13669656703E+02 -0.30655413982E+02 -0.22946695906E+02  0.50528870966E+02  0.30000033789E+02 0.  0.
        -12    1    1    2    0    0  0.13669656703E+02  0.30655413982E+02  0.22946695906E+02  0.40659129034E+02  0.00000000000E+00 0.  1.
         11    1    3    3    0    0 -0.25374544466E+01 -0.13817108254E+02 -0.42220464001E+01  0.14668906968E+02  0.51100000000E-03 0. -1.
        -11    1    3    3    0    0 -0.16293288438E+02 -0.18421574062E+02 -0.17856546055E+02  0.30392135106E+02  0.51100000000E-03 0.  1.
        -12    1    3    3    0    0  0.51610861810E+01  0.15832683346E+01 -0.86810345044E+00  0.54678288916E+01  0.00000000000E+00 0.  1.
</event>
<event>
 7    1  0.3129575E-011  0.5052886E+02  0.7816164E-02  0.1300439E+00
        -11   -1    0    0    0    0  0.00000000000E+00  0.00000000000E+00  0.45593999997E+02  0.45594000000E+02  0.51100000000E-03 0.  1.
         11   -1    0    0    0    0 -0.00000000000E+00 -0.00000000000E+00 -0.45593999997E+02  0.45594000000E+02  0.51100000000E-03 0. -1.
    9900012    2    1    2    0    0  0.13706834261E+02 -0.37487149902E+02 -0.77461077380E+01  0.50528857137E+02  0.29999991754E+02 0.  0.
        -12    1    1    2    0    0 -0.13706834261E+02  0.37487149902E+02  0.77461077380E+01  0.40659142863E+02  0.00000000000E+00 0.  1.
         11    1    3    3    0    0 -0.39926986285E+00 -0.17760581373E+02  0.84043554048E+00  0.17784937428E+02  0.51100000000E-03 0. -1.
        -11    1    3    3    0    0  0.99902598048E+01 -0.50129754807E+01  0.50497358205E+01  0.12265196544E+02  0.51100000000E-03 0.  1.
         12    1    3    3    0    0  0.41158443193E+01 -0.14713593048E+02 -0.13636279099E+02  0.20478723166E+02  0.00000000000E+00 0. -1.
</event>
<event>
 7    1  0.3129575E-011  0.5052887E+02  0.7816164E-02  0.1300439E+00
        -11   -1    0    0    0    0  0.00000000000E+00  0.00000000000E+00  0.45593999997E+02  0.45594000000E+02  0.51100000000E-03 0. -1.
         11   -1    0    0    0    0 -0.00000000000E+00 -0.00000000000E+00 -0.45593999997E+02  0.45594000000E+02  0.51100000000E-03 0.  1.
    9900012    2    1    2    0    0 -0.22249835113E+02 -0.37688318071E+01  0.33821677495E+02  0.50528866655E+02  0.30000020685E+02 0.  0.
        -12    1    1    2    0    0  0.22249835113E+02  0.37688318071E+01 -0.33821677495E+02  0.40659133345E+02  0.00000000000E+00 0.  1.
         11    1    3    3    0    0 -0.36266445478E+01 -0.71575515866E+01  0.22310835846E+02  0.23709839557E+02  0.51100000000E-03 0. -1.
        -11    1    3    3    0    0 -0.17891393537E+02  0.23585885030E+01  0.14772289005E+02  0.23321351272E+02  0.51100000000E-03 0.  1.
        -12    1    3    3    0    0 -0.73179702802E+00  0.10301312765E+01 -0.32614473555E+01  0.34976758268E+01  0.00000000000E+00 0.  1.
</event>
<event>
 7    1  0.3129575E-011  0.5052886E+02  0.7816164E-02  0.1300439E+00
        -11   -1    0    0    0    0  0.00000000000E+00  0.00000000000E+00  0.45593999997E+02  0.45594000000E+02  0.51100000000E-03 0.  1.
         11   -1    0    0    0    0 -0.00000000000E+00 -0.00000000000E+00 -0.45593999997E+02  0.45594000000E+02  0.51100000000E-03 0. -1.
    9900012    2    1    2    0    0  0.23338356198E+02 -0.32093777679E+02  0.88587020298E+01  0.50528855427E+02  0.29999986557E+02 0.  0.
        -12    1    1    2    0    0 -0.23338356198E+02  0.32093777679E+02 -0.88587020298E+01  0.40659144573E+02  0.00000000000E+00 0.  1.
         11    1    3    3    0    0  0.71776165373E+01 -0.12586729945E+02 -0.95280783001E+01  0.17341517414E+02  0.51100000000E-03 0. -1.
        -11    1    3    3    0    0  0.74491200617E+01 -0.14197184847E+02  0.59498158672E+01  0.17101162428E+02  0.51100000000E-03 0.  1.
        -12    1    3    3    0    0  0.87116195994E+01 -0.53098628868E+01  0.12436964463E+02  0.16086175585E+02  0.00000000000E+00 0.  1.
</event>
<event>
 7    1  0.3129575E-011  0.5052885E+02  0.7816164E-02  0.1300439E+00
        -11   -1    0    0    0    0  0.00000000000E+00  0.00000000000E+00  0.45593999997E+02  0.45594000000E+02  0.51100000000E-03 0. -1.
         11   -1    0    0    0    0 -0.00000000000E+00 -0.00000000000E+00 -0.45593999997E+02  0.45594000000E+02  0.51100000000E-03 0.  1.
    9900012    2    1    2    0    0  0.24270295334E+02  0.16365880757E+02  0.28218377878E+02  0.50528854183E+02  0.29999982775E+02 0.  0.
        -12    1    1    2    0    0 -0.24270295334E+02 -0.16365880757E+02 -0.28218377878E+02  0.40659145817E+02  0.00000000000E+00 0.  1.
         11    1    3    3    0    0  0.38402130013E+01  0.10461652032E+02  0.43164326601E+01  0.11950940980E+02  0.51100000000E-03 0. -1.
        -11    1    3    3    0    0 -0.90735484680E+00 -0.27276586804E+01  0.12622106710E+02  0.12945307750E+02  0.51100000000E-03 0.  1.
         12    1    3    3    0    0  0.21337437179E+02  0.86318874047E+01  0.11279838508E+02  0.25632605453E+02  0.00000000000E+00 0. -1.
</event>
<event>
 7    1  0.3129575E-011  0.5052885E+02  0.7816164E-02  0.1300439E+00
        -11   -1    0    0    0    0  0.00000000000E+00  0.00000000000E+00  0.45593999997E+02  0.45594000000E+02  0.51100000000E-03 0.  1.
         11   -1    0    0    0    0 -0.00000000000E+00 -0.00000000000E+00 -0.45593999997E+02  0.45594000000E+02  0.51100000000E-03 0. -1.
    9900012    2    1    2    0    0 -0.25918637471E+02 -0.22525473364E+02 -0.21771400175E+02  0.50528848703E+02  0.29999966117E+02 0.  0.
        -12    1    1    2    0    0  0.25918637471E+02  0.22525473364E+02  0.21771400175E+02  0.40659151297E+02  0.00000000000E+00 0.  1.
         11    1    3    3    0    0 -0.16148489292E+02 -0.17218411961E+02 -0.14805282460E+02  0.27864741267E+02  0.51100000000E-03 0. -1.
        -11    1    3    3    0    0 -0.45453186164E+01 -0.44258682456E+01 -0.13101938634E+02  0.14557095428E+02  0.51100000000E-03 0.  1.
        -12    1    3    3    0    0 -0.52248295628E+01 -0.88119315698E+00  0.61358209196E+01  0.81070120080E+01  0.00000000000E+00 0.  1.
</event>
<event>
 7    1  0.3129575E-011  0.5052886E+02  0.7816164E-02  0.1300439E+00
        -11   -1    0    0    0    0  0.00000000000E+00  0.00000000000E+00  0.45593999997E+02  0.45594000000E+02  0.51100000000E-03 0.  1.
         11   -1    0    0    0    0 -0.00000000000E+00 -0.00000000000E+00 -0.45593999997E+02  0.45594000000E+02  0.51100000000E-03 0. -1.
    9900012    2    1    2    0    0  0.13958917660E+02  0.15993419044E+02 -0.34677438719E+02  0.50528860916E+02  0.30000003241E+02 0.  0.
        -12    1    1    2    0    0 -0.13958917660E+02 -0.15993419044E+02  0.34677438719E+02  0.40659139084E+02  0.00000000000E+00 0.  1.
         11    1    3    3    0    0 -0.79329633219E+00  0.50635019442E+01  0.17395274212E+01  0.54124233870E+01  0.51100000000E-03 0. -1.
        -11    1    3    3    0    0  0.28716403987E+00  0.40540201657E+00  0.23602255211E+01  0.24119450144E+01  0.51100000000E-03 0.  1.
         12    1    3    3    0    0  0.14465049952E+02  0.10524515083E+02 -0.38777191661E+02  0.42704492515E+02  0.00000000000E+00 0. -1.
</event>
<event>
 7    1  0.3129575E-011  0.5052888E+02  0.7816164E-02  0.1300439E+00
        -11   -1    0    0    0    0  0.00000000000E+00  0.00000000000E+00  0.45593999997E+02  0.45594000000E+02  0.51100000000E-03 0.  1.
         11   -1    0    0    0    0 -0.00000000000E+00 -0.00000000000E+00 -0.45593999997E+02  0.45594000000E+02  0.51100000000E-03 0. -1.
    9900012    2    1    2    0    0 -0.32564174808E+02 -0.24344370294E+02 -0.30086524421E+00  0.50528875982E+02  0.30000049036E+02 0.  0.
        -12    1    1    2    0    0  0.32564174808E+02  0.24344370294E+02  0.30086524421E+00  0.40659124018E+02  0.00000000000E+00 0.  1.
         11    1    3    3    0    0 -0.17570565992E+02 -0.10662293537E+02  0.98106138928E+01  0.22774051857E+02  0.51100000000E-03 0. -1.
        -11    1    3    3    0    0 -0.81966040544E+01  0.22036499837E+01 -0.23093751796E+01  0.87962267625E+01  0.51100000000E-03 0.  1.
        -12    1    3    3    0    0 -0.67970047620E+01 -0.15885726741E+02 -0.78021039574E+01  0.18958597363E+02  0.00000000000E+00 0.  1.
</event>
<event>
 7    1  0.3129575E-011  0.5052886E+02  0.7816164E-02  0.1300439E+00
        -11   -1    0    0    0    0  0.00000000000E+00  0.00000000000E+00  0.45593999997E+02  0.45594000000E+02  0.51100000000E-03 0. -1.
         11   -1    0    0    0    0 -0.00000000000E+00 -0.00000000000E+00 -0.45593999997E+02  0.45594000000E+02  0.51100000000E-03 0.  1.
    9900012    2    1    2    0    0  0.16784868822E+02  0.34811022385E+02  0.12634353094E+02  0.50528856145E+02  0.29999988739E+02 0.  0.
        -12    1    1    2    0    0 -0.16784868822E+02 -0.34811022385E+02 -0.12634353094E+02  0.40659143855E+02  0.00000000000E+00 0.  1.
         11    1    3    3    0    0  0.13505635954E-01  0.70960975283E+01  0.48240645481E+01  0.85805816562E+01  0.51100000000E-03 0. -1.
        -11    1    3    3    0    0  0.10755989323E+02  0.20816535583E+01  0.10880159025E+02  0.15440286543E+02  0.51100000000E-03 0.  1.
        -12    1    3    3    0    0  0.60153738635E+01  0.25633271299E+02 -0.30698704799E+01  0.26507987946E+02  0.00000000000E+00 0.  1.
</event>
<event>
 7    1  0.3129575E-011  0.5052886E+02  0.7816164E-02  0.1300439E+00
        -11   -1    0    0    0    0  0.00000000000E+00  0.00000000000E+00  0.45593999997E+02  0.45594000000E+02  0.51100000000E-03 0. -1.
         11   -1    0    0    0    0 -0.00000000000E+00 -0.00000000000E+00 -0.45593999997E+02  0.45594000000E+02  0.51100000000E-03 0.  1.
    9900012    2    1    2    0    0 -0.25968804596E+02 -0.28803548275E+02 -0.12212401063E+02  0.50528856562E+02  0.29999990006E+02 0.  0.
        -12    1    1    2    0    0  0.25968804596E+02  0.28803548275E+02  0.12212401063E+02  0.40659143438E+02  0.00000000000E+00 0.  1.
         11    1    3    3    0    0  0.43197753780E+01 -0.11139409332E+02  0.16372368526E+01  0.12059330178E+02  0.51100000000E-03 0.  1.
        -11    1    3    3    0    0 -0.10521170216E+02 -0.39859281784E+01 -0.12243187973E+01  0.11317314298E+02  0.51100000000E-03 0. -1.
        -12    1    3    3    0    0 -0.19767409758E+02 -0.13678210765E+02 -0.12625319119E+02  0.27152212085E+02  0.00000000000E+00 0.  1.
</event>
<event>
 7    1  0.3129575E-011  0.5052885E+02  0.7816164E-02  0.1300439E+00
        -11   -1    0    0    0    0  0.00000000000E+00  0.00000000000E+00  0.45593999997E+02  0.45594000000E+02  0.51100000000E-03 0.  1.
         11   -1    0    0    0    0 -0.00000000000E+00 -0.00000000000E+00 -0.45593999997E+02  0.45594000000E+02  0.51100000000E-03 0. -1.
    9900012    2    1    2    0    0 -0.86782028815E+00 -0.43797048391E+01 -0.40413258003E+02  0.50528851596E+02  0.29999974912E+02 0.  0.
        -12    1    1    2    0    0  0.86782028815E+00  0.43797048391E+01  0.40413258003E+02  0.40659148404E+02  0.00000000000E+00 0.  1.
         11    1    3    3    0    0  0.34124038483E+01  0.56222447795E+00 -0.10892040104E+00  0.34601243189E+01  0.51100000000E-03 0.  1.
        -11    1    3    3    0    0  0.43836260130E+01 -0.57786660977E+01 -0.37086006896E+02  0.37788636740E+02  0.51100000000E-03 0. -1.
         12    1    3    3    0    0 -0.86638501494E+01  0.83673678057E+00 -0.32183307054E+01  0.92800905373E+01  0.00000000000E+00 0. -1.
</event>
<event>
 7    1  0.3129575E-011  0.5052888E+02  0.7816164E-02  0.1300439E+00
        -11   -1    0    0    0    0  0.00000000000E+00  0.00000000000E+00  0.45593999997E+02  0.45594000000E+02  0.51100000000E-03 0. -1.
         11   -1    0    0    0    0 -0.00000000000E+00 -0.00000000000E+00 -0.45593999997E+02  0.45594000000E+02  0.51100000000E-03 0.  1.
    9900012    2    1    2    0    0 -0.39891565007E+02  0.43125933418E+01  0.65748668604E+01  0.50528876863E+02  0.30000051712E+02 0.  0.
        -12    1    1    2    0    0  0.39891565007E+02 -0.43125933418E+01 -0.65748668604E+01  0.40659123137E+02  0.00000000000E+00 0.  1.
         11    1    3    3    0    0 -0.29462918947E+02  0.27608650938E+01  0.66740649274E+01  0.30335278338E+02  0.51100000000E-03 0. -1.
        -11    1    3    3    0    0 -0.12418792029E+02 -0.48107506734E+01 -0.14333700625E+01  0.13394934397E+02  0.51100000000E-03 0.  1.
        -12    1    3    3    0    0  0.19901459688E+01  0.63624789214E+01  0.13341719955E+01  0.67986641273E+01  0.00000000000E+00 0.  1.
</event>
<event>
 7    1  0.3129575E-011  0.5052888E+02  0.7816164E-02  0.1300439E+00
        -11   -1    0    0    0    0  0.00000000000E+00  0.00000000000E+00  0.45593999997E+02  0.45594000000E+02  0.51100000000E-03 0.  1.
         11   -1    0    0    0    0 -0.00000000000E+00 -0.00000000000E+00 -0.45593999997E+02  0.45594000000E+02  0.51100000000E-03 0. -1.
    9900012    2    1    2    0    0  0.33452184272E+02 -0.20315105350E+02 -0.11018702220E+02  0.50528881262E+02  0.30000065083E+02 0.  0.
        -12    1    1    2    0    0 -0.33452184272E+02  0.20315105350E+02  0.11018702220E+02  0.40659118738E+02  0.00000000000E+00 0.  1.
         11    1    3    3    0    0  0.46915477643E+01 -0.72811339239E+00 -0.77567739671E+01  0.90944110406E+01  0.51100000000E-03 0. -1.
        -11    1    3    3    0    0  0.57922289577E+01  0.41182018376E+00  0.71844839149E+01  0.92377660475E+01  0.51100000000E-03 0.  1.
         12    1    3    3    0    0  0.22968407550E+02 -0.19998812142E+02 -0.10446412168E+02  0.32196704174E+02  0.00000000000E+00 0. -1.
</event>
<event>
 7    1  0.3129575E-011  0.5052886E+02  0.7816164E-02  0.1300439E+00
        -11   -1    0    0    0    0  0.00000000000E+00  0.00000000000E+00  0.45593999997E+02  0.45594000000E+02  0.51100000000E-03 0.  1.
         11   -1    0    0    0    0 -0.00000000000E+00 -0.00000000000E+00 -0.45593999997E+02  0.45594000000E+02  0.51100000000E-03 0. -1.
    9900012    2    1    2    0    0 -0.59156570546E+01 -0.21695008621E+02 -0.33874730232E+02  0.50528859014E+02  0.29999997459E+02 0.  0.
        -12    1    1    2    0    0  0.59156570546E+01  0.21695008621E+02  0.33874730232E+02  0.40659140986E+02  0.00000000000E+00 0.  1.
         11    1    3    3    0    0  0.81403708748E+00 -0.11301060374E+02  0.55755697410E+00  0.11344050952E+02  0.51100000000E-03 0. -1.
        -11    1    3    3    0    0 -0.64893542567E+01  0.15034399245E+01 -0.10104774922E+02  0.12102831353E+02  0.51100000000E-03 0.  1.
         12    1    3    3    0    0 -0.24033988537E+00 -0.11897388172E+02 -0.24327512284E+02  0.27081976709E+02  0.00000000000E+00 0. -1.
</event>
<event>
 7    1  0.3129575E-011  0.5052886E+02  0.7816164E-02  0.1300439E+00
        -11   -1    0    0    0    0  0.00000000000E+00  0.00000000000E+00  0.45593999997E+02  0.45594000000E+02  0.51100000000E-03 0.  1.
         11   -1    0    0    0    0 -0.00000000000E+00 -0.00000000000E+00 -0.45593999997E+02  0.45594000000E+02  0.51100000000E-03 0. -1.
    9900012    2    1    2    0    0 -0.25570072072E+02  0.23025205966E+01 -0.31528325429E+02  0.50528862144E+02  0.30000006971E+02 0.  0.
        -12    1    1    2    0    0  0.25570072072E+02 -0.23025205966E+01  0.31528325429E+02  0.40659137856E+02  0.00000000000E+00 0.  1.
         11    1    3    3    0    0 -0.77267716595E+01 -0.11126174505E+02 -0.88418086791E+01  0.16176289450E+02  0.51100000000E-03 0. -1.
        -11    1    3    3    0    0 -0.26292766861E+01 -0.25669169989E+01 -0.39828496480E+01  0.54189713370E+01  0.51100000000E-03 0.  1.
        -12    1    3    3    0    0 -0.15214023727E+02  0.15995612100E+02 -0.18703667102E+02  0.28933601357E+02  0.00000000000E+00 0.  1.
</event>
<event>
 7    1  0.3129575E-011  0.5052885E+02  0.7816164E-02  0.1300439E+00
        -11   -1    0    0    0    0  0.00000000000E+00  0.00000000000E+00  0.45593999997E+02  0.45594000000E+02  0.51100000000E-03 0.  1.
         11   -1    0    0    0    0 -0.00000000000E+00 -0.00000000000E+00 -0.45593999997E+02  0.45594000000E+02  0.51100000000E-03 0. -1.
    9900012    2    1    2    0    0 -0.12931334034E+01 -0.18791921448E+02 -0.36032729134E+02  0.50528854970E+02  0.29999985167E+02 0.  0.
        -12    1    1    2    0    0  0.12931334034E+01  0.18791921448E+02  0.36032729134E+02  0.40659145030E+02  0.00000000000E+00 0.  1.
         11    1    3    3    0    0 -0.74157495388E+01 -0.20886111941E+01 -0.91700015667E+01  0.11976834596E+02  0.51100000000E-03 0. -1.
        -11    1    3    3    0    0 -0.44138039003E+01 -0.14581576700E+02 -0.89703942462E+01  0.17679706364E+02  0.51100000000E-03 0.  1.
        -12    1    3    3    0    0  0.10536420036E+02 -0.21217335530E+01 -0.17892333321E+02  0.20872314010E+02  0.00000000000E+00 0.  1.
</event>
<event>
 7    1  0.3129575E-011  0.5052887E+02  0.7816164E-02  0.1300439E+00
        -11   -1    0    0    0    0  0.00000000000E+00  0.00000000000E+00  0.45593999997E+02  0.45594000000E+02  0.51100000000E-03 0.  1.
         11   -1    0    0    0    0 -0.00000000000E+00 -0.00000000000E+00 -0.45593999997E+02  0.45594000000E+02  0.51100000000E-03 0. -1.
    9900012    2    1    2    0    0  0.29600701966E+02  0.88374610988E+01 -0.26436015588E+02  0.50528865778E+02  0.30000018019E+02 0.  0.
        -12    1    1    2    0    0 -0.29600701966E+02 -0.88374610988E+01  0.26436015588E+02  0.40659134222E+02  0.00000000000E+00 0.  1.
         11    1    3    3    0    0  0.47377962215E+01  0.78966435237E+01 -0.46450684268E+01  0.10314085172E+02  0.51100000000E-03 0.  1.
        -11    1    3    3    0    0  0.19342456333E+02 -0.76502698869E+01 -0.64345194355E+01  0.21772925549E+02  0.51100000000E-03 0. -1.
         12    1    3    3    0    0  0.55204494116E+01  0.85910874621E+01 -0.15356427725E+02  0.18441855058E+02  0.00000000000E+00 0. -1.
</event>
<event>
 7    1  0.3129575E-011  0.5052886E+02  0.7816164E-02  0.1300439E+00
        -11   -1    0    0    0    0  0.00000000000E+00  0.00000000000E+00  0.45593999997E+02  0.45594000000E+02  0.51100000000E-03 0.  1.
         11   -1    0    0    0    0 -0.00000000000E+00 -0.00000000000E+00 -0.45593999997E+02  0.45594000000E+02  0.51100000000E-03 0. -1.
    9900012    2    1    2    0    0 -0.32968610531E+02  0.93555411144E+01 -0.21879453884E+02  0.50528856722E+02  0.29999990491E+02 0.  0.
        -12    1    1    2    0    0  0.32968610531E+02 -0.93555411144E+01  0.21879453884E+02  0.40659143278E+02  0.00000000000E+00 0.  1.
         11    1    3    3    0    0 -0.27668103508E+01 -0.36345500588E+01 -0.96901592070E+01  0.10712813793E+02  0.51100000000E-03 0. -1.
        -11    1    3    3    0    0 -0.19499418538E+01  0.88672587974E+01 -0.50367872133E+01  0.10382667167E+02  0.51100000000E-03 0.  1.
         12    1    3    3    0    0 -0.28251858326E+02  0.41228323757E+01 -0.71525074634E+01  0.29433375761E+02  0.00000000000E+00 0. -1.
</event>
<event>
 7    1  0.3129575E-011  0.5052885E+02  0.7816164E-02  0.1300439E+00
        -11   -1    0    0    0    0  0.00000000000E+00  0.00000000000E+00  0.45593999997E+02  0.45594000000E+02  0.51100000000E-03 0.  1.
         11   -1    0    0    0    0 -0.00000000000E+00 -0.00000000000E+00 -0.45593999997E+02  0.45594000000E+02  0.51100000000E-03 0. -1.
    9900012    2    1    2    0    0 -0.44730480197E+01 -0.27139831086E+02 -0.29943074397E+02  0.50528852268E+02  0.29999976953E+02 0.  0.
        -12    1    1    2    0    0  0.44730480197E+01  0.27139831086E+02  0.29943074397E+02  0.40659147732E+02  0.00000000000E+00 0.  1.
         11    1    3    3    0    0  0.16543823254E+01 -0.31786662899E+01  0.36069449307E+01  0.50843831735E+01  0.51100000000E-03 0.  1.
        -11    1    3    3    0    0 -0.77996504334E+01 -0.43043348954E+01 -0.36600229445E+01  0.96310754328E+01  0.51100000000E-03 0. -1.
         12    1    3    3    0    0  0.16722200883E+01 -0.19656829901E+02 -0.29889996383E+02  0.35813393662E+02  0.00000000000E+00 0. -1.
</event>
<event>
 7    1  0.3129575E-011  0.5052887E+02  0.7816164E-02  0.1300439E+00
        -11   -1    0    0    0    0  0.00000000000E+00  0.00000000000E+00  0.45593999997E+02  0.45594000000E+02  0.51100000000E-03 0.  1.
         11   -1    0    0    0    0 -0.00000000000E+00 -0.00000000000E+00 -0.45593999997E+02  0.45594000000E+02  0.51100000000E-03 0. -1.
    9900012    2    1    2    0    0 -0.28781521227E+02 -0.59430628407E+01 -0.28097484140E+02  0.50528873410E+02  0.30000041217E+02 0.  0.
        -12    1    1    2    0    0  0.28781521227E+02  0.59430628407E+01  0.28097484140E+02  0.40659126590E+02  0.00000000000E+00 0.  1.
         11    1    3    3    0    0 -0.83754827271E+00  0.61620223404E+00 -0.62899053406E+00  0.12152455124E+01  0.51100000000E-03 0.  1.
        -11    1    3    3    0    0 -0.16516751455E+01 -0.13255713501E+01  0.60402597550E+01  0.64007740438E+01  0.51100000000E-03 0. -1.
         12    1    3    3    0    0 -0.26292297809E+02 -0.52336937247E+01 -0.33508753361E+02  0.42912853854E+02  0.00000000000E+00 0. -1.
</event>
<event>
 7    1  0.3129575E-011  0.5052886E+02  0.7816164E-02  0.1300439E+00
        -11   -1    0    0    0    0  0.00000000000E+00  0.00000000000E+00  0.45593999997E+02  0.45594000000E+02  0.51100000000E-03 0. -1.
         11   -1    0    0    0    0 -0.00000000000E+00 -0.00000000000E+00 -0.45593999997E+02  0.45594000000E+02  0.51100000000E-03 0.  1.
    9900012    2    1    2    0    0  0.14518857422E+02 -0.37424017002E+02  0.64661824689E+01  0.50528858530E+02  0.29999995987E+02 0.  0.
        -12    1    1    2    0    0 -0.14518857422E+02  0.37424017002E+02 -0.64661824689E+01  0.40659141470E+02  0.00000000000E+00 0.  1.
         11    1    3    3    0    0  0.74683158326E+01 -0.23517633166E+01 -0.44963799167E+01  0.90290622265E+01  0.51100000000E-03 0. -1.
        -11    1    3    3    0    0  0.67116521360E+01 -0.29845844500E+02  0.14316549098E+01  0.30624668886E+02  0.51100000000E-03 0.  1.
         12    1    3    3    0    0  0.33888945323E+00 -0.52264091850E+01  0.95309074758E+01  0.10875127417E+02  0.00000000000E+00 0. -1.
</event>
<event>
 7    1  0.3129575E-011  0.5052887E+02  0.7816164E-02  0.1300439E+00
        -11   -1    0    0    0    0  0.00000000000E+00  0.00000000000E+00  0.45593999997E+02  0.45594000000E+02  0.51100000000E-03 0.  1.
         11   -1    0    0    0    0 -0.00000000000E+00 -0.00000000000E+00 -0.45593999997E+02  0.45594000000E+02  0.51100000000E-03 0. -1.
    9900012    2    1    2    0    0  0.25770778260E+02  0.19626459658E+02 -0.24573026337E+02  0.50528873667E+02  0.30000041997E+02 0.  0.
        -12    1    1    2    0    0 -0.25770778260E+02 -0.19626459658E+02  0.24573026337E+02  0.40659126333E+02  0.00000000000E+00 0.  1.
         11    1    3    3    0    0  0.20335250551E+02  0.18874273321E+02 -0.12021822248E+02  0.30237143033E+02  0.51100000000E-03 0. -1.
        -11    1    3    3    0    0 -0.76653050620E+00 -0.30331915104E+01  0.22159300954E+01  0.38338187496E+01  0.51100000000E-03 0.  1.
         12    1    3    3    0    0  0.62020582154E+01  0.37853778467E+01 -0.14767134185E+02  0.16457911884E+02  0.00000000000E+00 0. -1.
</event>
<event>
 7    1  0.3129575E-011  0.5052886E+02  0.7816164E-02  0.1300439E+00
        -11   -1    0    0    0    0  0.00000000000E+00  0.00000000000E+00  0.45593999997E+02  0.45594000000E+02  0.51100000000E-03 0.  1.
         11   -1    0    0    0    0 -0.00000000000E+00 -0.00000000000E+00 -0.45593999997E+02  0.45594000000E+02  0.51100000000E-03 0. -1.
    9900012    2    1    2    0    0 -0.39868683217E+02 -0.26167394063E+01 -0.75370201077E+01  0.50528857133E+02  0.29999991742E+02 0.  0.
        -12    1    1    2    0    0  0.39868683217E+02  0.26167394063E+01  0.75370201077E+01  0.40659142867E+02  0.00000000000E+00 0.  1.
         11    1    3    3    0    0 -0.22538320356E+02  0.66501869983E+01 -0.41161600673E+01  0.23856731661E+02  0.51100000000E-03 0. -1.
        -11    1    3    3    0    0 -0.21008929310E+02 -0.85782518634E+01 -0.26054093687E+01  0.22841840425E+02  0.51100000000E-03 0.  1.
         12    1    3    3    0    0  0.36785664490E+01 -0.68867454126E+00 -0.81545067174E+00  0.38302850470E+01  0.00000000000E+00 0. -1.
</event>
<event>
 7    1  0.3379278E-011  0.5052885E+02  0.7816164E-02  0.1300439E+00
        -11   -1    0    0    0    0  0.00000000000E+00  0.00000000000E+00  0.45593999997E+02  0.45594000000E+02  0.51100000000E-03 0. -1.
         11   -1    0    0    0    0 -0.00000000000E+00 -0.00000000000E+00 -0.45593999997E+02  0.45594000000E+02  0.51100000000E-03 0.  1.
    9900012    2    1    2    0    0 -0.39205316116E+02 -0.32662900798E+01  0.10268453309E+02  0.50528848558E+02  0.29999965676E+02 0.  0.
        -12    1    1    2    0    0  0.39205316116E+02  0.32662900798E+01 -0.10268453309E+02  0.40659151442E+02  0.00000000000E+00 0.  1.
         11    1    3    3    0    0 -0.15971314459E+02 -0.33881097243E+01  0.13373142328E+02  0.21104575548E+02  0.51100000000E-03 0. -1.
        -11    1    3    3    0    0 -0.44643001349E+00 -0.48757848452E+01  0.24025659103E+01  0.54538885970E+01  0.51100000000E-03 0.  1.
         12    1    3    3    0    0 -0.22787571644E+02  0.49976044897E+01 -0.55072549293E+01  0.23970384413E+02  0.00000000000E+00 0. -1.
</event>
<event>
 7    1  0.3452440E-011  0.5052885E+02  0.7816164E-02  0.1300439E+00
        -11   -1    0    0    0    0  0.00000000000E+00  0.00000000000E+00  0.45593999997E+02  0.45594000000E+02  0.51100000000E-03 0. -1.
         11   -1    0    0    0    0 -0.00000000000E+00 -0.00000000000E+00 -0.45593999997E+02  0.45594000000E+02  0.51100000000E-03 0.  1.
    9900012    2    1    2    0    0  0.94139118658E+01 -0.27948951065E+02  0.27989297057E+02  0.50528851558E+02  0.29999974796E+02 0.  0.
        -12    1    1    2    0    0 -0.94139118658E+01  0.27948951065E+02 -0.27989297057E+02  0.40659148442E+02  0.00000000000E+00 0.  1.
         11    1    3    3    0    0  0.85997536086E+01 -0.14737184237E+02  0.19231296610E+02  0.25709592197E+02  0.51100000000E-03 0. -1.
        -11    1    3    3    0    0  0.95153010952E+01 -0.59730183955E+01  0.14054430807E+01  0.11322242455E+02  0.51100000000E-03 0.  1.
         12    1    3    3    0    0 -0.87011428380E+01 -0.72387484329E+01  0.73525573662E+01  0.13497016907E+02  0.00000000000E+00 0. -1.
</event>
<event>
 7    1  0.3129575E-011  0.5052887E+02  0.7816164E-02  0.1300439E+00
        -11   -1    0    0    0    0  0.00000000000E+00  0.00000000000E+00  0.45593999997E+02  0.45594000000E+02  0.51100000000E-03 0.  1.
         11   -1    0    0    0    0 -0.00000000000E+00 -0.00000000000E+00 -0.45593999997E+02  0.45594000000E+02  0.51100000000E-03 0. -1.
    9900012    2    1    2    0    0 -0.32006273491E+02 -0.17677235196E+02 -0.17784229001E+02  0.50528868330E+02  0.30000025777E+02 0.  0.
        -12    1    1    2    0    0  0.32006273491E+02  0.17677235196E+02  0.17784229001E+02  0.40659131670E+02  0.00000000000E+00 0.  1.
         11    1    3    3    0    0 -0.60078796058E+01 -0.12073271374E+02  0.16734048660E+01  0.13588921338E+02  0.51100000000E-03 0. -1.
        -11    1    3    3    0    0 -0.42723904929E+01 -0.79981289272E+01 -0.87482510783E+01  0.12599812858E+02  0.51100000000E-03 0.  1.
        -12    1    3    3    0    0 -0.21726003393E+02  0.23941651057E+01 -0.10709382789E+02  0.24340134134E+02  0.00000000000E+00 0.  1.
</event>
<event>
 7    1  0.3129575E-011  0.5052884E+02  0.7816164E-02  0.1300439E+00
        -11   -1    0    0    0    0  0.00000000000E+00  0.00000000000E+00  0.45593999997E+02  0.45594000000E+02  0.51100000000E-03 0.  1.
         11   -1    0    0    0    0 -0.00000000000E+00 -0.00000000000E+00 -0.45593999997E+02  0.45594000000E+02  0.51100000000E-03 0. -1.
    9900012    2    1    2    0    0 -0.12467348097E+02  0.31557980201E+02 -0.22401490416E+02  0.50528835525E+02  0.29999926061E+02 0.  0.
        -12    1    1    2    0    0  0.12467348097E+02 -0.31557980201E+02  0.22401490416E+02  0.40659164475E+02  0.00000000000E+00 0.  1.
         11    1    3    3    0    0 -0.11355118857E+02  0.76610201564E+01 -0.48795045130E+01  0.14540960032E+02  0.51100000000E-03 0. -1.
        -11    1    3    3    0    0 -0.66257915527E+01  0.19951318247E+02 -0.47874799840E+01  0.21560987416E+02  0.51100000000E-03 0.  1.
         12    1    3    3    0    0  0.55135623128E+01  0.39456417982E+01 -0.12734505919E+02  0.14426888077E+02  0.00000000000E+00 0. -1.
</event>
<event>
 7    1  0.3129575E-011  0.5052886E+02  0.7816164E-02  0.1300439E+00
        -11   -1    0    0    0    0  0.00000000000E+00  0.00000000000E+00  0.45593999997E+02  0.45594000000E+02  0.51100000000E-03 0.  1.
         11   -1    0    0    0    0 -0.00000000000E+00 -0.00000000000E+00 -0.45593999997E+02  0.45594000000E+02  0.51100000000E-03 0. -1.
    9900012    2    1    2    0    0  0.35192750716E+02  0.20319992156E+02 -0.13167502426E+01  0.50528860617E+02  0.30000002331E+02 0.  0.
        -12    1    1    2    0    0 -0.35192750716E+02 -0.20319992156E+02  0.13167502426E+01  0.40659139383E+02  0.00000000000E+00 0.  1.
         11    1    3    3    0    0  0.10345539049E+02  0.87524688578E+01 -0.21306504672E+00  0.13552906932E+02  0.51100000000E-03 0. -1.
        -11    1    3    3    0    0  0.38068724994E+01  0.76129183046E+01  0.97752651540E+01  0.12961659324E+02  0.51100000000E-03 0.  1.
        -12    1    3    3    0    0  0.21040339168E+02  0.39546049931E+01 -0.10878950350E+02  0.24014294361E+02  0.00000000000E+00 0.  1.
</event>
<event>
 7    1  0.4828814E-011  0.5052889E+02  0.7816164E-02  0.1300439E+00
        -11   -1    0    0    0    0  0.00000000000E+00  0.00000000000E+00  0.45593999997E+02  0.45594000000E+02  0.51100000000E-03 0. -1.
         11   -1    0    0    0    0 -0.00000000000E+00 -0.00000000000E+00 -0.45593999997E+02  0.45594000000E+02  0.51100000000E-03 0.  1.
    9900012    2    1    2    0    0 -0.10214789159E+02 -0.26218525838E+02  0.29349786868E+02  0.50528892731E+02  0.30000099946E+02 0.  0.
        -12    1    1    2    0    0  0.10214789159E+02  0.26218525838E+02 -0.29349786868E+02  0.40659107269E+02  0.00000000000E+00 0.  1.
         11    1    3    3    0    0 -0.18681328834E+01 -0.13504984287E+02  0.20916622479E+02  0.24967571313E+02  0.51100000000E-03 0. -1.
        -11    1    3    3    0    0  0.17251548985E+01 -0.12537951161E+02  0.37528134494E+00  0.12661643459E+02  0.51100000000E-03 0.  1.
         12    1    3    3    0    0 -0.10071811174E+02 -0.17559039053E+00  0.80578830438E+01  0.12899677959E+02  0.00000000000E+00 0. -1.
</event>
<event>
 7    1  0.3129575E-011  0.5052885E+02  0.7816164E-02  0.1300439E+00
        -11   -1    0    0    0    0  0.00000000000E+00  0.00000000000E+00  0.45593999997E+02  0.45594000000E+02  0.51100000000E-03 0.  1.
         11   -1    0    0    0    0 -0.00000000000E+00 -0.00000000000E+00 -0.45593999997E+02  0.45594000000E+02  0.51100000000E-03 0. -1.
    9900012    2    1    2    0    0  0.14935319083E+02 -0.25855147009E+02 -0.27597362043E+02  0.50528846360E+02  0.29999958994E+02 0.  0.
        -12    1    1    2    0    0 -0.14935319083E+02  0.25855147009E+02  0.27597362043E+02  0.40659153640E+02  0.00000000000E+00 0.  1.
         11    1    3    3    0    0  0.73417530278E+01 -0.21981390244E+02 -0.19445649381E+02  0.30252539310E+02  0.51100000000E-03 0. -1.
        -11    1    3    3    0    0  0.89940724210E+01 -0.78697829662E+01 -0.10357527878E+01  0.11995816218E+02  0.51100000000E-03 0.  1.
        -12    1    3    3    0    0 -0.14005063655E+01  0.39960262005E+01 -0.71159598743E+01  0.82804908313E+01  0.00000000000E+00 0.  1.
</event>
<event>
 7    1  0.3129575E-011  0.5052885E+02  0.7816164E-02  0.1300439E+00
        -11   -1    0    0    0    0  0.00000000000E+00  0.00000000000E+00  0.45593999997E+02  0.45594000000E+02  0.51100000000E-03 0.  1.
         11   -1    0    0    0    0 -0.00000000000E+00 -0.00000000000E+00 -0.45593999997E+02  0.45594000000E+02  0.51100000000E-03 0. -1.
    9900012    2    1    2    0    0 -0.12814124286E+02 -0.32526429327E+02 -0.20760445623E+02  0.50528849881E+02  0.29999969697E+02 0.  0.
        -12    1    1    2    0    0  0.12814124286E+02  0.32526429327E+02  0.20760445623E+02  0.40659150119E+02  0.00000000000E+00 0.  1.
         11    1    3    3    0    0  0.79777898153E+00 -0.20573427607E+02 -0.14526064265E+02  0.25197399035E+02  0.51100000000E-03 0. -1.
        -11    1    3    3    0    0 -0.11993326831E+02 -0.92586613805E+01 -0.11621067289E+02  0.19094813543E+02  0.51100000000E-03 0.  1.
        -12    1    3    3    0    0 -0.16185764363E+01 -0.26943403388E+01  0.53866859304E+01  0.62366373034E+01  0.00000000000E+00 0.  1.
</event>
<event>
 7    1  0.3129575E-011  0.5052885E+02  0.7816164E-02  0.1300439E+00
        -11   -1    0    0    0    0  0.00000000000E+00  0.00000000000E+00  0.45593999997E+02  0.45594000000E+02  0.51100000000E-03 0.  1.
         11   -1    0    0    0    0 -0.00000000000E+00 -0.00000000000E+00 -0.45593999997E+02  0.45594000000E+02  0.51100000000E-03 0. -1.
    9900012    2    1    2    0    0 -0.17408530345E+02  0.11935700742E+02 -0.34751237645E+02  0.50528850983E+02  0.29999973047E+02 0.  0.
        -12    1    1    2    0    0  0.17408530345E+02 -0.11935700742E+02  0.34751237645E+02  0.40659149017E+02  0.00000000000E+00 0.  1.
         11    1    3    3    0    0 -0.11611236908E+01  0.87103528839E+01 -0.15290562894E+02  0.17635752591E+02  0.51100000000E-03 0. -1.
        -11    1    3    3    0    0 -0.16402639614E+01  0.94156978292E+01 -0.12057680931E+02  0.15386146404E+02  0.51100000000E-03 0.  1.
         12    1    3    3    0    0 -0.14607142692E+02 -0.61903499711E+01 -0.74029938208E+01  0.17506951988E+02  0.00000000000E+00 0. -1.
</event>
<event>
 7    1  0.3129575E-011  0.5052888E+02  0.7816164E-02  0.1300439E+00
        -11   -1    0    0    0    0  0.00000000000E+00  0.00000000000E+00  0.45593999997E+02  0.45594000000E+02  0.51100000000E-03 0.  1.
         11   -1    0    0    0    0 -0.00000000000E+00 -0.00000000000E+00 -0.45593999997E+02  0.45594000000E+02  0.51100000000E-03 0. -1.
    9900012    2    1    2    0    0 -0.26858345594E+02  0.43178877478E+01 -0.30218355863E+02  0.50528881543E+02  0.30000065937E+02 0.  0.
        -12    1    1    2    0    0  0.26858345594E+02 -0.43178877478E+01  0.30218355863E+02  0.40659118457E+02  0.00000000000E+00 0.  1.
         11    1    3    3    0    0 -0.20579685876E+02  0.99566407647E+01 -0.21989245635E+02  0.31720420709E+02  0.51100000000E-03 0. -1.
        -11    1    3    3    0    0 -0.97778979282E+01 -0.21491188227E+01 -0.10130884448E+01  0.10062422574E+02  0.51100000000E-03 0.  1.
         12    1    3    3    0    0  0.34992382104E+01 -0.34896341942E+01 -0.72160217833E+01  0.87460382597E+01  0.00000000000E+00 0. -1.
</event>
<event>
 7    1  0.3129575E-011  0.5052886E+02  0.7816164E-02  0.1300439E+00
        -11   -1    0    0    0    0  0.00000000000E+00  0.00000000000E+00  0.45593999997E+02  0.45594000000E+02  0.51100000000E-03 0.  1.
         11   -1    0    0    0    0 -0.00000000000E+00 -0.00000000000E+00 -0.45593999997E+02  0.45594000000E+02  0.51100000000E-03 0. -1.
    9900012    2    1    2    0    0 -0.18189494161E+02 -0.20584605630E+02 -0.29976362555E+02  0.50528855902E+02  0.29999987999E+02 0.  0.
        -12    1    1    2    0    0  0.18189494161E+02  0.20584605630E+02  0.29976362555E+02  0.40659144098E+02  0.00000000000E+00 0.  1.
         11    1    3    3    0    0  0.31170682305E+01 -0.44815184897E+01 -0.15383612897E+02  0.16323469862E+02  0.51100000000E-03 0. -1.
        -11    1    3    3    0    0 -0.18156903320E+00  0.38897204173E+00  0.24223168363E+01  0.24600580643E+01  0.51100000000E-03 0.  1.
         12    1    3    3    0    0 -0.21124993358E+02 -0.16492059182E+02 -0.17015066495E+02  0.31745327975E+02  0.00000000000E+00 0. -1.
</event>
<event>
 7    1  0.3129575E-011  0.5052886E+02  0.7816164E-02  0.1300439E+00
        -11   -1    0    0    0    0  0.00000000000E+00  0.00000000000E+00  0.45593999997E+02  0.45594000000E+02  0.51100000000E-03 0.  1.
         11   -1    0    0    0    0 -0.00000000000E+00 -0.00000000000E+00 -0.45593999997E+02  0.45594000000E+02  0.51100000000E-03 0. -1.
    9900012    2    1    2    0    0  0.18392673005E+02 -0.12999063149E+01 -0.36237897491E+02  0.50528863373E+02  0.30000010708E+02 0.  0.
        -12    1    1    2    0    0 -0.18392673005E+02  0.12999063149E+01  0.36237897491E+02  0.40659136627E+02  0.00000000000E+00 0.  1.
         11    1    3    3    0    0  0.41128296038E-01 -0.17930519650E+01 -0.59981494446E+01  0.62605530033E+01  0.51100000000E-03 0. -1.
        -11    1    3    3    0    0  0.23741635448E+02 -0.52405843402E+01 -0.20956283218E+02  0.32098205317E+02  0.51100000000E-03 0.  1.
        -12    1    3    3    0    0 -0.53900907389E+01  0.57337299904E+01 -0.92834648283E+01  0.12170105053E+02  0.00000000000E+00 0.  1.
</event>
<event>
 7    1  0.3129575E-011  0.5052886E+02  0.7816164E-02  0.1300439E+00
        -11   -1    0    0    0    0  0.00000000000E+00  0.00000000000E+00  0.45593999997E+02  0.45594000000E+02  0.51100000000E-03 0.  1.
         11   -1    0    0    0    0 -0.00000000000E+00 -0.00000000000E+00 -0.45593999997E+02  0.45594000000E+02  0.51100000000E-03 0. -1.
    9900012    2    1    2    0    0  0.32326763790E+02 -0.21943946986E+02 -0.11252076859E+02  0.50528859575E+02  0.29999999164E+02 0.  0.
        -12    1    1    2    0    0 -0.32326763790E+02  0.21943946986E+02  0.11252076859E+02  0.40659140425E+02  0.00000000000E+00 0.  1.
         11    1    3    3    0    0  0.20081954560E+02 -0.18973022607E+02 -0.18213949299E+02  0.33090911670E+02  0.51100000000E-03 0. -1.
        -11    1    3    3    0    0  0.12862600170E+02 -0.45168994142E+01  0.42934166979E+01  0.14292735591E+02  0.51100000000E-03 0.  1.
        -12    1    3    3    0    0 -0.61779094034E+00  0.15459750351E+01  0.26684557426E+01  0.31452123148E+01  0.00000000000E+00 0.  1.
</event>
<event>
 7    1  0.3129575E-011  0.5052885E+02  0.7816164E-02  0.1300439E+00
        -11   -1    0    0    0    0  0.00000000000E+00  0.00000000000E+00  0.45593999997E+02  0.45594000000E+02  0.51100000000E-03 0. -1.
         11   -1    0    0    0    0 -0.00000000000E+00 -0.00000000000E+00 -0.45593999997E+02  0.45594000000E+02  0.51100000000E-03 0.  1.
    9900012    2    1    2    0    0  0.34483765691E+02  0.12803624169E+02  0.17323496507E+02  0.50528850730E+02  0.29999972280E+02 0.  0.
        -12    1    1    2    0    0 -0.34483765691E+02 -0.12803624169E+02 -0.17323496507E+02  0.40659149270E+02  0.00000000000E+00 0.  1.
         11    1    3    3    0    0  0.74879889554E+01 -0.46444650208E+01  0.30619108264E+01  0.93282545042E+01  0.51100000000E-03 0. -1.
        -11    1    3    3    0    0  0.46015938669E+01  0.15344121861E+02  0.76769872730E+01  0.17763808027E+02  0.51100000000E-03 0.  1.
         12    1    3    3    0    0  0.22394182869E+02  0.21039673298E+01  0.65845984079E+01  0.23436788199E+02  0.00000000000E+00 0. -1.
</event>
<event>
 7    1  0.3129575E-011  0.5052886E+02  0.7816164E-02  0.1300439E+00
        -11   -1    0    0    0    0  0.00000000000E+00  0.00000000000E+00  0.45593999997E+02  0.45594000000E+02  0.51100000000E-03 0. -1.
         11   -1    0    0    0    0 -0.00000000000E+00 -0.00000000000E+00 -0.45593999997E+02  0.45594000000E+02  0.51100000000E-03 0.  1.
    9900012    2    1    2    0    0 -0.23743797838E+02 -0.32957821191E+02 -0.17831921847E+01  0.50528859726E+02  0.29999999623E+02 0.  0.
        -12    1    1    2    0    0  0.23743797838E+02  0.32957821191E+02  0.17831921847E+01  0.40659140274E+02  0.00000000000E+00 0.  1.
         11    1    3    3    0    0  0.90783544666E+00 -0.21782574951E+01 -0.51866152657E+01  0.56982408767E+01  0.51100000000E-03 0. -1.
        -11    1    3    3    0    0 -0.34977935825E+01  0.22422410692E+01  0.37733115588E+01  0.56124936828E+01  0.51100000000E-03 0.  1.
         12    1    3    3    0    0 -0.21153839702E+02 -0.33021804765E+02 -0.36988847780E+00  0.39218125167E+02  0.00000000000E+00 0. -1.
</event>
<event>
 7    1  0.3129575E-011  0.5052888E+02  0.7816164E-02  0.1300439E+00
        -11   -1    0    0    0    0  0.00000000000E+00  0.00000000000E+00  0.45593999997E+02  0.45594000000E+02  0.51100000000E-03 0.  1.
         11   -1    0    0    0    0 -0.00000000000E+00 -0.00000000000E+00 -0.45593999997E+02  0.45594000000E+02  0.51100000000E-03 0. -1.
    9900012    2    1    2    0    0  0.56833619529E+01  0.82822743672E+01 -0.39398828244E+02  0.50528876316E+02  0.30000050049E+02 0.  0.
        -12    1    1    2    0    0 -0.56833619529E+01 -0.82822743672E+01  0.39398828244E+02  0.40659123684E+02  0.00000000000E+00 0.  1.
         11    1    3    3    0    0  0.13970365135E+02 -0.44190148927E+00 -0.64047211159E+01  0.15374876642E+02  0.51100000000E-03 0.  1.
        -11    1    3    3    0    0 -0.39057576655E+01  0.45050163058E+01 -0.18441065306E+02  0.19380995969E+02  0.51100000000E-03 0. -1.
        -12    1    3    3    0    0 -0.43812455166E+01  0.42191595506E+01 -0.14553041822E+02  0.15773003705E+02  0.00000000000E+00 0.  1.
</event>
<event>
 7    1  0.3129575E-011  0.5052886E+02  0.7816164E-02  0.1300439E+00
        -11   -1    0    0    0    0  0.00000000000E+00  0.00000000000E+00  0.45593999997E+02  0.45594000000E+02  0.51100000000E-03 0.  1.
         11   -1    0    0    0    0 -0.00000000000E+00 -0.00000000000E+00 -0.45593999997E+02  0.45594000000E+02  0.51100000000E-03 0. -1.
    9900012    2    1    2    0    0  0.10547323625E+01 -0.10736248739E+02 -0.39201866465E+02  0.50528857957E+02  0.29999994247E+02 0.  0.
        -12    1    1    2    0    0 -0.10547323625E+01  0.10736248739E+02  0.39201866465E+02  0.40659142043E+02  0.00000000000E+00 0.  1.
         11    1    3    3    0    0 -0.42458150798E+01 -0.47972668543E+01 -0.67880399861E+01  0.93337131988E+01  0.51100000000E-03 0. -1.
        -11    1    3    3    0    0  0.12447441653E+01 -0.44509931576E+01  0.30056758571E+01  0.55131493491E+01  0.51100000000E-03 0.  1.
         12    1    3    3    0    0  0.40558032770E+01 -0.14879887268E+01 -0.35419502336E+02  0.35681995409E+02  0.00000000000E+00 0. -1.
</event>
<event>
 7    1  0.3129575E-011  0.5052885E+02  0.7816164E-02  0.1300439E+00
        -11   -1    0    0    0    0  0.00000000000E+00  0.00000000000E+00  0.45593999997E+02  0.45594000000E+02  0.51100000000E-03 0.  1.
         11   -1    0    0    0    0 -0.00000000000E+00 -0.00000000000E+00 -0.45593999997E+02  0.45594000000E+02  0.51100000000E-03 0. -1.
    9900012    2    1    2    0    0  0.19945765503E+02  0.81269717314E+01 -0.34486016978E+02  0.50528848532E+02  0.29999965599E+02 0.  0.
        -12    1    1    2    0    0 -0.19945765503E+02 -0.81269717314E+01  0.34486016978E+02  0.40659151468E+02  0.00000000000E+00 0.  1.
         11    1    3    3    0    0  0.21499886123E+02  0.74084803914E+01 -0.24354879376E+02  0.33321026915E+02  0.51100000000E-03 0. -1.
        -11    1    3    3    0    0  0.15743968853E+01  0.68214957312E+01 -0.43860219815E+01  0.82612782695E+01  0.51100000000E-03 0.  1.
         12    1    3    3    0    0 -0.31285175047E+01 -0.61030043912E+01 -0.57451156211E+01  0.89465433479E+01  0.00000000000E+00 0. -1.
</event>
<event>
 7    1  0.3129575E-011  0.5052886E+02  0.7816164E-02  0.1300439E+00
        -11   -1    0    0    0    0  0.00000000000E+00  0.00000000000E+00  0.45593999997E+02  0.45594000000E+02  0.51100000000E-03 0.  1.
         11   -1    0    0    0    0 -0.00000000000E+00 -0.00000000000E+00 -0.45593999997E+02  0.45594000000E+02  0.51100000000E-03 0. -1.
    9900012    2    1    2    0    0  0.19293559108E+02  0.59876894897E+01 -0.35285573574E+02  0.50528861409E+02  0.30000004739E+02 0.  0.
        -12    1    1    2    0    0 -0.19293559108E+02 -0.59876894897E+01  0.35285573574E+02  0.40659138591E+02  0.00000000000E+00 0.  1.
         11    1    3    3    0    0 -0.80426168124E+00  0.28712938795E+01 -0.11249371732E+02  0.11637849029E+02  0.51100000000E-03 0. -1.
        -11    1    3    3    0    0  0.23346356340E+00  0.71118708777E+01  0.42419832046E+00  0.71283348051E+01  0.51100000000E-03 0.  1.
        -12    1    3    3    0    0  0.19864357226E+02 -0.39954752675E+01 -0.24460400163E+02  0.31762677575E+02  0.00000000000E+00 0.  1.
</event>
<event>
 7    1  0.3129575E-011  0.5052886E+02  0.7816164E-02  0.1300439E+00
        -11   -1    0    0    0    0  0.00000000000E+00  0.00000000000E+00  0.45593999997E+02  0.45594000000E+02  0.51100000000E-03 0.  1.
         11   -1    0    0    0    0 -0.00000000000E+00 -0.00000000000E+00 -0.45593999997E+02  0.45594000000E+02  0.51100000000E-03 0. -1.
    9900012    2    1    2    0    0 -0.21007460676E+02 -0.60610034672E+01 -0.34279971599E+02  0.50528860561E+02  0.30000002163E+02 0.  0.
        -12    1    1    2    0    0  0.21007460676E+02  0.60610034672E+01  0.34279971599E+02  0.40659139439E+02  0.00000000000E+00 0.  1.
         11    1    3    3    0    0 -0.53501021305E+01  0.62898935944E+01 -0.16180380718E+02  0.18165656461E+02  0.51100000000E-03 0. -1.
        -11    1    3    3    0    0 -0.12567695938E+02 -0.31750932989E+01 -0.13710901428E+01  0.13034879634E+02  0.51100000000E-03 0.  1.
         12    1    3    3    0    0 -0.30896626079E+01 -0.91758037627E+01 -0.16728500738E+02  0.19328324466E+02  0.00000000000E+00 0. -1.
</event>
<event>
 7    1  0.3129575E-011  0.5052886E+02  0.7816164E-02  0.1300439E+00
        -11   -1    0    0    0    0  0.00000000000E+00  0.00000000000E+00  0.45593999997E+02  0.45594000000E+02  0.51100000000E-03 0.  1.
         11   -1    0    0    0    0 -0.00000000000E+00 -0.00000000000E+00 -0.45593999997E+02  0.45594000000E+02  0.51100000000E-03 0. -1.
    9900012    2    1    2    0    0  0.18550820913E+02  0.36176889496E+02 -0.51476862073E+00  0.50528864780E+02  0.30000014985E+02 0.  0.
        -12    1    1    2    0    0 -0.18550820913E+02 -0.36176889496E+02  0.51476862073E+00  0.40659135220E+02  0.00000000000E+00 0.  1.
         11    1    3    3    0    0  0.21683657296E+01  0.12401018101E+02 -0.47731148109E+00  0.12598209650E+02  0.51100000000E-03 0. -1.
        -11    1    3    3    0    0  0.31273953228E+01  0.95359023507E+00  0.93604648808E+01  0.99150511289E+01  0.51100000000E-03 0.  1.
         12    1    3    3    0    0  0.13255059860E+02  0.22822281159E+02 -0.93979220205E+01  0.28015604001E+02  0.00000000000E+00 0. -1.
</event>
<event>
 7    1  0.3129575E-011  0.5052886E+02  0.7816164E-02  0.1300439E+00
        -11   -1    0    0    0    0  0.00000000000E+00  0.00000000000E+00  0.45593999997E+02  0.45594000000E+02  0.51100000000E-03 0. -1.
         11   -1    0    0    0    0 -0.00000000000E+00 -0.00000000000E+00 -0.45593999997E+02  0.45594000000E+02  0.51100000000E-03 0.  1.
    9900012    2    1    2    0    0  0.10308812113E+01 -0.37687514344E+02  0.15223483915E+02  0.50528856920E+02  0.29999991094E+02 0.  0.
        -12    1    1    2    0    0 -0.10308812113E+01  0.37687514344E+02 -0.15223483915E+02  0.40659143080E+02  0.00000000000E+00 0.  1.
         11    1    3    3    0    0 -0.21871875725E+01 -0.70847516279E+01  0.12037240810E+02  0.14137632817E+02  0.51100000000E-03 0. -1.
        -11    1    3    3    0    0  0.28608662768E+01  0.20986594709E+01  0.30437377500E+00  0.35611193584E+01  0.51100000000E-03 0.  1.
         12    1    3    3    0    0  0.35720250698E+00 -0.32701422187E+02  0.28818693303E+01  0.32830104744E+02  0.00000000000E+00 0. -1.
</event>
<event>
 7    1  0.3129575E-011  0.5052886E+02  0.7816164E-02  0.1300439E+00
        -11   -1    0    0    0    0  0.00000000000E+00  0.00000000000E+00  0.45593999997E+02  0.45594000000E+02  0.51100000000E-03 0.  1.
         11   -1    0    0    0    0 -0.00000000000E+00 -0.00000000000E+00 -0.45593999997E+02  0.45594000000E+02  0.51100000000E-03 0. -1.
    9900012    2    1    2    0    0  0.14889988109E+02  0.16846679461E+02 -0.33876879560E+02  0.50528864206E+02  0.30000013241E+02 0.  0.
        -12    1    1    2    0    0 -0.14889988109E+02 -0.16846679461E+02  0.33876879560E+02  0.40659135794E+02  0.00000000000E+00 0.  1.
         11    1    3    3    0    0  0.10856716326E+02  0.10722186603E+02 -0.20009544994E+02  0.25163772890E+02  0.51100000000E-03 0. -1.
        -11    1    3    3    0    0  0.74872110550E+01 -0.46333031080E+01 -0.21004949090E+01  0.90519559320E+01  0.51100000000E-03 0.  1.
        -12    1    3    3    0    0 -0.34539392716E+01  0.10757795966E+02 -0.11766839657E+02  0.16313135384E+02  0.00000000000E+00 0.  1.
</event>
<event>
 7    1  0.3129575E-011  0.5052885E+02  0.7816164E-02  0.1300439E+00
        -11   -1    0    0    0    0  0.00000000000E+00  0.00000000000E+00  0.45593999997E+02  0.45594000000E+02  0.51100000000E-03 0. -1.
         11   -1    0    0    0    0 -0.00000000000E+00 -0.00000000000E+00 -0.45593999997E+02  0.45594000000E+02  0.51100000000E-03 0.  1.
    9900012    2    1    2    0    0 -0.31349211131E+02 -0.11191726524E+02  0.23348203352E+02  0.50528851203E+02  0.29999973717E+02 0.  0.
        -12    1    1    2    0    0  0.31349211131E+02  0.11191726524E+02 -0.23348203352E+02  0.40659148797E+02  0.00000000000E+00 0.  1.
         11    1    3    3    0    0 -0.23400361452E+02 -0.16122911768E+02  0.52197583668E+01  0.28892405190E+02  0.51100000000E-03 0. -1.
        -11    1    3    3    0    0 -0.75825269975E+01  0.35206875723E+01  0.85872715368E+01  0.11984623038E+02  0.51100000000E-03 0.  1.
        -12    1    3    3    0    0 -0.36632268126E+00  0.14104976713E+01  0.95411734479E+01  0.96518229755E+01  0.00000000000E+00 0.  1.
</event>
<event>
 7    1  0.3129575E-011  0.5052884E+02  0.7816164E-02  0.1300439E+00
        -11   -1    0    0    0    0  0.00000000000E+00  0.00000000000E+00  0.45593999997E+02  0.45594000000E+02  0.51100000000E-03 0.  1.
         11   -1    0    0    0    0 -0.00000000000E+00 -0.00000000000E+00 -0.45593999997E+02  0.45594000000E+02  0.51100000000E-03 0. -1.
    9900012    2    1    2    0    0  0.37947431853E+02 -0.75502073517E+01 -0.12496168803E+02  0.50528838055E+02  0.29999933752E+02 0.  0.
        -12    1    1    2    0    0 -0.37947431853E+02  0.75502073517E+01  0.12496168803E+02  0.40659161945E+02  0.00000000000E+00 0.  1.
         11    1    3    3    0    0  0.89134825292E+01 -0.22659155286E+00 -0.16583352572E+01  0.90692662667E+01  0.51100000000E-03 0. -1.
        -11    1    3    3    0    0  0.25918774437E+02 -0.43354793711E+01  0.34771458148E+01  0.26507919438E+02  0.51100000000E-03 0.  1.
        -12    1    3    3    0    0  0.31151748875E+01 -0.29881364277E+01 -0.14314979361E+02  0.14951652350E+02  0.00000000000E+00 0.  1.
</event>
<event>
 7    1  0.3129575E-011  0.5052883E+02  0.7816164E-02  0.1300439E+00
        -11   -1    0    0    0    0  0.00000000000E+00  0.00000000000E+00  0.45593999997E+02  0.45594000000E+02  0.51100000000E-03 0.  1.
         11   -1    0    0    0    0 -0.00000000000E+00 -0.00000000000E+00 -0.45593999997E+02  0.45594000000E+02  0.51100000000E-03 0. -1.
    9900012    2    1    2    0    0  0.21757326909E+02 -0.81250602193E+01 -0.33373192564E+02  0.50528833018E+02  0.29999918440E+02 0.  0.
        -12    1    1    2    0    0 -0.21757326909E+02  0.81250602193E+01  0.33373192564E+02  0.40659166982E+02  0.00000000000E+00 0.  1.
         11    1    3    3    0    0  0.59714927989E+01 -0.10588994407E+02 -0.20087499460E+02  0.23479632953E+02  0.51100000000E-03 0. -1.
        -11    1    3    3    0    0  0.13749829068E+02 -0.57476355999E+01 -0.10129495801E+02  0.18019428399E+02  0.51100000000E-03 0.  1.
        -12    1    3    3    0    0  0.20360050418E+01  0.82115697877E+01 -0.31561973031E+01  0.90297716652E+01  0.00000000000E+00 0.  1.
</event>
<event>
 7    1  0.3129575E-011  0.5052886E+02  0.7816164E-02  0.1300439E+00
        -11   -1    0    0    0    0  0.00000000000E+00  0.00000000000E+00  0.45593999997E+02  0.45594000000E+02  0.51100000000E-03 0.  1.
         11   -1    0    0    0    0 -0.00000000000E+00 -0.00000000000E+00 -0.45593999997E+02  0.45594000000E+02  0.51100000000E-03 0. -1.
    9900012    2    1    2    0    0 -0.59967119800E+01 -0.39861935414E+02  0.53133380773E+01  0.50528855751E+02  0.29999987540E+02 0.  0.
        -12    1    1    2    0    0  0.59967119800E+01  0.39861935414E+02 -0.53133380773E+01  0.40659144249E+02  0.00000000000E+00 0.  1.
         11    1    3    3    0    0 -0.74728049078E+00 -0.11144187586E+02  0.12700917970E+01  0.11241195600E+02  0.51100000000E-03 0. -1.
        -11    1    3    3    0    0  0.60766008047E+01 -0.87909201879E+01  0.10998108020E+02  0.15335049246E+02  0.51100000000E-03 0.  1.
         12    1    3    3    0    0 -0.11326032294E+02 -0.19926827640E+02 -0.69548617399E+01  0.23952610904E+02  0.00000000000E+00 0. -1.
</event>
<event>
 7    1  0.3129575E-011  0.5052886E+02  0.7816164E-02  0.1300439E+00
        -11   -1    0    0    0    0  0.00000000000E+00  0.00000000000E+00  0.45593999997E+02  0.45594000000E+02  0.51100000000E-03 0.  1.
         11   -1    0    0    0    0 -0.00000000000E+00 -0.00000000000E+00 -0.45593999997E+02  0.45594000000E+02  0.51100000000E-03 0. -1.
    9900012    2    1    2    0    0  0.17846285723E+02  0.25169643481E+02 -0.26479522574E+02  0.50528856099E+02  0.29999988597E+02 0.  0.
        -12    1    1    2    0    0 -0.17846285723E+02 -0.25169643481E+02  0.26479522574E+02  0.40659143901E+02  0.00000000000E+00 0.  1.
         11    1    3    3    0    0  0.90321598879E+01 -0.29020003518E+01 -0.58069970765E+01  0.11123072129E+02  0.51100000000E-03 0. -1.
        -11    1    3    3    0    0  0.46016460836E+01  0.10313291647E+02  0.68274450722E+00  0.11313941471E+02  0.51100000000E-03 0.  1.
        -12    1    3    3    0    0  0.42124797515E+01  0.17758352185E+02 -0.21355270005E+02  0.28091842498E+02  0.00000000000E+00 0.  1.
</event>
<event>
 7    1  0.3129575E-011  0.5052887E+02  0.7816164E-02  0.1300439E+00
        -11   -1    0    0    0    0  0.00000000000E+00  0.00000000000E+00  0.45593999997E+02  0.45594000000E+02  0.51100000000E-03 0. -1.
         11   -1    0    0    0    0 -0.00000000000E+00 -0.00000000000E+00 -0.45593999997E+02  0.45594000000E+02  0.51100000000E-03 0.  1.
    9900012    2    1    2    0    0 -0.28205210823E+02  0.71622644254E+01  0.28396005518E+02  0.50528867218E+02  0.30000022395E+02 0.  0.
        -12    1    1    2    0    0  0.28205210823E+02 -0.71622644254E+01 -0.28396005518E+02  0.40659132782E+02  0.00000000000E+00 0.  1.
         11    1    3    3    0    0 -0.63750532864E+01  0.10110031394E+02  0.71303463835E+01  0.13917466688E+02  0.51100000000E-03 0.  1.
        -11    1    3    3    0    0 -0.15674598991E+02  0.12216304877E+01  0.18618116761E+01  0.15831985901E+02  0.51100000000E-03 0. -1.
         12    1    3    3    0    0 -0.61555585455E+01 -0.41693974565E+01  0.19403847458E+02  0.20779414629E+02  0.00000000000E+00 0. -1.
</event>
<event>
 7    1  0.3129575E-011  0.5052891E+02  0.7816164E-02  0.1300439E+00
        -11   -1    0    0    0    0  0.00000000000E+00  0.00000000000E+00  0.45593999997E+02  0.45594000000E+02  0.51100000000E-03 0.  1.
         11   -1    0    0    0    0 -0.00000000000E+00 -0.00000000000E+00 -0.45593999997E+02  0.45594000000E+02  0.51100000000E-03 0. -1.
    9900012    2    1    2    0    0 -0.21321649253E+02 -0.55126742486E+01 -0.34178344893E+02  0.50528910440E+02  0.30000153773E+02 0.  0.
        -12    1    1    2    0    0  0.21321649253E+02  0.55126742486E+01  0.34178344893E+02  0.40659089560E+02  0.00000000000E+00 0.  1.
         11    1    3    3    0    0 -0.16650050006E+01  0.79022776389E+01 -0.97986898834E+01  0.12697738272E+02  0.51100000000E-03 0. -1.
        -11    1    3    3    0    0 -0.50325136755E+00 -0.22488387496E+01  0.22225021880E+01  0.32015705361E+01  0.51100000000E-03 0.  1.
         12    1    3    3    0    0 -0.19153392885E+02 -0.11166113138E+02 -0.26602157197E+02  0.34629601632E+02  0.00000000000E+00 0. -1.
</event>
<event>
 7    1  0.3129575E-011  0.5052886E+02  0.7816164E-02  0.1300439E+00
        -11   -1    0    0    0    0  0.00000000000E+00  0.00000000000E+00  0.45593999997E+02  0.45594000000E+02  0.51100000000E-03 0.  1.
         11   -1    0    0    0    0 -0.00000000000E+00 -0.00000000000E+00 -0.45593999997E+02  0.45594000000E+02  0.51100000000E-03 0. -1.
    9900012    2    1    2    0    0 -0.34238214480E+02  0.21703281448E+02 -0.31428965614E+01  0.50528861357E+02  0.30000004582E+02 0.  0.
        -12    1    1    2    0    0  0.34238214480E+02 -0.21703281448E+02  0.31428965614E+01  0.40659138643E+02  0.00000000000E+00 0.  1.
         11    1    3    3    0    0 -0.42747415008E+01  0.33687384485E+01 -0.22732150408E+01  0.58982472410E+01  0.51100000000E-03 0. -1.
        -11    1    3    3    0    0  0.40123099188E+01 -0.72092442956E+00  0.35764690859E+01  0.54230521204E+01  0.51100000000E-03 0.  1.
        -12    1    3    3    0    0 -0.33975782898E+02  0.19055467429E+02 -0.44461506064E+01  0.39207561996E+02  0.00000000000E+00 0.  1.
</event>
<event>
 7    1  0.3129575E-011  0.5052886E+02  0.7816164E-02  0.1300439E+00
        -11   -1    0    0    0    0  0.00000000000E+00  0.00000000000E+00  0.45593999997E+02  0.45594000000E+02  0.51100000000E-03 0. -1.
         11   -1    0    0    0    0 -0.00000000000E+00 -0.00000000000E+00 -0.45593999997E+02  0.45594000000E+02  0.51100000000E-03 0.  1.
    9900012    2    1    2    0    0 -0.20716180407E+02 -0.25359344884E+02  0.24102065055E+02  0.50528855351E+02  0.29999986326E+02 0.  0.
        -12    1    1    2    0    0  0.20716180407E+02  0.25359344884E+02 -0.24102065055E+02  0.40659144649E+02  0.00000000000E+00 0.  1.
         11    1    3    3    0    0 -0.25401463924E+02 -0.12516043656E+02  0.21970634510E+02  0.35841240203E+02  0.51100000000E-03 0. -1.
        -11    1    3    3    0    0 -0.53256839507E+00 -0.21728875930E+01 -0.92804084494E+00  0.24220507134E+01  0.51100000000E-03 0.  1.
         12    1    3    3    0    0  0.52178519118E+01 -0.10670413635E+02  0.30594713903E+01  0.12265564435E+02  0.00000000000E+00 0. -1.
</event>
<event>
 7    1  0.3129575E-011  0.5052885E+02  0.7816164E-02  0.1300439E+00
        -11   -1    0    0    0    0  0.00000000000E+00  0.00000000000E+00  0.45593999997E+02  0.45594000000E+02  0.51100000000E-03 0.  1.
         11   -1    0    0    0    0 -0.00000000000E+00 -0.00000000000E+00 -0.45593999997E+02  0.45594000000E+02  0.51100000000E-03 0. -1.
    9900012    2    1    2    0    0 -0.35515397294E+02  0.15724437324E+02  0.12023525744E+02  0.50528849180E+02  0.29999967566E+02 0.  0.
        -12    1    1    2    0    0  0.35515397294E+02 -0.15724437324E+02 -0.12023525744E+02  0.40659150820E+02  0.00000000000E+00 0.  1.
         11    1    3    3    0    0 -0.49428653456E+01  0.73894586656E+00 -0.98929297270E+00  0.50947678716E+01  0.51100000000E-03 0. -1.
        -11    1    3    3    0    0 -0.26867320413E+02  0.72788987974E+00  0.18305157482E+01  0.26939441680E+02  0.51100000000E-03 0.  1.
        -12    1    3    3    0    0 -0.37052115351E+01  0.14257601578E+02  0.11182302969E+02  0.18494639628E+02  0.00000000000E+00 0.  1.
</event>
<event>
 7    1  0.3129575E-011  0.5052887E+02  0.7816164E-02  0.1300439E+00
        -11   -1    0    0    0    0  0.00000000000E+00  0.00000000000E+00  0.45593999997E+02  0.45594000000E+02  0.51100000000E-03 0.  1.
         11   -1    0    0    0    0 -0.00000000000E+00 -0.00000000000E+00 -0.45593999997E+02  0.45594000000E+02  0.51100000000E-03 0. -1.
    9900012    2    1    2    0    0 -0.15761876790E+02 -0.22531914435E+02 -0.29950646453E+02  0.50528866327E+02  0.30000019688E+02 0.  0.
        -12    1    1    2    0    0  0.15761876790E+02  0.22531914435E+02  0.29950646453E+02  0.40659133673E+02  0.00000000000E+00 0.  1.
         11    1    3    3    0    0 -0.80412454144E+01 -0.30048125454E+01 -0.22705632107E+02  0.24274189088E+02  0.51100000000E-03 0. -1.
        -11    1    3    3    0    0  0.40525417345E+01 -0.36967930761E+01 -0.20275423515E+01  0.58481024106E+01  0.51100000000E-03 0.  1.
        -12    1    3    3    0    0 -0.11773173110E+02 -0.15830308814E+02 -0.52174719948E+01  0.20406574828E+02  0.00000000000E+00 0.  1.
</event>
<event>
 7    1  0.3129575E-011  0.5052886E+02  0.7816164E-02  0.1300439E+00
        -11   -1    0    0    0    0  0.00000000000E+00  0.00000000000E+00  0.45593999997E+02  0.45594000000E+02  0.51100000000E-03 0. -1.
         11   -1    0    0    0    0 -0.00000000000E+00 -0.00000000000E+00 -0.45593999997E+02  0.45594000000E+02  0.51100000000E-03 0.  1.
    9900012    2    1    2    0    0  0.22991400993E+02  0.30998065573E+02  0.12793787842E+02  0.50528860852E+02  0.30000003046E+02 0.  0.
        -12    1    1    2    0    0 -0.22991400993E+02 -0.30998065573E+02 -0.12793787842E+02  0.40659139148E+02  0.00000000000E+00 0.  1.
         11    1    3    3    0    0  0.82163172273E+01  0.19644408709E+00  0.40733396586E+01  0.91727070865E+01  0.51100000000E-03 0. -1.
        -11    1    3    3    0    0 -0.44700675107E+01  0.13152490643E+02  0.58975784597E+01  0.15091419602E+02  0.51100000000E-03 0.  1.
         12    1    3    3    0    0  0.19245151277E+02  0.17649130843E+02  0.28228697237E+01  0.26264734163E+02  0.00000000000E+00 0. -1.
</event>
<event>
 7    1  0.3129575E-011  0.5052886E+02  0.7816164E-02  0.1300439E+00
        -11   -1    0    0    0    0  0.00000000000E+00  0.00000000000E+00  0.45593999997E+02  0.45594000000E+02  0.51100000000E-03 0.  1.
         11   -1    0    0    0    0 -0.00000000000E+00 -0.00000000000E+00 -0.45593999997E+02  0.45594000000E+02  0.51100000000E-03 0. -1.
    9900012    2    1    2    0    0  0.11705372212E+02 -0.38511818092E+02 -0.57436851887E+01  0.50528858458E+02  0.29999995769E+02 0.  0.
        -12    1    1    2    0    0 -0.11705372212E+02  0.38511818092E+02  0.57436851887E+01  0.40659141542E+02  0.00000000000E+00 0.  1.
         11    1    3    3    0    0  0.51715500786E+01 -0.20975589223E+02 -0.14763239068E+02  0.26166266480E+02  0.51100000000E-03 0. -1.
        -11    1    3    3    0    0  0.85752762407E+01 -0.13149133204E+02  0.19832193281E+01  0.15823028338E+02  0.51100000000E-03 0.  1.
        -12    1    3    3    0    0 -0.20414541072E+01 -0.43870956655E+01  0.70363345510E+01  0.85395636401E+01  0.00000000000E+00 0.  1.
</event>
<event>
 7    1  0.3129575E-011  0.5052886E+02  0.7816164E-02  0.1300439E+00
        -11   -1    0    0    0    0  0.00000000000E+00  0.00000000000E+00  0.45593999997E+02  0.45594000000E+02  0.51100000000E-03 0.  1.
         11   -1    0    0    0    0 -0.00000000000E+00 -0.00000000000E+00 -0.45593999997E+02  0.45594000000E+02  0.51100000000E-03 0. -1.
    9900012    2    1    2    0    0  0.21236889213E+02  0.27575353998E+00 -0.34671079955E+02  0.50528864634E+02  0.30000014541E+02 0.  0.
        -12    1    1    2    0    0 -0.21236889213E+02 -0.27575353998E+00  0.34671079955E+02  0.40659135366E+02  0.00000000000E+00 0.  1.
         11    1    3    3    0    0  0.11028678242E+01 -0.47021112840E+01 -0.18457721366E+02  0.19079141653E+02  0.51100000000E-03 0. -1.
        -11    1    3    3    0    0  0.14131921014E+02 -0.44970537852E+01 -0.13155635124E+02  0.19824364304E+02  0.51100000000E-03 0.  1.
        -12    1    3    3    0    0  0.60021003743E+01  0.94749186092E+01 -0.30577234662E+01  0.11625358676E+02  0.00000000000E+00 0.  1.
</event>
<event>
 7    1  0.3129575E-011  0.5052888E+02  0.7816164E-02  0.1300439E+00
        -11   -1    0    0    0    0  0.00000000000E+00  0.00000000000E+00  0.45593999997E+02  0.45594000000E+02  0.51100000000E-03 0. -1.
         11   -1    0    0    0    0 -0.00000000000E+00 -0.00000000000E+00 -0.45593999997E+02  0.45594000000E+02  0.51100000000E-03 0.  1.
    9900012    2    1    2    0    0  0.36308474474E+01  0.25520642440E+02  0.31443252610E+02  0.50528875828E+02  0.30000048566E+02 0.  0.
        -12    1    1    2    0    0 -0.36308474474E+01 -0.25520642440E+02 -0.31443252610E+02  0.40659124172E+02  0.00000000000E+00 0.  1.
         11    1    3    3    0    0 -0.58700359347E+01  0.14138982653E+02  0.71650383546E+01  0.16902837845E+02  0.51100000000E-03 0. -1.
        -11    1    3    3    0    0  0.11591983426E+02  0.12997055107E+02  0.12203386135E+02  0.21265468596E+02  0.51100000000E-03 0.  1.
        -12    1    3    3    0    0 -0.20911000437E+01 -0.16153953190E+01  0.12074828121E+02  0.12360569387E+02  0.00000000000E+00 0.  1.
</event>
<event>
 7    1  0.3129575E-011  0.5052885E+02  0.7816164E-02  0.1300439E+00
        -11   -1    0    0    0    0  0.00000000000E+00  0.00000000000E+00  0.45593999997E+02  0.45594000000E+02  0.51100000000E-03 0.  1.
         11   -1    0    0    0    0 -0.00000000000E+00 -0.00000000000E+00 -0.45593999997E+02  0.45594000000E+02  0.51100000000E-03 0. -1.
    9900012    2    1    2    0    0  0.28611026161E+02  0.27233298259E+02 -0.96396507940E+01  0.50528853188E+02  0.29999979750E+02 0.  0.
        -12    1    1    2    0    0 -0.28611026161E+02 -0.27233298259E+02  0.96396507940E+01  0.40659146812E+02  0.00000000000E+00 0.  1.
         11    1    3    3    0    0  0.13640506880E+02  0.11264210342E+01 -0.53913059179E+01  0.14710487145E+02  0.51100000000E-03 0. -1.
        -11    1    3    3    0    0 -0.33703483978E+01  0.27182154483E+01 -0.42910758255E+01  0.60960048841E+01  0.51100000000E-03 0.  1.
        -12    1    3    3    0    0  0.18340867679E+02  0.23388661776E+02  0.42730949518E-01  0.29722361159E+02  0.00000000000E+00 0.  1.
</event>
<event>
 7    1  0.3129575E-011  0.5052887E+02  0.7816164E-02  0.1300439E+00
        -11   -1    0    0    0    0  0.00000000000E+00  0.00000000000E+00  0.45593999997E+02  0.45594000000E+02  0.51100000000E-03 0.  1.
         11   -1    0    0    0    0 -0.00000000000E+00 -0.00000000000E+00 -0.45593999997E+02  0.45594000000E+02  0.51100000000E-03 0. -1.
    9900012    2    1    2    0    0 -0.22682685754E+01 -0.34616387865E+02 -0.21206741142E+02  0.50528865466E+02  0.30000017070E+02 0.  0.
        -12    1    1    2    0    0  0.22682685754E+01  0.34616387865E+02  0.21206741142E+02  0.40659134534E+02  0.00000000000E+00 0.  1.
         11    1    3    3    0    0  0.45535978052E+01 -0.82474541909E+01 -0.27608887750E+01  0.98172430291E+01  0.51100000000E-03 0. -1.
        -11    1    3    3    0    0  0.45795778560E+01  0.23221268606E+01 -0.45282654422E+01  0.68461664215E+01  0.51100000000E-03 0.  1.
        -12    1    3    3    0    0 -0.11401444237E+02 -0.28691060535E+02 -0.13917586925E+02  0.33865456015E+02  0.00000000000E+00 0.  1.
</event>
<event>
 7    1  0.3129575E-011  0.5052886E+02  0.7816164E-02  0.1300439E+00
        -11   -1    0    0    0    0  0.00000000000E+00  0.00000000000E+00  0.45593999997E+02  0.45594000000E+02  0.51100000000E-03 0.  1.
         11   -1    0    0    0    0 -0.00000000000E+00 -0.00000000000E+00 -0.45593999997E+02  0.45594000000E+02  0.51100000000E-03 0. -1.
    9900012    2    1    2    0    0  0.33793820766E+02  0.44803510378E+00 -0.22604047372E+02  0.50528855703E+02  0.29999987394E+02 0.  0.
        -12    1    1    2    0    0 -0.33793820766E+02 -0.44803510378E+00  0.22604047372E+02  0.40659144297E+02  0.00000000000E+00 0.  1.
         11    1    3    3    0    0  0.12250781452E+02  0.65671512571E+00 -0.25769898314E+01  0.12536099784E+02  0.51100000000E-03 0. -1.
        -11    1    3    3    0    0  0.68123202546E+01  0.57641506395E+01  0.35114540351E+01  0.95897575333E+01  0.51100000000E-03 0.  1.
        -12    1    3    3    0    0  0.14730719059E+02 -0.59728306615E+01 -0.23538511576E+02  0.28402998386E+02  0.00000000000E+00 0.  1.
</event>
<event>
 7    1  0.3129575E-011  0.5052885E+02  0.7816164E-02  0.1300439E+00
        -11   -1    0    0    0    0  0.00000000000E+00  0.00000000000E+00  0.45593999997E+02  0.45594000000E+02  0.51100000000E-03 0.  1.
         11   -1    0    0    0    0 -0.00000000000E+00 -0.00000000000E+00 -0.45593999997E+02  0.45594000000E+02  0.51100000000E-03 0. -1.
    9900012    2    1    2    0    0 -0.21766399211E+02  0.20288327354E+01 -0.34282268754E+02  0.50528852840E+02  0.29999978692E+02 0.  0.
        -12    1    1    2    0    0  0.21766399211E+02 -0.20288327354E+01  0.34282268754E+02  0.40659147160E+02  0.00000000000E+00 0.  1.
         11    1    3    3    0    0 -0.11443680684E+02  0.88792837174E+01 -0.23121367740E+02  0.27283642597E+02  0.51100000000E-03 0. -1.
        -11    1    3    3    0    0  0.20329260995E+01  0.36160458930E+01 -0.29440550297E+01  0.50868493889E+01  0.51100000000E-03 0.  1.
        -12    1    3    3    0    0 -0.12355644626E+02 -0.10466496875E+02 -0.82168459838E+01  0.18158360854E+02  0.00000000000E+00 0.  1.
</event>
<event>
 7    1  0.3129575E-011  0.5052886E+02  0.7816164E-02  0.1300439E+00
        -11   -1    0    0    0    0  0.00000000000E+00  0.00000000000E+00  0.45593999997E+02  0.45594000000E+02  0.51100000000E-03 0. -1.
         11   -1    0    0    0    0 -0.00000000000E+00 -0.00000000000E+00 -0.45593999997E+02  0.45594000000E+02  0.51100000000E-03 0.  1.
    9900012    2    1    2    0    0  0.13720396927E+01  0.40447668336E+02  0.39075448372E+01  0.50528864822E+02  0.30000015114E+02 0.  0.
        -12    1    1    2    0    0 -0.13720396927E+01 -0.40447668336E+02 -0.39075448372E+01  0.40659135178E+02  0.00000000000E+00 0.  1.
         11    1    3    3    0    0  0.41781497743E+00  0.84242552163E+00 -0.10467518076E+01  0.14071033092E+01  0.51100000000E-03 0.  1.
        -11    1    3    3    0    0 -0.13041136164E+02  0.15762605359E+02  0.64043343323E+01  0.21437034744E+02  0.51100000000E-03 0. -1.
         12    1    3    3    0    0  0.13995360879E+02  0.23842637456E+02 -0.14500376875E+01  0.27684726769E+02  0.00000000000E+00 0. -1.
</event>
<event>
 7    1  0.3129575E-011  0.5052886E+02  0.7816164E-02  0.1300439E+00
        -11   -1    0    0    0    0  0.00000000000E+00  0.00000000000E+00  0.45593999997E+02  0.45594000000E+02  0.51100000000E-03 0.  1.
         11   -1    0    0    0    0 -0.00000000000E+00 -0.00000000000E+00 -0.45593999997E+02  0.45594000000E+02  0.51100000000E-03 0. -1.
    9900012    2    1    2    0    0  0.10074466531E+02 -0.14367683869E+02 -0.36677515637E+02  0.50528863648E+02  0.30000011544E+02 0.  0.
        -12    1    1    2    0    0 -0.10074466531E+02  0.14367683869E+02  0.36677515637E+02  0.40659136352E+02  0.00000000000E+00 0.  1.
         11    1    3    3    0    0  0.55676492154E+00 -0.11924318514E+02 -0.92062573264E+01  0.15074963795E+02  0.51100000000E-03 0. -1.
        -11    1    3    3    0    0 -0.35085214991E+01 -0.42792847424E+00  0.13325324819E+01  0.37773653471E+01  0.51100000000E-03 0.  1.
        -12    1    3    3    0    0  0.13026223108E+02 -0.20154368804E+01 -0.28803790792E+02  0.31676534506E+02  0.00000000000E+00 0.  1.
</event>
<event>
 7    1  0.3129575E-011  0.5052886E+02  0.7816164E-02  0.1300439E+00
        -11   -1    0    0    0    0  0.00000000000E+00  0.00000000000E+00  0.45593999997E+02  0.45594000000E+02  0.51100000000E-03 0.  1.
         11   -1    0    0    0    0 -0.00000000000E+00 -0.00000000000E+00 -0.45593999997E+02  0.45594000000E+02  0.51100000000E-03 0. -1.
    9900012    2    1    2    0    0 -0.31111430923E+02 -0.25293150042E+02 -0.67454273021E+01  0.50528863726E+02  0.30000011781E+02 0.  0.
        -12    1    1    2    0    0  0.31111430923E+02  0.25293150042E+02  0.67454273021E+01  0.40659136274E+02  0.00000000000E+00 0.  1.
         11    1    3    3    0    0 -0.16306265116E+02 -0.44317244268E+01 -0.83186968610E+01  0.18834414808E+02  0.51100000000E-03 0. -1.
        -11    1    3    3    0    0 -0.18655969141E+02 -0.18839841925E+02 -0.11919199452E+01  0.26540638684E+02  0.51100000000E-03 0.  1.
        -12    1    3    3    0    0  0.38508033343E+01 -0.20215836901E+01  0.27651895041E+01  0.51538102341E+01  0.00000000000E+00 0.  1.
</event>
<event>
 7    1  0.3129575E-011  0.5052886E+02  0.7816164E-02  0.1300439E+00
        -11   -1    0    0    0    0  0.00000000000E+00  0.00000000000E+00  0.45593999997E+02  0.45594000000E+02  0.51100000000E-03 0. -1.
         11   -1    0    0    0    0 -0.00000000000E+00 -0.00000000000E+00 -0.45593999997E+02  0.45594000000E+02  0.51100000000E-03 0.  1.
    9900012    2    1    2    0    0  0.12720155819E+02  0.25467148067E+02  0.29030801508E+02  0.50528862885E+02  0.30000009226E+02 0.  0.
        -12    1    1    2    0    0 -0.12720155819E+02 -0.25467148067E+02 -0.29030801508E+02  0.40659137115E+02  0.00000000000E+00 0.  1.
         11    1    3    3    0    0  0.88703404950E+01 -0.29888708466E+01  0.14291483639E+02  0.17083992341E+02  0.51100000000E-03 0. -1.
        -11    1    3    3    0    0 -0.21477126035E+01  0.26745602117E+01  0.27018183280E+01  0.43664361087E+01  0.51100000000E-03 0.  1.
         12    1    3    3    0    0  0.59975279273E+01  0.25781458702E+02  0.12037499541E+02  0.29078434436E+02  0.00000000000E+00 0. -1.
</event>
<event>
 7    1  0.3129575E-011  0.5052887E+02  0.7816164E-02  0.1300439E+00
        -11   -1    0    0    0    0  0.00000000000E+00  0.00000000000E+00  0.45593999997E+02  0.45594000000E+02  0.51100000000E-03 0.  1.
         11   -1    0    0    0    0 -0.00000000000E+00 -0.00000000000E+00 -0.45593999997E+02  0.45594000000E+02  0.51100000000E-03 0. -1.
    9900012    2    1    2    0    0 -0.20487001126E+02  0.18780976641E+02 -0.29676969748E+02  0.50528870248E+02  0.30000031606E+02 0.  0.
        -12    1    1    2    0    0  0.20487001126E+02 -0.18780976641E+02  0.29676969748E+02  0.40659129752E+02  0.00000000000E+00 0.  1.
         11    1    3    3    0    0 -0.23480133201E+01  0.66086415968E+01 -0.98545755029E+01  0.12095452406E+02  0.51100000000E-03 0. -1.
        -11    1    3    3    0    0 -0.21222053047E+01  0.15834659068E+02 -0.13180723766E+02  0.20711631090E+02  0.51100000000E-03 0.  1.
        -12    1    3    3    0    0 -0.16016782501E+02 -0.36623240231E+01 -0.66416704798E+01  0.17721786752E+02  0.00000000000E+00 0.  1.
</event>
<event>
 7    1  0.3129575E-011  0.5052886E+02  0.7816164E-02  0.1300439E+00
        -11   -1    0    0    0    0  0.00000000000E+00  0.00000000000E+00  0.45593999997E+02  0.45594000000E+02  0.51100000000E-03 0.  1.
         11   -1    0    0    0    0 -0.00000000000E+00 -0.00000000000E+00 -0.45593999997E+02  0.45594000000E+02  0.51100000000E-03 0. -1.
    9900012    2    1    2    0    0  0.28988508281E+02  0.23267844525E+02 -0.16475429684E+02  0.50528856078E+02  0.29999988535E+02 0.  0.
        -12    1    1    2    0    0 -0.28988508281E+02 -0.23267844525E+02  0.16475429684E+02  0.40659143922E+02  0.00000000000E+00 0.  1.
         11    1    3    3    0    0  0.11933579592E+02  0.19887134844E+01 -0.44871895474E+01  0.12903494623E+02  0.51100000000E-03 0. -1.
        -11    1    3    3    0    0  0.15685277168E+02  0.14131959133E+01 -0.50729738958E+01  0.16545697536E+02  0.51100000000E-03 0.  1.
         12    1    3    3    0    0  0.13696515211E+01  0.19865935128E+02 -0.69152662403E+01  0.21079663919E+02  0.00000000000E+00 0. -1.
</event>
<event>
 7    1  0.3129575E-011  0.5052886E+02  0.7816164E-02  0.1300439E+00
        -11   -1    0    0    0    0  0.00000000000E+00  0.00000000000E+00  0.45593999997E+02  0.45594000000E+02  0.51100000000E-03 0.  1.
         11   -1    0    0    0    0 -0.00000000000E+00 -0.00000000000E+00 -0.45593999997E+02  0.45594000000E+02  0.51100000000E-03 0. -1.
    9900012    2    1    2    0    0  0.30498488599E+02  0.18182879296E+01 -0.26827258913E+02  0.50528858364E+02  0.29999995482E+02 0.  0.
        -12    1    1    2    0    0 -0.30498488599E+02 -0.18182879296E+01  0.26827258913E+02  0.40659141636E+02  0.00000000000E+00 0.  1.
         11    1    3    3    0    0  0.19634092121E+02  0.47581361622E+01 -0.24607903209E+02  0.31838441133E+02  0.51100000000E-03 0.  1.
        -11    1    3    3    0    0  0.12115958244E+02  0.23987941729E+01 -0.39050622573E+01  0.12953770460E+02  0.51100000000E-03 0. -1.
        -12    1    3    3    0    0 -0.12515617659E+01 -0.53386424055E+01  0.16857065531E+01  0.57366467706E+01  0.00000000000E+00 0.  1.
</event>
<event>
 7    1  0.3129575E-011  0.5052886E+02  0.7816164E-02  0.1300439E+00
        -11   -1    0    0    0    0  0.00000000000E+00  0.00000000000E+00  0.45593999997E+02  0.45594000000E+02  0.51100000000E-03 0.  1.
         11   -1    0    0    0    0 -0.00000000000E+00 -0.00000000000E+00 -0.45593999997E+02  0.45594000000E+02  0.51100000000E-03 0. -1.
    9900012    2    1    2    0    0  0.37061594316E+02 -0.10109695248E+02 -0.13319089424E+02  0.50528857679E+02  0.29999993400E+02 0.  0.
        -12    1    1    2    0    0 -0.37061594316E+02  0.10109695248E+02  0.13319089424E+02  0.40659142321E+02  0.00000000000E+00 0.  1.
         11    1    3    3    0    0  0.83128420766E+01 -0.93446221149E+01 -0.10062858633E+02  0.16052614428E+02  0.51100000000E-03 0. -1.
        -11    1    3    3    0    0 -0.14602409404E+01 -0.54897969149E+00  0.32218946925E+01  0.35797050124E+01  0.51100000000E-03 0.  1.
        -12    1    3    3    0    0  0.30208993180E+02 -0.21609344117E+00 -0.64781254838E+01  0.30896538238E+02  0.00000000000E+00 0.  1.
</event>
<event>
 7    1  0.3129575E-011  0.5052886E+02  0.7816164E-02  0.1300439E+00
        -11   -1    0    0    0    0  0.00000000000E+00  0.00000000000E+00  0.45593999997E+02  0.45594000000E+02  0.51100000000E-03 0.  1.
         11   -1    0    0    0    0 -0.00000000000E+00 -0.00000000000E+00 -0.45593999997E+02  0.45594000000E+02  0.51100000000E-03 0. -1.
    9900012    2    1    2    0    0 -0.26929834901E+02  0.29749021382E+02 -0.65532753098E+01  0.50528859597E+02  0.29999999231E+02 0.  0.
        -12    1    1    2    0    0  0.26929834901E+02 -0.29749021382E+02  0.65532753098E+01  0.40659140403E+02  0.00000000000E+00 0.  1.
         11    1    3    3    0    0  0.23824579292E+01  0.23124091340E+01  0.19084357055E+01  0.38295520483E+01  0.51100000000E-03 0. -1.
        -11    1    3    3    0    0 -0.19732244889E+02  0.27293865945E+02  0.35117587184E+00  0.33681447880E+02  0.51100000000E-03 0.  1.
         12    1    3    3    0    0 -0.95800479411E+01  0.14274630385E+00 -0.88128868871E+01  0.13017859668E+02  0.00000000000E+00 0. -1.
</event>
<event>
 7    1  0.3129575E-011  0.5052886E+02  0.7816164E-02  0.1300439E+00
        -11   -1    0    0    0    0  0.00000000000E+00  0.00000000000E+00  0.45593999997E+02  0.45594000000E+02  0.51100000000E-03 0. -1.
         11   -1    0    0    0    0 -0.00000000000E+00 -0.00000000000E+00 -0.45593999997E+02  0.45594000000E+02  0.51100000000E-03 0.  1.
    9900012    2    1    2    0    0  0.38541959189E+02 -0.12762846176E+02  0.21892303108E+01  0.50528860929E+02  0.30000003279E+02 0.  0.
        -12    1    1    2    0    0 -0.38541959189E+02  0.12762846176E+02 -0.21892303108E+01  0.40659139071E+02  0.00000000000E+00 0.  1.
         11    1    3    3    0    0  0.18493471713E+02 -0.67531468517E+01  0.22055278248E+00  0.19689137416E+02  0.51100000000E-03 0. -1.
        -11    1    3    3    0    0  0.99289608314E+01 -0.16425737544E+01 -0.10263624526E+02  0.14374432176E+02  0.51100000000E-03 0.  1.
         12    1    3    3    0    0  0.10119526645E+02 -0.43671255698E+01  0.12232302054E+02  0.16465291337E+02  0.00000000000E+00 0. -1.
</event>
<event>
 7    1  0.3129575E-011  0.5052886E+02  0.7816164E-02  0.1300439E+00
        -11   -1    0    0    0    0  0.00000000000E+00  0.00000000000E+00  0.45593999997E+02  0.45594000000E+02  0.51100000000E-03 0.  1.
         11   -1    0    0    0    0 -0.00000000000E+00 -0.00000000000E+00 -0.45593999997E+02  0.45594000000E+02  0.51100000000E-03 0. -1.
    9900012    2    1    2    0    0 -0.21296662611E+02 -0.33549313575E+02 -0.86059114055E+01  0.50528856000E+02  0.29999988297E+02 0.  0.
        -12    1    1    2    0    0  0.21296662611E+02  0.33549313575E+02  0.86059114055E+01  0.40659144000E+02  0.00000000000E+00 0.  1.
         11    1    3    3    0    0 -0.45804749341E+01  0.30980901675E+00  0.79408270493E+00  0.46591093411E+01  0.51100000000E-03 0.  1.
        -11    1    3    3    0    0 -0.18853354499E+02 -0.18530534658E+02 -0.13744084477E+02  0.29794790634E+02  0.51100000000E-03 0. -1.
         12    1    3    3    0    0  0.21371668226E+01 -0.15328587934E+02  0.43440903663E+01  0.16074956024E+02  0.00000000000E+00 0. -1.
</event>
<event>
 7    1  0.3129575E-011  0.5052886E+02  0.7816164E-02  0.1300439E+00
        -11   -1    0    0    0    0  0.00000000000E+00  0.00000000000E+00  0.45593999997E+02  0.45594000000E+02  0.51100000000E-03 0. -1.
         11   -1    0    0    0    0 -0.00000000000E+00 -0.00000000000E+00 -0.45593999997E+02  0.45594000000E+02  0.51100000000E-03 0.  1.
    9900012    2    1    2    0    0 -0.23472092213E+02  0.33181575676E+02  0.10998169928E+01  0.50528859889E+02  0.30000000118E+02 0.  0.
        -12    1    1    2    0    0  0.23472092213E+02 -0.33181575676E+02 -0.10998169928E+01  0.40659140111E+02  0.00000000000E+00 0.  1.
         11    1    3    3    0    0 -0.42532607106E+01  0.70664257018E+01  0.99217263666E+01  0.12902141420E+02  0.51100000000E-03 0. -1.
        -11    1    3    3    0    0 -0.13883459299E+02  0.92651128174E+01  0.21416418623E+01  0.16827934744E+02  0.51100000000E-03 0.  1.
         12    1    3    3    0    0 -0.53353722033E+01  0.16850037156E+02 -0.10963551236E+02  0.20798783725E+02  0.00000000000E+00 0. -1.
</event>
<event>
 7    1  0.3129575E-011  0.5052886E+02  0.7816164E-02  0.1300439E+00
        -11   -1    0    0    0    0  0.00000000000E+00  0.00000000000E+00  0.45593999997E+02  0.45594000000E+02  0.51100000000E-03 0. -1.
         11   -1    0    0    0    0 -0.00000000000E+00 -0.00000000000E+00 -0.45593999997E+02  0.45594000000E+02  0.51100000000E-03 0.  1.
    9900012    2    1    2    0    0 -0.70439526117E+00 -0.31346904680E+02 -0.25885158774E+02  0.50528855267E+02  0.29999986069E+02 0.  0.
        -12    1    1    2    0    0  0.70439526117E+00  0.31346904680E+02  0.25885158774E+02  0.40659144733E+02  0.00000000000E+00 0.  1.
         11    1    3    3    0    0 -0.33864662953E+01  0.19070202126E+01 -0.58952762925E+01  0.70611021013E+01  0.51100000000E-03 0. -1.
        -11    1    3    3    0    0  0.32719225333E+01 -0.15661213948E+01  0.26725071207E+01  0.45056084892E+01  0.51100000000E-03 0.  1.
         12    1    3    3    0    0 -0.58985149919E+00 -0.31687803498E+02 -0.22662389602E+02  0.38962144676E+02  0.00000000000E+00 0. -1.
</event>
<event>
 7    1  0.3129575E-011  0.5052891E+02  0.7816164E-02  0.1300439E+00
        -11   -1    0    0    0    0  0.00000000000E+00  0.00000000000E+00  0.45593999997E+02  0.45594000000E+02  0.51100000000E-03 0.  1.
         11   -1    0    0    0    0 -0.00000000000E+00 -0.00000000000E+00 -0.45593999997E+02  0.45594000000E+02  0.51100000000E-03 0. -1.
    9900012    2    1    2    0    0 -0.38313154366E+02 -0.11046252180E+02  0.79525930978E+01  0.50528914648E+02  0.30000166564E+02 0.  0.
        -12    1    1    2    0    0  0.38313154366E+02  0.11046252180E+02 -0.79525930978E+01  0.40659085352E+02  0.00000000000E+00 0.  1.
         11    1    3    3    0    0 -0.18514479266E+02  0.58436160043E+01  0.59680487567E+01  0.20311361272E+02  0.51100000000E-03 0. -1.
        -11    1    3    3    0    0 -0.13476156639E+02 -0.61961764786E+01  0.75052970382E+01  0.16623143043E+02  0.51100000000E-03 0.  1.
         12    1    3    3    0    0 -0.63225184604E+01 -0.10693691706E+02 -0.55207526970E+01  0.13594410334E+02  0.00000000000E+00 0. -1.
</event>
<event>
 7    1  0.3129575E-011  0.5052885E+02  0.7816164E-02  0.1300439E+00
        -11   -1    0    0    0    0  0.00000000000E+00  0.00000000000E+00  0.45593999997E+02  0.45594000000E+02  0.51100000000E-03 0.  1.
         11   -1    0    0    0    0 -0.00000000000E+00 -0.00000000000E+00 -0.45593999997E+02  0.45594000000E+02  0.51100000000E-03 0. -1.
    9900012    2    1    2    0    0 -0.29777460679E+02  0.37793899809E+01 -0.27425999061E+02  0.50528851243E+02  0.29999973840E+02 0.  0.
        -12    1    1    2    0    0  0.29777460679E+02 -0.37793899809E+01  0.27425999061E+02  0.40659148757E+02  0.00000000000E+00 0.  1.
         11    1    3    3    0    0 -0.23758674697E+02  0.58574733066E+01 -0.17691909322E+02  0.30195832041E+02  0.51100000000E-03 0. -1.
        -11    1    3    3    0    0 -0.40729609796E+01  0.66263477856E+01 -0.98693524178E+00  0.78403786611E+01  0.51100000000E-03 0.  1.
         12    1    3    3    0    0 -0.19458250023E+01 -0.87044311113E+01 -0.87471544966E+01  0.12492640541E+02  0.00000000000E+00 0. -1.
</event>
<event>
 7    1  0.3129575E-011  0.5052886E+02  0.7816164E-02  0.1300439E+00
        -11   -1    0    0    0    0  0.00000000000E+00  0.00000000000E+00  0.45593999997E+02  0.45594000000E+02  0.51100000000E-03 0. -1.
         11   -1    0    0    0    0 -0.00000000000E+00 -0.00000000000E+00 -0.45593999997E+02  0.45594000000E+02  0.51100000000E-03 0.  1.
    9900012    2    1    2    0    0 -0.83840701655E+01  0.28380991025E+02  0.27881751105E+02  0.50528864141E+02  0.30000013043E+02 0.  0.
        -12    1    1    2    0    0  0.83840701655E+01 -0.28380991025E+02 -0.27881751105E+02  0.40659135859E+02  0.00000000000E+00 0.  1.
         11    1    3    3    0    0  0.11891118578E+01  0.63465257395E+01 -0.18352282820E+01  0.67127072839E+01  0.51100000000E-03 0.  1.
        -11    1    3    3    0    0 -0.17035655414E+01  0.12933457057E+02  0.28957937468E+02  0.31760645296E+02  0.51100000000E-03 0. -1.
         12    1    3    3    0    0 -0.78696164818E+01  0.91010082288E+01  0.75904191953E+00  0.12055511561E+02  0.00000000000E+00 0. -1.
</event>
<event>
 7    1  0.3130811E-011  0.5052887E+02  0.7816164E-02  0.1300439E+00
        -11   -1    0    0    0    0  0.00000000000E+00  0.00000000000E+00  0.45593999997E+02  0.45594000000E+02  0.51100000000E-03 0. -1.
         11   -1    0    0    0    0 -0.00000000000E+00 -0.00000000000E+00 -0.45593999997E+02  0.45594000000E+02  0.51100000000E-03 0.  1.
    9900012    2    1    2    0    0  0.17324870540E+02 -0.34297031174E+02  0.13293898701E+02  0.50528865365E+02  0.30000016764E+02 0.  0.
        -12    1    1    2    0    0 -0.17324870540E+02  0.34297031174E+02 -0.13293898701E+02  0.40659134635E+02  0.00000000000E+00 0.  1.
         11    1    3    3    0    0 -0.17649698583E+01  0.27446425843E+00 -0.43941989325E+01  0.47433568018E+01  0.51100000000E-03 0. -1.
        -11    1    3    3    0    0  0.67538397737E+01 -0.14836552884E+01  0.31100993978E+01  0.75821041425E+01  0.51100000000E-03 0.  1.
         12    1    3    3    0    0  0.12336000625E+02 -0.33087840144E+02  0.14577998236E+02  0.38203404421E+02  0.00000000000E+00 0. -1.
</event>
<event>
 7    1  0.3129575E-011  0.5052886E+02  0.7816164E-02  0.1300439E+00
        -11   -1    0    0    0    0  0.00000000000E+00  0.00000000000E+00  0.45593999997E+02  0.45594000000E+02  0.51100000000E-03 0. -1.
         11   -1    0    0    0    0 -0.00000000000E+00 -0.00000000000E+00 -0.45593999997E+02  0.45594000000E+02  0.51100000000E-03 0.  1.
    9900012    2    1    2    0    0  0.56569283353E+01  0.34323002525E+02  0.21049848986E+02  0.50528862247E+02  0.30000007285E+02 0.  0.
        -12    1    1    2    0    0 -0.56569283353E+01 -0.34323002525E+02 -0.21049848986E+02  0.40659137753E+02  0.00000000000E+00 0.  1.
         11    1    3    3    0    0  0.16101566253E+01  0.44005817089E+01  0.12840004551E+02  0.13668337165E+02  0.51100000000E-03 0. -1.
        -11    1    3    3    0    0 -0.32281839039E+01  0.22605142282E+02  0.12088985308E+02  0.25837128225E+02  0.51100000000E-03 0.  1.
        -12    1    3    3    0    0  0.72749556139E+01  0.73172785341E+01 -0.38791408733E+01  0.11023396856E+02  0.00000000000E+00 0.  1.
</event>
<event>
 7    1  0.3129575E-011  0.5052888E+02  0.7816164E-02  0.1300439E+00
        -11   -1    0    0    0    0  0.00000000000E+00  0.00000000000E+00  0.45593999997E+02  0.45594000000E+02  0.51100000000E-03 0. -1.
         11   -1    0    0    0    0 -0.00000000000E+00 -0.00000000000E+00 -0.45593999997E+02  0.45594000000E+02  0.51100000000E-03 0.  1.
    9900012    2    1    2    0    0  0.12675505396E+02 -0.34854543442E+02  0.16663036543E+02  0.50528875287E+02  0.30000046923E+02 0.  0.
        -12    1    1    2    0    0 -0.12675505396E+02  0.34854543442E+02 -0.16663036543E+02  0.40659124713E+02  0.00000000000E+00 0.  1.
         11    1    3    3    0    0  0.34661062507E+01 -0.37135972117E+01  0.68661340643E+01  0.85409890553E+01  0.51100000000E-03 0. -1.
        -11    1    3    3    0    0  0.88880382399E+01 -0.70329523281E+00 -0.23405294152E+01  0.92179133291E+01  0.51100000000E-03 0.  1.
         12    1    3    3    0    0  0.32136090531E+00 -0.30437650998E+02  0.12137431894E+02  0.32769972903E+02  0.00000000000E+00 0. -1.
</event>
<event>
 7    1  0.3129575E-011  0.5052886E+02  0.7816164E-02  0.1300439E+00
        -11   -1    0    0    0    0  0.00000000000E+00  0.00000000000E+00  0.45593999997E+02  0.45594000000E+02  0.51100000000E-03 0.  1.
         11   -1    0    0    0    0 -0.00000000000E+00 -0.00000000000E+00 -0.45593999997E+02  0.45594000000E+02  0.51100000000E-03 0. -1.
    9900012    2    1    2    0    0 -0.22712510139E+02  0.98485590347E+01 -0.32253891410E+02  0.50528859048E+02  0.29999997562E+02 0.  0.
        -12    1    1    2    0    0  0.22712510139E+02 -0.98485590347E+01  0.32253891410E+02  0.40659140952E+02  0.00000000000E+00 0.  1.
         11    1    3    3    0    0 -0.13284975309E+02  0.80189663021E+01 -0.15627282259E+02  0.22022859500E+02  0.51100000000E-03 0. -1.
        -11    1    3    3    0    0 -0.88988031074E+01 -0.21350012272E+01  0.20731940422E+01  0.93832329601E+01  0.51100000000E-03 0.  1.
        -12    1    3    3    0    0 -0.52873172298E+00  0.39645939598E+01 -0.18699803194E+02  0.19122766588E+02  0.00000000000E+00 0.  1.
</event>
<event>
 7    1  0.3129575E-011  0.5052886E+02  0.7816164E-02  0.1300439E+00
        -11   -1    0    0    0    0  0.00000000000E+00  0.00000000000E+00  0.45593999997E+02  0.45594000000E+02  0.51100000000E-03 0.  1.
         11   -1    0    0    0    0 -0.00000000000E+00 -0.00000000000E+00 -0.45593999997E+02  0.45594000000E+02  0.51100000000E-03 0. -1.
    9900012    2    1    2    0    0 -0.21851346397E+01  0.52714872561E+01 -0.40256707382E+02  0.50528857357E+02  0.29999992421E+02 0.  0.
        -12    1    1    2    0    0  0.21851346397E+01 -0.52714872561E+01  0.40256707382E+02  0.40659142643E+02  0.00000000000E+00 0.  1.
         11    1    3    3    0    0  0.51283397577E+01 -0.21833452979E+01 -0.10198198084E+02  0.11621966691E+02  0.51100000000E-03 0. -1.
        -11    1    3    3    0    0  0.28683849409E+00  0.98607422769E+01 -0.29279738871E+02  0.30896919316E+02  0.51100000000E-03 0.  1.
        -12    1    3    3    0    0 -0.76003128915E+01 -0.24059097230E+01 -0.77877042683E+00  0.80099713496E+01  0.00000000000E+00 0.  1.
</event>
<event>
 7    1  0.3129575E-011  0.5052886E+02  0.7816164E-02  0.1300439E+00
        -11   -1    0    0    0    0  0.00000000000E+00  0.00000000000E+00  0.45593999997E+02  0.45594000000E+02  0.51100000000E-03 0. -1.
         11   -1    0    0    0    0 -0.00000000000E+00 -0.00000000000E+00 -0.45593999997E+02  0.45594000000E+02  0.51100000000E-03 0.  1.
    9900012    2    1    2    0    0  0.26327302691E+02 -0.30622262516E+02  0.47239238936E+01  0.50528864673E+02  0.30000014659E+02 0.  0.
        -12    1    1    2    0    0 -0.26327302691E+02  0.30622262516E+02 -0.47239238936E+01  0.40659135327E+02  0.00000000000E+00 0.  1.
         11    1    3    3    0    0  0.10007567784E+02 -0.12657457873E+02  0.34004415548E+01  0.16490168459E+02  0.51100000000E-03 0. -1.
        -11    1    3    3    0    0  0.18513560664E+02 -0.52888749931E+01 -0.47217797276E+01  0.19824715161E+02  0.51100000000E-03 0.  1.
         12    1    3    3    0    0 -0.21938257566E+01 -0.12675929650E+02  0.60452620664E+01  0.14213981053E+02  0.00000000000E+00 0. -1.
</event>
<event>
 7    1  0.3129575E-011  0.5052884E+02  0.7816164E-02  0.1300439E+00
        -11   -1    0    0    0    0  0.00000000000E+00  0.00000000000E+00  0.45593999997E+02  0.45594000000E+02  0.51100000000E-03 0.  1.
         11   -1    0    0    0    0 -0.00000000000E+00 -0.00000000000E+00 -0.45593999997E+02  0.45594000000E+02  0.51100000000E-03 0. -1.
    9900012    2    1    2    0    0  0.75400737471E+01 -0.27100585976E+02 -0.29357669564E+02  0.50528840705E+02  0.29999941807E+02 0.  0.
        -12    1    1    2    0    0 -0.75400737471E+01  0.27100585976E+02  0.29357669564E+02  0.40659159295E+02  0.00000000000E+00 0.  1.
         11    1    3    3    0    0  0.10020954516E+02 -0.11775295144E+01 -0.20211133541E+02  0.22589732722E+02  0.51100000000E-03 0. -1.
        -11    1    3    3    0    0 -0.58627547524E+00 -0.42250925442E+01 -0.32842880862E+01  0.53834630522E+01  0.51100000000E-03 0.  1.
         12    1    3    3    0    0 -0.18946052937E+01 -0.21697963917E+02 -0.58622479361E+01  0.22555644931E+02  0.00000000000E+00 0. -1.
</event>
<event>
 7    1  0.3129575E-011  0.5052886E+02  0.7816164E-02  0.1300439E+00
        -11   -1    0    0    0    0  0.00000000000E+00  0.00000000000E+00  0.45593999997E+02  0.45594000000E+02  0.51100000000E-03 0.  1.
         11   -1    0    0    0    0 -0.00000000000E+00 -0.00000000000E+00 -0.45593999997E+02  0.45594000000E+02  0.51100000000E-03 0. -1.
    9900012    2    1    2    0    0  0.11334079038E+01  0.17408919516E+02 -0.36726153819E+02  0.50528862447E+02  0.30000007894E+02 0.  0.
        -12    1    1    2    0    0 -0.11334079038E+01 -0.17408919516E+02  0.36726153819E+02  0.40659137553E+02  0.00000000000E+00 0.  1.
         11    1    3    3    0    0  0.38772555792E+01  0.18369378433E+01 -0.15465419456E+02  0.16049506244E+02  0.51100000000E-03 0. -1.
        -11    1    3    3    0    0 -0.34152270979E+01 -0.46526509381E+01 -0.10253660205E+01  0.58619376164E+01  0.51100000000E-03 0.  1.
         12    1    3    3    0    0  0.67137942248E+00  0.20224632611E+02 -0.20235368343E+02  0.28617418586E+02  0.00000000000E+00 0. -1.
</event>
<event>
 7    1  0.3129575E-011  0.5052886E+02  0.7816164E-02  0.1300439E+00
        -11   -1    0    0    0    0  0.00000000000E+00  0.00000000000E+00  0.45593999997E+02  0.45594000000E+02  0.51100000000E-03 0. -1.
         11   -1    0    0    0    0 -0.00000000000E+00 -0.00000000000E+00 -0.45593999997E+02  0.45594000000E+02  0.51100000000E-03 0.  1.
    9900012    2    1    2    0    0  0.26427415376E+02  0.28115103164E+02  0.12817876309E+02  0.50528864957E+02  0.30000015523E+02 0.  0.
        -12    1    1    2    0    0 -0.26427415376E+02 -0.28115103164E+02 -0.12817876309E+02  0.40659135043E+02  0.00000000000E+00 0.  1.
         11    1    3    3    0    0  0.10239052951E+02  0.77382648458E+01  0.16784251942E+02  0.21128891634E+02  0.51100000000E-03 0.  1.
        -11    1    3    3    0    0  0.10037810339E+02  0.41275082128E+01  0.19874302960E+01  0.11033759100E+02  0.51100000000E-03 0. -1.
         12    1    3    3    0    0  0.61505520863E+01  0.16249330106E+02 -0.59538059289E+01  0.18366214223E+02  0.00000000000E+00 0. -1.
</event>
<event>
 7    1  0.3129575E-011  0.5052886E+02  0.7816164E-02  0.1300439E+00
        -11   -1    0    0    0    0  0.00000000000E+00  0.00000000000E+00  0.45593999997E+02  0.45594000000E+02  0.51100000000E-03 0.  1.
         11   -1    0    0    0    0 -0.00000000000E+00 -0.00000000000E+00 -0.45593999997E+02  0.45594000000E+02  0.51100000000E-03 0. -1.
    9900012    2    1    2    0    0  0.27985284756E+02 -0.29481632932E+02  0.90699965755E+00  0.50528862139E+02  0.30000006958E+02 0.  0.
        -12    1    1    2    0    0 -0.27985284756E+02  0.29481632932E+02 -0.90699965755E+00  0.40659137861E+02  0.00000000000E+00 0.  1.
         11    1    3    3    0    0  0.16760978149E+01 -0.10208008546E+02  0.41659063248E+01  0.11152018568E+02  0.51100000000E-03 0. -1.
        -11    1    3    3    0    0  0.89926259057E+01 -0.85013092849E-01  0.71737602956E+01  0.11503798718E+02  0.51100000000E-03 0.  1.
        -12    1    3    3    0    0  0.17316561035E+02 -0.19188611293E+02 -0.10432666963E+02  0.27873044853E+02  0.00000000000E+00 0.  1.
</event>
<event>
 7    1  0.3361044E-011  0.5052886E+02  0.7816164E-02  0.1300439E+00
        -11   -1    0    0    0    0  0.00000000000E+00  0.00000000000E+00  0.45593999997E+02  0.45594000000E+02  0.51100000000E-03 0. -1.
         11   -1    0    0    0    0 -0.00000000000E+00 -0.00000000000E+00 -0.45593999997E+02  0.45594000000E+02  0.51100000000E-03 0.  1.
    9900012    2    1    2    0    0 -0.35742026385E+02 -0.62534380359E+01  0.18345786834E+02  0.50528857954E+02  0.29999994236E+02 0.  0.
        -12    1    1    2    0    0  0.35742026385E+02  0.62534380359E+01 -0.18345786834E+02  0.40659142046E+02  0.00000000000E+00 0.  1.
         11    1    3    3    0    0 -0.11525594978E+01 -0.34278864233E+01  0.79880800841E+01  0.87685929554E+01  0.51100000000E-03 0. -1.
        -11    1    3    3    0    0 -0.72578415098E+01  0.79764766500E+01  0.62723679539E+00  0.10802493665E+02  0.51100000000E-03 0.  1.
         12    1    3    3    0    0 -0.27331625377E+02 -0.10802028263E+02  0.97304699550E+01  0.30957771333E+02  0.00000000000E+00 0. -1.
</event>
<event>
 7    1  0.3129575E-011  0.5052886E+02  0.7816164E-02  0.1300439E+00
        -11   -1    0    0    0    0  0.00000000000E+00  0.00000000000E+00  0.45593999997E+02  0.45594000000E+02  0.51100000000E-03 0.  1.
         11   -1    0    0    0    0 -0.00000000000E+00 -0.00000000000E+00 -0.45593999997E+02  0.45594000000E+02  0.51100000000E-03 0. -1.
    9900012    2    1    2    0    0  0.39734359055E+02 -0.82365095308E+01 -0.25507549636E+01  0.50528859212E+02  0.29999998059E+02 0.  0.
        -12    1    1    2    0    0 -0.39734359055E+02  0.82365095308E+01  0.25507549636E+01  0.40659140788E+02  0.00000000000E+00 0.  1.
         11    1    3    3    0    0  0.21773545462E+02 -0.52831079622E+01 -0.46540248624E+00  0.22410156435E+02  0.51100000000E-03 0. -1.
        -11    1    3    3    0    0  0.18469552966E+02  0.57238348205E+01 -0.10425250403E+01  0.19364233280E+02  0.51100000000E-03 0.  1.
        -12    1    3    3    0    0 -0.50873937213E+00 -0.86772363890E+01 -0.10428274371E+01  0.87544694964E+01  0.00000000000E+00 0.  1.
</event>
<event>
 7    1  0.3129575E-011  0.5052886E+02  0.7816164E-02  0.1300439E+00
        -11   -1    0    0    0    0  0.00000000000E+00  0.00000000000E+00  0.45593999997E+02  0.45594000000E+02  0.51100000000E-03 0.  1.
         11   -1    0    0    0    0 -0.00000000000E+00 -0.00000000000E+00 -0.45593999997E+02  0.45594000000E+02  0.51100000000E-03 0. -1.
    9900012    2    1    2    0    0  0.33419487610E+02  0.58287255613E+01  0.22412704046E+02  0.50528862079E+02  0.30000006777E+02 0.  0.
        -12    1    1    2    0    0 -0.33419487610E+02 -0.58287255613E+01 -0.22412704046E+02  0.40659137921E+02  0.00000000000E+00 0.  1.
         11    1    3    3    0    0 -0.13683228354E+01  0.31321985184E+01  0.28066568609E+01  0.44227025603E+01  0.51100000000E-03 0.  1.
        -11    1    3    3    0    0  0.23853811308E+02  0.58104994071E+01  0.13358915661E+01  0.24587615252E+02  0.51100000000E-03 0. -1.
        -12    1    3    3    0    0  0.10933999138E+02 -0.31139723642E+01  0.18270155619E+02  0.21518544267E+02  0.00000000000E+00 0.  1.
</event>
<event>
 7    1  0.3129575E-011  0.5052886E+02  0.7816164E-02  0.1300439E+00
        -11   -1    0    0    0    0  0.00000000000E+00  0.00000000000E+00  0.45593999997E+02  0.45594000000E+02  0.51100000000E-03 0.  1.
         11   -1    0    0    0    0 -0.00000000000E+00 -0.00000000000E+00 -0.45593999997E+02  0.45594000000E+02  0.51100000000E-03 0. -1.
    9900012    2    1    2    0    0  0.13259146610E+02 -0.13557811960E+02 -0.35965903354E+02  0.50528862798E+02  0.30000008959E+02 0.  0.
        -12    1    1    2    0    0 -0.13259146610E+02  0.13557811960E+02  0.35965903354E+02  0.40659137202E+02  0.00000000000E+00 0.  1.
         11    1    3    3    0    0  0.36478946994E+01 -0.68941089621E+01 -0.21170145499E+02  0.22561270683E+02  0.51100000000E-03 0. -1.
        -11    1    3    3    0    0  0.13170780361E+02 -0.35643227675E+01 -0.17758432695E+02  0.22394994623E+02  0.51100000000E-03 0.  1.
        -12    1    3    3    0    0 -0.35595284500E+01 -0.30993802306E+01  0.29626748400E+01  0.55725974920E+01  0.00000000000E+00 0.  1.
</event>
<event>
 7    1  0.3129575E-011  0.5052887E+02  0.7816164E-02  0.1300439E+00
        -11   -1    0    0    0    0  0.00000000000E+00  0.00000000000E+00  0.45593999997E+02  0.45594000000E+02  0.51100000000E-03 0.  1.
         11   -1    0    0    0    0 -0.00000000000E+00 -0.00000000000E+00 -0.45593999997E+02  0.45594000000E+02  0.51100000000E-03 0. -1.
    9900012    2    1    2    0    0  0.15236295524E+02 -0.17398050117E+02 -0.33441417123E+02  0.50528865376E+02  0.30000016795E+02 0.  0.
        -12    1    1    2    0    0 -0.15236295524E+02  0.17398050117E+02  0.33441417123E+02  0.40659134624E+02  0.00000000000E+00 0.  1.
         11    1    3    3    0    0  0.97869734755E+01 -0.10853040093E+02 -0.24161856650E+02  0.28237716730E+02  0.51100000000E-03 0. -1.
        -11    1    3    3    0    0  0.11924318836E+02 -0.67710182615E+01 -0.53871250771E+01  0.14732860716E+02  0.51100000000E-03 0.  1.
        -12    1    3    3    0    0 -0.64749967873E+01  0.22600823773E+00 -0.38924353962E+01  0.75582879300E+01  0.00000000000E+00 0.  1.
</event>
<event>
 7    1  0.3129575E-011  0.5052885E+02  0.7816164E-02  0.1300439E+00
        -11   -1    0    0    0    0  0.00000000000E+00  0.00000000000E+00  0.45593999997E+02  0.45594000000E+02  0.51100000000E-03 0. -1.
         11   -1    0    0    0    0 -0.00000000000E+00 -0.00000000000E+00 -0.45593999997E+02  0.45594000000E+02  0.51100000000E-03 0.  1.
    9900012    2    1    2    0    0  0.15269805915E+02  0.37405001200E+02  0.45678765468E+01  0.50528848710E+02  0.29999966139E+02 0.  0.
        -12    1    1    2    0    0 -0.15269805915E+02 -0.37405001200E+02 -0.45678765468E+01  0.40659151290E+02  0.00000000000E+00 0.  1.
         11    1    3    3    0    0 -0.15568471077E+01  0.27222505028E+01  0.38517263770E+01  0.49669122260E+01  0.51100000000E-03 0. -1.
        -11    1    3    3    0    0  0.17183352858E+02  0.24139464024E+02  0.10239288482E+02  0.31350029787E+02  0.51100000000E-03 0.  1.
        -12    1    3    3    0    0 -0.35669983455E+00  0.10543286673E+02 -0.95231383118E+01  0.14211906697E+02  0.00000000000E+00 0.  1.
</event>
<event>
 7    1  0.6096608E-011  0.5052886E+02  0.7816164E-02  0.1300439E+00
        -11   -1    0    0    0    0  0.00000000000E+00  0.00000000000E+00  0.45593999997E+02  0.45594000000E+02  0.51100000000E-03 0. -1.
         11   -1    0    0    0    0 -0.00000000000E+00 -0.00000000000E+00 -0.45593999997E+02  0.45594000000E+02  0.51100000000E-03 0.  1.
    9900012    2    1    2    0    0  0.12286906847E+02  0.24310374431E+02  0.30186146816E+02  0.50528857800E+02  0.29999993769E+02 0.  0.
        -12    1    1    2    0    0 -0.12286906847E+02 -0.24310374431E+02 -0.30186146816E+02  0.40659142200E+02  0.00000000000E+00 0.  1.
         11    1    3    3    0    0  0.12760550149E+02  0.15206687212E+02  0.94704476972E+01  0.21994643800E+02  0.51100000000E-03 0. -1.
        -11    1    3    3    0    0 -0.28281217864E+00  0.17591116158E+01 -0.31194493325E+01  0.35924115584E+01  0.51100000000E-03 0.  1.
         12    1    3    3    0    0 -0.19083112299E+00  0.73445756033E+01  0.23835148452E+02  0.24941802441E+02  0.00000000000E+00 0. -1.
</event>
<event>
 7    1  0.3129575E-011  0.5052885E+02  0.7816164E-02  0.1300439E+00
        -11   -1    0    0    0    0  0.00000000000E+00  0.00000000000E+00  0.45593999997E+02  0.45594000000E+02  0.51100000000E-03 0.  1.
         11   -1    0    0    0    0 -0.00000000000E+00 -0.00000000000E+00 -0.45593999997E+02  0.45594000000E+02  0.51100000000E-03 0. -1.
    9900012    2    1    2    0    0  0.48756318919E+01  0.15605030214E+02 -0.37227374727E+02  0.50528853632E+02  0.29999981099E+02 0.  0.
        -12    1    1    2    0    0 -0.48756318919E+01 -0.15605030214E+02  0.37227374727E+02  0.40659146368E+02  0.00000000000E+00 0.  1.
         11    1    3    3    0    0 -0.47461430065E+01  0.12239604809E+02 -0.26781754841E+02  0.29826099174E+02  0.51100000000E-03 0. -1.
        -11    1    3    3    0    0 -0.22163405789E+01  0.32742517985E+01  0.11640403119E+01  0.41216356596E+01  0.51100000000E-03 0.  1.
        -12    1    3    3    0    0  0.11838115477E+02  0.91173606833E-01 -0.11609660198E+02  0.16581118798E+02  0.00000000000E+00 0.  1.
</event>
<event>
 7    1  0.3392209E-011  0.5052886E+02  0.7816164E-02  0.1300439E+00
        -11   -1    0    0    0    0  0.00000000000E+00  0.00000000000E+00  0.45593999997E+02  0.45594000000E+02  0.51100000000E-03 0.  1.
         11   -1    0    0    0    0 -0.00000000000E+00 -0.00000000000E+00 -0.45593999997E+02  0.45594000000E+02  0.51100000000E-03 0. -1.
    9900012    2    1    2    0    0  0.36164340020E+02  0.57935942979E+01  0.17656177437E+02  0.50528858031E+02  0.29999994471E+02 0.  0.
        -12    1    1    2    0    0 -0.36164340020E+02 -0.57935942979E+01 -0.17656177437E+02  0.40659141969E+02  0.00000000000E+00 0.  1.
         11    1    3    3    0    0  0.55341673503E+01  0.41806078647E+01 -0.38381838178E+01  0.79269253598E+01  0.51100000000E-03 0. -1.
        -11    1    3    3    0    0 -0.22199754105E+01 -0.32544650152E+00  0.56493442791E+01  0.60785933647E+01  0.51100000000E-03 0.  1.
         12    1    3    3    0    0  0.32850148080E+02  0.19384329347E+01  0.15845016975E+02  0.36523339306E+02  0.00000000000E+00 0. -1.
</event>
<event>
 7    1  0.3129575E-011  0.5052884E+02  0.7816164E-02  0.1300439E+00
        -11   -1    0    0    0    0  0.00000000000E+00  0.00000000000E+00  0.45593999997E+02  0.45594000000E+02  0.51100000000E-03 0.  1.
         11   -1    0    0    0    0 -0.00000000000E+00 -0.00000000000E+00 -0.45593999997E+02  0.45594000000E+02  0.51100000000E-03 0. -1.
    9900012    2    1    2    0    0 -0.12188324257E+01  0.32347238732E+02 -0.24603609434E+02  0.50528843550E+02  0.29999950454E+02 0.  0.
        -12    1    1    2    0    0  0.12188324257E+01 -0.32347238732E+02  0.24603609434E+02  0.40659156450E+02  0.00000000000E+00 0.  1.
         11    1    3    3    0    0  0.65641643902E+01  0.87041710978E+01  0.88891836035E+00  0.10938053975E+02  0.51100000000E-03 0.  1.
        -11    1    3    3    0    0  0.38041695521E+01  0.10726201586E+01 -0.75315632269E+01  0.85056842692E+01  0.51100000000E-03 0. -1.
         12    1    3    3    0    0 -0.11587166368E+02  0.22570447476E+02 -0.17960964567E+02  0.31085105306E+02  0.00000000000E+00 0. -1.
</event>
<event>
 7    1  0.3129575E-011  0.5052886E+02  0.7816164E-02  0.1300439E+00
        -11   -1    0    0    0    0  0.00000000000E+00  0.00000000000E+00  0.45593999997E+02  0.45594000000E+02  0.51100000000E-03 0. -1.
         11   -1    0    0    0    0 -0.00000000000E+00 -0.00000000000E+00 -0.45593999997E+02  0.45594000000E+02  0.51100000000E-03 0.  1.
    9900012    2    1    2    0    0  0.14654318595E+01  0.40024816765E+02  0.70023136340E+01  0.50528857807E+02  0.29999993791E+02 0.  0.
        -12    1    1    2    0    0 -0.14654318595E+01 -0.40024816765E+02 -0.70023136340E+01  0.40659142193E+02  0.00000000000E+00 0.  1.
         11    1    3    3    0    0 -0.66989427558E+01  0.96628489082E+01 -0.31000724512E+01  0.12159643602E+02  0.51100000000E-03 0.  1.
        -11    1    3    3    0    0 -0.53833895552E+01  0.11753510117E+02 -0.69171136514E+00  0.12946209795E+02  0.51100000000E-03 0. -1.
        -12    1    3    3    0    0  0.13547764171E+02  0.18608457740E+02  0.10794097450E+02  0.25423004410E+02  0.00000000000E+00 0.  1.
</event>
<event>
 7    1  0.3129575E-011  0.5052885E+02  0.7816164E-02  0.1300439E+00
        -11   -1    0    0    0    0  0.00000000000E+00  0.00000000000E+00  0.45593999997E+02  0.45594000000E+02  0.51100000000E-03 0. -1.
         11   -1    0    0    0    0 -0.00000000000E+00 -0.00000000000E+00 -0.45593999997E+02  0.45594000000E+02  0.51100000000E-03 0.  1.
    9900012    2    1    2    0    0  0.40493309141E+02 -0.32271926448E+01 -0.17445440529E+01  0.50528852303E+02  0.29999977059E+02 0.  0.
        -12    1    1    2    0    0 -0.40493309141E+02  0.32271926448E+01  0.17445440529E+01  0.40659147697E+02  0.00000000000E+00 0.  1.
         11    1    3    3    0    0  0.12443934035E+02  0.47338460567E+01 -0.23882241721E+01  0.13526433666E+02  0.51100000000E-03 0. -1.
        -11    1    3    3    0    0 -0.91889987061E+00  0.27394883052E+01 -0.48409570199E+01  0.56377334343E+01  0.51100000000E-03 0.  1.
         12    1    3    3    0    0  0.28968274976E+02 -0.10700527007E+02  0.54846371392E+01  0.31364685202E+02  0.00000000000E+00 0. -1.
</event>
<event>
 7    1  0.3129575E-011  0.5052886E+02  0.7816164E-02  0.1300439E+00
        -11   -1    0    0    0    0  0.00000000000E+00  0.00000000000E+00  0.45593999997E+02  0.45594000000E+02  0.51100000000E-03 0.  1.
         11   -1    0    0    0    0 -0.00000000000E+00 -0.00000000000E+00 -0.45593999997E+02  0.45594000000E+02  0.51100000000E-03 0. -1.
    9900012    2    1    2    0    0  0.20553851036E+02  0.11426391734E+02 -0.33168395376E+02  0.50528859917E+02  0.30000000205E+02 0.  0.
        -12    1    1    2    0    0 -0.20553851036E+02 -0.11426391734E+02  0.33168395376E+02  0.40659140083E+02  0.00000000000E+00 0.  1.
         11    1    3    3    0    0  0.61763011176E+01  0.89314671949E+01 -0.29119520335E+01  0.11242653897E+02  0.51100000000E-03 0. -1.
        -11    1    3    3    0    0  0.15347125643E+01 -0.81485161153E+01 -0.85385744117E+01  0.11902138916E+02  0.51100000000E-03 0.  1.
         12    1    3    3    0    0  0.12842837354E+02  0.10643440654E+02 -0.21717868931E+02  0.27384067104E+02  0.00000000000E+00 0. -1.
</event>
<event>
 7    1  0.3129575E-011  0.5052885E+02  0.7816164E-02  0.1300439E+00
        -11   -1    0    0    0    0  0.00000000000E+00  0.00000000000E+00  0.45593999997E+02  0.45594000000E+02  0.51100000000E-03 0. -1.
         11   -1    0    0    0    0 -0.00000000000E+00 -0.00000000000E+00 -0.45593999997E+02  0.45594000000E+02  0.51100000000E-03 0.  1.
    9900012    2    1    2    0    0 -0.12319347823E+01 -0.15637891560E+02  0.37511401758E+02  0.50528848784E+02  0.29999966364E+02 0.  0.
        -12    1    1    2    0    0  0.12319347823E+01  0.15637891560E+02 -0.37511401758E+02  0.40659151216E+02  0.00000000000E+00 0.  1.
         11    1    3    3    0    0 -0.14055384556E+02 -0.37112456468E+01  0.18216549190E+02  0.23306004461E+02  0.51100000000E-03 0.  1.
        -11    1    3    3    0    0  0.58336968780E+01 -0.22187642154E+01  0.11061553043E+02  0.12700901145E+02  0.51100000000E-03 0. -1.
        -12    1    3    3    0    0  0.69897528962E+01 -0.97078816974E+01  0.82332995247E+01  0.14521943178E+02  0.00000000000E+00 0.  1.
</event>
<event>
 7    1  0.3129575E-011  0.5052886E+02  0.7816164E-02  0.1300439E+00
        -11   -1    0    0    0    0  0.00000000000E+00  0.00000000000E+00  0.45593999997E+02  0.45594000000E+02  0.51100000000E-03 0.  1.
         11   -1    0    0    0    0 -0.00000000000E+00 -0.00000000000E+00 -0.45593999997E+02  0.45594000000E+02  0.51100000000E-03 0. -1.
    9900012    2    1    2    0    0  0.42079973837E+01  0.39794544561E+01 -0.40244533386E+02  0.50528858750E+02  0.29999996657E+02 0.  0.
        -12    1    1    2    0    0 -0.42079973837E+01 -0.39794544561E+01  0.40244533386E+02  0.40659141250E+02  0.00000000000E+00 0.  1.
         11    1    3    3    0    0  0.10661425841E+02 -0.39904585685E+01 -0.21087857649E+02  0.23964296381E+02  0.51100000000E-03 0. -1.
        -11    1    3    3    0    0 -0.27991872577E+01  0.30070243554E+01  0.19708132043E+01  0.45565063069E+01  0.51100000000E-03 0.  1.
        -12    1    3    3    0    0 -0.36542411994E+01  0.49628886692E+01 -0.21127488941E+02  0.22008056062E+02  0.00000000000E+00 0.  1.
</event>
<event>
 7    1  0.3129575E-011  0.5052886E+02  0.7816164E-02  0.1300439E+00
        -11   -1    0    0    0    0  0.00000000000E+00  0.00000000000E+00  0.45593999997E+02  0.45594000000E+02  0.51100000000E-03 0.  1.
         11   -1    0    0    0    0 -0.00000000000E+00 -0.00000000000E+00 -0.45593999997E+02  0.45594000000E+02  0.51100000000E-03 0. -1.
    9900012    2    1    2    0    0 -0.21594477803E+02 -0.24324343894E+02 -0.24396110452E+02  0.50528863479E+02  0.30000011030E+02 0.  0.
        -12    1    1    2    0    0  0.21594477803E+02  0.24324343894E+02  0.24396110452E+02  0.40659136521E+02  0.00000000000E+00 0.  1.
         11    1    3    3    0    0 -0.17762851286E+02 -0.29999984268E+00 -0.11657017267E+02  0.21248410236E+02  0.51100000000E-03 0. -1.
        -11    1    3    3    0    0  0.26830063902E+01 -0.22494585614E+01 -0.73833266522E+00  0.35782289607E+01  0.51100000000E-03 0.  1.
        -12    1    3    3    0    0 -0.65146329076E+01 -0.21774885490E+02 -0.12000760519E+02  0.25702224282E+02  0.00000000000E+00 0.  1.
</event>
<event>
 7    1  0.3129575E-011  0.5052886E+02  0.7816164E-02  0.1300439E+00
        -11   -1    0    0    0    0  0.00000000000E+00  0.00000000000E+00  0.45593999997E+02  0.45594000000E+02  0.51100000000E-03 0.  1.
         11   -1    0    0    0    0 -0.00000000000E+00 -0.00000000000E+00 -0.45593999997E+02  0.45594000000E+02  0.51100000000E-03 0. -1.
    9900012    2    1    2    0    0  0.24179529480E+02  0.25198660084E+02 -0.20821709605E+02  0.50528859493E+02  0.29999998914E+02 0.  0.
        -12    1    1    2    0    0 -0.24179529480E+02 -0.25198660084E+02  0.20821709605E+02  0.40659140507E+02  0.00000000000E+00 0.  1.
         11    1    3    3    0    0  0.46961821648E+01  0.73006395739E+01  0.16384275711E+01  0.88339068526E+01  0.51100000000E-03 0. -1.
        -11    1    3    3    0    0 -0.98222498226E+00  0.58854172751E+01  0.31776288893E+01  0.67601943786E+01  0.51100000000E-03 0.  1.
         12    1    3    3    0    0  0.20465572298E+02  0.12012603235E+02 -0.25637766065E+02  0.34934758261E+02  0.00000000000E+00 0. -1.
</event>
<event>
 7    1  0.3129575E-011  0.5052885E+02  0.7816164E-02  0.1300439E+00
        -11   -1    0    0    0    0  0.00000000000E+00  0.00000000000E+00  0.45593999997E+02  0.45594000000E+02  0.51100000000E-03 0.  1.
         11   -1    0    0    0    0 -0.00000000000E+00 -0.00000000000E+00 -0.45593999997E+02  0.45594000000E+02  0.51100000000E-03 0. -1.
    9900012    2    1    2    0    0  0.16947166453E+02 -0.31575886633E+02 -0.19207376959E+02  0.50528851004E+02  0.29999973111E+02 0.  0.
        -12    1    1    2    0    0 -0.16947166453E+02  0.31575886633E+02  0.19207376959E+02  0.40659148996E+02  0.00000000000E+00 0.  1.
         11    1    3    3    0    0  0.65794762928E+00  0.15870661682E+01  0.42302074943E+01  0.45657781167E+01  0.51100000000E-03 0. -1.
        -11    1    3    3    0    0 -0.13907806526E+01 -0.62674943888E+01 -0.80250473278E+01  0.10277020075E+02  0.51100000000E-03 0.  1.
         12    1    3    3    0    0  0.17679999477E+02 -0.26895458412E+02 -0.15412537126E+02  0.35686052813E+02  0.00000000000E+00 0. -1.
</event>
<event>
 7    1  0.3129575E-011  0.5052885E+02  0.7816164E-02  0.1300439E+00
        -11   -1    0    0    0    0  0.00000000000E+00  0.00000000000E+00  0.45593999997E+02  0.45594000000E+02  0.51100000000E-03 0. -1.
         11   -1    0    0    0    0 -0.00000000000E+00 -0.00000000000E+00 -0.45593999997E+02  0.45594000000E+02  0.51100000000E-03 0.  1.
    9900012    2    1    2    0    0  0.30812107434E+01  0.36720319890E+02  0.17184016575E+02  0.50528853697E+02  0.29999981297E+02 0.  0.
        -12    1    1    2    0    0 -0.30812107434E+01 -0.36720319890E+02 -0.17184016575E+02  0.40659146303E+02  0.00000000000E+00 0.  1.
         11    1    3    3    0    0 -0.44833622967E+01  0.94344644783E+01 -0.50867108942E+00  0.10457934978E+02  0.51100000000E-03 0. -1.
        -11    1    3    3    0    0  0.28079555983E+01  0.16845844766E+01  0.13258244208E+02  0.13656627667E+02  0.51100000000E-03 0.  1.
         12    1    3    3    0    0  0.47566174418E+01  0.25601270935E+02  0.44344434562E+01  0.26414291051E+02  0.00000000000E+00 0. -1.
</event>
<event>
 7    1  0.3129575E-011  0.5052886E+02  0.7816164E-02  0.1300439E+00
        -11   -1    0    0    0    0  0.00000000000E+00  0.00000000000E+00  0.45593999997E+02  0.45594000000E+02  0.51100000000E-03 0.  1.
         11   -1    0    0    0    0 -0.00000000000E+00 -0.00000000000E+00 -0.45593999997E+02  0.45594000000E+02  0.51100000000E-03 0. -1.
    9900012    2    1    2    0    0 -0.39755498018E+01 -0.40142363301E+02  0.50942199308E+01  0.50528863212E+02  0.30000010220E+02 0.  0.
        -12    1    1    2    0    0  0.39755498018E+01  0.40142363301E+02 -0.50942199308E+01  0.40659136788E+02  0.00000000000E+00 0.  1.
         11    1    3    3    0    0 -0.62290886013E+01 -0.11848501413E+02  0.10098951952E+02  0.16768344025E+02  0.51100000000E-03 0.  1.
        -11    1    3    3    0    0  0.71990171146E+01 -0.14463924438E+02  0.38519094634E+01  0.16609279465E+02  0.51100000000E-03 0. -1.
         12    1    3    3    0    0 -0.49454783151E+01 -0.13829937450E+02 -0.88566414851E+01  0.17151239723E+02  0.00000000000E+00 0. -1.
</event>
<event>
 7    1  0.3129575E-011  0.5052887E+02  0.7816164E-02  0.1300439E+00
        -11   -1    0    0    0    0  0.00000000000E+00  0.00000000000E+00  0.45593999997E+02  0.45594000000E+02  0.51100000000E-03 0.  1.
         11   -1    0    0    0    0 -0.00000000000E+00 -0.00000000000E+00 -0.45593999997E+02  0.45594000000E+02  0.51100000000E-03 0. -1.
    9900012    2    1    2    0    0 -0.81595141886E+01 -0.28305693156E+02 -0.28024537925E+02  0.50528872332E+02  0.30000037941E+02 0.  0.
        -12    1    1    2    0    0  0.81595141886E+01  0.28305693156E+02  0.28024537925E+02  0.40659127668E+02  0.00000000000E+00 0.  1.
         11    1    3    3    0    0 -0.21007330471E+01 -0.83631057059E+01 -0.74149730444E+01  0.11372618076E+02  0.51100000000E-03 0. -1.
        -11    1    3    3    0    0  0.77143186532E+01 -0.38509335380E+01  0.12568325353E+01  0.87132100675E+01  0.51100000000E-03 0.  1.
         12    1    3    3    0    0 -0.13773099795E+02 -0.16091653912E+02 -0.21866397416E+02  0.30443044189E+02  0.00000000000E+00 0. -1.
</event>
<event>
 7    1  0.3129575E-011  0.5052886E+02  0.7816164E-02  0.1300439E+00
        -11   -1    0    0    0    0  0.00000000000E+00  0.00000000000E+00  0.45593999997E+02  0.45594000000E+02  0.51100000000E-03 0. -1.
         11   -1    0    0    0    0 -0.00000000000E+00 -0.00000000000E+00 -0.45593999997E+02  0.45594000000E+02  0.51100000000E-03 0.  1.
    9900012    2    1    2    0    0  0.38295396813E+02 -0.43382640640E+01 -0.12954055724E+02  0.50528861890E+02  0.30000006200E+02 0.  0.
        -12    1    1    2    0    0 -0.38295396813E+02  0.43382640640E+01  0.12954055724E+02  0.40659138110E+02  0.00000000000E+00 0.  1.
         11    1    3    3    0    0  0.22923603086E+02 -0.19571304600E+01  0.74892116590E+01  0.24195252212E+02  0.51100000000E-03 0. -1.
        -11    1    3    3    0    0  0.59315203725E+01  0.44455680836E+00 -0.40143669146E+01  0.71760509106E+01  0.51100000000E-03 0.  1.
        -12    1    3    3    0    0  0.94402733548E+01 -0.28256904123E+01 -0.16428900468E+02  0.19157558767E+02  0.00000000000E+00 0.  1.
</event>
<event>
 7    1  0.3129575E-011  0.5052886E+02  0.7816164E-02  0.1300439E+00
        -11   -1    0    0    0    0  0.00000000000E+00  0.00000000000E+00  0.45593999997E+02  0.45594000000E+02  0.51100000000E-03 0. -1.
         11   -1    0    0    0    0 -0.00000000000E+00 -0.00000000000E+00 -0.45593999997E+02  0.45594000000E+02  0.51100000000E-03 0.  1.
    9900012    2    1    2    0    0  0.67919422626E+01 -0.21968196012E+02  0.33532571621E+02  0.50528862341E+02  0.30000007571E+02 0.  0.
        -12    1    1    2    0    0 -0.67919422626E+01  0.21968196012E+02 -0.33532571621E+02  0.40659137659E+02  0.00000000000E+00 0.  1.
         11    1    3    3    0    0 -0.43959919920E+01 -0.20493326378E+02  0.21704372031E+02  0.30172519569E+02  0.51100000000E-03 0. -1.
        -11    1    3    3    0    0 -0.23162705764E+01  0.69828907101E+00  0.37751307700E+01  0.44837851868E+01  0.51100000000E-03 0.  1.
         12    1    3    3    0    0  0.13504204831E+02 -0.21731587053E+01  0.80530688193E+01  0.15872557585E+02  0.00000000000E+00 0. -1.
</event>
<event>
 7    1  0.3129575E-011  0.5052886E+02  0.7816164E-02  0.1300439E+00
        -11   -1    0    0    0    0  0.00000000000E+00  0.00000000000E+00  0.45593999997E+02  0.45594000000E+02  0.51100000000E-03 0.  1.
         11   -1    0    0    0    0 -0.00000000000E+00 -0.00000000000E+00 -0.45593999997E+02  0.45594000000E+02  0.51100000000E-03 0. -1.
    9900012    2    1    2    0    0  0.13373665639E+02 -0.34436777566E+02 -0.16982897556E+02  0.50528863374E+02  0.30000010711E+02 0.  0.
        -12    1    1    2    0    0 -0.13373665639E+02  0.34436777566E+02  0.16982897556E+02  0.40659136626E+02  0.00000000000E+00 0.  1.
         11    1    3    3    0    0 -0.34026869594E+01 -0.10846311413E+02 -0.64824014727E+01  0.13085957318E+02  0.51100000000E-03 0. -1.
        -11    1    3    3    0    0  0.91184413262E+01 -0.17330202511E+02 -0.16727867959E+02  0.25754678371E+02  0.51100000000E-03 0.  1.
        -12    1    3    3    0    0  0.76579112725E+01 -0.62602636422E+01  0.62273718758E+01  0.11688227685E+02  0.00000000000E+00 0.  1.
</event>
<event>
 7    1  0.3129575E-011  0.5052886E+02  0.7816164E-02  0.1300439E+00
        -11   -1    0    0    0    0  0.00000000000E+00  0.00000000000E+00  0.45593999997E+02  0.45594000000E+02  0.51100000000E-03 0.  1.
         11   -1    0    0    0    0 -0.00000000000E+00 -0.00000000000E+00 -0.45593999997E+02  0.45594000000E+02  0.51100000000E-03 0. -1.
    9900012    2    1    2    0    0  0.35559257070E+02 -0.17268138609E+02 -0.95140065501E+01  0.50528859637E+02  0.29999999354E+02 0.  0.
        -12    1    1    2    0    0 -0.35559257070E+02  0.17268138609E+02  0.95140065501E+01  0.40659140363E+02  0.00000000000E+00 0.  1.
         11    1    3    3    0    0  0.36963010945E+01 -0.93517403252E+01 -0.64999342553E-01  0.10055939243E+02  0.51100000000E-03 0. -1.
        -11    1    3    3    0    0 -0.16614364869E+01  0.17926649539E+01  0.25821118341E+01  0.35554634890E+01  0.51100000000E-03 0.  1.
         12    1    3    3    0    0  0.33524392462E+02 -0.97090632382E+01 -0.12031119042E+02  0.36917456905E+02  0.00000000000E+00 0. -1.
</event>
<event>
 7    1  0.3129575E-011  0.5052886E+02  0.7816164E-02  0.1300439E+00
        -11   -1    0    0    0    0  0.00000000000E+00  0.00000000000E+00  0.45593999997E+02  0.45594000000E+02  0.51100000000E-03 0.  1.
         11   -1    0    0    0    0 -0.00000000000E+00 -0.00000000000E+00 -0.45593999997E+02  0.45594000000E+02  0.51100000000E-03 0. -1.
    9900012    2    1    2    0    0  0.39761293737E+02  0.78981453786E+01  0.31343665450E+01  0.50528862851E+02  0.30000009122E+02 0.  0.
        -12    1    1    2    0    0 -0.39761293737E+02 -0.78981453786E+01 -0.31343665450E+01  0.40659137149E+02  0.00000000000E+00 0.  1.
         11    1    3    3    0    0  0.10011308234E+02  0.90839218022E+01 -0.82141233162E+00  0.13543214033E+02  0.51100000000E-03 0. -1.
        -11    1    3    3    0    0  0.29588743150E+02  0.51043968633E+01  0.10222889104E+01  0.30043196625E+02  0.51100000000E-03 0.  1.
        -12    1    3    3    0    0  0.16124235291E+00 -0.62901732869E+01  0.29334899662E+01  0.69424521934E+01  0.00000000000E+00 0.  1.
</event>
<event>
 7    1  0.3129575E-011  0.5052886E+02  0.7816164E-02  0.1300439E+00
        -11   -1    0    0    0    0  0.00000000000E+00  0.00000000000E+00  0.45593999997E+02  0.45594000000E+02  0.51100000000E-03 0.  1.
         11   -1    0    0    0    0 -0.00000000000E+00 -0.00000000000E+00 -0.45593999997E+02  0.45594000000E+02  0.51100000000E-03 0. -1.
    9900012    2    1    2    0    0  0.25585710577E+02  0.73327819518E+01 -0.30737065404E+02  0.50528862447E+02  0.30000007895E+02 0.  0.
        -12    1    1    2    0    0 -0.25585710577E+02 -0.73327819518E+01  0.30737065404E+02  0.40659137553E+02  0.00000000000E+00 0.  1.
         11    1    3    3    0    0  0.95719621592E+01  0.27739404401E+01 -0.14826027548E+02  0.17864162400E+02  0.51100000000E-03 0. -1.
        -11    1    3    3    0    0  0.20501395827E+02 -0.12618414877E+01 -0.85071495021E+01  0.22232207891E+02  0.51100000000E-03 0.  1.
        -12    1    3    3    0    0 -0.44876474087E+01  0.58206829993E+01 -0.74038883532E+01  0.10432492156E+02  0.00000000000E+00 0.  1.
</event>
<event>
 7    1  0.3129575E-011  0.5052889E+02  0.7816164E-02  0.1300439E+00
        -11   -1    0    0    0    0  0.00000000000E+00  0.00000000000E+00  0.45593999997E+02  0.45594000000E+02  0.51100000000E-03 0.  1.
         11   -1    0    0    0    0 -0.00000000000E+00 -0.00000000000E+00 -0.45593999997E+02  0.45594000000E+02  0.51100000000E-03 0. -1.
    9900012    2    1    2    0    0 -0.59807460494E+01 -0.36734249910E+02 -0.16370361741E+02  0.50528890525E+02  0.30000093240E+02 0.  0.
        -12    1    1    2    0    0  0.59807460494E+01  0.36734249910E+02  0.16370361741E+02  0.40659109475E+02  0.00000000000E+00 0.  1.
         11    1    3    3    0    0  0.31368657845E+01 -0.10987436775E+02 -0.48285660212E+01  0.12404787138E+02  0.51100000000E-03 0. -1.
        -11    1    3    3    0    0  0.18665804912E+01 -0.99409991738E+01  0.62691176098E+01  0.11899975763E+02  0.51100000000E-03 0.  1.
         12    1    3    3    0    0 -0.10984192325E+02 -0.15805813961E+02 -0.17810913330E+02  0.26224127624E+02  0.00000000000E+00 0. -1.
</event>
<event>
 7    1  0.3129575E-011  0.5052882E+02  0.7816164E-02  0.1300439E+00
        -11   -1    0    0    0    0  0.00000000000E+00  0.00000000000E+00  0.45593999997E+02  0.45594000000E+02  0.51100000000E-03 0.  1.
         11   -1    0    0    0    0 -0.00000000000E+00 -0.00000000000E+00 -0.45593999997E+02  0.45594000000E+02  0.51100000000E-03 0. -1.
    9900012    2    1    2    0    0  0.29234279869E+02  0.46677982572E+01 -0.27870009347E+02  0.50528820458E+02  0.29999880262E+02 0.  0.
        -12    1    1    2    0    0 -0.29234279869E+02 -0.46677982572E+01  0.27870009347E+02  0.40659179542E+02  0.00000000000E+00 0.  1.
         11    1    3    3    0    0  0.58822406317E+01  0.95356015905E+00 -0.23132097780E+01  0.63922587216E+01  0.51100000000E-03 0. -1.
        -11    1    3    3    0    0 -0.29562906514E+01  0.79009022728E+01 -0.10729861032E+02  0.13648949746E+02  0.51100000000E-03 0.  1.
        -12    1    3    3    0    0  0.26308329889E+02 -0.41866641747E+01 -0.14826938538E+02  0.30487611990E+02  0.00000000000E+00 0.  1.
</event>
<event>
 7    1  0.3129575E-011  0.5052885E+02  0.7816164E-02  0.1300439E+00
        -11   -1    0    0    0    0  0.00000000000E+00  0.00000000000E+00  0.45593999997E+02  0.45594000000E+02  0.51100000000E-03 0. -1.
         11   -1    0    0    0    0 -0.00000000000E+00 -0.00000000000E+00 -0.45593999997E+02  0.45594000000E+02  0.51100000000E-03 0.  1.
    9900012    2    1    2    0    0 -0.35219412773E+02 -0.18439960000E+02 -0.85280112917E+01  0.50528854197E+02  0.29999982817E+02 0.  0.
        -12    1    1    2    0    0  0.35219412773E+02  0.18439960000E+02  0.85280112917E+01  0.40659145803E+02  0.00000000000E+00 0.  1.
         11    1    3    3    0    0 -0.16524193937E+02 -0.83750903758E+01  0.68761183276E+01  0.19760367598E+02  0.51100000000E-03 0. -1.
        -11    1    3    3    0    0 -0.54409530529E+01 -0.11430191525E+02 -0.41341743104E+01  0.13317080983E+02  0.51100000000E-03 0.  1.
        -12    1    3    3    0    0 -0.13254265782E+02  0.13653219002E+01 -0.11269955309E+02  0.17451405616E+02  0.00000000000E+00 0.  1.
</event>
<event>
 7    1  0.3129575E-011  0.5052886E+02  0.7816164E-02  0.1300439E+00
        -11   -1    0    0    0    0  0.00000000000E+00  0.00000000000E+00  0.45593999997E+02  0.45594000000E+02  0.51100000000E-03 0.  1.
         11   -1    0    0    0    0 -0.00000000000E+00 -0.00000000000E+00 -0.45593999997E+02  0.45594000000E+02  0.51100000000E-03 0. -1.
    9900012    2    1    2    0    0  0.32648931862E+02 -0.10081045702E+02 -0.22036002071E+02  0.50528860543E+02  0.30000002105E+02 0.  0.
        -12    1    1    2    0    0 -0.32648931862E+02  0.10081045702E+02  0.22036002071E+02  0.40659139457E+02  0.00000000000E+00 0.  1.
         11    1    3    3    0    0  0.72550546173E+01 -0.64845459681E+01 -0.11091492682E+02  0.14754875943E+02  0.51100000000E-03 0. -1.
        -11    1    3    3    0    0  0.10114812859E+02 -0.44665935243E+00 -0.16377715247E+02  0.19254570905E+02  0.51100000000E-03 0.  1.
        -12    1    3    3    0    0  0.15279064385E+02 -0.31498403814E+01  0.54332058586E+01  0.16519413695E+02  0.00000000000E+00 0.  1.
</event>
<event>
 7    1  0.3129575E-011  0.5052886E+02  0.7816164E-02  0.1300439E+00
        -11   -1    0    0    0    0  0.00000000000E+00  0.00000000000E+00  0.45593999997E+02  0.45594000000E+02  0.51100000000E-03 0. -1.
         11   -1    0    0    0    0 -0.00000000000E+00 -0.00000000000E+00 -0.45593999997E+02  0.45594000000E+02  0.51100000000E-03 0.  1.
    9900012    2    1    2    0    0  0.19528272516E+02  0.18568776405E+02  0.30446883755E+02  0.50528860621E+02  0.30000002343E+02 0.  0.
        -12    1    1    2    0    0 -0.19528272516E+02 -0.18568776405E+02 -0.30446883755E+02  0.40659139379E+02  0.00000000000E+00 0.  1.
         11    1    3    3    0    0  0.16287975799E+02  0.98688180672E+01  0.61695266541E+01  0.20018860733E+02  0.51100000000E-03 0. -1.
        -11    1    3    3    0    0  0.61022902426E+01  0.11433081369E+02  0.12191994637E+02  0.17793201771E+02  0.51100000000E-03 0.  1.
         12    1    3    3    0    0 -0.28619935250E+01 -0.27331230307E+01  0.12085362464E+02  0.12716798116E+02  0.00000000000E+00 0. -1.
</event>
<event>
 7    1  0.3129575E-011  0.5052886E+02  0.7816164E-02  0.1300439E+00
        -11   -1    0    0    0    0  0.00000000000E+00  0.00000000000E+00  0.45593999997E+02  0.45594000000E+02  0.51100000000E-03 0.  1.
         11   -1    0    0    0    0 -0.00000000000E+00 -0.00000000000E+00 -0.45593999997E+02  0.45594000000E+02  0.51100000000E-03 0. -1.
    9900012    2    1    2    0    0  0.33025698018E+02  0.63881445086E+01 -0.22839892076E+02  0.50528858471E+02  0.29999995807E+02 0.  0.
        -12    1    1    2    0    0 -0.33025698018E+02 -0.63881445086E+01  0.22839892076E+02  0.40659141529E+02  0.00000000000E+00 0.  1.
         11    1    3    3    0    0  0.19539347520E+02  0.24411827310E+01 -0.19284210699E+02  0.27561318132E+02  0.51100000000E-03 0. -1.
        -11    1    3    3    0    0 -0.20028318527E+00  0.79811793089E+00 -0.81496467849E+01  0.81910834793E+01  0.51100000000E-03 0.  1.
         12    1    3    3    0    0  0.13686633683E+02  0.31488438467E+01  0.45939654075E+01  0.14776456859E+02  0.00000000000E+00 0. -1.
</event>
<event>
 7    1  0.3987184E-011  0.5052886E+02  0.7816164E-02  0.1300439E+00
        -11   -1    0    0    0    0  0.00000000000E+00  0.00000000000E+00  0.45593999997E+02  0.45594000000E+02  0.51100000000E-03 0.  1.
         11   -1    0    0    0    0 -0.00000000000E+00 -0.00000000000E+00 -0.45593999997E+02  0.45594000000E+02  0.51100000000E-03 0. -1.
    9900012    2    1    2    0    0  0.30361750024E+02  0.24604929045E+02  0.11221739691E+02  0.50528857860E+02  0.29999993951E+02 0.  0.
        -12    1    1    2    0    0 -0.30361750024E+02 -0.24604929045E+02 -0.11221739691E+02  0.40659142140E+02  0.00000000000E+00 0.  1.
         11    1    3    3    0    0  0.11831859359E+02  0.20679479107E+02  0.97913875560E+01  0.25758591238E+02  0.51100000000E-03 0. -1.
        -11    1    3    3    0    0  0.19357510857E+01  0.65769634288E+01 -0.28569181257E+01  0.74273522636E+01  0.51100000000E-03 0.  1.
         12    1    3    3    0    0  0.16594139579E+02 -0.26515134900E+01  0.42872702610E+01  0.17342914359E+02  0.00000000000E+00 0. -1.
</event>
<event>
 7    1  0.3129575E-011  0.5052886E+02  0.7816164E-02  0.1300439E+00
        -11   -1    0    0    0    0  0.00000000000E+00  0.00000000000E+00  0.45593999997E+02  0.45594000000E+02  0.51100000000E-03 0. -1.
         11   -1    0    0    0    0 -0.00000000000E+00 -0.00000000000E+00 -0.45593999997E+02  0.45594000000E+02  0.51100000000E-03 0.  1.
    9900012    2    1    2    0    0 -0.78870329667E+01  0.36102130003E+02  0.16958678276E+02  0.50528857749E+02  0.29999993613E+02 0.  0.
        -12    1    1    2    0    0  0.78870329667E+01 -0.36102130003E+02 -0.16958678276E+02  0.40659142251E+02  0.00000000000E+00 0.  1.
         11    1    3    3    0    0 -0.14361191839E+02  0.10698132807E+02  0.91567396157E+01  0.20113173724E+02  0.51100000000E-03 0. -1.
        -11    1    3    3    0    0 -0.25279202187E+01  0.15592205641E+02  0.21164426296E+01  0.15936956643E+02  0.51100000000E-03 0.  1.
        -12    1    3    3    0    0  0.90020790912E+01  0.98117915544E+01  0.56854960307E+01  0.14478727381E+02  0.00000000000E+00 0.  1.
</event>
<event>
 7    1  0.3129575E-011  0.5052883E+02  0.7816164E-02  0.1300439E+00
        -11   -1    0    0    0    0  0.00000000000E+00  0.00000000000E+00  0.45593999997E+02  0.45594000000E+02  0.51100000000E-03 0.  1.
         11   -1    0    0    0    0 -0.00000000000E+00 -0.00000000000E+00 -0.45593999997E+02  0.45594000000E+02  0.51100000000E-03 0. -1.
    9900012    2    1    2    0    0 -0.16806409452E+02 -0.31873243629E+02 -0.18836380469E+02  0.50528827760E+02  0.29999902458E+02 0.  0.
        -12    1    1    2    0    0  0.16806409452E+02  0.31873243629E+02  0.18836380469E+02  0.40659172240E+02  0.00000000000E+00 0.  1.
         11    1    3    3    0    0 -0.82831754240E+01 -0.80928406187E+01 -0.13674039586E+02  0.17918828735E+02  0.51100000000E-03 0. -1.
        -11    1    3    3    0    0 -0.58685399527E+01 -0.21261995546E+01 -0.84939418699E+01  0.10540755878E+02  0.51100000000E-03 0.  1.
         12    1    3    3    0    0 -0.26546940755E+01 -0.21654203456E+02  0.33316009873E+01  0.22069243147E+02  0.00000000000E+00 0. -1.
</event>
<event>
 7    1  0.3129575E-011  0.5052886E+02  0.7816164E-02  0.1300439E+00
        -11   -1    0    0    0    0  0.00000000000E+00  0.00000000000E+00  0.45593999997E+02  0.45594000000E+02  0.51100000000E-03 0. -1.
         11   -1    0    0    0    0 -0.00000000000E+00 -0.00000000000E+00 -0.45593999997E+02  0.45594000000E+02  0.51100000000E-03 0.  1.
    9900012    2    1    2    0    0 -0.38650811199E+02  0.65480446115E+01  0.10789060145E+02  0.50528856953E+02  0.29999991193E+02 0.  0.
        -12    1    1    2    0    0  0.38650811199E+02 -0.65480446115E+01 -0.10789060145E+02  0.40659143047E+02  0.00000000000E+00 0.  1.
         11    1    3    3    0    0 -0.10038993614E+02 -0.28407520632E+01  0.64725144217E+01  0.12277813660E+02  0.51100000000E-03 0. -1.
        -11    1    3    3    0    0 -0.30549435537E+02  0.11669182502E+02  0.78394440740E+01  0.33628778085E+02  0.51100000000E-03 0.  1.
        -12    1    3    3    0    0  0.19376179524E+01 -0.22803858272E+01 -0.35228983512E+01  0.46222652070E+01  0.00000000000E+00 0.  1.
</event>
<event>
 7    1  0.3129575E-011  0.5052891E+02  0.7816164E-02  0.1300439E+00
        -11   -1    0    0    0    0  0.00000000000E+00  0.00000000000E+00  0.45593999997E+02  0.45594000000E+02  0.51100000000E-03 0.  1.
         11   -1    0    0    0    0 -0.00000000000E+00 -0.00000000000E+00 -0.45593999997E+02  0.45594000000E+02  0.51100000000E-03 0. -1.
    9900012    2    1    2    0    0 -0.10859068990E+02 -0.35444443300E+02 -0.16701305103E+02  0.50528910828E+02  0.30000154951E+02 0.  0.
        -12    1    1    2    0    0  0.10859068990E+02  0.35444443300E+02  0.16701305103E+02  0.40659089172E+02  0.00000000000E+00 0.  1.
         11    1    3    3    0    0 -0.47535196158E+01 -0.56068322099E+01  0.40266882708E+00  0.73617021546E+01  0.51100000000E-03 0. -1.
        -11    1    3    3    0    0 -0.59110055038E+01 -0.34256615166E+02 -0.17106605251E+02  0.38743923552E+02  0.51100000000E-03 0.  1.
        -12    1    3    3    0    0 -0.19454387018E+00  0.44190040759E+01  0.26313204166E-02  0.44232851213E+01  0.00000000000E+00 0.  1.
</event>
<event>
 7    1  0.3129575E-011  0.5052876E+02  0.7816164E-02  0.1300439E+00
        -11   -1    0    0    0    0  0.00000000000E+00  0.00000000000E+00  0.45593999997E+02  0.45594000000E+02  0.51100000000E-03 0.  1.
         11   -1    0    0    0    0 -0.00000000000E+00 -0.00000000000E+00 -0.45593999997E+02  0.45594000000E+02  0.51100000000E-03 0. -1.
    9900012    2    1    2    0    0  0.24449060472E+02 -0.23446891781E+02  0.22486888275E+02  0.50528764438E+02  0.29999709985E+02 0.  0.
        -12    1    1    2    0    0 -0.24449060472E+02  0.23446891781E+02 -0.22486888275E+02  0.40659235562E+02  0.00000000000E+00 0.  1.
         11    1    3    3    0    0 -0.14943083546E+00 -0.34262419368E+00  0.29542115411E+01  0.29777654380E+01  0.51100000000E-03 0. -1.
        -11    1    3    3    0    0 -0.45837457553E+01 -0.90638968637E+01  0.87873894583E+01  0.13430680000E+02  0.51100000000E-03 0.  1.
         12    1    3    3    0    0  0.29182237063E+02 -0.14040370724E+02  0.10745287275E+02  0.34120319001E+02  0.00000000000E+00 0. -1.
</event>
<event>
 7    1  0.3129575E-011  0.5052886E+02  0.7816164E-02  0.1300439E+00
        -11   -1    0    0    0    0  0.00000000000E+00  0.00000000000E+00  0.45593999997E+02  0.45594000000E+02  0.51100000000E-03 0.  1.
         11   -1    0    0    0    0 -0.00000000000E+00 -0.00000000000E+00 -0.45593999997E+02  0.45594000000E+02  0.51100000000E-03 0. -1.
    9900012    2    1    2    0    0  0.18915060152E+02 -0.10460218465E+02 -0.34437916376E+02  0.50528858897E+02  0.29999997105E+02 0.  0.
        -12    1    1    2    0    0 -0.18915060152E+02  0.10460218465E+02  0.34437916376E+02  0.40659141103E+02  0.00000000000E+00 0.  1.
         11    1    3    3    0    0  0.44516094407E+01  0.76467337076E+01 -0.20926226195E+02  0.22719953918E+02  0.51100000000E-03 0. -1.
        -11    1    3    3    0    0  0.17886656384E+01 -0.44143754440E+01  0.15187936914E-01  0.47630102100E+01  0.51100000000E-03 0.  1.
        -12    1    3    3    0    0  0.12674785073E+02 -0.13692576729E+02 -0.13526878118E+02  0.23045894770E+02  0.00000000000E+00 0.  1.
</event>
<event>
 7    1  0.3129575E-011  0.5052886E+02  0.7816164E-02  0.1300439E+00
        -11   -1    0    0    0    0  0.00000000000E+00  0.00000000000E+00  0.45593999997E+02  0.45594000000E+02  0.51100000000E-03 0. -1.
         11   -1    0    0    0    0 -0.00000000000E+00 -0.00000000000E+00 -0.45593999997E+02  0.45594000000E+02  0.51100000000E-03 0.  1.
    9900012    2    1    2    0    0 -0.36666808748E+02 -0.93029567799E+01  0.14905228657E+02  0.50528859454E+02  0.29999998796E+02 0.  0.
        -12    1    1    2    0    0  0.36666808748E+02  0.93029567799E+01 -0.14905228657E+02  0.40659140546E+02  0.00000000000E+00 0.  1.
         11    1    3    3    0    0 -0.15822801999E+02  0.22433798865E+01 -0.31822305483E+01  0.16294796959E+02  0.51100000000E-03 0. -1.
        -11    1    3    3    0    0 -0.17360480551E+01  0.33598332652E+01  0.61482824423E+01  0.72182906335E+01  0.51100000000E-03 0.  1.
         12    1    3    3    0    0 -0.19107958695E+02 -0.14906169932E+02  0.11939176763E+02  0.27015771862E+02  0.00000000000E+00 0. -1.
</event>
<event>
 7    1  0.3129575E-011  0.5052889E+02  0.7816164E-02  0.1300439E+00
        -11   -1    0    0    0    0  0.00000000000E+00  0.00000000000E+00  0.45593999997E+02  0.45594000000E+02  0.51100000000E-03 0.  1.
         11   -1    0    0    0    0 -0.00000000000E+00 -0.00000000000E+00 -0.45593999997E+02  0.45594000000E+02  0.51100000000E-03 0. -1.
    9900012    2    1    2    0    0 -0.26534178082E+01  0.35239292895E+02 -0.20107588931E+02  0.50528886355E+02  0.30000080563E+02 0.  0.
        -12    1    1    2    0    0  0.26534178082E+01 -0.35239292895E+02  0.20107588931E+02  0.40659113645E+02  0.00000000000E+00 0.  1.
         11    1    3    3    0    0 -0.11869669879E+01  0.16728990752E+02 -0.86568507686E+01  0.18873502263E+02  0.51100000000E-03 0. -1.
        -11    1    3    3    0    0  0.37739673669E+01  0.12087398483E+02 -0.17351093879E+02  0.21480421104E+02  0.51100000000E-03 0.  1.
         12    1    3    3    0    0 -0.52404181872E+01  0.64229036603E+01  0.59003557162E+01  0.10174962987E+02  0.00000000000E+00 0. -1.
</event>
<event>
 7    1  0.3129575E-011  0.5052886E+02  0.7816164E-02  0.1300439E+00
        -11   -1    0    0    0    0  0.00000000000E+00  0.00000000000E+00  0.45593999997E+02  0.45594000000E+02  0.51100000000E-03 0.  1.
         11   -1    0    0    0    0 -0.00000000000E+00 -0.00000000000E+00 -0.45593999997E+02  0.45594000000E+02  0.51100000000E-03 0. -1.
    9900012    2    1    2    0    0 -0.37444906853E+02  0.84242658086E+01 -0.13419263579E+02  0.50528856641E+02  0.29999990247E+02 0.  0.
        -12    1    1    2    0    0  0.37444906853E+02 -0.84242658086E+01  0.13419263579E+02  0.40659143359E+02  0.00000000000E+00 0.  1.
         11    1    3    3    0    0 -0.28009572891E+02 -0.31161004173E+01 -0.10697779314E+02  0.30144464465E+02  0.51100000000E-03 0. -1.
        -11    1    3    3    0    0  0.14438653580E+01  0.10823636219E+01 -0.48217194054E+01  0.51483236561E+01  0.51100000000E-03 0.  1.
        -12    1    3    3    0    0 -0.10879199320E+02  0.10458002604E+02  0.21002351408E+01  0.15236068520E+02  0.00000000000E+00 0.  1.
</event>
<event>
 7    1  0.3129575E-011  0.5052889E+02  0.7816164E-02  0.1300439E+00
        -11   -1    0    0    0    0  0.00000000000E+00  0.00000000000E+00  0.45593999997E+02  0.45594000000E+02  0.51100000000E-03 0.  1.
         11   -1    0    0    0    0 -0.00000000000E+00 -0.00000000000E+00 -0.45593999997E+02  0.45594000000E+02  0.51100000000E-03 0. -1.
    9900012    2    1    2    0    0 -0.17758685633E+02 -0.28613598863E+02 -0.22782767847E+02  0.50528887048E+02  0.30000082670E+02 0.  0.
        -12    1    1    2    0    0  0.17758685633E+02  0.28613598863E+02  0.22782767847E+02  0.40659112952E+02  0.00000000000E+00 0.  1.
         11    1    3    3    0    0 -0.16726396898E+01 -0.20189793841E+02 -0.88033454947E+01  0.22089010640E+02  0.51100000000E-03 0. -1.
        -11    1    3    3    0    0 -0.11543107035E+02 -0.64793268553E+01 -0.17807812547E+02  0.22188807640E+02  0.51100000000E-03 0.  1.
        -12    1    3    3    0    0 -0.45429389083E+01 -0.19444781661E+01  0.38283901943E+01  0.62510687680E+01  0.00000000000E+00 0.  1.
</event>
<event>
 7    1  0.3129575E-011  0.5052887E+02  0.7816164E-02  0.1300439E+00
        -11   -1    0    0    0    0  0.00000000000E+00  0.00000000000E+00  0.45593999997E+02  0.45594000000E+02  0.51100000000E-03 0.  1.
         11   -1    0    0    0    0 -0.00000000000E+00 -0.00000000000E+00 -0.45593999997E+02  0.45594000000E+02  0.51100000000E-03 0. -1.
    9900012    2    1    2    0    0 -0.92785055158E+01  0.36163110536E+02 -0.16102901757E+02  0.50528872203E+02  0.30000037548E+02 0.  0.
        -12    1    1    2    0    0  0.92785055158E+01 -0.36163110536E+02  0.16102901757E+02  0.40659127797E+02  0.00000000000E+00 0.  1.
         11    1    3    3    0    0  0.34152224081E+01  0.10507316542E+02 -0.14423204927E+02  0.18168552106E+02  0.51100000000E-03 0. -1.
        -11    1    3    3    0    0  0.14503736502E+01  0.10328498327E+02  0.32593785263E+01  0.10927259952E+02  0.51100000000E-03 0.  1.
        -12    1    3    3    0    0 -0.14144101574E+02  0.15327295666E+02 -0.49390753565E+01  0.21433060145E+02  0.00000000000E+00 0.  1.
</event>
<event>
 7    1  0.3129575E-011  0.5052886E+02  0.7816164E-02  0.1300439E+00
        -11   -1    0    0    0    0  0.00000000000E+00  0.00000000000E+00  0.45593999997E+02  0.45594000000E+02  0.51100000000E-03 0. -1.
         11   -1    0    0    0    0 -0.00000000000E+00 -0.00000000000E+00 -0.45593999997E+02  0.45594000000E+02  0.51100000000E-03 0.  1.
    9900012    2    1    2    0    0 -0.33354945765E+02 -0.22316078704E+02 -0.65273319950E+01  0.50528857871E+02  0.29999993985E+02 0.  0.
        -12    1    1    2    0    0  0.33354945765E+02  0.22316078704E+02  0.65273319950E+01  0.40659142129E+02  0.00000000000E+00 0.  1.
         11    1    3    3    0    0 -0.13621785404E+02 -0.88214239976E+00 -0.27127344888E+01  0.13917260560E+02  0.51100000000E-03 0. -1.
        -11    1    3    3    0    0 -0.73701159647E+01 -0.40902236535E+01 -0.11245222261E+02  0.14053596082E+02  0.51100000000E-03 0.  1.
         12    1    3    3    0    0 -0.12363044396E+02 -0.17343712651E+02  0.74306247545E+01  0.22558001230E+02  0.00000000000E+00 0. -1.
</event>
<event>
 7    1  0.3129575E-011  0.5052887E+02  0.7816164E-02  0.1300439E+00
        -11   -1    0    0    0    0  0.00000000000E+00  0.00000000000E+00  0.45593999997E+02  0.45594000000E+02  0.51100000000E-03 0.  1.
         11   -1    0    0    0    0 -0.00000000000E+00 -0.00000000000E+00 -0.45593999997E+02  0.45594000000E+02  0.51100000000E-03 0. -1.
    9900012    2    1    2    0    0 -0.30992744160E+02 -0.87732098872E+01 -0.24812209237E+02  0.50528866592E+02  0.30000020492E+02 0.  0.
        -12    1    1    2    0    0  0.30992744160E+02  0.87732098872E+01  0.24812209237E+02  0.40659133408E+02  0.00000000000E+00 0.  1.
         11    1    3    3    0    0 -0.20351830526E+02 -0.11972803902E+02 -0.13941569920E+02  0.27421021336E+02  0.51100000000E-03 0. -1.
        -11    1    3    3    0    0 -0.80140564038E+01  0.94268446136E+01 -0.29960368634E+01  0.12730543451E+02  0.51100000000E-03 0.  1.
         12    1    3    3    0    0 -0.26268572298E+01 -0.62272505988E+01 -0.78746024544E+01  0.10377301804E+02  0.00000000000E+00 0. -1.
</event>
<event>
 7    1  0.3129575E-011  0.5052885E+02  0.7816164E-02  0.1300439E+00
        -11   -1    0    0    0    0  0.00000000000E+00  0.00000000000E+00  0.45593999997E+02  0.45594000000E+02  0.51100000000E-03 0.  1.
         11   -1    0    0    0    0 -0.00000000000E+00 -0.00000000000E+00 -0.45593999997E+02  0.45594000000E+02  0.51100000000E-03 0. -1.
    9900012    2    1    2    0    0 -0.20773077994E+02 -0.16655475558E+02 -0.30728498790E+02  0.50528852527E+02  0.29999977740E+02 0.  0.
        -12    1    1    2    0    0  0.20773077994E+02  0.16655475558E+02  0.30728498790E+02  0.40659147473E+02  0.00000000000E+00 0.  1.
         11    1    3    3    0    0 -0.19220168595E+02 -0.12736779548E+02 -0.16594966171E+02  0.28408332168E+02  0.51100000000E-03 0. -1.
        -11    1    3    3    0    0 -0.18741612959E+01 -0.88776654490E+01 -0.14535483630E+02  0.17134926583E+02  0.51100000000E-03 0.  1.
        -12    1    3    3    0    0  0.32125189749E+00  0.49589694395E+01  0.40195101074E+00  0.49855937759E+01  0.00000000000E+00 0.  1.
</event>
<event>
 7    1  0.3129575E-011  0.5052886E+02  0.7816164E-02  0.1300439E+00
        -11   -1    0    0    0    0  0.00000000000E+00  0.00000000000E+00  0.45593999997E+02  0.45594000000E+02  0.51100000000E-03 0.  1.
         11   -1    0    0    0    0 -0.00000000000E+00 -0.00000000000E+00 -0.45593999997E+02  0.45594000000E+02  0.51100000000E-03 0. -1.
    9900012    2    1    2    0    0  0.17023498199E+02  0.13704411278E+02 -0.34286373863E+02  0.50528858198E+02  0.29999994979E+02 0.  0.
        -12    1    1    2    0    0 -0.17023498199E+02 -0.13704411278E+02  0.34286373863E+02  0.40659141802E+02  0.00000000000E+00 0.  1.
         11    1    3    3    0    0  0.17503714434E+02  0.10402558630E+02 -0.21800778006E+02  0.29830641410E+02  0.51100000000E-03 0. -1.
        -11    1    3    3    0    0  0.20109762809E+00  0.76105218407E+01 -0.14118553742E+02  0.16040387869E+02  0.51100000000E-03 0.  1.
        -12    1    3    3    0    0 -0.68131386301E+00 -0.43086691926E+01  0.16329578850E+01  0.46578289197E+01  0.00000000000E+00 0.  1.
</event>
<event>
 7    1  0.3129575E-011  0.5052883E+02  0.7816164E-02  0.1300439E+00
        -11   -1    0    0    0    0  0.00000000000E+00  0.00000000000E+00  0.45593999997E+02  0.45594000000E+02  0.51100000000E-03 0.  1.
         11   -1    0    0    0    0 -0.00000000000E+00 -0.00000000000E+00 -0.45593999997E+02  0.45594000000E+02  0.51100000000E-03 0. -1.
    9900012    2    1    2    0    0 -0.31911171071E+02 -0.33784227989E+01 -0.24968608345E+02  0.50528831508E+02  0.29999913853E+02 0.  0.
        -12    1    1    2    0    0  0.31911171071E+02  0.33784227989E+01  0.24968608345E+02  0.40659168492E+02  0.00000000000E+00 0.  1.
         11    1    3    3    0    0  0.17676774319E+00 -0.95519237103E+00 -0.34084412308E+00  0.10294728156E+01  0.51100000000E-03 0. -1.
        -11    1    3    3    0    0  0.35831167297E+01 -0.31419674992E+01  0.18053659278E+01  0.50960800288E+01  0.51100000000E-03 0.  1.
         12    1    3    3    0    0 -0.35671055544E+02  0.71873707140E+00 -0.26433130149E+02  0.44403278664E+02  0.00000000000E+00 0. -1.
</event>
<event>
 7    1  0.3129575E-011  0.5052887E+02  0.7816164E-02  0.1300439E+00
        -11   -1    0    0    0    0  0.00000000000E+00  0.00000000000E+00  0.45593999997E+02  0.45594000000E+02  0.51100000000E-03 0.  1.
         11   -1    0    0    0    0 -0.00000000000E+00 -0.00000000000E+00 -0.45593999997E+02  0.45594000000E+02  0.51100000000E-03 0. -1.
    9900012    2    1    2    0    0 -0.23197314702E+01 -0.34981712631E+02 -0.20592804662E+02  0.50528868473E+02  0.30000026212E+02 0.  0.
        -12    1    1    2    0    0  0.23197314702E+01  0.34981712631E+02  0.20592804662E+02  0.40659131527E+02  0.00000000000E+00 0.  1.
         11    1    3    3    0    0 -0.83327070824E+01 -0.26363941647E+02 -0.25543094540E+02  0.37642278165E+02  0.51100000000E-03 0. -1.
        -11    1    3    3    0    0 -0.91567568230E+00 -0.26640720174E+00  0.87806173534E+00  0.12963130118E+01  0.51100000000E-03 0.  1.
         12    1    3    3    0    0  0.69286512945E+01 -0.83513637815E+01  0.40722281426E+01  0.11590277297E+02  0.00000000000E+00 0. -1.
</event>
<event>
 7    1  0.3129575E-011  0.5052886E+02  0.7816164E-02  0.1300439E+00
        -11   -1    0    0    0    0  0.00000000000E+00  0.00000000000E+00  0.45593999997E+02  0.45594000000E+02  0.51100000000E-03 0.  1.
         11   -1    0    0    0    0 -0.00000000000E+00 -0.00000000000E+00 -0.45593999997E+02  0.45594000000E+02  0.51100000000E-03 0. -1.
    9900012    2    1    2    0    0  0.85980406096E+01 -0.24257939893E+01 -0.39665538798E+02  0.50528858999E+02  0.29999997413E+02 0.  0.
        -12    1    1    2    0    0 -0.85980406096E+01  0.24257939893E+01  0.39665538798E+02  0.40659141001E+02  0.00000000000E+00 0.  1.
         11    1    3    3    0    0  0.18987714478E+02 -0.29978338626E+01 -0.29705974426E+02  0.35383120635E+02  0.51100000000E-03 0. -1.
        -11    1    3    3    0    0 -0.24658018910E+01  0.22168776157E+01 -0.27691149254E+01  0.43200373910E+01  0.51100000000E-03 0.  1.
        -12    1    3    3    0    0 -0.79238719778E+01 -0.16448377424E+01 -0.71904494466E+01  0.10825700973E+02  0.00000000000E+00 0.  1.
</event>
<event>
 7    1  0.3129575E-011  0.5052886E+02  0.7816164E-02  0.1300439E+00
        -11   -1    0    0    0    0  0.00000000000E+00  0.00000000000E+00  0.45593999997E+02  0.45594000000E+02  0.51100000000E-03 0.  1.
         11   -1    0    0    0    0 -0.00000000000E+00 -0.00000000000E+00 -0.45593999997E+02  0.45594000000E+02  0.51100000000E-03 0. -1.
    9900012    2    1    2    0    0 -0.25735829165E+02 -0.48805259720E+01 -0.31096833411E+02  0.50528862223E+02  0.30000007213E+02 0.  0.
        -12    1    1    2    0    0  0.25735829165E+02  0.48805259720E+01  0.31096833411E+02  0.40659137777E+02  0.00000000000E+00 0.  1.
         11    1    3    3    0    0 -0.90729435770E+01  0.88752095105E+01 -0.10106896795E+02  0.16224580491E+02  0.51100000000E-03 0. -1.
        -11    1    3    3    0    0 -0.64416703250E+01 -0.19553782291E+01  0.15287552230E+01  0.69033117696E+01  0.51100000000E-03 0.  1.
         12    1    3    3    0    0 -0.10221215263E+02 -0.11800357253E+02 -0.22518691839E+02  0.27400969963E+02  0.00000000000E+00 0. -1.
</event>
<event>
 7    1  0.3129575E-011  0.5052893E+02  0.7816164E-02  0.1300439E+00
        -11   -1    0    0    0    0  0.00000000000E+00  0.00000000000E+00  0.45593999997E+02  0.45594000000E+02  0.51100000000E-03 0.  1.
         11   -1    0    0    0    0 -0.00000000000E+00 -0.00000000000E+00 -0.45593999997E+02  0.45594000000E+02  0.51100000000E-03 0. -1.
    9900012    2    1    2    0    0 -0.31058263679E+02 -0.26102212313E+02 -0.26867650057E+01  0.50528930451E+02  0.30000214598E+02 0.  0.
        -12    1    1    2    0    0  0.31058263679E+02  0.26102212313E+02  0.26867650057E+01  0.40659069549E+02  0.00000000000E+00 0.  1.
         11    1    3    3    0    0 -0.21584841072E+01 -0.37579725109E+01 -0.36788304636E+01  0.56846464160E+01  0.51100000000E-03 0. -1.
        -11    1    3    3    0    0 -0.17521165534E+02 -0.18393828027E+02 -0.11149012352E+02  0.27742109290E+02  0.51100000000E-03 0.  1.
        -12    1    3    3    0    0 -0.11378614037E+02 -0.39504117757E+01  0.12141077810E+02  0.17102174745E+02  0.00000000000E+00 0.  1.
</event>
<event>
 7    1  0.3129575E-011  0.5052886E+02  0.7816164E-02  0.1300439E+00
        -11   -1    0    0    0    0  0.00000000000E+00  0.00000000000E+00  0.45593999997E+02  0.45594000000E+02  0.51100000000E-03 0.  1.
         11   -1    0    0    0    0 -0.00000000000E+00 -0.00000000000E+00 -0.45593999997E+02  0.45594000000E+02  0.51100000000E-03 0. -1.
    9900012    2    1    2    0    0 -0.13483612029E+02 -0.38342873830E+02 -0.10870290671E+01  0.50528863277E+02  0.30000010415E+02 0.  0.
        -12    1    1    2    0    0  0.13483612029E+02  0.38342873830E+02  0.10870290671E+01  0.40659136723E+02  0.00000000000E+00 0.  1.
         11    1    3    3    0    0 -0.53639661169E+01 -0.32402914180E+01 -0.47922413272E+01  0.78890555947E+01  0.51100000000E-03 0. -1.
        -11    1    3    3    0    0  0.64810079000E+01 -0.57767091424E+01 -0.30294859529E+01  0.91951953386E+01  0.51100000000E-03 0.  1.
         12    1    3    3    0    0 -0.14600653812E+02 -0.29325873270E+02  0.67346982130E+01  0.33444612343E+02  0.00000000000E+00 0. -1.
</event>
<event>
 7    1  0.3129575E-011  0.5052887E+02  0.7816164E-02  0.1300439E+00
        -11   -1    0    0    0    0  0.00000000000E+00  0.00000000000E+00  0.45593999997E+02  0.45594000000E+02  0.51100000000E-03 0.  1.
         11   -1    0    0    0    0 -0.00000000000E+00 -0.00000000000E+00 -0.45593999997E+02  0.45594000000E+02  0.51100000000E-03 0. -1.
    9900012    2    1    2    0    0  0.31556964125E+02  0.25616892449E+02  0.10477457731E+01  0.50528868987E+02  0.30000027773E+02 0.  0.
        -12    1    1    2    0    0 -0.31556964125E+02 -0.25616892449E+02 -0.10477457731E+01  0.40659131013E+02  0.00000000000E+00 0.  1.
         11    1    3    3    0    0  0.23613012075E+02  0.16128026175E+02 -0.57807297567E+01  0.29173693704E+02  0.51100000000E-03 0. -1.
        -11    1    3    3    0    0  0.48885196022E+01 -0.26936056167E+01 -0.20803814137E+01  0.59566032441E+01  0.51100000000E-03 0.  1.
         12    1    3    3    0    0  0.30554324479E+01  0.12182471890E+02  0.89088569435E+01  0.15398572039E+02  0.00000000000E+00 0. -1.
</event>
<event>
 7    1  0.3129575E-011  0.5052887E+02  0.7816164E-02  0.1300439E+00
        -11   -1    0    0    0    0  0.00000000000E+00  0.00000000000E+00  0.45593999997E+02  0.45594000000E+02  0.51100000000E-03 0.  1.
         11   -1    0    0    0    0 -0.00000000000E+00 -0.00000000000E+00 -0.45593999997E+02  0.45594000000E+02  0.51100000000E-03 0. -1.
    9900012    2    1    2    0    0  0.25761655950E+02 -0.22492856416E+02  0.21990309857E+02  0.50528865299E+02  0.30000016562E+02 0.  0.
        -12    1    1    2    0    0 -0.25761655950E+02  0.22492856416E+02 -0.21990309857E+02  0.40659134701E+02  0.00000000000E+00 0.  1.
         11    1    3    3    0    0  0.35462292634E+01 -0.12474639268E+02  0.26368765645E+01  0.13234254234E+02  0.51100000000E-03 0. -1.
        -11    1    3    3    0    0  0.15667347213E+02 -0.16033048863E+02  0.16891876395E+02  0.28068842387E+02  0.51100000000E-03 0.  1.
        -12    1    3    3    0    0  0.65480794736E+01  0.60148317144E+01  0.24615568975E+01  0.92257686783E+01  0.00000000000E+00 0.  1.
</event>
<event>
 7    1  0.3129575E-011  0.5052886E+02  0.7816164E-02  0.1300439E+00
        -11   -1    0    0    0    0  0.00000000000E+00  0.00000000000E+00  0.45593999997E+02  0.45594000000E+02  0.51100000000E-03 0.  1.
         11   -1    0    0    0    0 -0.00000000000E+00 -0.00000000000E+00 -0.45593999997E+02  0.45594000000E+02  0.51100000000E-03 0. -1.
    9900012    2    1    2    0    0 -0.26129313242E+02 -0.93475569143E+01 -0.29716114329E+02  0.50528864722E+02  0.30000014809E+02 0.  0.
        -12    1    1    2    0    0  0.26129313242E+02  0.93475569143E+01  0.29716114329E+02  0.40659135278E+02  0.00000000000E+00 0.  1.
         11    1    3    3    0    0  0.20829900864E+01  0.18883079210E+01 -0.94745219131E+00  0.29668536230E+01  0.51100000000E-03 0. -1.
        -11    1    3    3    0    0 -0.19477181874E+02  0.38889077553E+01 -0.11260953163E+02  0.22831848013E+02  0.51100000000E-03 0.  1.
         12    1    3    3    0    0 -0.87351214545E+01 -0.15124772590E+02 -0.17507708974E+02  0.24730163086E+02  0.00000000000E+00 0. -1.
</event>
<event>
 7    1  0.3129575E-011  0.5052886E+02  0.7816164E-02  0.1300439E+00
        -11   -1    0    0    0    0  0.00000000000E+00  0.00000000000E+00  0.45593999997E+02  0.45594000000E+02  0.51100000000E-03 0.  1.
         11   -1    0    0    0    0 -0.00000000000E+00 -0.00000000000E+00 -0.45593999997E+02  0.45594000000E+02  0.51100000000E-03 0. -1.
    9900012    2    1    2    0    0 -0.57797576524E+01  0.37757053939E+02  0.13934312147E+02  0.50528858646E+02  0.29999996339E+02 0.  0.
        -12    1    1    2    0    0  0.57797576524E+01 -0.37757053939E+02 -0.13934312147E+02  0.40659141354E+02  0.00000000000E+00 0.  1.
         11    1    3    3    0    0 -0.10667580656E+01  0.68951609645E+01 -0.53407846911E+01  0.87866488990E+01  0.51100000000E-03 0. -1.
        -11    1    3    3    0    0 -0.74507512002E+01  0.16349187908E+01  0.47980921616E+01  0.90115670974E+01  0.51100000000E-03 0.  1.
         12    1    3    3    0    0  0.27377516133E+01  0.29226974184E+02  0.14477004677E+02  0.32730642649E+02  0.00000000000E+00 0. -1.
</event>
<event>
 7    1  0.3129575E-011  0.5052886E+02  0.7816164E-02  0.1300439E+00
        -11   -1    0    0    0    0  0.00000000000E+00  0.00000000000E+00  0.45593999997E+02  0.45594000000E+02  0.51100000000E-03 0.  1.
         11   -1    0    0    0    0 -0.00000000000E+00 -0.00000000000E+00 -0.45593999997E+02  0.45594000000E+02  0.51100000000E-03 0. -1.
    9900012    2    1    2    0    0 -0.23280404810E+02  0.72365948013E+00 -0.33326635238E+02  0.50528861452E+02  0.30000004871E+02 0.  0.
        -12    1    1    2    0    0  0.23280404810E+02 -0.72365948013E+00  0.33326635238E+02  0.40659138548E+02  0.00000000000E+00 0.  1.
         11    1    3    3    0    0 -0.64776233641E+01 -0.93231766593E+01 -0.11901825385E+02  0.16447938328E+02  0.51100000000E-03 0. -1.
        -11    1    3    3    0    0  0.16267214565E+01  0.12897008188E+01 -0.10949951081E+02  0.11144997974E+02  0.51100000000E-03 0.  1.
        -12    1    3    3    0    0 -0.18429502902E+02  0.87571353206E+01 -0.10474858772E+02  0.22935925151E+02  0.00000000000E+00 0.  1.
</event>
<event>
 7    1  0.3129575E-011  0.5052887E+02  0.7816164E-02  0.1300439E+00
        -11   -1    0    0    0    0  0.00000000000E+00  0.00000000000E+00  0.45593999997E+02  0.45594000000E+02  0.51100000000E-03 0.  1.
         11   -1    0    0    0    0 -0.00000000000E+00 -0.00000000000E+00 -0.45593999997E+02  0.45594000000E+02  0.51100000000E-03 0. -1.
    9900012    2    1    2    0    0  0.35139814284E+02 -0.43558786498E+01  0.19984605835E+02  0.50528871909E+02  0.30000036654E+02 0.  0.
        -12    1    1    2    0    0 -0.35139814284E+02  0.43558786498E+01 -0.19984605835E+02  0.40659128091E+02  0.00000000000E+00 0.  1.
         11    1    3    3    0    0  0.86862689224E+01 -0.40337669818E+01 -0.55276332744E+01  0.11057905486E+02  0.51100000000E-03 0. -1.
        -11    1    3    3    0    0 -0.45340531855E+00  0.29446809342E+01  0.19892823450E+01  0.35824526091E+01  0.51100000000E-03 0.  1.
         12    1    3    3    0    0  0.26906950680E+02 -0.32667926022E+01  0.23522956765E+02  0.35888513814E+02  0.00000000000E+00 0. -1.
</event>
<event>
 7    1  0.3129575E-011  0.5052885E+02  0.7816164E-02  0.1300439E+00
        -11   -1    0    0    0    0  0.00000000000E+00  0.00000000000E+00  0.45593999997E+02  0.45594000000E+02  0.51100000000E-03 0. -1.
         11   -1    0    0    0    0 -0.00000000000E+00 -0.00000000000E+00 -0.45593999997E+02  0.45594000000E+02  0.51100000000E-03 0.  1.
    9900012    2    1    2    0    0  0.55459319459E+01  0.54850539115E+01  0.39903924421E+02  0.50528851439E+02  0.29999974433E+02 0.  0.
        -12    1    1    2    0    0 -0.55459319459E+01 -0.54850539115E+01 -0.39903924421E+02  0.40659148561E+02  0.00000000000E+00 0.  1.
         11    1    3    3    0    0  0.10624064915E+02  0.10961620137E+02  0.29476218516E+02  0.33194507521E+02  0.51100000000E-03 0. -1.
        -11    1    3    3    0    0  0.19251872609E+01  0.23590420042E+01  0.39566070494E+01  0.49926110175E+01  0.51100000000E-03 0.  1.
        -12    1    3    3    0    0 -0.70033202301E+01 -0.78356082295E+01  0.64710988555E+01  0.12341732900E+02  0.00000000000E+00 0.  1.
</event>
<event>
 7    1  0.3129575E-011  0.5052886E+02  0.7816164E-02  0.1300439E+00
        -11   -1    0    0    0    0  0.00000000000E+00  0.00000000000E+00  0.45593999997E+02  0.45594000000E+02  0.51100000000E-03 0. -1.
         11   -1    0    0    0    0 -0.00000000000E+00 -0.00000000000E+00 -0.45593999997E+02  0.45594000000E+02  0.51100000000E-03 0.  1.
    9900012    2    1    2    0    0 -0.17557309161E+02 -0.96208844537E+01  0.35388486803E+02  0.50528861780E+02  0.30000005865E+02 0.  0.
        -12    1    1    2    0    0  0.17557309161E+02  0.96208844537E+01 -0.35388486803E+02  0.40659138220E+02  0.00000000000E+00 0.  1.
         11    1    3    3    0    0 -0.28527413380E+01 -0.67203535654E+01  0.14194006121E+02  0.15961550527E+02  0.51100000000E-03 0. -1.
        -11    1    3    3    0    0 -0.11657399064E+02  0.28515602962E+01  0.24489125738E+02  0.27271663476E+02  0.51100000000E-03 0.  1.
        -12    1    3    3    0    0 -0.30471687587E+01 -0.57520911845E+01 -0.32946450566E+01  0.72956477771E+01  0.00000000000E+00 0.  1.
</event>
<event>
 7    1  0.3129575E-011  0.5052883E+02  0.7816164E-02  0.1300439E+00
        -11   -1    0    0    0    0  0.00000000000E+00  0.00000000000E+00  0.45593999997E+02  0.45594000000E+02  0.51100000000E-03 0. -1.
         11   -1    0    0    0    0 -0.00000000000E+00 -0.00000000000E+00 -0.45593999997E+02  0.45594000000E+02  0.51100000000E-03 0.  1.
    9900012    2    1    2    0    0  0.28357892403E+02  0.26856438121E+02 -0.11301758122E+02  0.50528830472E+02  0.29999910701E+02 0.  0.
        -12    1    1    2    0    0 -0.28357892403E+02 -0.26856438121E+02  0.11301758122E+02  0.40659169528E+02  0.00000000000E+00 0.  1.
         11    1    3    3    0    0  0.16466423410E+02  0.18999822468E+02  0.59585464379E+01  0.25838742803E+02  0.51100000000E-03 0. -1.
        -11    1    3    3    0    0  0.66547884137E+00  0.15726929457E+01  0.12724561832E+01  0.21296408591E+01  0.51100000000E-03 0.  1.
         12    1    3    3    0    0  0.11225990152E+02  0.62839227076E+01 -0.18532760743E+02  0.22560446810E+02  0.00000000000E+00 0. -1.
</event>
<event>
 7    1  0.3129575E-011  0.5052885E+02  0.7816164E-02  0.1300439E+00
        -11   -1    0    0    0    0  0.00000000000E+00  0.00000000000E+00  0.45593999997E+02  0.45594000000E+02  0.51100000000E-03 0.  1.
         11   -1    0    0    0    0 -0.00000000000E+00 -0.00000000000E+00 -0.45593999997E+02  0.45594000000E+02  0.51100000000E-03 0. -1.
    9900012    2    1    2    0    0  0.39614419971E+02  0.84148562649E+01  0.36131372823E+01  0.50528845599E+02  0.29999956681E+02 0.  0.
        -12    1    1    2    0    0 -0.39614419971E+02 -0.84148562649E+01 -0.36131372823E+01  0.40659154401E+02  0.00000000000E+00 0.  1.
         11    1    3    3    0    0  0.10378722338E+02  0.95664726197E+01  0.67869875231E+01  0.15662007395E+02  0.51100000000E-03 0.  1.
        -11    1    3    3    0    0  0.22897542090E+02  0.62300940702E+01  0.20595861902E+01  0.23819181376E+02  0.51100000000E-03 0. -1.
         12    1    3    3    0    0  0.63381555430E+01 -0.73817104251E+01 -0.52334364310E+01  0.11047656827E+02  0.00000000000E+00 0. -1.
</event>
<event>
 7    1  0.3129575E-011  0.5052888E+02  0.7816164E-02  0.1300439E+00
        -11   -1    0    0    0    0  0.00000000000E+00  0.00000000000E+00  0.45593999997E+02  0.45594000000E+02  0.51100000000E-03 0.  1.
         11   -1    0    0    0    0 -0.00000000000E+00 -0.00000000000E+00 -0.45593999997E+02  0.45594000000E+02  0.51100000000E-03 0. -1.
    9900012    2    1    2    0    0 -0.35280723937E+00 -0.61269923135E+01 -0.40193274086E+02  0.50528883070E+02  0.30000070581E+02 0.  0.
        -12    1    1    2    0    0  0.35280723937E+00  0.61269923135E+01  0.40193274086E+02  0.40659116930E+02  0.00000000000E+00 0.  1.
         11    1    3    3    0    0 -0.39490485275E+00  0.26314481701E+01 -0.12095483257E+02  0.12384715774E+02  0.51100000000E-03 0. -1.
        -11    1    3    3    0    0 -0.59026937589E+01  0.14254980457E+01 -0.25308357765E+02  0.26026655784E+02  0.51100000000E-03 0.  1.
         12    1    3    3    0    0  0.59447913723E+01 -0.10183938529E+02 -0.27894330633E+01  0.12117511512E+02  0.00000000000E+00 0. -1.
</event>
<event>
 7    1  0.3129575E-011  0.5052886E+02  0.7816164E-02  0.1300439E+00
        -11   -1    0    0    0    0  0.00000000000E+00  0.00000000000E+00  0.45593999997E+02  0.45594000000E+02  0.51100000000E-03 0.  1.
         11   -1    0    0    0    0 -0.00000000000E+00 -0.00000000000E+00 -0.45593999997E+02  0.45594000000E+02  0.51100000000E-03 0. -1.
    9900012    2    1    2    0    0 -0.29580791525E+01  0.29795661613E+02 -0.27506985824E+02  0.50528856473E+02  0.29999989735E+02 0.  0.
        -12    1    1    2    0    0  0.29580791525E+01 -0.29795661613E+02  0.27506985824E+02  0.40659143527E+02  0.00000000000E+00 0.  1.
         11    1    3    3    0    0 -0.27356343449E+01  0.19287880353E+02 -0.25561944842E+02  0.32139057985E+02  0.51100000000E-03 0. -1.
        -11    1    3    3    0    0 -0.63515501136E+01  0.63899681588E+01 -0.51080491973E+01  0.10356932402E+02  0.51100000000E-03 0.  1.
         12    1    3    3    0    0  0.61291053060E+01  0.41178131013E+01  0.31630082153E+01  0.80328660862E+01  0.00000000000E+00 0. -1.
</event>
<event>
 7    1  0.3129575E-011  0.5052886E+02  0.7816164E-02  0.1300439E+00
        -11   -1    0    0    0    0  0.00000000000E+00  0.00000000000E+00  0.45593999997E+02  0.45594000000E+02  0.51100000000E-03 0.  1.
         11   -1    0    0    0    0 -0.00000000000E+00 -0.00000000000E+00 -0.45593999997E+02  0.45594000000E+02  0.51100000000E-03 0. -1.
    9900012    2    1    2    0    0 -0.64537785697E+01 -0.60665897112E+01 -0.39682623716E+02  0.50528863345E+02  0.30000010624E+02 0.  0.
        -12    1    1    2    0    0  0.64537785697E+01  0.60665897112E+01  0.39682623716E+02  0.40659136655E+02  0.00000000000E+00 0.  1.
         11    1    3    3    0    0 -0.42629444779E+01 -0.48158900265E+01 -0.24872009173E+02  0.25690121310E+02  0.51100000000E-03 0. -1.
        -11    1    3    3    0    0  0.53224043161E+01 -0.66550657769E+01 -0.12784860676E+02  0.15364587563E+02  0.51100000000E-03 0.  1.
         12    1    3    3    0    0 -0.75132384078E+01  0.54043660922E+01 -0.20257538664E+01  0.94741544720E+01  0.00000000000E+00 0. -1.
</event>
<event>
 7    1  0.3129575E-011  0.5052886E+02  0.7816164E-02  0.1300439E+00
        -11   -1    0    0    0    0  0.00000000000E+00  0.00000000000E+00  0.45593999997E+02  0.45594000000E+02  0.51100000000E-03 0.  1.
         11   -1    0    0    0    0 -0.00000000000E+00 -0.00000000000E+00 -0.45593999997E+02  0.45594000000E+02  0.51100000000E-03 0. -1.
    9900012    2    1    2    0    0  0.17894151112E+02  0.33619264688E+02 -0.14237635108E+02  0.50528857662E+02  0.29999993349E+02 0.  0.
        -12    1    1    2    0    0 -0.17894151112E+02 -0.33619264688E+02  0.14237635108E+02  0.40659142338E+02  0.00000000000E+00 0.  1.
         11    1    3    3    0    0  0.14553426178E+02  0.17137624660E+02 -0.63093154331E+01  0.23351827637E+02  0.51100000000E-03 0. -1.
        -11    1    3    3    0    0 -0.17243133107E+01  0.19819780580E+02 -0.54810964261E+01  0.20635875967E+02  0.51100000000E-03 0.  1.
        -12    1    3    3    0    0  0.50650382445E+01 -0.33381405522E+01 -0.24472232494E+01  0.65411540569E+01  0.00000000000E+00 0.  1.
</event>
<event>
 7    1  0.3129575E-011  0.5052886E+02  0.7816164E-02  0.1300439E+00
        -11   -1    0    0    0    0  0.00000000000E+00  0.00000000000E+00  0.45593999997E+02  0.45594000000E+02  0.51100000000E-03 0.  1.
         11   -1    0    0    0    0 -0.00000000000E+00 -0.00000000000E+00 -0.45593999997E+02  0.45594000000E+02  0.51100000000E-03 0. -1.
    9900012    2    1    2    0    0  0.15740484464E+02 -0.15084138576E+02 -0.34320133793E+02  0.50528859929E+02  0.30000000240E+02 0.  0.
        -12    1    1    2    0    0 -0.15740484464E+02  0.15084138576E+02  0.34320133793E+02  0.40659140071E+02  0.00000000000E+00 0.  1.
         11    1    3    3    0    0  0.48002319778E+01  0.42010649916E+01 -0.12235299176E+02  0.13798323097E+02  0.51100000000E-03 0.  1.
        -11    1    3    3    0    0 -0.13345303681E+01 -0.20449137357E+01  0.30275479576E+01  0.38895617217E+01  0.51100000000E-03 0. -1.
         12    1    3    3    0    0  0.12274782854E+02 -0.17240289832E+02 -0.25112382575E+02  0.32840975111E+02  0.00000000000E+00 0. -1.
</event>
<event>
 7    1  0.3129575E-011  0.5052886E+02  0.7816164E-02  0.1300439E+00
        -11   -1    0    0    0    0  0.00000000000E+00  0.00000000000E+00  0.45593999997E+02  0.45594000000E+02  0.51100000000E-03 0.  1.
         11   -1    0    0    0    0 -0.00000000000E+00 -0.00000000000E+00 -0.45593999997E+02  0.45594000000E+02  0.51100000000E-03 0. -1.
    9900012    2    1    2    0    0 -0.24927503160E+02  0.20677323720E+02 -0.24581161075E+02  0.50528860686E+02  0.30000002541E+02 0.  0.
        -12    1    1    2    0    0  0.24927503160E+02 -0.20677323720E+02  0.24581161075E+02  0.40659139314E+02  0.00000000000E+00 0.  1.
         11    1    3    3    0    0 -0.15267797058E+02  0.19824776412E+02 -0.87005920290E+01  0.26492030664E+02  0.51100000000E-03 0. -1.
        -11    1    3    3    0    0 -0.12781984173E+02 -0.20328186291E+01 -0.83906879600E+01  0.15424497258E+02  0.51100000000E-03 0.  1.
         12    1    3    3    0    0  0.31222780716E+01  0.28853659367E+01 -0.74898810856E+01  0.86123327631E+01  0.00000000000E+00 0. -1.
</event>
<event>
 7    1  0.3129575E-011  0.5052886E+02  0.7816164E-02  0.1300439E+00
        -11   -1    0    0    0    0  0.00000000000E+00  0.00000000000E+00  0.45593999997E+02  0.45594000000E+02  0.51100000000E-03 0.  1.
         11   -1    0    0    0    0 -0.00000000000E+00 -0.00000000000E+00 -0.45593999997E+02  0.45594000000E+02  0.51100000000E-03 0. -1.
    9900012    2    1    2    0    0  0.39439928795E+02 -0.53325803909E+01 -0.83199286001E+01  0.50528860696E+02  0.30000002572E+02 0.  0.
        -12    1    1    2    0    0 -0.39439928795E+02  0.53325803909E+01  0.83199286001E+01  0.40659139304E+02  0.00000000000E+00 0.  1.
         11    1    3    3    0    0  0.13109015041E+02 -0.27758113147E+00 -0.74359846249E+01  0.15073725294E+02  0.51100000000E-03 0. -1.
        -11    1    3    3    0    0 -0.10570178371E+01 -0.77124426360E+01  0.11246858194E+01  0.78653656352E+01  0.51100000000E-03 0.  1.
         12    1    3    3    0    0  0.27387931591E+02  0.26574433766E+01 -0.20086297946E+01  0.27589769767E+02  0.00000000000E+00 0. -1.
</event>
<event>
 7    1  0.3129575E-011  0.5052886E+02  0.7816164E-02  0.1300439E+00
        -11   -1    0    0    0    0  0.00000000000E+00  0.00000000000E+00  0.45593999997E+02  0.45594000000E+02  0.51100000000E-03 0.  1.
         11   -1    0    0    0    0 -0.00000000000E+00 -0.00000000000E+00 -0.45593999997E+02  0.45594000000E+02  0.51100000000E-03 0. -1.
    9900012    2    1    2    0    0 -0.27150735147E+01  0.24463360555E+02 -0.32362605691E+02  0.50528857351E+02  0.29999992403E+02 0.  0.
        -12    1    1    2    0    0  0.27150735147E+01 -0.24463360555E+02  0.32362605691E+02  0.40659142649E+02  0.00000000000E+00 0.  1.
         11    1    3    3    0    0 -0.61567492169E+00 -0.33141938825E+00 -0.12916623085E+02  0.12935534260E+02  0.51100000000E-03 0. -1.
        -11    1    3    3    0    0  0.86445474028E+01  0.11933185779E+02 -0.12958641194E+02  0.19622831205E+02  0.51100000000E-03 0.  1.
        -12    1    3    3    0    0 -0.10743945996E+02  0.12861594165E+02 -0.64873414127E+01  0.17970491886E+02  0.00000000000E+00 0.  1.
</event>
<event>
 7    1  0.3523789E-011  0.5052886E+02  0.7816164E-02  0.1300439E+00
        -11   -1    0    0    0    0  0.00000000000E+00  0.00000000000E+00  0.45593999997E+02  0.45594000000E+02  0.51100000000E-03 0. -1.
         11   -1    0    0    0    0 -0.00000000000E+00 -0.00000000000E+00 -0.45593999997E+02  0.45594000000E+02  0.51100000000E-03 0.  1.
    9900012    2    1    2    0    0  0.40334254139E+02 -0.24646555654E+01 -0.44987977206E+01  0.50528858777E+02  0.29999996740E+02 0.  0.
        -12    1    1    2    0    0 -0.40334254139E+02  0.24646555654E+01  0.44987977206E+01  0.40659141223E+02  0.00000000000E+00 0.  1.
         11    1    3    3    0    0  0.12308393160E+02  0.32923835364E+01  0.72071326743E+01  0.14638274938E+02  0.51100000000E-03 0. -1.
        -11    1    3    3    0    0  0.84516361350E-01 -0.59237197563E+01 -0.28851535643E+01  0.65895151655E+01  0.51100000000E-03 0.  1.
         12    1    3    3    0    0  0.27941344618E+02  0.16668065447E+00 -0.88207768307E+01  0.29301068674E+02  0.00000000000E+00 0. -1.
</event>
<event>
 7    1  0.3129575E-011  0.5052886E+02  0.7816164E-02  0.1300439E+00
        -11   -1    0    0    0    0  0.00000000000E+00  0.00000000000E+00  0.45593999997E+02  0.45594000000E+02  0.51100000000E-03 0.  1.
         11   -1    0    0    0    0 -0.00000000000E+00 -0.00000000000E+00 -0.45593999997E+02  0.45594000000E+02  0.51100000000E-03 0. -1.
    9900012    2    1    2    0    0  0.51493720171E+01  0.31504476829E+02 -0.25181696085E+02  0.50528856992E+02  0.29999991312E+02 0.  0.
        -12    1    1    2    0    0 -0.51493720171E+01 -0.31504476829E+02  0.25181696085E+02  0.40659143008E+02  0.00000000000E+00 0.  1.
         11    1    3    3    0    0  0.42545587612E+00 -0.55424830100E+00 -0.20530313461E+01  0.21686728317E+01  0.51100000000E-03 0. -1.
        -11    1    3    3    0    0  0.55524057433E+01  0.25507903729E+02 -0.19521463262E+01  0.26178106076E+02  0.51100000000E-03 0.  1.
        -12    1    3    3    0    0 -0.82848960232E+00  0.65508214014E+01 -0.21176518413E+02  0.22182078084E+02  0.00000000000E+00 0.  1.
</event>
<event>
 7    1  0.3129575E-011  0.5052886E+02  0.7816164E-02  0.1300439E+00
        -11   -1    0    0    0    0  0.00000000000E+00  0.00000000000E+00  0.45593999997E+02  0.45594000000E+02  0.51100000000E-03 0. -1.
         11   -1    0    0    0    0 -0.00000000000E+00 -0.00000000000E+00 -0.45593999997E+02  0.45594000000E+02  0.51100000000E-03 0.  1.
    9900012    2    1    2    0    0 -0.18926653154E+02 -0.12823910950E+02  0.33622829653E+02  0.50528861229E+02  0.30000004193E+02 0.  0.
        -12    1    1    2    0    0  0.18926653154E+02  0.12823910950E+02 -0.33622829653E+02  0.40659138771E+02  0.00000000000E+00 0.  1.
         11    1    3    3    0    0  0.21149382199E+01  0.15640531620E+01  0.31611135730E+01  0.41124038287E+01  0.51100000000E-03 0. -1.
        -11    1    3    3    0    0 -0.76034972164E+01 -0.93360950596E+01 -0.74732096989E+00  0.12063761013E+02  0.51100000000E-03 0.  1.
         12    1    3    3    0    0 -0.13438094158E+02 -0.50518690523E+01  0.31209037050E+02  0.34352696388E+02  0.00000000000E+00 0. -1.
</event>
<event>
 7    1  0.3129575E-011  0.5052886E+02  0.7816164E-02  0.1300439E+00
        -11   -1    0    0    0    0  0.00000000000E+00  0.00000000000E+00  0.45593999997E+02  0.45594000000E+02  0.51100000000E-03 0.  1.
         11   -1    0    0    0    0 -0.00000000000E+00 -0.00000000000E+00 -0.45593999997E+02  0.45594000000E+02  0.51100000000E-03 0. -1.
    9900012    2    1    2    0    0  0.61889958972E+01 -0.36152204897E+02 -0.17546519067E+02  0.50528856865E+02  0.29999990926E+02 0.  0.
        -12    1    1    2    0    0 -0.61889958972E+01  0.36152204897E+02  0.17546519067E+02  0.40659143135E+02  0.00000000000E+00 0.  1.
         11    1    3    3    0    0 -0.73443453589E+00 -0.11376500808E+02 -0.10800511546E+02  0.15703987221E+02  0.51100000000E-03 0. -1.
        -11    1    3    3    0    0  0.48817606221E+01  0.13063144738E+01 -0.70344211641E+01  0.86614736420E+01  0.51100000000E-03 0.  1.
         12    1    3    3    0    0  0.20416698109E+01 -0.26082018562E+02  0.28841364251E+00  0.26163396002E+02  0.00000000000E+00 0. -1.
</event>
<event>
 7    1  0.3129575E-011  0.5052886E+02  0.7816164E-02  0.1300439E+00
        -11   -1    0    0    0    0  0.00000000000E+00  0.00000000000E+00  0.45593999997E+02  0.45594000000E+02  0.51100000000E-03 0. -1.
         11   -1    0    0    0    0 -0.00000000000E+00 -0.00000000000E+00 -0.45593999997E+02  0.45594000000E+02  0.51100000000E-03 0.  1.
    9900012    2    1    2    0    0 -0.52240461041E+01  0.36239325157E+02 -0.17680119925E+02  0.50528856057E+02  0.29999988472E+02 0.  0.
        -12    1    1    2    0    0  0.52240461041E+01 -0.36239325157E+02  0.17680119925E+02  0.40659143943E+02  0.00000000000E+00 0.  1.
         11    1    3    3    0    0 -0.30959723305E+00  0.31903173770E+02 -0.10812486160E+02  0.33687062862E+02  0.51100000000E-03 0. -1.
        -11    1    3    3    0    0  0.44505779458E+01  0.32468437669E+01 -0.45193069748E+01  0.71255718572E+01  0.51100000000E-03 0.  1.
        -12    1    3    3    0    0 -0.93650268169E+01  0.10893076202E+01 -0.23483267907E+01  0.97162213380E+01  0.00000000000E+00 0.  1.
</event>
<event>
 7    1  0.3129575E-011  0.5052887E+02  0.7816164E-02  0.1300439E+00
        -11   -1    0    0    0    0  0.00000000000E+00  0.00000000000E+00  0.45593999997E+02  0.45594000000E+02  0.51100000000E-03 0.  1.
         11   -1    0    0    0    0 -0.00000000000E+00 -0.00000000000E+00 -0.45593999997E+02  0.45594000000E+02  0.51100000000E-03 0. -1.
    9900012    2    1    2    0    0  0.32207745726E+02 -0.23780949562E+02 -0.70917214737E+01  0.50528868672E+02  0.30000026817E+02 0.  0.
        -12    1    1    2    0    0 -0.32207745726E+02  0.23780949562E+02  0.70917214737E+01  0.40659131328E+02  0.00000000000E+00 0.  1.
         11    1    3    3    0    0  0.73128807983E+01 -0.16178248597E+02  0.76843584958E+01  0.19345886358E+02  0.51100000000E-03 0.  1.
        -11    1    3    3    0    0  0.11845988739E+02 -0.40174782731E+01 -0.21834861675E+01  0.12697842060E+02  0.51100000000E-03 0. -1.
        -12    1    3    3    0    0  0.13048876189E+02 -0.35852226920E+01 -0.12592593802E+02  0.18485140254E+02  0.00000000000E+00 0.  1.
</event>
<event>
 7    1  0.3129575E-011  0.5052879E+02  0.7816164E-02  0.1300439E+00
        -11   -1    0    0    0    0  0.00000000000E+00  0.00000000000E+00  0.45593999997E+02  0.45594000000E+02  0.51100000000E-03 0.  1.
         11   -1    0    0    0    0 -0.00000000000E+00 -0.00000000000E+00 -0.45593999997E+02  0.45594000000E+02  0.51100000000E-03 0. -1.
    9900012    2    1    2    0    0  0.23052712446E+02  0.28963755582E+02 -0.16817977217E+02  0.50528793832E+02  0.29999799331E+02 0.  0.
        -12    1    1    2    0    0 -0.23052712446E+02 -0.28963755582E+02  0.16817977217E+02  0.40659206168E+02  0.00000000000E+00 0.  1.
         11    1    3    3    0    0  0.35179290378E+01  0.50258427211E+01  0.18194940391E+01  0.63988654144E+01  0.51100000000E-03 0. -1.
        -11    1    3    3    0    0 -0.43595682480E+01  0.11909851083E+02 -0.95549426126E+01  0.15879147229E+02  0.51100000000E-03 0.  1.
        -12    1    3    3    0    0  0.23894351656E+02  0.12028061778E+02 -0.90825286435E+01  0.28250781189E+02  0.00000000000E+00 0.  1.
</event>
<event>
 7    1  0.3129575E-011  0.5052885E+02  0.7816164E-02  0.1300439E+00
        -11   -1    0    0    0    0  0.00000000000E+00  0.00000000000E+00  0.45593999997E+02  0.45594000000E+02  0.51100000000E-03 0. -1.
         11   -1    0    0    0    0 -0.00000000000E+00 -0.00000000000E+00 -0.45593999997E+02  0.45594000000E+02  0.51100000000E-03 0.  1.
    9900012    2    1    2    0    0  0.16050549811E+02  0.13338643931E+02  0.34894507533E+02  0.50528853094E+02  0.29999979465E+02 0.  0.
        -12    1    1    2    0    0 -0.16050549811E+02 -0.13338643931E+02 -0.34894507533E+02  0.40659146906E+02  0.00000000000E+00 0.  1.
         11    1    3    3    0    0  0.68096890106E+01  0.78986211134E+01  0.14874867026E+02  0.18166500742E+02  0.51100000000E-03 0. -1.
        -11    1    3    3    0    0 -0.53335564803E+01  0.84999540044E+01  0.11270019739E+02  0.15090042676E+02  0.51100000000E-03 0.  1.
         12    1    3    3    0    0  0.14574417281E+02 -0.30599311868E+01  0.87496207685E+01  0.17272309676E+02  0.00000000000E+00 0. -1.
</event>
<event>
 7    1  0.3129575E-011  0.5052886E+02  0.7816164E-02  0.1300439E+00
        -11   -1    0    0    0    0  0.00000000000E+00  0.00000000000E+00  0.45593999997E+02  0.45594000000E+02  0.51100000000E-03 0.  1.
         11   -1    0    0    0    0 -0.00000000000E+00 -0.00000000000E+00 -0.45593999997E+02  0.45594000000E+02  0.51100000000E-03 0. -1.
    9900012    2    1    2    0    0  0.82241056358E+01 -0.24631464461E+02 -0.31286115786E+02  0.50528855937E+02  0.29999988105E+02 0.  0.
        -12    1    1    2    0    0 -0.82241056358E+01  0.24631464461E+02  0.31286115786E+02  0.40659144063E+02  0.00000000000E+00 0.  1.
         11    1    3    3    0    0  0.75272197400E+01 -0.25695084740E+01 -0.27272916873E+01  0.84083013161E+01  0.51100000000E-03 0. -1.
        -11    1    3    3    0    0  0.10146593154E+02 -0.17368133226E+02 -0.15893820259E+02  0.25636281459E+02  0.51100000000E-03 0.  1.
        -12    1    3    3    0    0 -0.94497072585E+01 -0.46938227613E+01 -0.12665003840E+02  0.16484273161E+02  0.00000000000E+00 0.  1.
</event>
<event>
 7    1  0.3129575E-011  0.5052886E+02  0.7816164E-02  0.1300439E+00
        -11   -1    0    0    0    0  0.00000000000E+00  0.00000000000E+00  0.45593999997E+02  0.45594000000E+02  0.51100000000E-03 0.  1.
         11   -1    0    0    0    0 -0.00000000000E+00 -0.00000000000E+00 -0.45593999997E+02  0.45594000000E+02  0.51100000000E-03 0. -1.
    9900012    2    1    2    0    0  0.51553818377E+01 -0.62376077117E+01 -0.39845705243E+02  0.50528856648E+02  0.29999990266E+02 0.  0.
        -12    1    1    2    0    0 -0.51553818377E+01  0.62376077117E+01  0.39845705243E+02  0.40659143352E+02  0.00000000000E+00 0.  1.
         11    1    3    3    0    0  0.11443584008E+02  0.15735961051E+01 -0.24991230660E+02  0.27531680476E+02  0.51100000000E-03 0. -1.
        -11    1    3    3    0    0  0.15350963314E+01 -0.13034117448E+01  0.22965516714E+01  0.30544316596E+01  0.51100000000E-03 0.  1.
        -12    1    3    3    0    0 -0.78232985020E+01 -0.65077920721E+01 -0.17151026254E+02  0.19942744512E+02  0.00000000000E+00 0.  1.
</event>
<event>
 7    1  0.3129575E-011  0.5052888E+02  0.7816164E-02  0.1300439E+00
        -11   -1    0    0    0    0  0.00000000000E+00  0.00000000000E+00  0.45593999997E+02  0.45594000000E+02  0.51100000000E-03 0.  1.
         11   -1    0    0    0    0 -0.00000000000E+00 -0.00000000000E+00 -0.45593999997E+02  0.45594000000E+02  0.51100000000E-03 0. -1.
    9900012    2    1    2    0    0  0.37330842145E+02 -0.74387564569E+01 -0.14291152828E+02  0.50528881440E+02  0.30000065626E+02 0.  0.
        -12    1    1    2    0    0 -0.37330842145E+02  0.74387564569E+01  0.14291152828E+02  0.40659118560E+02  0.00000000000E+00 0.  1.
         11    1    3    3    0    0  0.19556703597E+02  0.53083578547E+01 -0.12076851720E+02  0.23590117982E+02  0.51100000000E-03 0. -1.
        -11    1    3    3    0    0 -0.44991406963E+00 -0.69673343812E+01 -0.34352227258E+01  0.77811905571E+01  0.51100000000E-03 0.  1.
        -12    1    3    3    0    0  0.18224052618E+02 -0.57797799304E+01  0.12209216173E+01  0.19157572901E+02  0.00000000000E+00 0.  1.
</event>
<event>
 7    1  0.3129575E-011  0.5052889E+02  0.7816164E-02  0.1300439E+00
        -11   -1    0    0    0    0  0.00000000000E+00  0.00000000000E+00  0.45593999997E+02  0.45594000000E+02  0.51100000000E-03 0.  1.
         11   -1    0    0    0    0 -0.00000000000E+00 -0.00000000000E+00 -0.45593999997E+02  0.45594000000E+02  0.51100000000E-03 0. -1.
    9900012    2    1    2    0    0 -0.56094437604E+00  0.24954234126E+02 -0.32095717580E+02  0.50528886060E+02  0.30000079669E+02 0.  0.
        -12    1    1    2    0    0  0.56094437604E+00 -0.24954234126E+02  0.32095717580E+02  0.40659113940E+02  0.00000000000E+00 0.  1.
         11    1    3    3    0    0 -0.68226119573E+01  0.11492310494E+02 -0.22301519264E+02  0.25999596077E+02  0.51100000000E-03 0. -1.
        -11    1    3    3    0    0  0.93152477339E+01  0.79588349994E+01 -0.12656509657E+02  0.17615451509E+02  0.51100000000E-03 0.  1.
        -12    1    3    3    0    0 -0.30535801526E+01  0.55030886320E+01  0.28623113413E+01  0.69138384748E+01  0.00000000000E+00 0.  1.
</event>
<event>
 7    1  0.3129575E-011  0.5052886E+02  0.7816164E-02  0.1300439E+00
        -11   -1    0    0    0    0  0.00000000000E+00  0.00000000000E+00  0.45593999997E+02  0.45594000000E+02  0.51100000000E-03 0.  1.
         11   -1    0    0    0    0 -0.00000000000E+00 -0.00000000000E+00 -0.45593999997E+02  0.45594000000E+02  0.51100000000E-03 0. -1.
    9900012    2    1    2    0    0 -0.23467356417E+02  0.23081187793E+02 -0.23868550069E+02  0.50528859213E+02  0.29999998065E+02 0.  0.
        -12    1    1    2    0    0  0.23467356417E+02 -0.23081187793E+02  0.23868550069E+02  0.40659140787E+02  0.00000000000E+00 0.  1.
         11    1    3    3    0    0 -0.69124344638E+01  0.32405164006E+01  0.24767063206E+01  0.80260059319E+01  0.51100000000E-03 0. -1.
        -11    1    3    3    0    0 -0.14949571487E+02  0.18053705381E+02 -0.91848561496E+01  0.25175137505E+02  0.51100000000E-03 0.  1.
         12    1    3    3    0    0 -0.16053504655E+01  0.17869660108E+01 -0.17160400240E+02  0.17327715776E+02  0.00000000000E+00 0. -1.
</event>
<event>
 7    1  0.3129575E-011  0.5052889E+02  0.7816164E-02  0.1300439E+00
        -11   -1    0    0    0    0  0.00000000000E+00  0.00000000000E+00  0.45593999997E+02  0.45594000000E+02  0.51100000000E-03 0. -1.
         11   -1    0    0    0    0 -0.00000000000E+00 -0.00000000000E+00 -0.45593999997E+02  0.45594000000E+02  0.51100000000E-03 0.  1.
    9900012    2    1    2    0    0 -0.24320402509E+01 -0.39691818669E+01  0.40391758507E+02  0.50528888109E+02  0.30000085897E+02 0.  0.
        -12    1    1    2    0    0  0.24320402509E+01  0.39691818669E+01 -0.40391758507E+02  0.40659111891E+02  0.00000000000E+00 0.  1.
         11    1    3    3    0    0 -0.48867435786E+01  0.33422668405E+01  0.22715728806E+02  0.23474568066E+02  0.51100000000E-03 0. -1.
        -11    1    3    3    0    0 -0.34155313614E-01  0.58398450970E+01  0.14445036143E+01  0.60159411812E+01  0.51100000000E-03 0.  1.
         12    1    3    3    0    0  0.24888586413E+01 -0.13151293804E+02  0.16231526087E+02  0.21038378863E+02  0.00000000000E+00 0. -1.
</event>
<event>
 7    1  0.3129575E-011  0.5052889E+02  0.7816164E-02  0.1300439E+00
        -11   -1    0    0    0    0  0.00000000000E+00  0.00000000000E+00  0.45593999997E+02  0.45594000000E+02  0.51100000000E-03 0.  1.
         11   -1    0    0    0    0 -0.00000000000E+00 -0.00000000000E+00 -0.45593999997E+02  0.45594000000E+02  0.51100000000E-03 0. -1.
    9900012    2    1    2    0    0 -0.39671956354E+02 -0.54099704388E+01  0.70732704693E+01  0.50528892088E+02  0.30000097989E+02 0.  0.
        -12    1    1    2    0    0  0.39671956354E+02  0.54099704388E+01 -0.70732704693E+01  0.40659107912E+02  0.00000000000E+00 0.  1.
         11    1    3    3    0    0 -0.22783546699E+02 -0.16155506858E+01 -0.40794366046E+01  0.23202194023E+02  0.51100000000E-03 0. -1.
        -11    1    3    3    0    0 -0.47049067651E+01  0.70370466866E+01  0.22810938777E+01  0.87669586105E+01  0.51100000000E-03 0.  1.
         12    1    3    3    0    0 -0.12183502890E+02 -0.10831466440E+02  0.88716131962E+01  0.18559739454E+02  0.00000000000E+00 0. -1.
</event>
<event>
 7    1  0.3129575E-011  0.5052887E+02  0.7816164E-02  0.1300439E+00
        -11   -1    0    0    0    0  0.00000000000E+00  0.00000000000E+00  0.45593999997E+02  0.45594000000E+02  0.51100000000E-03 0.  1.
         11   -1    0    0    0    0 -0.00000000000E+00 -0.00000000000E+00 -0.45593999997E+02  0.45594000000E+02  0.51100000000E-03 0. -1.
    9900012    2    1    2    0    0  0.10328951348E+02  0.32357772956E+02 -0.22348419786E+02  0.50528873429E+02  0.30000041274E+02 0.  0.
        -12    1    1    2    0    0 -0.10328951348E+02 -0.32357772956E+02  0.22348419786E+02  0.40659126571E+02  0.00000000000E+00 0.  1.
         11    1    3    3    0    0  0.33474995962E+01  0.14550556023E+02 -0.19574356669E+02  0.24618689514E+02  0.51100000000E-03 0. -1.
        -11    1    3    3    0    0  0.83535174680E+00  0.17511117493E+02 -0.65225406428E+01  0.18705095164E+02  0.51100000000E-03 0.  1.
         12    1    3    3    0    0  0.61461000048E+01  0.29609943954E+00  0.37484775255E+01  0.72050887508E+01  0.00000000000E+00 0. -1.
</event>
<event>
 7    1  0.3129575E-011  0.5052885E+02  0.7816164E-02  0.1300439E+00
        -11   -1    0    0    0    0  0.00000000000E+00  0.00000000000E+00  0.45593999997E+02  0.45594000000E+02  0.51100000000E-03 0.  1.
         11   -1    0    0    0    0 -0.00000000000E+00 -0.00000000000E+00 -0.45593999997E+02  0.45594000000E+02  0.51100000000E-03 0. -1.
    9900012    2    1    2    0    0 -0.14971896956E+02 -0.23755292812E+02 -0.29405698253E+02  0.50528846974E+02  0.29999960861E+02 0.  0.
        -12    1    1    2    0    0  0.14971896956E+02  0.23755292812E+02  0.29405698253E+02  0.40659153026E+02  0.00000000000E+00 0.  1.
         11    1    3    3    0    0  0.43978675611E+01 -0.40908612929E+00 -0.34378015328E+01  0.55970590658E+01  0.51100000000E-03 0. -1.
        -11    1    3    3    0    0 -0.90328242895E+01 -0.22983979257E-01 -0.14217970805E+02  0.16844676815E+02  0.51100000000E-03 0.  1.
         12    1    3    3    0    0 -0.10336940227E+02 -0.23323222704E+02 -0.11749925915E+02  0.28087111093E+02  0.00000000000E+00 0. -1.
</event>
<event>
 7    1  0.3129575E-011  0.5052886E+02  0.7816164E-02  0.1300439E+00
        -11   -1    0    0    0    0  0.00000000000E+00  0.00000000000E+00  0.45593999997E+02  0.45594000000E+02  0.51100000000E-03 0.  1.
         11   -1    0    0    0    0 -0.00000000000E+00 -0.00000000000E+00 -0.45593999997E+02  0.45594000000E+02  0.51100000000E-03 0. -1.
    9900012    2    1    2    0    0 -0.10261078570E+02  0.78869531655E+01 -0.38544412536E+02  0.50528862019E+02  0.30000006593E+02 0.  0.
        -12    1    1    2    0    0  0.10261078570E+02 -0.78869531655E+01  0.38544412536E+02  0.40659137981E+02  0.00000000000E+00 0.  1.
         11    1    3    3    0    0 -0.10013757746E+02  0.29290606174E+01 -0.13720939152E+02  0.17237137575E+02  0.51100000000E-03 0.  1.
        -11    1    3    3    0    0 -0.40611956552E+00  0.92343244357E+01 -0.26965837928E+02  0.28506036138E+02  0.51100000000E-03 0. -1.
        -12    1    3    3    0    0  0.15879874153E+00 -0.42764318875E+01  0.21423645440E+01  0.47856883067E+01  0.00000000000E+00 0.  1.
</event>
<event>
 7    1  0.3129575E-011  0.5052886E+02  0.7816164E-02  0.1300439E+00
        -11   -1    0    0    0    0  0.00000000000E+00  0.00000000000E+00  0.45593999997E+02  0.45594000000E+02  0.51100000000E-03 0.  1.
         11   -1    0    0    0    0 -0.00000000000E+00 -0.00000000000E+00 -0.45593999997E+02  0.45594000000E+02  0.51100000000E-03 0. -1.
    9900012    2    1    2    0    0  0.25524830168E+02 -0.50597217243E+00 -0.31644789830E+02  0.50528859745E+02  0.29999999680E+02 0.  0.
        -12    1    1    2    0    0 -0.25524830168E+02  0.50597217243E+00  0.31644789830E+02  0.40659140255E+02  0.00000000000E+00 0.  1.
         11    1    3    3    0    0  0.91784250782E+01 -0.55551848428E+01 -0.12031368423E+02  0.16120092802E+02  0.51100000000E-03 0. -1.
        -11    1    3    3    0    0 -0.16315536983E+01 -0.37854350779E+01  0.22992774162E+01  0.47199749043E+01  0.51100000000E-03 0.  1.
         12    1    3    3    0    0  0.17977958788E+02  0.88346477482E+01 -0.21912698823E+02  0.29688792039E+02  0.00000000000E+00 0. -1.
</event>
<event>
 7    1  0.3129575E-011  0.5052886E+02  0.7816164E-02  0.1300439E+00
        -11   -1    0    0    0    0  0.00000000000E+00  0.00000000000E+00  0.45593999997E+02  0.45594000000E+02  0.51100000000E-03 0.  1.
         11   -1    0    0    0    0 -0.00000000000E+00 -0.00000000000E+00 -0.45593999997E+02  0.45594000000E+02  0.51100000000E-03 0. -1.
    9900012    2    1    2    0    0  0.23491964172E+02  0.26016174609E+02 -0.20602236313E+02  0.50528857571E+02  0.29999993072E+02 0.  0.
        -12    1    1    2    0    0 -0.23491964172E+02 -0.26016174609E+02  0.20602236313E+02  0.40659142429E+02  0.00000000000E+00 0.  1.
         11    1    3    3    0    0  0.94086348672E+01 -0.82187518673E+00  0.34473623306E+01  0.10053964203E+02  0.51100000000E-03 0. -1.
        -11    1    3    3    0    0  0.46535632104E+00  0.68184099780E+01 -0.11052276758E+02  0.12994617845E+02  0.51100000000E-03 0.  1.
        -12    1    3    3    0    0  0.13617972984E+02  0.20019639818E+02 -0.12997321886E+02  0.27480275523E+02  0.00000000000E+00 0.  1.
</event>
<event>
 7    1  0.3129575E-011  0.5052885E+02  0.7816164E-02  0.1300439E+00
        -11   -1    0    0    0    0  0.00000000000E+00  0.00000000000E+00  0.45593999997E+02  0.45594000000E+02  0.51100000000E-03 0.  1.
         11   -1    0    0    0    0 -0.00000000000E+00 -0.00000000000E+00 -0.45593999997E+02  0.45594000000E+02  0.51100000000E-03 0. -1.
    9900012    2    1    2    0    0 -0.27346623742E+02 -0.17849354957E+02 -0.24222489692E+02  0.50528852083E+02  0.29999976392E+02 0.  0.
        -12    1    1    2    0    0  0.27346623742E+02  0.17849354957E+02  0.24222489692E+02  0.40659147917E+02  0.00000000000E+00 0.  1.
         11    1    3    3    0    0 -0.35359681694E+01 -0.93477832521E+01 -0.55284049496E+01  0.11421356494E+02  0.51100000000E-03 0. -1.
        -11    1    3    3    0    0  0.40921844201E+01  0.15047605326E+01 -0.44141378450E+01  0.62044250954E+01  0.51100000000E-03 0.  1.
         12    1    3    3    0    0 -0.27902839993E+02 -0.10006332237E+02 -0.14279946897E+02  0.32903070493E+02  0.00000000000E+00 0. -1.
</event>
<event>
 7    1  0.3129575E-011  0.5052886E+02  0.7816164E-02  0.1300439E+00
        -11   -1    0    0    0    0  0.00000000000E+00  0.00000000000E+00  0.45593999997E+02  0.45594000000E+02  0.51100000000E-03 0. -1.
         11   -1    0    0    0    0 -0.00000000000E+00 -0.00000000000E+00 -0.45593999997E+02  0.45594000000E+02  0.51100000000E-03 0.  1.
    9900012    2    1    2    0    0 -0.35951409206E+02  0.18990978309E+02  0.67085616823E-01  0.50528861034E+02  0.30000003598E+02 0.  0.
        -12    1    1    2    0    0  0.35951409206E+02 -0.18990978309E+02 -0.67085616823E-01  0.40659138966E+02  0.00000000000E+00 0.  1.
         11    1    3    3    0    0 -0.25264105340E+01  0.25580042923E+01  0.56008196943E+01  0.66554727596E+01  0.51100000000E-03 0.  1.
        -11    1    3    3    0    0 -0.33480733044E+02  0.10465067377E+02  0.91059244632E+00  0.35089974341E+02  0.51100000000E-03 0. -1.
        -12    1    3    3    0    0  0.55734372190E-01  0.59679066395E+01 -0.64443265238E+01  0.87834139333E+01  0.00000000000E+00 0.  1.
</event>
<event>
 7    1  0.3129575E-011  0.5052885E+02  0.7816164E-02  0.1300439E+00
        -11   -1    0    0    0    0  0.00000000000E+00  0.00000000000E+00  0.45593999997E+02  0.45594000000E+02  0.51100000000E-03 0.  1.
         11   -1    0    0    0    0 -0.00000000000E+00 -0.00000000000E+00 -0.45593999997E+02  0.45594000000E+02  0.51100000000E-03 0. -1.
    9900012    2    1    2    0    0  0.71662596042E+01 -0.11764635340E+02 -0.38254467012E+02  0.50528853824E+02  0.29999981684E+02 0.  0.
        -12    1    1    2    0    0 -0.71662596042E+01  0.11764635340E+02  0.38254467012E+02  0.40659146176E+02  0.00000000000E+00 0.  1.
         11    1    3    3    0    0  0.92405985219E+01 -0.11147327001E+02 -0.11384789501E+02  0.18419147444E+02  0.51100000000E-03 0. -1.
        -11    1    3    3    0    0  0.58602738329E+01 -0.14483030057E+01 -0.21885488300E+02  0.22702752903E+02  0.51100000000E-03 0.  1.
         12    1    3    3    0    0 -0.79346127506E+01  0.83099466676E+00 -0.49841892105E+01  0.94069534773E+01  0.00000000000E+00 0. -1.
</event>
<event>
 7    1  0.3129575E-011  0.5052886E+02  0.7816164E-02  0.1300439E+00
        -11   -1    0    0    0    0  0.00000000000E+00  0.00000000000E+00  0.45593999997E+02  0.45594000000E+02  0.51100000000E-03 0.  1.
         11   -1    0    0    0    0 -0.00000000000E+00 -0.00000000000E+00 -0.45593999997E+02  0.45594000000E+02  0.51100000000E-03 0. -1.
    9900012    2    1    2    0    0  0.16461377552E+02  0.34547141731E+02  0.13736217840E+02  0.50528860397E+02  0.30000001663E+02 0.  0.
        -12    1    1    2    0    0 -0.16461377552E+02 -0.34547141731E+02 -0.13736217840E+02  0.40659139603E+02  0.00000000000E+00 0.  1.
         11    1    3    3    0    0 -0.11649178986E+01  0.24473710912E+02 -0.61176473753E+00  0.24509055793E+02  0.51100000000E-03 0. -1.
        -11    1    3    3    0    0  0.10923173521E+02  0.94330702890E+01  0.69584145896E+01  0.16022423934E+02  0.51100000000E-03 0.  1.
        -12    1    3    3    0    0  0.67031219294E+01  0.64036052996E+00  0.73895679881E+01  0.99973806700E+01  0.00000000000E+00 0.  1.
</event>
<event>
 7    1  0.3129575E-011  0.5052885E+02  0.7816164E-02  0.1300439E+00
        -11   -1    0    0    0    0  0.00000000000E+00  0.00000000000E+00  0.45593999997E+02  0.45594000000E+02  0.51100000000E-03 0. -1.
         11   -1    0    0    0    0 -0.00000000000E+00 -0.00000000000E+00 -0.45593999997E+02  0.45594000000E+02  0.51100000000E-03 0.  1.
    9900012    2    1    2    0    0  0.81408819334E+01 -0.21834737051E+02  0.33318711691E+02  0.50528852819E+02  0.29999978630E+02 0.  0.
        -12    1    1    2    0    0 -0.81408819334E+01  0.21834737051E+02 -0.33318711691E+02  0.40659147181E+02  0.00000000000E+00 0.  1.
         11    1    3    3    0    0  0.63936078204E+00 -0.66523571494E+01  0.10491589089E+02  0.12439295789E+02  0.51100000000E-03 0. -1.
        -11    1    3    3    0    0  0.21547763814E+01 -0.12865689332E+01 -0.55235956715E+01  0.60669951605E+01  0.51100000000E-03 0.  1.
         12    1    3    3    0    0  0.53467447700E+01 -0.13895810968E+02  0.28350718274E+02  0.32022561870E+02  0.00000000000E+00 0. -1.
</event>
<event>
 7    1  0.3129575E-011  0.5052886E+02  0.7816164E-02  0.1300439E+00
        -11   -1    0    0    0    0  0.00000000000E+00  0.00000000000E+00  0.45593999997E+02  0.45594000000E+02  0.51100000000E-03 0.  1.
         11   -1    0    0    0    0 -0.00000000000E+00 -0.00000000000E+00 -0.45593999997E+02  0.45594000000E+02  0.51100000000E-03 0. -1.
    9900012    2    1    2    0    0  0.33871453132E+02  0.22438380177E+02 -0.15521023195E+01  0.50528864940E+02  0.30000015472E+02 0.  0.
        -12    1    1    2    0    0 -0.33871453132E+02 -0.22438380177E+02  0.15521023195E+01  0.40659135060E+02  0.00000000000E+00 0.  1.
         11    1    3    3    0    0  0.59714370221E+01  0.28543484740E+01 -0.76082112466E+01  0.10084158069E+02  0.51100000000E-03 0. -1.
        -11    1    3    3    0    0  0.42514576743E+01 -0.25308089676E+01 -0.41909194968E+01  0.64841108007E+01  0.51100000000E-03 0.  1.
         12    1    3    3    0    0  0.23648558435E+02  0.22114840670E+02  0.10247028424E+02  0.33960596071E+02  0.00000000000E+00 0. -1.
</event>
<event>
 7    1  0.3129575E-011  0.5052886E+02  0.7816164E-02  0.1300439E+00
        -11   -1    0    0    0    0  0.00000000000E+00  0.00000000000E+00  0.45593999997E+02  0.45594000000E+02  0.51100000000E-03 0.  1.
         11   -1    0    0    0    0 -0.00000000000E+00 -0.00000000000E+00 -0.45593999997E+02  0.45594000000E+02  0.51100000000E-03 0. -1.
    9900012    2    1    2    0    0  0.14032616151E+02  0.26209935385E+02 -0.27736091934E+02  0.50528858043E+02  0.29999994507E+02 0.  0.
        -12    1    1    2    0    0 -0.14032616151E+02 -0.26209935385E+02  0.27736091934E+02  0.40659141957E+02  0.00000000000E+00 0.  1.
         11    1    3    3    0    0  0.11122792914E+02  0.23850889524E+02 -0.23512120985E+02  0.35290243507E+02  0.51100000000E-03 0. -1.
        -11    1    3    3    0    0  0.76559672968E+01  0.28523889959E+01 -0.60111793967E+01  0.10143186690E+02  0.51100000000E-03 0.  1.
        -12    1    3    3    0    0 -0.47461440603E+01 -0.49334313539E+00  0.17872084475E+01  0.50954278452E+01  0.00000000000E+00 0.  1.
</event>
<event>
 7    1  0.3129575E-011  0.5052886E+02  0.7816164E-02  0.1300439E+00
        -11   -1    0    0    0    0  0.00000000000E+00  0.00000000000E+00  0.45593999997E+02  0.45594000000E+02  0.51100000000E-03 0.  1.
         11   -1    0    0    0    0 -0.00000000000E+00 -0.00000000000E+00 -0.45593999997E+02  0.45594000000E+02  0.51100000000E-03 0. -1.
    9900012    2    1    2    0    0 -0.38998705939E+02 -0.41378669460E+01 -0.10730537148E+02  0.50528862832E+02  0.30000009065E+02 0.  0.
        -12    1    1    2    0    0  0.38998705939E+02  0.41378669460E+01  0.10730537148E+02  0.40659137168E+02  0.00000000000E+00 0.  1.
         11    1    3    3    0    0 -0.54933264005E+01 -0.33606370652E+01  0.25760502950E+01  0.69358886820E+01  0.51100000000E-03 0. -1.
        -11    1    3    3    0    0 -0.36553242729E+01 -0.17296915045E+01  0.65722973097E+01  0.77167558228E+01  0.51100000000E-03 0.  1.
         12    1    3    3    0    0 -0.29850055265E+02  0.95246162365E+00 -0.19878884752E+02  0.35876218327E+02  0.00000000000E+00 0. -1.
</event>
<event>
 7    1  0.3129575E-011  0.5052886E+02  0.7816164E-02  0.1300439E+00
        -11   -1    0    0    0    0  0.00000000000E+00  0.00000000000E+00  0.45593999997E+02  0.45594000000E+02  0.51100000000E-03 0. -1.
         11   -1    0    0    0    0 -0.00000000000E+00 -0.00000000000E+00 -0.45593999997E+02  0.45594000000E+02  0.51100000000E-03 0.  1.
    9900012    2    1    2    0    0  0.35183097380E+02 -0.34970930501E+00  0.20376282897E+02  0.50528861513E+02  0.30000005055E+02 0.  0.
        -12    1    1    2    0    0 -0.35183097380E+02  0.34970930501E+00 -0.20376282897E+02  0.40659138487E+02  0.00000000000E+00 0.  1.
         11    1    3    3    0    0  0.28110249447E+02  0.77987105077E+01  0.10078224494E+02  0.30863839988E+02  0.51100000000E-03 0.  1.
        -11    1    3    3    0    0  0.10425356852E+02 -0.38985081787E+01  0.83414315281E+01  0.13909202411E+02  0.51100000000E-03 0. -1.
        -12    1    3    3    0    0 -0.33525089196E+01 -0.42499116340E+01  0.19566268748E+01  0.57558191146E+01  0.00000000000E+00 0.  1.
</event>
<event>
 7    1  0.3129575E-011  0.5052888E+02  0.7816164E-02  0.1300439E+00
        -11   -1    0    0    0    0  0.00000000000E+00  0.00000000000E+00  0.45593999997E+02  0.45594000000E+02  0.51100000000E-03 0.  1.
         11   -1    0    0    0    0 -0.00000000000E+00 -0.00000000000E+00 -0.45593999997E+02  0.45594000000E+02  0.51100000000E-03 0. -1.
    9900012    2    1    2    0    0  0.36052014569E+01  0.35539602715E+02 -0.19419138244E+02  0.50528883324E+02  0.30000071352E+02 0.  0.
        -12    1    1    2    0    0 -0.36052014569E+01 -0.35539602715E+02  0.19419138244E+02  0.40659116676E+02  0.00000000000E+00 0.  1.
         11    1    3    3    0    0  0.30832519789E+01  0.26593993267E+02 -0.11398635469E+02  0.29097694264E+02  0.51100000000E-03 0. -1.
        -11    1    3    3    0    0 -0.79479097150E+01  0.31161310178E+01 -0.71079819869E+01  0.11108688021E+02  0.51100000000E-03 0.  1.
         12    1    3    3    0    0  0.84698591930E+01  0.58294784306E+01 -0.91252078787E+00  0.10322501039E+02  0.00000000000E+00 0. -1.
</event>
<event>
 7    1  0.3129575E-011  0.5052886E+02  0.7816164E-02  0.1300439E+00
        -11   -1    0    0    0    0  0.00000000000E+00  0.00000000000E+00  0.45593999997E+02  0.45594000000E+02  0.51100000000E-03 0.  1.
         11   -1    0    0    0    0 -0.00000000000E+00 -0.00000000000E+00 -0.45593999997E+02  0.45594000000E+02  0.51100000000E-03 0. -1.
    9900012    2    1    2    0    0 -0.23615237504E+02 -0.32621423709E+02 -0.55972060454E+01  0.50528862740E+02  0.30000008785E+02 0.  0.
        -12    1    1    2    0    0  0.23615237504E+02  0.32621423709E+02  0.55972060454E+01  0.40659137260E+02  0.00000000000E+00 0.  1.
         11    1    3    3    0    0 -0.14035330544E+01 -0.54536724278E+01 -0.55467472774E+01  0.79043566219E+01  0.51100000000E-03 0. -1.
        -11    1    3    3    0    0 -0.61064756703E+01 -0.23071615668E+02 -0.66009632750E+01  0.24762092219E+02  0.51100000000E-03 0.  1.
         12    1    3    3    0    0 -0.16105228779E+02 -0.40961356132E+01  0.65505045070E+01  0.17862413899E+02  0.00000000000E+00 0. -1.
</event>
<event>
 7    1  0.3129575E-011  0.5052885E+02  0.7816164E-02  0.1300439E+00
        -11   -1    0    0    0    0  0.00000000000E+00  0.00000000000E+00  0.45593999997E+02  0.45594000000E+02  0.51100000000E-03 0.  1.
         11   -1    0    0    0    0 -0.00000000000E+00 -0.00000000000E+00 -0.45593999997E+02  0.45594000000E+02  0.51100000000E-03 0. -1.
    9900012    2    1    2    0    0  0.23529935756E+02  0.33158617870E+02  0.12039714821E+00  0.50528852060E+02  0.29999976322E+02 0.  0.
        -12    1    1    2    0    0 -0.23529935756E+02 -0.33158617870E+02 -0.12039714821E+00  0.40659147940E+02  0.00000000000E+00 0.  1.
         11    1    3    3    0    0  0.28700698248E+01  0.10153582347E+02  0.45520995292E+01  0.11491481439E+02  0.51100000000E-03 0. -1.
        -11    1    3    3    0    0  0.14382006897E+02  0.45615644523E+01  0.67993784936E+01  0.16549366779E+02  0.51100000000E-03 0.  1.
        -12    1    3    3    0    0  0.62778590344E+01  0.18443471071E+02 -0.11231080875E+02  0.22488003842E+02  0.00000000000E+00 0.  1.
</event>
<event>
 7    1  0.3129575E-011  0.5052885E+02  0.7816164E-02  0.1300439E+00
        -11   -1    0    0    0    0  0.00000000000E+00  0.00000000000E+00  0.45593999997E+02  0.45594000000E+02  0.51100000000E-03 0.  1.
         11   -1    0    0    0    0 -0.00000000000E+00 -0.00000000000E+00 -0.45593999997E+02  0.45594000000E+02  0.51100000000E-03 0. -1.
    9900012    2    1    2    0    0 -0.56610525744E+01 -0.24767877150E+02 -0.31743834572E+02  0.50528852344E+02  0.29999977186E+02 0.  0.
        -12    1    1    2    0    0  0.56610525744E+01  0.24767877150E+02  0.31743834572E+02  0.40659147656E+02  0.00000000000E+00 0.  1.
         11    1    3    3    0    0 -0.46860481379E+00 -0.35621106123E+00 -0.11900047535E+02  0.11914596443E+02  0.51100000000E-03 0. -1.
        -11    1    3    3    0    0 -0.10217054300E+02 -0.26778353163E+01 -0.41908719433E+01  0.11363204145E+02  0.51100000000E-03 0.  1.
         12    1    3    3    0    0  0.50246065389E+01 -0.21733830772E+02 -0.15652915094E+02  0.27251051757E+02  0.00000000000E+00 0. -1.
</event>
<event>
 7    1  0.3129575E-011  0.5052886E+02  0.7816164E-02  0.1300439E+00
        -11   -1    0    0    0    0  0.00000000000E+00  0.00000000000E+00  0.45593999997E+02  0.45594000000E+02  0.51100000000E-03 0. -1.
         11   -1    0    0    0    0 -0.00000000000E+00 -0.00000000000E+00 -0.45593999997E+02  0.45594000000E+02  0.51100000000E-03 0.  1.
    9900012    2    1    2    0    0  0.23596733455E+02 -0.32273382595E+02 -0.74019253162E+01  0.50528861394E+02  0.30000004692E+02 0.  0.
        -12    1    1    2    0    0 -0.23596733455E+02  0.32273382595E+02  0.74019253162E+01  0.40659138606E+02  0.00000000000E+00 0.  1.
         11    1    3    3    0    0  0.25563786524E+02 -0.23561009082E+02 -0.29021343831E+01  0.34886253950E+02  0.51100000000E-03 0. -1.
        -11    1    3    3    0    0  0.32658244615E+01 -0.13167660991E+00 -0.45374647256E+01  0.55920957199E+01  0.51100000000E-03 0.  1.
        -12    1    3    3    0    0 -0.52328775313E+01 -0.85806969027E+01  0.37673792475E-01  0.10050511724E+02  0.00000000000E+00 0.  1.
</event>
<event>
 7    1  0.3129575E-011  0.5052888E+02  0.7816164E-02  0.1300439E+00
        -11   -1    0    0    0    0  0.00000000000E+00  0.00000000000E+00  0.45593999997E+02  0.45594000000E+02  0.51100000000E-03 0.  1.
         11   -1    0    0    0    0 -0.00000000000E+00 -0.00000000000E+00 -0.45593999997E+02  0.45594000000E+02  0.51100000000E-03 0. -1.
    9900012    2    1    2    0    0 -0.30841196047E+02  0.16444063481E+02 -0.20774450613E+02  0.50528875617E+02  0.30000047924E+02 0.  0.
        -12    1    1    2    0    0  0.30841196047E+02 -0.16444063481E+02  0.20774450613E+02  0.40659124383E+02  0.00000000000E+00 0.  1.
         11    1    3    3    0    0 -0.11889563791E+02  0.10642951275E+02 -0.16376412157E+02  0.22865279670E+02  0.51100000000E-03 0. -1.
        -11    1    3    3    0    0 -0.41731324213E+01 -0.32460971634E+01 -0.83572126274E+01  0.98891447639E+01  0.51100000000E-03 0.  1.
        -12    1    3    3    0    0 -0.14778499835E+02  0.90472093695E+01  0.39591741717E+01  0.17774451183E+02  0.00000000000E+00 0.  1.
</event>
<event>
 7    1  0.3129575E-011  0.5052886E+02  0.7816164E-02  0.1300439E+00
        -11   -1    0    0    0    0  0.00000000000E+00  0.00000000000E+00  0.45593999997E+02  0.45594000000E+02  0.51100000000E-03 0.  1.
         11   -1    0    0    0    0 -0.00000000000E+00 -0.00000000000E+00 -0.45593999997E+02  0.45594000000E+02  0.51100000000E-03 0. -1.
    9900012    2    1    2    0    0 -0.29447769490E+02 -0.49688870718E+01 -0.27591750510E+02  0.50528860033E+02  0.30000000556E+02 0.  0.
        -12    1    1    2    0    0  0.29447769490E+02  0.49688870718E+01  0.27591750510E+02  0.40659139967E+02  0.00000000000E+00 0.  1.
         11    1    3    3    0    0 -0.48614989858E+01  0.56703647011E+01 -0.42137854306E+01  0.85757329803E+01  0.51100000000E-03 0. -1.
        -11    1    3    3    0    0  0.29990616495E+01 -0.37943284675E+01 -0.87263310898E+01  0.99769811991E+01  0.51100000000E-03 0.  1.
         12    1    3    3    0    0 -0.27585332154E+02 -0.68449233053E+01 -0.14651633990E+02  0.31976145853E+02  0.00000000000E+00 0. -1.
</event>
<event>
 7    1  0.3129575E-011  0.5052887E+02  0.7816164E-02  0.1300439E+00
        -11   -1    0    0    0    0  0.00000000000E+00  0.00000000000E+00  0.45593999997E+02  0.45594000000E+02  0.51100000000E-03 0.  1.
         11   -1    0    0    0    0 -0.00000000000E+00 -0.00000000000E+00 -0.45593999997E+02  0.45594000000E+02  0.51100000000E-03 0. -1.
    9900012    2    1    2    0    0  0.17268437779E+02  0.89584944718E+01 -0.35703099236E+02  0.50528869887E+02  0.30000030507E+02 0.  0.
        -12    1    1    2    0    0 -0.17268437779E+02 -0.89584944718E+01  0.35703099236E+02  0.40659130113E+02  0.00000000000E+00 0.  1.
         11    1    3    3    0    0  0.15389378395E+02  0.85735737519E-01 -0.14209389407E+02  0.20946290019E+02  0.51100000000E-03 0. -1.
        -11    1    3    3    0    0  0.84285927182E+01  0.10382427945E+02 -0.12118600865E+02  0.18047062709E+02  0.51100000000E-03 0.  1.
        -12    1    3    3    0    0 -0.65495333337E+01 -0.15096692108E+01 -0.93751089643E+01  0.11535517158E+02  0.00000000000E+00 0.  1.
</event>
<event>
 7    1  0.3129575E-011  0.5052885E+02  0.7816164E-02  0.1300439E+00
        -11   -1    0    0    0    0  0.00000000000E+00  0.00000000000E+00  0.45593999997E+02  0.45594000000E+02  0.51100000000E-03 0. -1.
         11   -1    0    0    0    0 -0.00000000000E+00 -0.00000000000E+00 -0.45593999997E+02  0.45594000000E+02  0.51100000000E-03 0.  1.
    9900012    2    1    2    0    0  0.24830960120E+02 -0.72532106885E+01  0.31368472421E+02  0.50528847183E+02  0.29999961498E+02 0.  0.
        -12    1    1    2    0    0 -0.24830960120E+02  0.72532106885E+01 -0.31368472421E+02  0.40659152817E+02  0.00000000000E+00 0.  1.
         11    1    3    3    0    0  0.69603549005E+01  0.11051978333E+01  0.18534591823E+01  0.72872020552E+01  0.51100000000E-03 0.  1.
        -11    1    3    3    0    0  0.11198207798E+01  0.63514615792E+01  0.25177607473E+00  0.64543360793E+01  0.51100000000E-03 0. -1.
         12    1    3    3    0    0  0.16750784440E+02 -0.14709870101E+02  0.29263237164E+02  0.36787309049E+02  0.00000000000E+00 0. -1.
</event>
<event>
 7    1  0.3129575E-011  0.5052885E+02  0.7816164E-02  0.1300439E+00
        -11   -1    0    0    0    0  0.00000000000E+00  0.00000000000E+00  0.45593999997E+02  0.45594000000E+02  0.51100000000E-03 0.  1.
         11   -1    0    0    0    0 -0.00000000000E+00 -0.00000000000E+00 -0.45593999997E+02  0.45594000000E+02  0.51100000000E-03 0. -1.
    9900012    2    1    2    0    0 -0.38351686532E+02 -0.13054488766E+02 -0.34488909559E+01  0.50528851145E+02  0.29999973540E+02 0.  0.
        -12    1    1    2    0    0  0.38351686532E+02  0.13054488766E+02  0.34488909559E+01  0.40659148855E+02  0.00000000000E+00 0.  1.
         11    1    3    3    0    0  0.70096066823E-01  0.12932473883E+01  0.12599681752E+01  0.18069096075E+01  0.51100000000E-03 0. -1.
        -11    1    3    3    0    0 -0.14568401464E+02 -0.14400187565E+01  0.10133505245E+02  0.17804491120E+02  0.51100000000E-03 0.  1.
         12    1    3    3    0    0 -0.23853381136E+02 -0.12907717397E+02 -0.14842364377E+02  0.30917450417E+02  0.00000000000E+00 0. -1.
</event>
<event>
 7    1  0.3129575E-011  0.5052886E+02  0.7816164E-02  0.1300439E+00
        -11   -1    0    0    0    0  0.00000000000E+00  0.00000000000E+00  0.45593999997E+02  0.45594000000E+02  0.51100000000E-03 0.  1.
         11   -1    0    0    0    0 -0.00000000000E+00 -0.00000000000E+00 -0.45593999997E+02  0.45594000000E+02  0.51100000000E-03 0. -1.
    9900012    2    1    2    0    0  0.11403359543E+02 -0.29744689468E+02 -0.25266232509E+02  0.50528859999E+02  0.30000000452E+02 0.  0.
        -12    1    1    2    0    0 -0.11403359543E+02  0.29744689468E+02  0.25266232509E+02  0.40659140001E+02  0.00000000000E+00 0.  1.
         11    1    3    3    0    0 -0.44385529427E+01 -0.23044523082E+00 -0.80534630167E+00  0.45169060380E+01  0.51100000000E-03 0. -1.
        -11    1    3    3    0    0  0.91429145237E+01 -0.47658137501E+00 -0.63065714534E+01  0.11117232549E+02  0.51100000000E-03 0.  1.
         12    1    3    3    0    0  0.66989979624E+01 -0.29037662863E+02 -0.18154314754E+02  0.34894721412E+02  0.00000000000E+00 0. -1.
</event>
<event>
 7    1  0.3129575E-011  0.5052886E+02  0.7816164E-02  0.1300439E+00
        -11   -1    0    0    0    0  0.00000000000E+00  0.00000000000E+00  0.45593999997E+02  0.45594000000E+02  0.51100000000E-03 0.  1.
         11   -1    0    0    0    0 -0.00000000000E+00 -0.00000000000E+00 -0.45593999997E+02  0.45594000000E+02  0.51100000000E-03 0. -1.
    9900012    2    1    2    0    0 -0.21907641760E+02  0.18890016765E+02 -0.28572504808E+02  0.50528861644E+02  0.30000005452E+02 0.  0.
        -12    1    1    2    0    0  0.21907641760E+02 -0.18890016765E+02  0.28572504808E+02  0.40659138356E+02  0.00000000000E+00 0.  1.
         11    1    3    3    0    0 -0.45806796642E+00  0.25612921372E+01 -0.61523169095E-01  0.26026580711E+01  0.51100000000E-03 0. -1.
        -11    1    3    3    0    0  0.17090353910E+01 -0.32168348346E+01  0.26153588025E+01  0.44842981890E+01  0.51100000000E-03 0.  1.
         12    1    3    3    0    0 -0.23158609185E+02  0.19545559463E+02 -0.31126340441E+02  0.43441905384E+02  0.00000000000E+00 0. -1.
</event>
<event>
 7    1  0.3129575E-011  0.5052887E+02  0.7816164E-02  0.1300439E+00
        -11   -1    0    0    0    0  0.00000000000E+00  0.00000000000E+00  0.45593999997E+02  0.45594000000E+02  0.51100000000E-03 0.  1.
         11   -1    0    0    0    0 -0.00000000000E+00 -0.00000000000E+00 -0.45593999997E+02  0.45594000000E+02  0.51100000000E-03 0. -1.
    9900012    2    1    2    0    0 -0.39540901084E+02 -0.16434489392E+01 -0.93263680091E+01  0.50528869129E+02  0.30000028204E+02 0.  0.
        -12    1    1    2    0    0  0.39540901084E+02  0.16434489392E+01  0.93263680091E+01  0.40659130871E+02  0.00000000000E+00 0.  1.
         11    1    3    3    0    0 -0.26388053110E+02 -0.94682232274E+01 -0.14064359094E+02  0.31365311971E+02  0.51100000000E-03 0. -1.
        -11    1    3    3    0    0 -0.11714349352E+02  0.50035081072E+01 -0.82228932226E+00  0.12764686996E+02  0.51100000000E-03 0.  1.
        -12    1    3    3    0    0 -0.14384986219E+01  0.28212661811E+01  0.55602804068E+01  0.63988701621E+01  0.00000000000E+00 0.  1.
</event>
<event>
 7    1  0.3129575E-011  0.5052886E+02  0.7816164E-02  0.1300439E+00
        -11   -1    0    0    0    0  0.00000000000E+00  0.00000000000E+00  0.45593999997E+02  0.45594000000E+02  0.51100000000E-03 0.  1.
         11   -1    0    0    0    0 -0.00000000000E+00 -0.00000000000E+00 -0.45593999997E+02  0.45594000000E+02  0.51100000000E-03 0. -1.
    9900012    2    1    2    0    0 -0.28469644715E+02 -0.27394547113E+02 -0.96012229411E+01  0.50528863712E+02  0.30000011740E+02 0.  0.
        -12    1    1    2    0    0  0.28469644715E+02  0.27394547113E+02  0.96012229411E+01  0.40659136288E+02  0.00000000000E+00 0.  1.
         11    1    3    3    0    0 -0.19053311679E+02 -0.97155290196E+01 -0.34089211308E+01  0.21657352876E+02  0.51100000000E-03 0. -1.
        -11    1    3    3    0    0 -0.75821607675E+01 -0.16220802232E+02  0.40557437597E+01  0.18358993563E+02  0.51100000000E-03 0.  1.
        -12    1    3    3    0    0 -0.18341722685E+01 -0.14582158613E+01 -0.10248045570E+02  0.10512517273E+02  0.00000000000E+00 0.  1.
</event>
<event>
 7    1  0.3129575E-011  0.5052886E+02  0.7816164E-02  0.1300439E+00
        -11   -1    0    0    0    0  0.00000000000E+00  0.00000000000E+00  0.45593999997E+02  0.45594000000E+02  0.51100000000E-03 0. -1.
         11   -1    0    0    0    0 -0.00000000000E+00 -0.00000000000E+00 -0.45593999997E+02  0.45594000000E+02  0.51100000000E-03 0.  1.
    9900012    2    1    2    0    0 -0.27735829777E+01 -0.12114129403E+02  0.38713319066E+02  0.50528856295E+02  0.29999989194E+02 0.  0.
        -12    1    1    2    0    0  0.27735829777E+01  0.12114129403E+02 -0.38713319066E+02  0.40659143705E+02  0.00000000000E+00 0.  1.
         11    1    3    3    0    0 -0.73073721990E+00 -0.53234683737E+01  0.26789216811E+02  0.27322800553E+02  0.51100000000E-03 0. -1.
        -11    1    3    3    0    0 -0.35351706768E+01  0.48234178224E+01  0.95351179200E+01  0.11255277216E+02  0.51100000000E-03 0.  1.
        -12    1    3    3    0    0  0.14923249190E+01 -0.11614078851E+02  0.23889843348E+01  0.11950778526E+02  0.00000000000E+00 0.  1.
</event>
<event>
 7    1  0.3129575E-011  0.5052885E+02  0.7816164E-02  0.1300439E+00
        -11   -1    0    0    0    0  0.00000000000E+00  0.00000000000E+00  0.45593999997E+02  0.45594000000E+02  0.51100000000E-03 0.  1.
         11   -1    0    0    0    0 -0.00000000000E+00 -0.00000000000E+00 -0.45593999997E+02  0.45594000000E+02  0.51100000000E-03 0. -1.
    9900012    2    1    2    0    0  0.99217020509E+01  0.18551759273E+02 -0.34793086956E+02  0.50528845513E+02  0.29999956421E+02 0.  0.
        -12    1    1    2    0    0 -0.99217020509E+01 -0.18551759273E+02  0.34793086956E+02  0.40659154487E+02  0.00000000000E+00 0.  1.
         11    1    3    3    0    0  0.11407552203E+01  0.13067838906E+02 -0.80089920145E+01  0.15369244922E+02  0.51100000000E-03 0. -1.
        -11    1    3    3    0    0 -0.53100595447E+01 -0.32157381330E+01 -0.68601050629E+01  0.92519590274E+01  0.51100000000E-03 0.  1.
         12    1    3    3    0    0  0.14091006375E+02  0.86996585006E+01 -0.19923989878E+02  0.25907641563E+02  0.00000000000E+00 0. -1.
</event>
<event>
 7    1  0.3129575E-011  0.5052886E+02  0.7816164E-02  0.1300439E+00
        -11   -1    0    0    0    0  0.00000000000E+00  0.00000000000E+00  0.45593999997E+02  0.45594000000E+02  0.51100000000E-03 0.  1.
         11   -1    0    0    0    0 -0.00000000000E+00 -0.00000000000E+00 -0.45593999997E+02  0.45594000000E+02  0.51100000000E-03 0. -1.
    9900012    2    1    2    0    0 -0.70986364253E+00  0.15095963952E+02 -0.37746173496E+02  0.50528860220E+02  0.30000001126E+02 0.  0.
        -12    1    1    2    0    0  0.70986364253E+00 -0.15095963952E+02  0.37746173496E+02  0.40659139780E+02  0.00000000000E+00 0.  1.
         11    1    3    3    0    0 -0.95188935380E+01  0.82891042158E+01 -0.19393789147E+02  0.23139525506E+02  0.51100000000E-03 0. -1.
        -11    1    3    3    0    0 -0.31504544639E+01  0.73236308594E+01 -0.10017644709E+02  0.12802895691E+02  0.51100000000E-03 0.  1.
         12    1    3    3    0    0  0.11959484359E+02 -0.51677112276E+00 -0.83347396401E+01  0.14586439024E+02  0.00000000000E+00 0. -1.
</event>
<event>
 7    1  0.3129575E-011  0.5052886E+02  0.7816164E-02  0.1300439E+00
        -11   -1    0    0    0    0  0.00000000000E+00  0.00000000000E+00  0.45593999997E+02  0.45594000000E+02  0.51100000000E-03 0. -1.
         11   -1    0    0    0    0 -0.00000000000E+00 -0.00000000000E+00 -0.45593999997E+02  0.45594000000E+02  0.51100000000E-03 0.  1.
    9900012    2    1    2    0    0 -0.33873601430E+02  0.89305477820E+01  0.20639527020E+02  0.50528860398E+02  0.30000001667E+02 0.  0.
        -12    1    1    2    0    0  0.33873601430E+02 -0.89305477820E+01 -0.20639527020E+02  0.40659139602E+02  0.00000000000E+00 0.  1.
         11    1    3    3    0    0 -0.11165652026E+02  0.10157478849E+01  0.85861582538E+01  0.14121814428E+02  0.51100000000E-03 0. -1.
        -11    1    3    3    0    0 -0.94529518502E+01  0.13573361753E+00 -0.71192703416E+01  0.11834725715E+02  0.51100000000E-03 0.  1.
         12    1    3    3    0    0 -0.13254997554E+02  0.77790662795E+01  0.19172639108E+02  0.24572320255E+02  0.00000000000E+00 0. -1.
</event>
<event>
 7    1  0.3129575E-011  0.5052886E+02  0.7816164E-02  0.1300439E+00
        -11   -1    0    0    0    0  0.00000000000E+00  0.00000000000E+00  0.45593999997E+02  0.45594000000E+02  0.51100000000E-03 0.  1.
         11   -1    0    0    0    0 -0.00000000000E+00 -0.00000000000E+00 -0.45593999997E+02  0.45594000000E+02  0.51100000000E-03 0. -1.
    9900012    2    1    2    0    0 -0.27837132830E+02 -0.24357584084E+02 -0.16880987720E+02  0.50528860646E+02  0.30000002420E+02 0.  0.
        -12    1    1    2    0    0  0.27837132830E+02  0.24357584084E+02  0.16880987720E+02  0.40659139354E+02  0.00000000000E+00 0.  1.
         11    1    3    3    0    0 -0.44735612606E+01 -0.35038193155E+01  0.66150200001E-01  0.56827701218E+01  0.51100000000E-03 0. -1.
        -11    1    3    3    0    0 -0.17295275303E+02 -0.18919870083E+02 -0.24159194344E+02  0.35224348161E+02  0.51100000000E-03 0.  1.
        -12    1    3    3    0    0 -0.60682962665E+01 -0.19338946856E+01  0.72120564243E+01  0.96217423630E+01  0.00000000000E+00 0.  1.
</event>
<event>
 7    1  0.3129575E-011  0.5052885E+02  0.7816164E-02  0.1300439E+00
        -11   -1    0    0    0    0  0.00000000000E+00  0.00000000000E+00  0.45593999997E+02  0.45594000000E+02  0.51100000000E-03 0.  1.
         11   -1    0    0    0    0 -0.00000000000E+00 -0.00000000000E+00 -0.45593999997E+02  0.45594000000E+02  0.51100000000E-03 0. -1.
    9900012    2    1    2    0    0 -0.21307618009E+02 -0.70214803391E+01 -0.33909453457E+02  0.50528845986E+02  0.29999957858E+02 0.  0.
        -12    1    1    2    0    0  0.21307618009E+02  0.70214803391E+01  0.33909453457E+02  0.40659154014E+02  0.00000000000E+00 0.  1.
         11    1    3    3    0    0 -0.12221001007E+02 -0.24462604680E+01 -0.15753270474E+02  0.20087373815E+02  0.51100000000E-03 0. -1.
        -11    1    3    3    0    0  0.73593475074E+00  0.18673560844E+01 -0.18578879696E+02  0.18686984501E+02  0.51100000000E-03 0.  1.
        -12    1    3    3    0    0 -0.98225517528E+01 -0.64425759555E+01  0.42269671268E+00  0.11754487670E+02  0.00000000000E+00 0.  1.
</event>
<event>
 7    1  0.3129575E-011  0.5052886E+02  0.7816164E-02  0.1300439E+00
        -11   -1    0    0    0    0  0.00000000000E+00  0.00000000000E+00  0.45593999997E+02  0.45594000000E+02  0.51100000000E-03 0. -1.
         11   -1    0    0    0    0 -0.00000000000E+00 -0.00000000000E+00 -0.45593999997E+02  0.45594000000E+02  0.51100000000E-03 0.  1.
    9900012    2    1    2    0    0  0.15286338788E+02 -0.28308877714E+02  0.24861630774E+02  0.50528863318E+02  0.30000010543E+02 0.  0.
        -12    1    1    2    0    0 -0.15286338788E+02  0.28308877714E+02 -0.24861630774E+02  0.40659136682E+02  0.00000000000E+00 0.  1.
         11    1    3    3    0    0  0.71755216066E+01 -0.16684748457E+02  0.31276142015E+01  0.18429620513E+02  0.51100000000E-03 0. -1.
        -11    1    3    3    0    0  0.10747384245E+02 -0.14917455390E+02  0.20832246141E+02  0.27785233902E+02  0.51100000000E-03 0.  1.
         12    1    3    3    0    0 -0.26365670639E+01  0.32933261338E+01  0.90177043105E+00  0.43140089031E+01  0.00000000000E+00 0. -1.
</event>
<event>
 7    1  0.3129575E-011  0.5052886E+02  0.7816164E-02  0.1300439E+00
        -11   -1    0    0    0    0  0.00000000000E+00  0.00000000000E+00  0.45593999997E+02  0.45594000000E+02  0.51100000000E-03 0.  1.
         11   -1    0    0    0    0 -0.00000000000E+00 -0.00000000000E+00 -0.45593999997E+02  0.45594000000E+02  0.51100000000E-03 0. -1.
    9900012    2    1    2    0    0 -0.16867209020E+02  0.27359924329E+02 -0.24901762431E+02  0.50528856236E+02  0.29999989016E+02 0.  0.
        -12    1    1    2    0    0  0.16867209020E+02 -0.27359924329E+02  0.24901762431E+02  0.40659143764E+02  0.00000000000E+00 0.  1.
         11    1    3    3    0    0 -0.38052468593E+01  0.28714983929E+01 -0.14796375379E+02  0.15545357227E+02  0.51100000000E-03 0. -1.
        -11    1    3    3    0    0 -0.10356901338E+02  0.17939462047E+01 -0.46062357013E+01  0.11476108047E+02  0.51100000000E-03 0.  1.
        -12    1    3    3    0    0 -0.27050608233E+01  0.22694479731E+02 -0.54991513510E+01  0.23507390963E+02  0.00000000000E+00 0.  1.
</event>
<event>
 7    1  0.3129575E-011  0.5052886E+02  0.7816164E-02  0.1300439E+00
        -11   -1    0    0    0    0  0.00000000000E+00  0.00000000000E+00  0.45593999997E+02  0.45594000000E+02  0.51100000000E-03 0.  1.
         11   -1    0    0    0    0 -0.00000000000E+00 -0.00000000000E+00 -0.45593999997E+02  0.45594000000E+02  0.51100000000E-03 0. -1.
    9900012    2    1    2    0    0  0.34728988767E+02  0.76637764214E+01 -0.19706074493E+02  0.50528862014E+02  0.30000006578E+02 0.  0.
        -12    1    1    2    0    0 -0.34728988767E+02 -0.76637764214E+01  0.19706074493E+02  0.40659137986E+02  0.00000000000E+00 0.  1.
         11    1    3    3    0    0  0.38153220673E+01 -0.39064062696E+01 -0.26905989316E+01  0.60873652176E+01  0.51100000000E-03 0. -1.
        -11    1    3    3    0    0  0.79846650929E+01  0.63594844228E+01  0.57475865965E+01  0.11714634895E+02  0.51100000000E-03 0.  1.
         12    1    3    3    0    0  0.22929001607E+02  0.52106982682E+01 -0.22763062158E+02  0.32726861902E+02  0.00000000000E+00 0. -1.
</event>
<event>
 7    1  0.3129575E-011  0.5052886E+02  0.7816164E-02  0.1300439E+00
        -11   -1    0    0    0    0  0.00000000000E+00  0.00000000000E+00  0.45593999997E+02  0.45594000000E+02  0.51100000000E-03 0. -1.
         11   -1    0    0    0    0 -0.00000000000E+00 -0.00000000000E+00 -0.45593999997E+02  0.45594000000E+02  0.51100000000E-03 0.  1.
    9900012    2    1    2    0    0 -0.20726851279E+02  0.10669275817E+02  0.33312611487E+02  0.50528857185E+02  0.29999991899E+02 0.  0.
        -12    1    1    2    0    0  0.20726851279E+02 -0.10669275817E+02 -0.33312611487E+02  0.40659142815E+02  0.00000000000E+00 0.  1.
         11    1    3    3    0    0 -0.11820612616E+02 -0.74118006888E+01  0.88252297151E+01  0.16508977917E+02  0.51100000000E-03 0. -1.
        -11    1    3    3    0    0 -0.95839888311E+01  0.11409261153E+02  0.96909298554E+01  0.17774650593E+02  0.51100000000E-03 0.  1.
        -12    1    3    3    0    0  0.67775016882E+00  0.66718153535E+01  0.14796451916E+02  0.16245228675E+02  0.00000000000E+00 0.  1.
</event>
<event>
 7    1  0.3129575E-011  0.5052885E+02  0.7816164E-02  0.1300439E+00
        -11   -1    0    0    0    0  0.00000000000E+00  0.00000000000E+00  0.45593999997E+02  0.45594000000E+02  0.51100000000E-03 0.  1.
         11   -1    0    0    0    0 -0.00000000000E+00 -0.00000000000E+00 -0.45593999997E+02  0.45594000000E+02  0.51100000000E-03 0. -1.
    9900012    2    1    2    0    0  0.25548859415E+02  0.31555989527E+02  0.21544411172E+01  0.50528852087E+02  0.29999976405E+02 0.  0.
        -12    1    1    2    0    0 -0.25548859415E+02 -0.31555989527E+02 -0.21544411172E+01  0.40659147913E+02  0.00000000000E+00 0.  1.
         11    1    3    3    0    0  0.17168948922E+02  0.13882234881E+02 -0.63629607669E+01  0.22977739714E+02  0.51100000000E-03 0. -1.
        -11    1    3    3    0    0  0.12435317268E+02  0.18201896044E+02  0.78898960263E+01  0.23413598500E+02  0.51100000000E-03 0.  1.
         12    1    3    3    0    0 -0.40554067756E+01 -0.52814139710E+00  0.62750585790E+00  0.41375138734E+01  0.00000000000E+00 0. -1.
</event>
<event>
 7    1  0.3129575E-011  0.5052886E+02  0.7816164E-02  0.1300439E+00
        -11   -1    0    0    0    0  0.00000000000E+00  0.00000000000E+00  0.45593999997E+02  0.45594000000E+02  0.51100000000E-03 0. -1.
         11   -1    0    0    0    0 -0.00000000000E+00 -0.00000000000E+00 -0.45593999997E+02  0.45594000000E+02  0.51100000000E-03 0.  1.
    9900012    2    1    2    0    0  0.36428299663E+01  0.32888120441E+02  0.23627667778E+02  0.50528863746E+02  0.30000011842E+02 0.  0.
        -12    1    1    2    0    0 -0.36428299663E+01 -0.32888120441E+02 -0.23627667778E+02  0.40659136254E+02  0.00000000000E+00 0.  1.
         11    1    3    3    0    0 -0.22690129533E+01  0.16319693646E+02  0.85519756476E+01  0.18563865659E+02  0.51100000000E-03 0. -1.
        -11    1    3    3    0    0 -0.95280774617E+00  0.81527108992E+01  0.18775821955E+02  0.20491608721E+02  0.51100000000E-03 0.  1.
        -12    1    3    3    0    0  0.68646506657E+01  0.84157158962E+01 -0.37001298254E+01  0.11473389366E+02  0.00000000000E+00 0.  1.
</event>
<event>
 7    1  0.3129575E-011  0.5052886E+02  0.7816164E-02  0.1300439E+00
        -11   -1    0    0    0    0  0.00000000000E+00  0.00000000000E+00  0.45593999997E+02  0.45594000000E+02  0.51100000000E-03 0. -1.
         11   -1    0    0    0    0 -0.00000000000E+00 -0.00000000000E+00 -0.45593999997E+02  0.45594000000E+02  0.51100000000E-03 0.  1.
    9900012    2    1    2    0    0  0.21511376144E+02 -0.77034689866E+01  0.33631572527E+02  0.50528863159E+02  0.30000010057E+02 0.  0.
        -12    1    1    2    0    0 -0.21511376144E+02  0.77034689866E+01 -0.33631572527E+02  0.40659136841E+02  0.00000000000E+00 0.  1.
         11    1    3    3    0    0  0.89389351378E+01 -0.43825912037E+01  0.45979121766E+01  0.10965968434E+02  0.51100000000E-03 0. -1.
        -11    1    3    3    0    0  0.14547665173E+02  0.62856736236E+01  0.23373009452E+02  0.28239012483E+02  0.51100000000E-03 0.  1.
         12    1    3    3    0    0 -0.19752241660E+01 -0.96065514065E+01  0.56606508982E+01  0.11323882242E+02  0.00000000000E+00 0. -1.
</event>
<event>
 7    1  0.3129575E-011  0.5052886E+02  0.7816164E-02  0.1300439E+00
        -11   -1    0    0    0    0  0.00000000000E+00  0.00000000000E+00  0.45593999997E+02  0.45594000000E+02  0.51100000000E-03 0.  1.
         11   -1    0    0    0    0 -0.00000000000E+00 -0.00000000000E+00 -0.45593999997E+02  0.45594000000E+02  0.51100000000E-03 0. -1.
    9900012    2    1    2    0    0  0.17907368090E+02 -0.18737526778E+02 -0.31327256850E+02  0.50528858797E+02  0.29999996798E+02 0.  0.
        -12    1    1    2    0    0 -0.17907368090E+02  0.18737526778E+02  0.31327256850E+02  0.40659141203E+02  0.00000000000E+00 0.  1.
         11    1    3    3    0    0 -0.40769062468E+01 -0.38109089800E+01 -0.43304796932E+01  0.70637983007E+01  0.51100000000E-03 0. -1.
        -11    1    3    3    0    0  0.83331031192E+01 -0.17783134061E+02 -0.12142077726E+02  0.23089186135E+02  0.51100000000E-03 0.  1.
        -12    1    3    3    0    0  0.13651171218E+02  0.28565162634E+01 -0.14854699431E+02  0.20375874361E+02  0.00000000000E+00 0.  1.
</event>
<event>
 7    1  0.3129575E-011  0.5052886E+02  0.7816164E-02  0.1300439E+00
        -11   -1    0    0    0    0  0.00000000000E+00  0.00000000000E+00  0.45593999997E+02  0.45594000000E+02  0.51100000000E-03 0.  1.
         11   -1    0    0    0    0 -0.00000000000E+00 -0.00000000000E+00 -0.45593999997E+02  0.45594000000E+02  0.51100000000E-03 0. -1.
    9900012    2    1    2    0    0 -0.33869836413E+02 -0.85753809067E+01  0.20795736335E+02  0.50528860486E+02  0.30000001934E+02 0.  0.
        -12    1    1    2    0    0  0.33869836413E+02  0.85753809067E+01 -0.20795736335E+02  0.40659139514E+02  0.00000000000E+00 0.  1.
         11    1    3    3    0    0 -0.21447943144E+02 -0.13257337490E+02  0.67823204175E+01  0.26110747460E+02  0.51100000000E-03 0. -1.
        -11    1    3    3    0    0 -0.64961265815E+01 -0.32451568360E+01 -0.59170190432E-03  0.72615910147E+01  0.51100000000E-03 0.  1.
        -12    1    3    3    0    0 -0.59257666875E+01  0.79271134190E+01  0.14014007619E+02  0.17156522012E+02  0.00000000000E+00 0.  1.
</event>
<event>
 7    1  0.3129575E-011  0.5052886E+02  0.7816164E-02  0.1300439E+00
        -11   -1    0    0    0    0  0.00000000000E+00  0.00000000000E+00  0.45593999997E+02  0.45594000000E+02  0.51100000000E-03 0.  1.
         11   -1    0    0    0    0 -0.00000000000E+00 -0.00000000000E+00 -0.45593999997E+02  0.45594000000E+02  0.51100000000E-03 0. -1.
    9900012    2    1    2    0    0  0.53950878251E+00  0.30418516154E+02 -0.26973849830E+02  0.50528858722E+02  0.29999996573E+02 0.  0.
        -12    1    1    2    0    0 -0.53950878251E+00 -0.30418516154E+02  0.26973849830E+02  0.40659141278E+02  0.00000000000E+00 0.  1.
         11    1    3    3    0    0 -0.25048668834E+01  0.14805789743E+02 -0.26595101726E+02  0.30541532446E+02  0.51100000000E-03 0. -1.
        -11    1    3    3    0    0  0.33748686673E+01  0.10481337273E+02 -0.58585207692E+01  0.12472787796E+02  0.51100000000E-03 0.  1.
         12    1    3    3    0    0 -0.33049300142E+00  0.51313891384E+01  0.54797726653E+01  0.75145384806E+01  0.00000000000E+00 0. -1.
</event>
<event>
 7    1  0.3129575E-011  0.5052882E+02  0.7816164E-02  0.1300439E+00
        -11   -1    0    0    0    0  0.00000000000E+00  0.00000000000E+00  0.45593999997E+02  0.45594000000E+02  0.51100000000E-03 0.  1.
         11   -1    0    0    0    0 -0.00000000000E+00 -0.00000000000E+00 -0.45593999997E+02  0.45594000000E+02  0.51100000000E-03 0. -1.
    9900012    2    1    2    0    0  0.19862445350E+02  0.34756899080E+02  0.71140894744E+01  0.50528818528E+02  0.29999874398E+02 0.  0.
        -12    1    1    2    0    0 -0.19862445350E+02 -0.34756899080E+02 -0.71140894744E+01  0.40659181472E+02  0.00000000000E+00 0.  1.
         11    1    3    3    0    0  0.48947183764E+01 -0.42615628197E+01  0.30848480760E+01  0.71857827385E+01  0.51100000000E-03 0.  1.
        -11    1    3    3    0    0  0.24139952373E+01  0.88340534285E+01  0.53853517390E+01  0.10624024030E+02  0.51100000000E-03 0. -1.
        -12    1    3    3    0    0  0.12553731736E+02  0.30184408471E+02 -0.13561103407E+01  0.32719011759E+02  0.00000000000E+00 0.  1.
</event>
<event>
 7    1  0.3129575E-011  0.5052886E+02  0.7816164E-02  0.1300439E+00
        -11   -1    0    0    0    0  0.00000000000E+00  0.00000000000E+00  0.45593999997E+02  0.45594000000E+02  0.51100000000E-03 0. -1.
         11   -1    0    0    0    0 -0.00000000000E+00 -0.00000000000E+00 -0.45593999997E+02  0.45594000000E+02  0.51100000000E-03 0.  1.
    9900012    2    1    2    0    0  0.96794761850E+01 -0.62868834573E+01  0.38986515878E+02  0.50528861013E+02  0.30000003535E+02 0.  0.
        -12    1    1    2    0    0 -0.96794761850E+01  0.62868834573E+01 -0.38986515878E+02  0.40659138987E+02  0.00000000000E+00 0.  1.
         11    1    3    3    0    0  0.74260009828E+01 -0.11520402171E+02  0.31660253086E+02  0.34499808442E+02  0.51100000000E-03 0. -1.
        -11    1    3    3    0    0  0.84502588516E+00  0.34173393342E+01  0.11081010074E+02  0.11626739070E+02  0.51100000000E-03 0.  1.
        -12    1    3    3    0    0  0.14084493170E+01  0.18161793799E+01 -0.37547472816E+01  0.44023135017E+01  0.00000000000E+00 0.  1.
</event>
<event>
 7    1  0.3129575E-011  0.5052886E+02  0.7816164E-02  0.1300439E+00
        -11   -1    0    0    0    0  0.00000000000E+00  0.00000000000E+00  0.45593999997E+02  0.45594000000E+02  0.51100000000E-03 0. -1.
         11   -1    0    0    0    0 -0.00000000000E+00 -0.00000000000E+00 -0.45593999997E+02  0.45594000000E+02  0.51100000000E-03 0.  1.
    9900012    2    1    2    0    0  0.40316790871E+02  0.22408718363E+01 -0.47644894322E+01  0.50528862131E+02  0.30000006933E+02 0.  0.
        -12    1    1    2    0    0 -0.40316790871E+02 -0.22408718363E+01  0.47644894322E+01  0.40659137869E+02  0.00000000000E+00 0.  1.
         11    1    3    3    0    0  0.26441223918E+02  0.80080981992E+01 -0.81697716682E+01  0.28809948428E+02  0.51100000000E-03 0. -1.
        -11    1    3    3    0    0  0.84979392708E+01 -0.39894176443E+01 -0.57095315707E+01  0.10987682923E+02  0.51100000000E-03 0.  1.
         12    1    3    3    0    0  0.53776276824E+01 -0.17778087186E+01  0.91148138067E+01  0.10731230780E+02  0.00000000000E+00 0. -1.
</event>
<event>
 7    1  0.3129575E-011  0.5052885E+02  0.7816164E-02  0.1300439E+00
        -11   -1    0    0    0    0  0.00000000000E+00  0.00000000000E+00  0.45593999997E+02  0.45594000000E+02  0.51100000000E-03 0.  1.
         11   -1    0    0    0    0 -0.00000000000E+00 -0.00000000000E+00 -0.45593999997E+02  0.45594000000E+02  0.51100000000E-03 0. -1.
    9900012    2    1    2    0    0  0.25798393601E+02 -0.30473980100E+02 -0.76776148710E+01  0.50528851637E+02  0.29999975035E+02 0.  0.
        -12    1    1    2    0    0 -0.25798393601E+02  0.30473980100E+02  0.76776148710E+01  0.40659148363E+02  0.00000000000E+00 0.  1.
         11    1    3    3    0    0  0.52339696918E+01  0.36073149176E+01 -0.23016568481E+01  0.67605313517E+01  0.51100000000E-03 0. -1.
        -11    1    3    3    0    0  0.71627635816E+01 -0.61560970139E+01  0.55124771835E+01  0.10935726658E+02  0.51100000000E-03 0.  1.
        -12    1    3    3    0    0  0.13401660327E+02 -0.27925198004E+02 -0.10888435206E+02  0.32832593628E+02  0.00000000000E+00 0.  1.
</event>
<event>
 7    1  0.3129575E-011  0.5052886E+02  0.7816164E-02  0.1300439E+00
        -11   -1    0    0    0    0  0.00000000000E+00  0.00000000000E+00  0.45593999997E+02  0.45594000000E+02  0.51100000000E-03 0. -1.
         11   -1    0    0    0    0 -0.00000000000E+00 -0.00000000000E+00 -0.45593999997E+02  0.45594000000E+02  0.51100000000E-03 0.  1.
    9900012    2    1    2    0    0 -0.20322326744E+02 -0.32209777274E+02 -0.14237246471E+02  0.50528857075E+02  0.29999991564E+02 0.  0.
        -12    1    1    2    0    0  0.20322326744E+02  0.32209777274E+02  0.14237246471E+02  0.40659142925E+02  0.00000000000E+00 0.  1.
         11    1    3    3    0    0 -0.46446584737E+01  0.26194483029E+01  0.10425720218E+01  0.54333524118E+01  0.51100000000E-03 0. -1.
        -11    1    3    3    0    0 -0.12013494815E+02 -0.22683042678E+02 -0.18930680920E+02  0.31893810734E+02  0.51100000000E-03 0.  1.
         12    1    3    3    0    0 -0.36641734554E+01 -0.12146182899E+02  0.36508624271E+01  0.13201693929E+02  0.00000000000E+00 0. -1.
</event>
<event>
 7    1  0.3129575E-011  0.5052888E+02  0.7816164E-02  0.1300439E+00
        -11   -1    0    0    0    0  0.00000000000E+00  0.00000000000E+00  0.45593999997E+02  0.45594000000E+02  0.51100000000E-03 0.  1.
         11   -1    0    0    0    0 -0.00000000000E+00 -0.00000000000E+00 -0.45593999997E+02  0.45594000000E+02  0.51100000000E-03 0. -1.
    9900012    2    1    2    0    0  0.77038662372E+01  0.26472186355E+02 -0.29883736003E+02  0.50528881921E+02  0.30000067089E+02 0.  0.
        -12    1    1    2    0    0 -0.77038662372E+01 -0.26472186355E+02  0.29883736003E+02  0.40659118079E+02  0.00000000000E+00 0.  1.
         11    1    3    3    0    0  0.95470060944E+01  0.14629196960E+02 -0.42596900414E+01  0.17980647612E+02  0.51100000000E-03 0. -1.
        -11    1    3    3    0    0  0.60143682020E+01  0.21490791717E+00 -0.70750471621E+01  0.92884392063E+01  0.51100000000E-03 0.  1.
        -12    1    3    3    0    0 -0.78575080591E+01  0.11628081479E+02 -0.18548998799E+02  0.23259795103E+02  0.00000000000E+00 0.  1.
</event>
<event>
 7    1  0.3129575E-011  0.5052886E+02  0.7816164E-02  0.1300439E+00
        -11   -1    0    0    0    0  0.00000000000E+00  0.00000000000E+00  0.45593999997E+02  0.45594000000E+02  0.51100000000E-03 0. -1.
         11   -1    0    0    0    0 -0.00000000000E+00 -0.00000000000E+00 -0.45593999997E+02  0.45594000000E+02  0.51100000000E-03 0.  1.
    9900012    2    1    2    0    0  0.45620958893E+01 -0.59579540627E+01  0.39960672935E+02  0.50528864287E+02  0.30000013486E+02 0.  0.
        -12    1    1    2    0    0 -0.45620958893E+01  0.59579540627E+01 -0.39960672935E+02  0.40659135713E+02  0.00000000000E+00 0.  1.
         11    1    3    3    0    0  0.42643446373E+01  0.12814439787E+01  0.24370665096E+02  0.24774100414E+02  0.51100000000E-03 0. -1.
        -11    1    3    3    0    0  0.73608331577E+01 -0.87212780495E+01  0.14505668859E+02  0.18456895322E+02  0.51100000000E-03 0.  1.
        -12    1    3    3    0    0 -0.70630819058E+01  0.14818800081E+01  0.10843389799E+01  0.72978685511E+01  0.00000000000E+00 0.  1.
</event>
<event>
 7    1  0.7134141E-011  0.5052886E+02  0.7816164E-02  0.1300439E+00
        -11   -1    0    0    0    0  0.00000000000E+00  0.00000000000E+00  0.45593999997E+02  0.45594000000E+02  0.51100000000E-03 0. -1.
         11   -1    0    0    0    0 -0.00000000000E+00 -0.00000000000E+00 -0.45593999997E+02  0.45594000000E+02  0.51100000000E-03 0.  1.
    9900012    2    1    2    0    0  0.22552313618E+02 -0.28206356640E+02  0.18680478472E+02  0.50528859818E+02  0.29999999903E+02 0.  0.
        -12    1    1    2    0    0 -0.22552313618E+02  0.28206356640E+02 -0.18680478472E+02  0.40659140182E+02  0.00000000000E+00 0.  1.
         11    1    3    3    0    0  0.10897067185E+02 -0.60777524036E+01  0.80633114629E+00  0.12503412242E+02  0.51100000000E-03 0. -1.
        -11    1    3    3    0    0  0.30055320563E+01  0.44602654295E+01  0.13424278170E+01  0.55434017848E+01  0.51100000000E-03 0.  1.
         12    1    3    3    0    0  0.86497143768E+01 -0.26588869665E+02  0.16531719509E+02  0.32482045791E+02  0.00000000000E+00 0. -1.
</event>
<event>
 7    1  0.3129575E-011  0.5052886E+02  0.7816164E-02  0.1300439E+00
        -11   -1    0    0    0    0  0.00000000000E+00  0.00000000000E+00  0.45593999997E+02  0.45594000000E+02  0.51100000000E-03 0. -1.
         11   -1    0    0    0    0 -0.00000000000E+00 -0.00000000000E+00 -0.45593999997E+02  0.45594000000E+02  0.51100000000E-03 0.  1.
    9900012    2    1    2    0    0  0.21464328534E+02 -0.34165669738E+02  0.50154926014E+01  0.50528861370E+02  0.30000004621E+02 0.  0.
        -12    1    1    2    0    0 -0.21464328534E+02  0.34165669738E+02 -0.50154926014E+01  0.40659138630E+02  0.00000000000E+00 0.  1.
         11    1    3    3    0    0  0.23022626805E+01 -0.13511761346E+02  0.89678863091E+01  0.16379593806E+02  0.51100000000E-03 0. -1.
        -11    1    3    3    0    0  0.18062839643E+02 -0.15051904402E+02  0.45103931292E+01  0.23940961730E+02  0.51100000000E-03 0.  1.
        -12    1    3    3    0    0  0.10992262099E+01 -0.56020039907E+01 -0.84627868369E+01  0.10208305835E+02  0.00000000000E+00 0.  1.
</event>
<event>
 7    1  0.3129575E-011  0.5052886E+02  0.7816164E-02  0.1300439E+00
        -11   -1    0    0    0    0  0.00000000000E+00  0.00000000000E+00  0.45593999997E+02  0.45594000000E+02  0.51100000000E-03 0.  1.
         11   -1    0    0    0    0 -0.00000000000E+00 -0.00000000000E+00 -0.45593999997E+02  0.45594000000E+02  0.51100000000E-03 0. -1.
    9900012    2    1    2    0    0  0.46079343068E+01  0.24438882404E+02 -0.32166347087E+02  0.50528856911E+02  0.29999991068E+02 0.  0.
        -12    1    1    2    0    0 -0.46079343068E+01 -0.24438882404E+02  0.32166347087E+02  0.40659143089E+02  0.00000000000E+00 0.  1.
         11    1    3    3    0    0  0.56975044826E+01  0.45877443055E-01 -0.16298401965E+01  0.59262164487E+01  0.51100000000E-03 0. -1.
        -11    1    3    3    0    0 -0.56208985825E+01  0.37258763270E+01  0.80120208800E+00  0.67910662142E+01  0.51100000000E-03 0.  1.
         12    1    3    3    0    0  0.45313284066E+01  0.20667128634E+02 -0.31337708979E+02  0.37811574249E+02  0.00000000000E+00 0. -1.
</event>
<event>
 7    1  0.3129575E-011  0.5052886E+02  0.7816164E-02  0.1300439E+00
        -11   -1    0    0    0    0  0.00000000000E+00  0.00000000000E+00  0.45593999997E+02  0.45594000000E+02  0.51100000000E-03 0. -1.
         11   -1    0    0    0    0 -0.00000000000E+00 -0.00000000000E+00 -0.45593999997E+02  0.45594000000E+02  0.51100000000E-03 0.  1.
    9900012    2    1    2    0    0  0.32578658420E+02  0.54213275453E+00  0.24320831089E+02  0.50528859365E+02  0.29999998525E+02 0.  0.
        -12    1    1    2    0    0 -0.32578658420E+02 -0.54213275453E+00 -0.24320831089E+02  0.40659140635E+02  0.00000000000E+00 0.  1.
         11    1    3    3    0    0  0.24255602436E+02  0.49101288333E+01  0.22113002122E+02  0.33187776030E+02  0.51100000000E-03 0. -1.
        -11    1    3    3    0    0 -0.42529049041E+00  0.25272275569E+01  0.52086159737E+01  0.58049489014E+01  0.51100000000E-03 0.  1.
        -12    1    3    3    0    0  0.87483464738E+01 -0.68952236357E+01 -0.30007870068E+01  0.11536134434E+02  0.00000000000E+00 0.  1.
</event>
<event>
 7    1  0.3129575E-011  0.5052886E+02  0.7816164E-02  0.1300439E+00
        -11   -1    0    0    0    0  0.00000000000E+00  0.00000000000E+00  0.45593999997E+02  0.45594000000E+02  0.51100000000E-03 0.  1.
         11   -1    0    0    0    0 -0.00000000000E+00 -0.00000000000E+00 -0.45593999997E+02  0.45594000000E+02  0.51100000000E-03 0. -1.
    9900012    2    1    2    0    0  0.23153502339E+02  0.25965095072E+02  0.21045075617E+02  0.50528855391E+02  0.29999986445E+02 0.  0.
        -12    1    1    2    0    0 -0.23153502339E+02 -0.25965095072E+02 -0.21045075617E+02  0.40659144609E+02  0.00000000000E+00 0.  1.
         11    1    3    3    0    0 -0.22912007431E+01 -0.30445897351E+01  0.20117929204E+01  0.43088790324E+01  0.51100000000E-03 0. -1.
        -11    1    3    3    0    0  0.11763449200E+02  0.86805847791E+01 -0.87833395403E+00  0.14645912740E+02  0.51100000000E-03 0.  1.
        -12    1    3    3    0    0  0.13681253882E+02  0.20329100028E+02  0.19911616651E+02  0.31574063618E+02  0.00000000000E+00 0.  1.
</event>
<event>
 7    1  0.3129575E-011  0.5052885E+02  0.7816164E-02  0.1300439E+00
        -11   -1    0    0    0    0  0.00000000000E+00  0.00000000000E+00  0.45593999997E+02  0.45594000000E+02  0.51100000000E-03 0.  1.
         11   -1    0    0    0    0 -0.00000000000E+00 -0.00000000000E+00 -0.45593999997E+02  0.45594000000E+02  0.51100000000E-03 0. -1.
    9900012    2    1    2    0    0 -0.14331825199E+02 -0.24893706471E+02 -0.28776180683E+02  0.50528850844E+02  0.29999972626E+02 0.  0.
        -12    1    1    2    0    0  0.14331825199E+02  0.24893706471E+02  0.28776180683E+02  0.40659149156E+02  0.00000000000E+00 0.  1.
         11    1    3    3    0    0 -0.10585109965E+02 -0.12724082568E+02 -0.78834874389E+01  0.18332926788E+02  0.51100000000E-03 0. -1.
        -11    1    3    3    0    0  0.79125074683E+01 -0.46195918236E+01 -0.32064954674E+01  0.97072146621E+01  0.51100000000E-03 0.  1.
         12    1    3    3    0    0 -0.11659222702E+02 -0.75500320792E+01 -0.17686197776E+02  0.22488709394E+02  0.00000000000E+00 0. -1.
</event>
<event>
 7    1  0.3178019E-011  0.5052881E+02  0.7816164E-02  0.1300439E+00
        -11   -1    0    0    0    0  0.00000000000E+00  0.00000000000E+00  0.45593999997E+02  0.45594000000E+02  0.51100000000E-03 0.  1.
         11   -1    0    0    0    0 -0.00000000000E+00 -0.00000000000E+00 -0.45593999997E+02  0.45594000000E+02  0.51100000000E-03 0. -1.
    9900012    2    1    2    0    0  0.26300625613E+02  0.20283068297E+02 -0.23453008555E+02  0.50528814353E+02  0.29999861709E+02 0.  0.
        -12    1    1    2    0    0 -0.26300625613E+02 -0.20283068297E+02  0.23453008555E+02  0.40659185647E+02  0.00000000000E+00 0.  1.
         11    1    3    3    0    0  0.79539332759E+01  0.89895589528E+01 -0.17283882044E+02  0.21043046440E+02  0.51100000000E-03 0. -1.
        -11    1    3    3    0    0  0.10467956606E+02 -0.25926928739E+01 -0.79829569222E+01  0.13417442876E+02  0.51100000000E-03 0.  1.
        -12    1    3    3    0    0  0.78787357306E+01  0.13886202218E+02  0.18138304107E+01  0.16068325037E+02  0.00000000000E+00 0.  1.
</event>
<event>
 7    1  0.3129575E-011  0.5052886E+02  0.7816164E-02  0.1300439E+00
        -11   -1    0    0    0    0  0.00000000000E+00  0.00000000000E+00  0.45593999997E+02  0.45594000000E+02  0.51100000000E-03 0.  1.
         11   -1    0    0    0    0 -0.00000000000E+00 -0.00000000000E+00 -0.45593999997E+02  0.45594000000E+02  0.51100000000E-03 0. -1.
    9900012    2    1    2    0    0  0.32722296980E+02 -0.10705978296E+02 -0.21628654533E+02  0.50528863415E+02  0.30000010835E+02 0.  0.
        -12    1    1    2    0    0 -0.32722296980E+02  0.10705978296E+02  0.21628654533E+02  0.40659136585E+02  0.00000000000E+00 0.  1.
         11    1    3    3    0    0  0.94461311986E+01 -0.19587417617E+01 -0.11758150595E+02  0.15209213313E+02  0.51100000000E-03 0.  1.
        -11    1    3    3    0    0 -0.99871614281E+00 -0.68241694328E+01 -0.84778943402E+01  0.10928925614E+02  0.51100000000E-03 0. -1.
         12    1    3    3    0    0  0.24274881925E+02 -0.19230671016E+01 -0.13926095978E+01  0.24390724488E+02  0.00000000000E+00 0. -1.
</event>
<event>
 7    1  0.3129575E-011  0.5052886E+02  0.7816164E-02  0.1300439E+00
        -11   -1    0    0    0    0  0.00000000000E+00  0.00000000000E+00  0.45593999997E+02  0.45594000000E+02  0.51100000000E-03 0.  1.
         11   -1    0    0    0    0 -0.00000000000E+00 -0.00000000000E+00 -0.45593999997E+02  0.45594000000E+02  0.51100000000E-03 0. -1.
    9900012    2    1    2    0    0 -0.16191311323E+02 -0.83872431510E+01 -0.36340905102E+02  0.50528858424E+02  0.29999995666E+02 0.  0.
        -12    1    1    2    0    0  0.16191311323E+02  0.83872431510E+01  0.36340905102E+02  0.40659141576E+02  0.00000000000E+00 0.  1.
         11    1    3    3    0    0 -0.11771894175E+02 -0.37345344125E+01 -0.19711094825E+02  0.23260513735E+02  0.51100000000E-03 0. -1.
        -11    1    3    3    0    0 -0.77749620990E+01  0.63256123096E+01 -0.91132402664E+01  0.13546754414E+02  0.51100000000E-03 0.  1.
         12    1    3    3    0    0  0.33555449516E+01 -0.10978321048E+02 -0.75165700114E+01  0.13721590276E+02  0.00000000000E+00 0. -1.
</event>
<event>
 7    1  0.3129575E-011  0.5052886E+02  0.7816164E-02  0.1300439E+00
        -11   -1    0    0    0    0  0.00000000000E+00  0.00000000000E+00  0.45593999997E+02  0.45594000000E+02  0.51100000000E-03 0.  1.
         11   -1    0    0    0    0 -0.00000000000E+00 -0.00000000000E+00 -0.45593999997E+02  0.45594000000E+02  0.51100000000E-03 0. -1.
    9900012    2    1    2    0    0  0.35757401119E+02 -0.14288420298E+02 -0.13054304831E+02  0.50528861249E+02  0.30000004253E+02 0.  0.
        -12    1    1    2    0    0 -0.35757401119E+02  0.14288420298E+02  0.13054304831E+02  0.40659138751E+02  0.00000000000E+00 0.  1.
         11    1    3    3    0    0  0.57680845855E+01  0.45333832615E+01 -0.91820685860E+01  0.11752988869E+02  0.51100000000E-03 0. -1.
        -11    1    3    3    0    0  0.34472722298E+01 -0.46694822708E+01  0.47335921359E+01  0.74896358572E+01  0.51100000000E-03 0.  1.
         12    1    3    3    0    0  0.26542044303E+02 -0.14152321288E+02 -0.86058283806E+01  0.31286236523E+02  0.00000000000E+00 0. -1.
</event>
<event>
 7    1  0.3129575E-011  0.5052886E+02  0.7816164E-02  0.1300439E+00
        -11   -1    0    0    0    0  0.00000000000E+00  0.00000000000E+00  0.45593999997E+02  0.45594000000E+02  0.51100000000E-03 0.  1.
         11   -1    0    0    0    0 -0.00000000000E+00 -0.00000000000E+00 -0.45593999997E+02  0.45594000000E+02  0.51100000000E-03 0. -1.
    9900012    2    1    2    0    0 -0.13075463961E+02 -0.21491751472E+02 -0.31942172470E+02  0.50528861775E+02  0.30000005850E+02 0.  0.
        -12    1    1    2    0    0  0.13075463961E+02  0.21491751472E+02  0.31942172470E+02  0.40659138225E+02  0.00000000000E+00 0.  1.
         11    1    3    3    0    0 -0.30255361449E-01 -0.66809416690E+01  0.65495223173E+00  0.67130365452E+01  0.51100000000E-03 0. -1.
        -11    1    3    3    0    0  0.38622232772E+01  0.28649448122E+01 -0.57885838302E+01  0.75254488531E+01  0.51100000000E-03 0.  1.
         12    1    3    3    0    0 -0.16907431876E+02 -0.17675754616E+02 -0.26808540871E+02  0.36290376376E+02  0.00000000000E+00 0. -1.
</event>
<event>
 7    1  0.3129575E-011  0.5052886E+02  0.7816164E-02  0.1300439E+00
        -11   -1    0    0    0    0  0.00000000000E+00  0.00000000000E+00  0.45593999997E+02  0.45594000000E+02  0.51100000000E-03 0.  1.
         11   -1    0    0    0    0 -0.00000000000E+00 -0.00000000000E+00 -0.45593999997E+02  0.45594000000E+02  0.51100000000E-03 0. -1.
    9900012    2    1    2    0    0 -0.17513705873E+01 -0.13367677463E+02 -0.38358879142E+02  0.50528859469E+02  0.29999998842E+02 0.  0.
        -12    1    1    2    0    0  0.17513705873E+01  0.13367677463E+02  0.38358879142E+02  0.40659140531E+02  0.00000000000E+00 0.  1.
         11    1    3    3    0    0 -0.30852145744E+01  0.18231616013E+01 -0.54154990504E+01  0.64938507390E+01  0.51100000000E-03 0. -1.
        -11    1    3    3    0    0  0.34559273380E+01  0.61865363272E+01 -0.45145713833E+01  0.84022628220E+01  0.51100000000E-03 0.  1.
        -12    1    3    3    0    0 -0.21220833509E+01 -0.21377375391E+02 -0.28428808708E+02  0.35632745908E+02  0.00000000000E+00 0.  1.
</event>
<event>
 7    1  0.3129575E-011  0.5052885E+02  0.7816164E-02  0.1300439E+00
        -11   -1    0    0    0    0  0.00000000000E+00  0.00000000000E+00  0.45593999997E+02  0.45594000000E+02  0.51100000000E-03 0.  1.
         11   -1    0    0    0    0 -0.00000000000E+00 -0.00000000000E+00 -0.45593999997E+02  0.45594000000E+02  0.51100000000E-03 0. -1.
    9900012    2    1    2    0    0 -0.62861970684E+01  0.29075885079E+02 -0.27717191961E+02  0.50528854695E+02  0.29999984332E+02 0.  0.
        -12    1    1    2    0    0  0.62861970684E+01 -0.29075885079E+02  0.27717191961E+02  0.40659145305E+02  0.00000000000E+00 0.  1.
         11    1    3    3    0    0 -0.11139004383E+02  0.67054882520E+01 -0.13887333421E+02  0.19023643740E+02  0.51100000000E-03 0. -1.
        -11    1    3    3    0    0 -0.42187133185E+01  0.10701119300E+01  0.33323761408E+00  0.43650577516E+01  0.51100000000E-03 0.  1.
        -12    1    3    3    0    0  0.90715206327E+01  0.21300284897E+02 -0.14163096154E+02  0.27140153204E+02  0.00000000000E+00 0.  1.
</event>
<event>
 7    1  0.3129575E-011  0.5052891E+02  0.7816164E-02  0.1300439E+00
        -11   -1    0    0    0    0  0.00000000000E+00  0.00000000000E+00  0.45593999997E+02  0.45594000000E+02  0.51100000000E-03 0. -1.
         11   -1    0    0    0    0 -0.00000000000E+00 -0.00000000000E+00 -0.45593999997E+02  0.45594000000E+02  0.51100000000E-03 0.  1.
    9900012    2    1    2    0    0 -0.33869521437E+02  0.11221332094E+02 -0.19496117526E+02  0.50528912763E+02  0.30000160833E+02 0.  0.
        -12    1    1    2    0    0  0.33869521437E+02 -0.11221332094E+02  0.19496117526E+02  0.40659087237E+02  0.00000000000E+00 0.  1.
         11    1    3    3    0    0 -0.66129189600E+01  0.32313336209E+01  0.20152605148E+01  0.76310870356E+01  0.51100000000E-03 0. -1.
        -11    1    3    3    0    0  0.40982405721E+01  0.19541307083E+01 -0.27180651764E+00  0.45484152906E+01  0.51100000000E-03 0.  1.
         12    1    3    3    0    0 -0.31354843049E+02  0.60358677653E+01 -0.21239571523E+02  0.38349410437E+02  0.00000000000E+00 0. -1.
</event>
<event>
 7    1  0.3129575E-011  0.5052886E+02  0.7816164E-02  0.1300439E+00
        -11   -1    0    0    0    0  0.00000000000E+00  0.00000000000E+00  0.45593999997E+02  0.45594000000E+02  0.51100000000E-03 0.  1.
         11   -1    0    0    0    0 -0.00000000000E+00 -0.00000000000E+00 -0.45593999997E+02  0.45594000000E+02  0.51100000000E-03 0. -1.
    9900012    2    1    2    0    0 -0.37719802944E+02  0.14153104931E+02 -0.54837378872E+01  0.50528864563E+02  0.30000014324E+02 0.  0.
        -12    1    1    2    0    0  0.37719802944E+02 -0.14153104931E+02  0.54837378872E+01  0.40659135437E+02  0.00000000000E+00 0.  1.
         11    1    3    3    0    0 -0.18014959297E+02  0.13783693796E+02  0.58665443046E+01  0.23429582059E+02  0.51100000000E-03 0. -1.
        -11    1    3    3    0    0 -0.53282485694E+01 -0.45764907740E+01  0.15120538248E+01  0.71847621848E+01  0.51100000000E-03 0.  1.
         12    1    3    3    0    0 -0.14376595077E+02  0.49459019091E+01 -0.12862336017E+02  0.19914520318E+02  0.00000000000E+00 0. -1.
</event>
<event>
 7    1  0.3129575E-011  0.5052886E+02  0.7816164E-02  0.1300439E+00
        -11   -1    0    0    0    0  0.00000000000E+00  0.00000000000E+00  0.45593999997E+02  0.45594000000E+02  0.51100000000E-03 0.  1.
         11   -1    0    0    0    0 -0.00000000000E+00 -0.00000000000E+00 -0.45593999997E+02  0.45594000000E+02  0.51100000000E-03 0. -1.
    9900012    2    1    2    0    0 -0.13057254987E+02 -0.11428692749E+02 -0.36770351081E+02  0.50528860261E+02  0.30000001248E+02 0.  0.
        -12    1    1    2    0    0  0.13057254987E+02  0.11428692749E+02  0.36770351081E+02  0.40659139739E+02  0.00000000000E+00 0.  1.
         11    1    3    3    0    0 -0.85379416943E+01 -0.77982736200E+00 -0.29974059653E+02  0.31176093909E+02  0.51100000000E-03 0. -1.
        -11    1    3    3    0    0  0.30134984081E+01 -0.44721470264E+00 -0.58995743868E+01  0.66397403453E+01  0.51100000000E-03 0.  1.
         12    1    3    3    0    0 -0.75328117003E+01 -0.10201650684E+02 -0.89671704160E+00  0.12713026007E+02  0.00000000000E+00 0. -1.
</event>
<event>
 7    1  0.3129575E-011  0.5052885E+02  0.7816164E-02  0.1300439E+00
        -11   -1    0    0    0    0  0.00000000000E+00  0.00000000000E+00  0.45593999997E+02  0.45594000000E+02  0.51100000000E-03 0. -1.
         11   -1    0    0    0    0 -0.00000000000E+00 -0.00000000000E+00 -0.45593999997E+02  0.45594000000E+02  0.51100000000E-03 0.  1.
    9900012    2    1    2    0    0  0.39227829558E+01 -0.22444004898E+02  0.33675580436E+02  0.50528852202E+02  0.29999976754E+02 0.  0.
        -12    1    1    2    0    0 -0.39227829558E+01  0.22444004898E+02 -0.33675580436E+02  0.40659147798E+02  0.00000000000E+00 0.  1.
         11    1    3    3    0    0  0.11878399501E+02 -0.75511949186E+01  0.62569525454E+01  0.15403453341E+02  0.51100000000E-03 0. -1.
        -11    1    3    3    0    0 -0.43770809656E+01  0.56289507457E+00  0.13609150749E+01  0.46182008128E+01  0.51100000000E-03 0.  1.
         12    1    3    3    0    0 -0.35785355795E+01 -0.15455705054E+02  0.26057712816E+02  0.30507198049E+02  0.00000000000E+00 0. -1.
</event>
<event>
 7    1  0.3129575E-011  0.5052886E+02  0.7816164E-02  0.1300439E+00
        -11   -1    0    0    0    0  0.00000000000E+00  0.00000000000E+00  0.45593999997E+02  0.45594000000E+02  0.51100000000E-03 0. -1.
         11   -1    0    0    0    0 -0.00000000000E+00 -0.00000000000E+00 -0.45593999997E+02  0.45594000000E+02  0.51100000000E-03 0.  1.
    9900012    2    1    2    0    0 -0.35996648901E+02  0.44506446501E+01  0.18373863191E+02  0.50528858119E+02  0.29999994739E+02 0.  0.
        -12    1    1    2    0    0  0.35996648901E+02 -0.44506446501E+01 -0.18373863191E+02  0.40659141881E+02  0.00000000000E+00 0.  1.
         11    1    3    3    0    0 -0.26375582930E+02 -0.37395035517E+01  0.55084288671E+01  0.27202905186E+02  0.51100000000E-03 0. -1.
        -11    1    3    3    0    0 -0.12718880974E+02  0.78095891265E+01  0.65860167162E+01  0.16313651707E+02  0.51100000000E-03 0.  1.
        -12    1    3    3    0    0  0.30978150027E+01  0.38055907527E+00  0.62794176079E+01  0.70123012268E+01  0.00000000000E+00 0.  1.
</event>
<event>
 7    1  0.3129575E-011  0.5052885E+02  0.7816164E-02  0.1300439E+00
        -11   -1    0    0    0    0  0.00000000000E+00  0.00000000000E+00  0.45593999997E+02  0.45594000000E+02  0.51100000000E-03 0.  1.
         11   -1    0    0    0    0 -0.00000000000E+00 -0.00000000000E+00 -0.45593999997E+02  0.45594000000E+02  0.51100000000E-03 0. -1.
    9900012    2    1    2    0    0  0.15751873638E+02  0.36321814483E+02 -0.92612350165E+01  0.50528853373E+02  0.29999980312E+02 0.  0.
        -12    1    1    2    0    0 -0.15751873638E+02 -0.36321814483E+02  0.92612350165E+01  0.40659146627E+02  0.00000000000E+00 0.  1.
         11    1    3    3    0    0  0.18979321813E+01  0.66423359541E+01 -0.12659925163E+02  0.14422083029E+02  0.51100000000E-03 0. -1.
        -11    1    3    3    0    0  0.82343816195E+01  0.71393380524E+01 -0.41787426226E+01  0.11672064027E+02  0.51100000000E-03 0.  1.
        -12    1    3    3    0    0  0.56195598375E+01  0.22540140476E+02  0.75774327690E+01  0.24434706317E+02  0.00000000000E+00 0.  1.
</event>
<event>
 7    1  0.3129575E-011  0.5052884E+02  0.7816164E-02  0.1300439E+00
        -11   -1    0    0    0    0  0.00000000000E+00  0.00000000000E+00  0.45593999997E+02  0.45594000000E+02  0.51100000000E-03 0.  1.
         11   -1    0    0    0    0 -0.00000000000E+00 -0.00000000000E+00 -0.45593999997E+02  0.45594000000E+02  0.51100000000E-03 0. -1.
    9900012    2    1    2    0    0 -0.35419465159E+02  0.15834588644E+02 -0.12161188516E+02  0.50528840936E+02  0.29999942509E+02 0.  0.
        -12    1    1    2    0    0  0.35419465159E+02 -0.15834588644E+02  0.12161188516E+02  0.40659159064E+02  0.00000000000E+00 0.  1.
         11    1    3    3    0    0 -0.13966106335E+02  0.12664433808E+02 -0.79086612576E+01  0.20444728734E+02  0.51100000000E-03 0. -1.
        -11    1    3    3    0    0 -0.14337555560E+02  0.98610923138E+01  0.33322724376E+01  0.17717524684E+02  0.51100000000E-03 0.  1.
        -12    1    3    3    0    0 -0.71158032640E+01 -0.66909374782E+01 -0.75847996955E+01  0.12366587518E+02  0.00000000000E+00 0.  1.
</event>
<event>
 7    1  0.3502105E-011  0.5052886E+02  0.7816164E-02  0.1300439E+00
        -11   -1    0    0    0    0  0.00000000000E+00  0.00000000000E+00  0.45593999997E+02  0.45594000000E+02  0.51100000000E-03 0. -1.
         11   -1    0    0    0    0 -0.00000000000E+00 -0.00000000000E+00 -0.45593999997E+02  0.45594000000E+02  0.51100000000E-03 0.  1.
    9900012    2    1    2    0    0 -0.16754121022E+02  0.11577540608E+02  0.35191267938E+02  0.50528863796E+02  0.30000011996E+02 0.  0.
        -12    1    1    2    0    0  0.16754121022E+02 -0.11577540608E+02 -0.35191267938E+02  0.40659136204E+02  0.00000000000E+00 0.  1.
         11    1    3    3    0    0  0.23326300378E+01  0.58682164700E+01  0.31133475048E+01  0.70406008535E+01  0.51100000000E-03 0. -1.
        -11    1    3    3    0    0 -0.50506310450E+01 -0.64595760255E+01  0.25213596153E+01  0.85785925974E+01  0.51100000000E-03 0.  1.
         12    1    3    3    0    0 -0.14036120015E+02  0.12168900163E+02  0.29556560818E+02  0.34909670345E+02  0.00000000000E+00 0. -1.
</event>
<event>
 7    1  0.4797533E-011  0.5052885E+02  0.7816164E-02  0.1300439E+00
        -11   -1    0    0    0    0  0.00000000000E+00  0.00000000000E+00  0.45593999997E+02  0.45594000000E+02  0.51100000000E-03 0. -1.
         11   -1    0    0    0    0 -0.00000000000E+00 -0.00000000000E+00 -0.45593999997E+02  0.45594000000E+02  0.51100000000E-03 0.  1.
    9900012    2    1    2    0    0 -0.24245641431E+02 -0.26901511165E+02  0.18483071800E+02  0.50528851282E+02  0.29999973957E+02 0.  0.
        -12    1    1    2    0    0  0.24245641431E+02  0.26901511165E+02 -0.18483071800E+02  0.40659148718E+02  0.00000000000E+00 0.  1.
         11    1    3    3    0    0 -0.43797790204E+01 -0.87320731493E+00  0.10379281488E+02  0.11299311473E+02  0.51100000000E-03 0. -1.
        -11    1    3    3    0    0 -0.36217509653E+01  0.76087410403E+00 -0.41756742903E+01  0.55796295125E+01  0.51100000000E-03 0.  1.
         12    1    3    3    0    0 -0.16244111445E+02 -0.26789177954E+02  0.12279464602E+02  0.33649910297E+02  0.00000000000E+00 0. -1.
</event>
<event>
 7    1  0.3129575E-011  0.5052886E+02  0.7816164E-02  0.1300439E+00
        -11   -1    0    0    0    0  0.00000000000E+00  0.00000000000E+00  0.45593999997E+02  0.45594000000E+02  0.51100000000E-03 0.  1.
         11   -1    0    0    0    0 -0.00000000000E+00 -0.00000000000E+00 -0.45593999997E+02  0.45594000000E+02  0.51100000000E-03 0. -1.
    9900012    2    1    2    0    0  0.39063556902E+02  0.35770151898E+01 -0.10696213058E+02  0.50528862168E+02  0.30000007045E+02 0.  0.
        -12    1    1    2    0    0 -0.39063556902E+02 -0.35770151898E+01  0.10696213058E+02  0.40659137832E+02  0.00000000000E+00 0.  1.
         11    1    3    3    0    0  0.79511838572E+01 -0.21409505402E+01 -0.95655952828E+01  0.12621632514E+02  0.51100000000E-03 0. -1.
        -11    1    3    3    0    0  0.16058168183E+02  0.59554705508E+01  0.93971030872E+01  0.19535555830E+02  0.51100000000E-03 0.  1.
         12    1    3    3    0    0  0.15054204861E+02 -0.23750482078E+00 -0.10527720862E+02  0.18371673824E+02  0.00000000000E+00 0. -1.
</event>
<event>
 7    1  0.3468468E-011  0.5052886E+02  0.7816164E-02  0.1300439E+00
        -11   -1    0    0    0    0  0.00000000000E+00  0.00000000000E+00  0.45593999997E+02  0.45594000000E+02  0.51100000000E-03 0. -1.
         11   -1    0    0    0    0 -0.00000000000E+00 -0.00000000000E+00 -0.45593999997E+02  0.45594000000E+02  0.51100000000E-03 0.  1.
    9900012    2    1    2    0    0 -0.85373823441E+01 -0.26142768403E+02  0.29947197619E+02  0.50528857334E+02  0.29999992353E+02 0.  0.
        -12    1    1    2    0    0  0.85373823441E+01  0.26142768403E+02 -0.29947197619E+02  0.40659142666E+02  0.00000000000E+00 0.  1.
         11    1    3    3    0    0 -0.16169044331E+01 -0.91549540087E+01  0.26407454934E+02  0.27996093285E+02  0.51100000000E-03 0.  1.
        -11    1    3    3    0    0  0.33843973428E+01 -0.26321348970E+01  0.21782540864E+01  0.48090613030E+01  0.51100000000E-03 0. -1.
         12    1    3    3    0    0 -0.10304875254E+02 -0.14355679498E+02  0.13614885983E+01  0.17723702746E+02  0.00000000000E+00 0. -1.
</event>
<event>
 7    1  0.3129575E-011  0.5052886E+02  0.7816164E-02  0.1300439E+00
        -11   -1    0    0    0    0  0.00000000000E+00  0.00000000000E+00  0.45593999997E+02  0.45594000000E+02  0.51100000000E-03 0.  1.
         11   -1    0    0    0    0 -0.00000000000E+00 -0.00000000000E+00 -0.45593999997E+02  0.45594000000E+02  0.51100000000E-03 0. -1.
    9900012    2    1    2    0    0  0.78758106506E+01  0.28702376928E+02 -0.27700378352E+02  0.50528858401E+02  0.29999995596E+02 0.  0.
        -12    1    1    2    0    0 -0.78758106506E+01 -0.28702376928E+02  0.27700378352E+02  0.40659141599E+02  0.00000000000E+00 0.  1.
         11    1    3    3    0    0  0.50625969739E+01  0.18074633942E+02 -0.24250304159E+02  0.30665934395E+02  0.51100000000E-03 0. -1.
        -11    1    3    3    0    0  0.40306626929E+01 -0.63400073276E+00 -0.69049709432E+01  0.80204004053E+01  0.51100000000E-03 0.  1.
        -12    1    3    3    0    0 -0.12174490163E+01  0.11261743719E+02  0.34548967500E+01  0.11842523601E+02  0.00000000000E+00 0.  1.
</event>
<event>
 7    1  0.3129575E-011  0.5052886E+02  0.7816164E-02  0.1300439E+00
        -11   -1    0    0    0    0  0.00000000000E+00  0.00000000000E+00  0.45593999997E+02  0.45594000000E+02  0.51100000000E-03 0.  1.
         11   -1    0    0    0    0 -0.00000000000E+00 -0.00000000000E+00 -0.45593999997E+02  0.45594000000E+02  0.51100000000E-03 0. -1.
    9900012    2    1    2    0    0 -0.59736306247E+01 -0.10853480445E+02 -0.38725741807E+02  0.50528863522E+02  0.30000011161E+02 0.  0.
        -12    1    1    2    0    0  0.59736306247E+01  0.10853480445E+02  0.38725741807E+02  0.40659136478E+02  0.00000000000E+00 0.  1.
         11    1    3    3    0    0 -0.28717098246E+01 -0.59954092385E+00 -0.68111749604E+01  0.74160819331E+01  0.51100000000E-03 0. -1.
        -11    1    3    3    0    0 -0.15821036589E+01 -0.90107998737E+01  0.18143082049E+01  0.93268044300E+01  0.51100000000E-03 0.  1.
        -12    1    3    3    0    0 -0.15198171412E+01 -0.12431396478E+01 -0.33728875052E+02  0.33785977159E+02  0.00000000000E+00 0.  1.
</event>
<event>
 7    1  0.3129575E-011  0.5052887E+02  0.7816164E-02  0.1300439E+00
        -11   -1    0    0    0    0  0.00000000000E+00  0.00000000000E+00  0.45593999997E+02  0.45594000000E+02  0.51100000000E-03 0.  1.
         11   -1    0    0    0    0 -0.00000000000E+00 -0.00000000000E+00 -0.45593999997E+02  0.45594000000E+02  0.51100000000E-03 0. -1.
    9900012    2    1    2    0    0 -0.34742494362E+02 -0.19392906308E+02  0.83689151987E+01  0.50528874688E+02  0.30000045100E+02 0.  0.
        -12    1    1    2    0    0  0.34742494362E+02  0.19392906308E+02 -0.83689151987E+01  0.40659125312E+02  0.00000000000E+00 0.  1.
         11    1    3    3    0    0 -0.10604693964E+02 -0.28189112819E+01 -0.66657810984E+01  0.12838942044E+02  0.51100000000E-03 0. -1.
        -11    1    3    3    0    0  0.23781045490E+01 -0.50827287985E+01  0.32158462233E+01  0.64677028749E+01  0.51100000000E-03 0.  1.
        -12    1    3    3    0    0 -0.26515904947E+02 -0.11491266227E+02  0.11818850074E+02  0.31222229769E+02  0.00000000000E+00 0.  1.
</event>
<event>
 7    1  0.3129575E-011  0.5052886E+02  0.7816164E-02  0.1300439E+00
        -11   -1    0    0    0    0  0.00000000000E+00  0.00000000000E+00  0.45593999997E+02  0.45594000000E+02  0.51100000000E-03 0.  1.
         11   -1    0    0    0    0 -0.00000000000E+00 -0.00000000000E+00 -0.45593999997E+02  0.45594000000E+02  0.51100000000E-03 0. -1.
    9900012    2    1    2    0    0 -0.10962871923E+02 -0.28864213322E+02 -0.26454461034E+02  0.50528857361E+02  0.29999992436E+02 0.  0.
        -12    1    1    2    0    0  0.10962871923E+02  0.28864213322E+02  0.26454461034E+02  0.40659142639E+02  0.00000000000E+00 0.  1.
         11    1    3    3    0    0  0.27766601705E+01 -0.39203533201E+01 -0.87700737688E+01  0.99996602956E+01  0.51100000000E-03 0. -1.
        -11    1    3    3    0    0 -0.11702669808E+02 -0.10122323717E+01 -0.21952232812E+01  0.11949732236E+02  0.51100000000E-03 0.  1.
         12    1    3    3    0    0 -0.20368622856E+01 -0.23931627630E+02 -0.15489163984E+02  0.28579464829E+02  0.00000000000E+00 0. -1.
</event>
<event>
 7    1  0.3129575E-011  0.5052886E+02  0.7816164E-02  0.1300439E+00
        -11   -1    0    0    0    0  0.00000000000E+00  0.00000000000E+00  0.45593999997E+02  0.45594000000E+02  0.51100000000E-03 0.  1.
         11   -1    0    0    0    0 -0.00000000000E+00 -0.00000000000E+00 -0.45593999997E+02  0.45594000000E+02  0.51100000000E-03 0. -1.
    9900012    2    1    2    0    0  0.17381233772E+02 -0.10302918601E+02 -0.35283256066E+02  0.50528861079E+02  0.30000003737E+02 0.  0.
        -12    1    1    2    0    0 -0.17381233772E+02  0.10302918601E+02  0.35283256066E+02  0.40659138921E+02  0.00000000000E+00 0.  1.
         11    1    3    3    0    0  0.13831039559E+02 -0.22478712743E+01 -0.37440731846E+02  0.39976980651E+02  0.51100000000E-03 0. -1.
        -11    1    3    3    0    0  0.34111132508E+01 -0.19329512414E+01 -0.34660389010E+00  0.39360041449E+01  0.51100000000E-03 0.  1.
        -12    1    3    3    0    0  0.13908096194E+00 -0.61220960857E+01  0.25040796704E+01  0.66158762830E+01  0.00000000000E+00 0.  1.
</event>
<event>
 7    1  0.3129575E-011  0.5052887E+02  0.7816164E-02  0.1300439E+00
        -11   -1    0    0    0    0  0.00000000000E+00  0.00000000000E+00  0.45593999997E+02  0.45594000000E+02  0.51100000000E-03 0.  1.
         11   -1    0    0    0    0 -0.00000000000E+00 -0.00000000000E+00 -0.45593999997E+02  0.45594000000E+02  0.51100000000E-03 0. -1.
    9900012    2    1    2    0    0 -0.35289872870E+01 -0.29733598247E+02 -0.27506806855E+02  0.50528867700E+02  0.30000023862E+02 0.  0.
        -12    1    1    2    0    0  0.35289872870E+01  0.29733598247E+02  0.27506806855E+02  0.40659132300E+02  0.00000000000E+00 0.  1.
         11    1    3    3    0    0 -0.10503381478E+02 -0.24285532982E+02 -0.14340991036E+02  0.30096048891E+02  0.51100000000E-03 0. -1.
        -11    1    3    3    0    0  0.67744254351E+01 -0.90819003553E+01 -0.12236924300E+02  0.16676812364E+02  0.51100000000E-03 0.  1.
        -12    1    3    3    0    0  0.19996875596E+00  0.36338350899E+01 -0.92889151908E+00  0.37560064454E+01  0.00000000000E+00 0.  1.
</event>
<event>
 7    1  0.3129575E-011  0.5052886E+02  0.7816164E-02  0.1300439E+00
        -11   -1    0    0    0    0  0.00000000000E+00  0.00000000000E+00  0.45593999997E+02  0.45594000000E+02  0.51100000000E-03 0.  1.
         11   -1    0    0    0    0 -0.00000000000E+00 -0.00000000000E+00 -0.45593999997E+02  0.45594000000E+02  0.51100000000E-03 0. -1.
    9900012    2    1    2    0    0  0.20677228968E+02 -0.30807314742E+02 -0.16629097781E+02  0.50528864097E+02  0.30000012908E+02 0.  0.
        -12    1    1    2    0    0 -0.20677228968E+02  0.30807314742E+02  0.16629097781E+02  0.40659135903E+02  0.00000000000E+00 0.  1.
         11    1    3    3    0    0  0.28837423430E+01 -0.46626852213E+01 -0.11409244264E+02  0.12658098526E+02  0.51100000000E-03 0. -1.
        -11    1    3    3    0    0 -0.23365935710E+01 -0.11229083302E+02  0.23304623097E+01  0.11703975229E+02  0.51100000000E-03 0.  1.
        -12    1    3    3    0    0  0.20130080196E+02 -0.14915546219E+02 -0.75503158271E+01  0.26166790342E+02  0.00000000000E+00 0.  1.
</event>
<event>
 7    1  0.3129575E-011  0.5052887E+02  0.7816164E-02  0.1300439E+00
        -11   -1    0    0    0    0  0.00000000000E+00  0.00000000000E+00  0.45593999997E+02  0.45594000000E+02  0.51100000000E-03 0. -1.
         11   -1    0    0    0    0 -0.00000000000E+00 -0.00000000000E+00 -0.45593999997E+02  0.45594000000E+02  0.51100000000E-03 0.  1.
    9900012    2    1    2    0    0 -0.26016726006E+01 -0.28464433218E+02  0.28916636264E+02  0.50528874191E+02  0.30000043591E+02 0.  0.
        -12    1    1    2    0    0  0.26016726006E+01  0.28464433218E+02 -0.28916636264E+02  0.40659125809E+02  0.00000000000E+00 0.  1.
         11    1    3    3    0    0 -0.13844807929E+00 -0.82852845706E+01  0.11243779836E+02  0.13967379624E+02  0.51100000000E-03 0. -1.
        -11    1    3    3    0    0  0.10800279677E+02 -0.75506178592E+01  0.10663820255E+02  0.16952136557E+02  0.51100000000E-03 0.  1.
        -12    1    3    3    0    0 -0.13263504199E+02 -0.12628530788E+02  0.70090361734E+01  0.19609358010E+02  0.00000000000E+00 0.  1.
</event>
<event>
 7    1  0.3129575E-011  0.5052886E+02  0.7816164E-02  0.1300439E+00
        -11   -1    0    0    0    0  0.00000000000E+00  0.00000000000E+00  0.45593999997E+02  0.45594000000E+02  0.51100000000E-03 0. -1.
         11   -1    0    0    0    0 -0.00000000000E+00 -0.00000000000E+00 -0.45593999997E+02  0.45594000000E+02  0.51100000000E-03 0.  1.
    9900012    2    1    2    0    0 -0.21776464445E+02  0.33875011130E+02 -0.56066972984E+01  0.50528857886E+02  0.29999994032E+02 0.  0.
        -12    1    1    2    0    0  0.21776464445E+02 -0.33875011130E+02  0.56066972984E+01  0.40659142114E+02  0.00000000000E+00 0.  1.
         11    1    3    3    0    0 -0.15775988952E+02  0.70864229720E+01 -0.61976105841E+01  0.18371434216E+02  0.51100000000E-03 0.  1.
        -11    1    3    3    0    0 -0.99460299869E+01  0.11901744329E+02  0.47198618393E+01  0.16212714967E+02  0.51100000000E-03 0. -1.
        -12    1    3    3    0    0  0.39455544935E+01  0.14886843829E+02 -0.41289485536E+01  0.15944708703E+02  0.00000000000E+00 0.  1.
</event>
<event>
 7    1  0.3129575E-011  0.5052886E+02  0.7816164E-02  0.1300439E+00
        -11   -1    0    0    0    0  0.00000000000E+00  0.00000000000E+00  0.45593999997E+02  0.45594000000E+02  0.51100000000E-03 0.  1.
         11   -1    0    0    0    0 -0.00000000000E+00 -0.00000000000E+00 -0.45593999997E+02  0.45594000000E+02  0.51100000000E-03 0. -1.
    9900012    2    1    2    0    0  0.22122549599E+02 -0.10250091195E+02 -0.32537574941E+02  0.50528863840E+02  0.30000012127E+02 0.  0.
        -12    1    1    2    0    0 -0.22122549599E+02  0.10250091195E+02  0.32537574941E+02  0.40659136160E+02  0.00000000000E+00 0.  1.
         11    1    3    3    0    0  0.61089724517E+01 -0.13988977282E+02 -0.14773660690E+02  0.21243165495E+02  0.51100000000E-03 0.  1.
        -11    1    3    3    0    0  0.11810489598E+02 -0.49287876303E+01 -0.61559152464E+01  0.14201264198E+02  0.51100000000E-03 0. -1.
         12    1    3    3    0    0  0.42030875495E+01  0.86676737173E+01 -0.11607999004E+02  0.15084434146E+02  0.00000000000E+00 0. -1.
</event>
<event>
 7    1  0.3129575E-011  0.5052887E+02  0.7816164E-02  0.1300439E+00
        -11   -1    0    0    0    0  0.00000000000E+00  0.00000000000E+00  0.45593999997E+02  0.45594000000E+02  0.51100000000E-03 0.  1.
         11   -1    0    0    0    0 -0.00000000000E+00 -0.00000000000E+00 -0.45593999997E+02  0.45594000000E+02  0.51100000000E-03 0. -1.
    9900012    2    1    2    0    0 -0.37882626881E+02 -0.13425345932E+02  0.61507612161E+01  0.50528865770E+02  0.30000017995E+02 0.  0.
        -12    1    1    2    0    0  0.37882626881E+02  0.13425345932E+02 -0.61507612161E+01  0.40659134230E+02  0.00000000000E+00 0.  1.
         11    1    3    3    0    0 -0.66928274818E+01  0.32023948335E+00  0.63780475667E+01  0.92507288390E+01  0.51100000000E-03 0. -1.
        -11    1    3    3    0    0 -0.14040223418E+02 -0.18686316832E+02 -0.12054139448E+01  0.23404258873E+02  0.51100000000E-03 0.  1.
         12    1    3    3    0    0 -0.17149575981E+02  0.49407314165E+01  0.97812759426E+00  0.17873878058E+02  0.00000000000E+00 0. -1.
</event>
<event>
 7    1  0.3129575E-011  0.5052886E+02  0.7816164E-02  0.1300439E+00
        -11   -1    0    0    0    0  0.00000000000E+00  0.00000000000E+00  0.45593999997E+02  0.45594000000E+02  0.51100000000E-03 0. -1.
         11   -1    0    0    0    0 -0.00000000000E+00 -0.00000000000E+00 -0.45593999997E+02  0.45594000000E+02  0.51100000000E-03 0.  1.
    9900012    2    1    2    0    0 -0.19141367705E+02  0.21820009403E+02  0.28472107378E+02  0.50528859988E+02  0.30000000421E+02 0.  0.
        -12    1    1    2    0    0  0.19141367705E+02 -0.21820009403E+02 -0.28472107378E+02  0.40659140012E+02  0.00000000000E+00 0.  1.
         11    1    3    3    0    0 -0.90523282059E+01 -0.30409002341E+01  0.15140369248E+02  0.17900349198E+02  0.51100000000E-03 0. -1.
        -11    1    3    3    0    0  0.25009997638E+01  0.40111092475E+01 -0.26462903429E+00  0.47343453613E+01  0.51100000000E-03 0.  1.
         12    1    3    3    0    0 -0.12590039263E+02  0.20849800389E+02  0.13596367164E+02  0.27894165429E+02  0.00000000000E+00 0. -1.
</event>
<event>
 7    1  0.3129575E-011  0.5052896E+02  0.7816164E-02  0.1300438E+00
        -11   -1    0    0    0    0  0.00000000000E+00  0.00000000000E+00  0.45593999997E+02  0.45594000000E+02  0.51100000000E-03 0. -1.
         11   -1    0    0    0    0 -0.00000000000E+00 -0.00000000000E+00 -0.45593999997E+02  0.45594000000E+02  0.51100000000E-03 0.  1.
    9900012    2    1    2    0    0 -0.37336374174E+02  0.16097076429E+02  0.19288129706E+00  0.50528955382E+02  0.30000290379E+02 0.  0.
        -12    1    1    2    0    0  0.37336374174E+02 -0.16097076429E+02 -0.19288129706E+00  0.40659044618E+02  0.00000000000E+00 0.  1.
         11    1    3    3    0    0 -0.15043094254E+02  0.82528024805E+01 -0.25239143345E+01  0.17342824953E+02  0.51100000000E-03 0. -1.
        -11    1    3    3    0    0 -0.16172894157E+02  0.12946885854E+02  0.94345009094E+01  0.22763878545E+02  0.51100000000E-03 0.  1.
        -12    1    3    3    0    0 -0.61203857624E+01 -0.51026119057E+01 -0.67177052778E+01  0.10422251884E+02  0.00000000000E+00 0.  1.
</event>
<event>
 7    1  0.3129575E-011  0.5052887E+02  0.7816164E-02  0.1300439E+00
        -11   -1    0    0    0    0  0.00000000000E+00  0.00000000000E+00  0.45593999997E+02  0.45594000000E+02  0.51100000000E-03 0.  1.
         11   -1    0    0    0    0 -0.00000000000E+00 -0.00000000000E+00 -0.45593999997E+02  0.45594000000E+02  0.51100000000E-03 0. -1.
    9900012    2    1    2    0    0  0.29821270740E+02  0.18953034194E+02 -0.20115653775E+02  0.50528865473E+02  0.30000017093E+02 0.  0.
        -12    1    1    2    0    0 -0.29821270740E+02 -0.18953034194E+02  0.20115653775E+02  0.40659134527E+02  0.00000000000E+00 0.  1.
         11    1    3    3    0    0  0.19024205790E+02  0.11169454940E+02 -0.68168151486E+01  0.23089956661E+02  0.51100000000E-03 0. -1.
        -11    1    3    3    0    0  0.10771667716E+02 -0.44838558901E+01 -0.74972031241E+01  0.13868736207E+02  0.51100000000E-03 0.  1.
        -12    1    3    3    0    0  0.25397233753E-01  0.12267435144E+02 -0.58016355020E+01  0.13570172605E+02  0.00000000000E+00 0.  1.
</event>
<event>
 7    1  0.3129575E-011  0.5052886E+02  0.7816164E-02  0.1300439E+00
        -11   -1    0    0    0    0  0.00000000000E+00  0.00000000000E+00  0.45593999997E+02  0.45594000000E+02  0.51100000000E-03 0.  1.
         11   -1    0    0    0    0 -0.00000000000E+00 -0.00000000000E+00 -0.45593999997E+02  0.45594000000E+02  0.51100000000E-03 0. -1.
    9900012    2    1    2    0    0 -0.16492416830E+02 -0.19850958917E+02 -0.31418228212E+02  0.50528862690E+02  0.30000008634E+02 0.  0.
        -12    1    1    2    0    0  0.16492416830E+02  0.19850958917E+02  0.31418228212E+02  0.40659137310E+02  0.00000000000E+00 0.  1.
         11    1    3    3    0    0 -0.89444791704E+01 -0.77363167012E+01 -0.29482805313E+02  0.31766178762E+02  0.51100000000E-03 0. -1.
        -11    1    3    3    0    0 -0.77862042081E+01 -0.15041282982E+01 -0.18773118280E+01  0.81493360385E+01  0.51100000000E-03 0.  1.
        -12    1    3    3    0    0  0.23826654889E+00 -0.10610513917E+02 -0.58111070453E-01  0.10613347890E+02  0.00000000000E+00 0.  1.
</event>
<event>
 7    1  0.3129575E-011  0.5052886E+02  0.7816164E-02  0.1300439E+00
        -11   -1    0    0    0    0  0.00000000000E+00  0.00000000000E+00  0.45593999997E+02  0.45594000000E+02  0.51100000000E-03 0.  1.
         11   -1    0    0    0    0 -0.00000000000E+00 -0.00000000000E+00 -0.45593999997E+02  0.45594000000E+02  0.51100000000E-03 0. -1.
    9900012    2    1    2    0    0  0.24367531108E+01  0.29321831348E+02 -0.28061682459E+02  0.50528861031E+02  0.30000003589E+02 0.  0.
        -12    1    1    2    0    0 -0.24367531108E+01 -0.29321831348E+02  0.28061682459E+02  0.40659138969E+02  0.00000000000E+00 0.  1.
         11    1    3    3    0    0 -0.72168545562E+01  0.19033129123E+01 -0.24523500976E+00  0.74676455593E+01  0.51100000000E-03 0. -1.
        -11    1    3    3    0    0  0.49896458324E+01  0.68308670632E+01 -0.41197927350E+00  0.84691816340E+01  0.51100000000E-03 0.  1.
         12    1    3    3    0    0  0.46639618346E+01  0.20587651372E+02 -0.27404468176E+02  0.34592033837E+02  0.00000000000E+00 0. -1.
</event>
<event>
 7    1  0.3129575E-011  0.5052885E+02  0.7816164E-02  0.1300439E+00
        -11   -1    0    0    0    0  0.00000000000E+00  0.00000000000E+00  0.45593999997E+02  0.45594000000E+02  0.51100000000E-03 0. -1.
         11   -1    0    0    0    0 -0.00000000000E+00 -0.00000000000E+00 -0.45593999997E+02  0.45594000000E+02  0.51100000000E-03 0.  1.
    9900012    2    1    2    0    0  0.20595830489E+02  0.26535016170E+02  0.22910059677E+02  0.50528854029E+02  0.29999982307E+02 0.  0.
        -12    1    1    2    0    0 -0.20595830489E+02 -0.26535016170E+02 -0.22910059677E+02  0.40659145971E+02  0.00000000000E+00 0.  1.
         11    1    3    3    0    0  0.70514833566E+01  0.19190269823E+01 -0.22489961227E+01  0.76461798245E+01  0.51100000000E-03 0. -1.
        -11    1    3    3    0    0  0.25346058381E+01 -0.39922165415E+00 -0.27906619524E+01  0.37909628167E+01  0.51100000000E-03 0.  1.
         12    1    3    3    0    0  0.11009741294E+02  0.25015210842E+02  0.27949717752E+02  0.39091711388E+02  0.00000000000E+00 0. -1.
</event>
<event>
 7    1  0.3129575E-011  0.5052885E+02  0.7816164E-02  0.1300439E+00
        -11   -1    0    0    0    0  0.00000000000E+00  0.00000000000E+00  0.45593999997E+02  0.45594000000E+02  0.51100000000E-03 0. -1.
         11   -1    0    0    0    0 -0.00000000000E+00 -0.00000000000E+00 -0.45593999997E+02  0.45594000000E+02  0.51100000000E-03 0.  1.
    9900012    2    1    2    0    0  0.17311819946E+02  0.35337826783E+02 -0.10232551011E+02  0.50528853283E+02  0.29999980039E+02 0.  0.
        -12    1    1    2    0    0 -0.17311819946E+02 -0.35337826783E+02  0.10232551011E+02  0.40659146717E+02  0.00000000000E+00 0.  1.
         11    1    3    3    0    0 -0.16017113497E+01  0.96067937099E+01  0.42520236521E+01  0.10627119555E+02  0.51100000000E-03 0. -1.
        -11    1    3    3    0    0  0.49155819322E+01  0.19057941260E+02 -0.14412418900E+02  0.24394382337E+02  0.51100000000E-03 0.  1.
         12    1    3    3    0    0  0.13997949363E+02  0.66730918126E+01 -0.72155763735E-01  0.15507351391E+02  0.00000000000E+00 0. -1.
</event>
<event>
 7    1  0.3129575E-011  0.5052888E+02  0.7816164E-02  0.1300439E+00
        -11   -1    0    0    0    0  0.00000000000E+00  0.00000000000E+00  0.45593999997E+02  0.45594000000E+02  0.51100000000E-03 0.  1.
         11   -1    0    0    0    0 -0.00000000000E+00 -0.00000000000E+00 -0.45593999997E+02  0.45594000000E+02  0.51100000000E-03 0. -1.
    9900012    2    1    2    0    0  0.47296336181E+00 -0.40612916771E+02  0.18792179531E+01  0.50528878476E+02  0.30000056616E+02 0.  0.
        -12    1    1    2    0    0 -0.47296336181E+00  0.40612916771E+02 -0.18792179531E+01  0.40659121524E+02  0.00000000000E+00 0.  1.
         11    1    3    3    0    0  0.57606101226E+01 -0.11428730493E+02  0.82363808030E+01  0.15219674066E+02  0.51100000000E-03 0.  1.
        -11    1    3    3    0    0 -0.20374000479E+01 -0.29388902463E+02 -0.15466867175E+01  0.29500014017E+02  0.51100000000E-03 0. -1.
         12    1    3    3    0    0 -0.32502467129E+01  0.20471618515E+00 -0.48104761324E+01  0.58091903938E+01  0.00000000000E+00 0. -1.
</event>
<event>
 7    1  0.3129575E-011  0.5052885E+02  0.7816164E-02  0.1300439E+00
        -11   -1    0    0    0    0  0.00000000000E+00  0.00000000000E+00  0.45593999997E+02  0.45594000000E+02  0.51100000000E-03 0.  1.
         11   -1    0    0    0    0 -0.00000000000E+00 -0.00000000000E+00 -0.45593999997E+02  0.45594000000E+02  0.51100000000E-03 0. -1.
    9900012    2    1    2    0    0 -0.30740049949E+01  0.16484645304E+02 -0.37040154655E+02  0.50528854726E+02  0.29999984426E+02 0.  0.
        -12    1    1    2    0    0  0.30740049949E+01 -0.16484645304E+02  0.37040154655E+02  0.40659145274E+02  0.00000000000E+00 0.  1.
         11    1    3    3    0    0 -0.30836642199E+01  0.17657494677E+02 -0.20531211849E+02  0.27254848441E+02  0.51100000000E-03 0. -1.
        -11    1    3    3    0    0 -0.67648305720E+01  0.25956018824E+01 -0.33078145833E+01  0.79650310344E+01  0.51100000000E-03 0.  1.
        -12    1    3    3    0    0  0.67744897971E+01 -0.37684512556E+01 -0.13201128222E+02  0.15308975251E+02  0.00000000000E+00 0.  1.
</event>
<event>
 7    1  0.3129575E-011  0.5052886E+02  0.7816164E-02  0.1300439E+00
        -11   -1    0    0    0    0  0.00000000000E+00  0.00000000000E+00  0.45593999997E+02  0.45594000000E+02  0.51100000000E-03 0. -1.
         11   -1    0    0    0    0 -0.00000000000E+00 -0.00000000000E+00 -0.45593999997E+02  0.45594000000E+02  0.51100000000E-03 0.  1.
    9900012    2    1    2    0    0 -0.12673036254E+02 -0.16646253469E+02  0.34863475187E+02  0.50528861980E+02  0.30000006473E+02 0.  0.
        -12    1    1    2    0    0  0.12673036254E+02  0.16646253469E+02 -0.34863475187E+02  0.40659138020E+02  0.00000000000E+00 0.  1.
         11    1    3    3    0    0 -0.11835881522E+02 -0.85737906830E+01  0.10663007971E+02  0.18091371350E+02  0.51100000000E-03 0. -1.
        -11    1    3    3    0    0 -0.75159502489E+01  0.34470171102E+01  0.86876489184E+01  0.11993609928E+02  0.51100000000E-03 0.  1.
         12    1    3    3    0    0  0.66787955165E+01 -0.11519479896E+02  0.15512818298E+02  0.20443880702E+02  0.00000000000E+00 0. -1.
</event>
<event>
 7    1  0.3129575E-011  0.5052886E+02  0.7816164E-02  0.1300439E+00
        -11   -1    0    0    0    0  0.00000000000E+00  0.00000000000E+00  0.45593999997E+02  0.45594000000E+02  0.51100000000E-03 0. -1.
         11   -1    0    0    0    0 -0.00000000000E+00 -0.00000000000E+00 -0.45593999997E+02  0.45594000000E+02  0.51100000000E-03 0.  1.
    9900012    2    1    2    0    0  0.65085043431E+01  0.26232262294E+02  0.30375542537E+02  0.50528858368E+02  0.29999995494E+02 0.  0.
        -12    1    1    2    0    0 -0.65085043431E+01 -0.26232262294E+02 -0.30375542537E+02  0.40659141632E+02  0.00000000000E+00 0.  1.
         11    1    3    3    0    0  0.10871773671E+01  0.13754404945E+02  0.70467451670E+01  0.15492650765E+02  0.51100000000E-03 0. -1.
        -11    1    3    3    0    0 -0.69177964780E+01  0.83142475640E+01  0.17928296135E+02  0.20938157112E+02  0.51100000000E-03 0.  1.
         12    1    3    3    0    0  0.12339123454E+02  0.41636097855E+01  0.54005012354E+01  0.14098050491E+02  0.00000000000E+00 0. -1.
</event>
<event>
 7    1  0.3129575E-011  0.5052886E+02  0.7816164E-02  0.1300439E+00
        -11   -1    0    0    0    0  0.00000000000E+00  0.00000000000E+00  0.45593999997E+02  0.45594000000E+02  0.51100000000E-03 0.  1.
         11   -1    0    0    0    0 -0.00000000000E+00 -0.00000000000E+00 -0.45593999997E+02  0.45594000000E+02  0.51100000000E-03 0. -1.
    9900012    2    1    2    0    0  0.23509427487E+02  0.23641193318E+02 -0.23271581109E+02  0.50528859704E+02  0.29999999557E+02 0.  0.
        -12    1    1    2    0    0 -0.23509427487E+02 -0.23641193318E+02  0.23271581109E+02  0.40659140296E+02  0.00000000000E+00 0.  1.
         11    1    3    3    0    0  0.12690485883E+02  0.15197835754E+01 -0.72554324804E+01  0.14696920589E+02  0.51100000000E-03 0. -1.
        -11    1    3    3    0    0  0.46171187915E+01  0.72871619761E+01 -0.17675215710E+02  0.19668090051E+02  0.51100000000E-03 0.  1.
        -12    1    3    3    0    0  0.62018228130E+01  0.14834247767E+02  0.16590670814E+01  0.16163849065E+02  0.00000000000E+00 0.  1.
</event>
<event>
 7    1  0.3129575E-011  0.5052886E+02  0.7816164E-02  0.1300439E+00
        -11   -1    0    0    0    0  0.00000000000E+00  0.00000000000E+00  0.45593999997E+02  0.45594000000E+02  0.51100000000E-03 0. -1.
         11   -1    0    0    0    0 -0.00000000000E+00 -0.00000000000E+00 -0.45593999997E+02  0.45594000000E+02  0.51100000000E-03 0.  1.
    9900012    2    1    2    0    0  0.19822152841E+02 -0.33472226650E+02  0.11826158096E+02  0.50528859386E+02  0.29999998591E+02 0.  0.
        -12    1    1    2    0    0 -0.19822152841E+02  0.33472226650E+02 -0.11826158096E+02  0.40659140614E+02  0.00000000000E+00 0.  1.
         11    1    3    3    0    0  0.63414218530E+01 -0.10247409637E+02  0.70946985724E+01  0.13984197635E+02  0.51100000000E-03 0. -1.
        -11    1    3    3    0    0 -0.63618337362E+01 -0.10501708250E+02  0.41684065579E+01  0.12966665652E+02  0.51100000000E-03 0.  1.
         12    1    3    3    0    0  0.19842564724E+02 -0.12723108763E+02  0.56305296608E+00  0.23577996099E+02  0.00000000000E+00 0. -1.
</event>
<event>
 7    1  0.3129575E-011  0.5052888E+02  0.7816164E-02  0.1300439E+00
        -11   -1    0    0    0    0  0.00000000000E+00  0.00000000000E+00  0.45593999997E+02  0.45594000000E+02  0.51100000000E-03 0.  1.
         11   -1    0    0    0    0 -0.00000000000E+00 -0.00000000000E+00 -0.45593999997E+02  0.45594000000E+02  0.51100000000E-03 0. -1.
    9900012    2    1    2    0    0 -0.21908006631E+02 -0.15676536905E+02 -0.30454054526E+02  0.50528880470E+02  0.30000062678E+02 0.  0.
        -12    1    1    2    0    0  0.21908006631E+02  0.15676536905E+02  0.30454054526E+02  0.40659119530E+02  0.00000000000E+00 0.  1.
         11    1    3    3    0    0 -0.91917458187E+01 -0.79456228353E+01 -0.48334687455E+01  0.13076067215E+02  0.51100000000E-03 0. -1.
        -11    1    3    3    0    0 -0.18925079362E+02 -0.34680009539E+01 -0.21559325104E+02  0.28896196266E+02  0.51100000000E-03 0.  1.
        -12    1    3    3    0    0  0.62088185499E+01 -0.42629131154E+01 -0.40612606766E+01  0.85566169891E+01  0.00000000000E+00 0.  1.
</event>
<event>
 7    1  0.3129575E-011  0.5052880E+02  0.7816164E-02  0.1300439E+00
        -11   -1    0    0    0    0  0.00000000000E+00  0.00000000000E+00  0.45593999997E+02  0.45594000000E+02  0.51100000000E-03 0.  1.
         11   -1    0    0    0    0 -0.00000000000E+00 -0.00000000000E+00 -0.45593999997E+02  0.45594000000E+02  0.51100000000E-03 0. -1.
    9900012    2    1    2    0    0 -0.45413145412E+01 -0.39375107669E+02 -0.90635479992E+01  0.50528800008E+02  0.29999818103E+02 0.  0.
        -12    1    1    2    0    0  0.45413145412E+01  0.39375107669E+02  0.90635479992E+01  0.40659199992E+02  0.00000000000E+00 0.  1.
         11    1    3    3    0    0 -0.81733088620E+01 -0.74182298562E+01 -0.11901777011E+02  0.16232233618E+02  0.51100000000E-03 0. -1.
        -11    1    3    3    0    0 -0.37682475467E+01 -0.77747036220E+01  0.25409369826E+01  0.90056686033E+01  0.51100000000E-03 0.  1.
         12    1    3    3    0    0  0.74002418675E+01 -0.24182174190E+02  0.29729202947E+00  0.25290897786E+02  0.00000000000E+00 0. -1.
</event>
<event>
 7    1  0.3129575E-011  0.5052886E+02  0.7816164E-02  0.1300439E+00
        -11   -1    0    0    0    0  0.00000000000E+00  0.00000000000E+00  0.45593999997E+02  0.45594000000E+02  0.51100000000E-03 0. -1.
         11   -1    0    0    0    0 -0.00000000000E+00 -0.00000000000E+00 -0.45593999997E+02  0.45594000000E+02  0.51100000000E-03 0.  1.
    9900012    2    1    2    0    0 -0.35586790566E+02 -0.16891360718E+02 -0.10071151677E+02  0.50528858029E+02  0.29999994466E+02 0.  0.
        -12    1    1    2    0    0  0.35586790566E+02  0.16891360718E+02  0.10071151677E+02  0.40659141971E+02  0.00000000000E+00 0.  1.
         11    1    3    3    0    0 -0.58380684096E+01 -0.12260189862E+02  0.27656333368E+01  0.13857995029E+02  0.51100000000E-03 0.  1.
        -11    1    3    3    0    0 -0.22812282299E+02 -0.95610111429E+01 -0.52845219591E+01  0.25293068820E+02  0.51100000000E-03 0. -1.
        -12    1    3    3    0    0 -0.69364398577E+01  0.49298402871E+01 -0.75522630549E+01  0.11377794180E+02  0.00000000000E+00 0.  1.
</event>
<event>
 7    1  0.3129575E-011  0.5052886E+02  0.7816164E-02  0.1300439E+00
        -11   -1    0    0    0    0  0.00000000000E+00  0.00000000000E+00  0.45593999997E+02  0.45594000000E+02  0.51100000000E-03 0.  1.
         11   -1    0    0    0    0 -0.00000000000E+00 -0.00000000000E+00 -0.45593999997E+02  0.45594000000E+02  0.51100000000E-03 0. -1.
    9900012    2    1    2    0    0  0.66194866870E+01  0.22083460556E+02 -0.33491325125E+02  0.50528859666E+02  0.29999999440E+02 0.  0.
        -12    1    1    2    0    0 -0.66194866870E+01 -0.22083460556E+02  0.33491325125E+02  0.40659140334E+02  0.00000000000E+00 0.  1.
         11    1    3    3    0    0  0.12486621587E+02  0.16583263825E+02 -0.22803390464E+02  0.30836909292E+02  0.51100000000E-03 0. -1.
        -11    1    3    3    0    0  0.41568492345E+00  0.20672600938E+01 -0.12194632389E+02  0.12375597667E+02  0.51100000000E-03 0.  1.
         12    1    3    3    0    0 -0.62828198239E+01  0.34329366377E+01  0.15066977280E+01  0.73163527075E+01  0.00000000000E+00 0. -1.
</event>
<event>
 7    1  0.3129575E-011  0.5052886E+02  0.7816164E-02  0.1300439E+00
        -11   -1    0    0    0    0  0.00000000000E+00  0.00000000000E+00  0.45593999997E+02  0.45594000000E+02  0.51100000000E-03 0.  1.
         11   -1    0    0    0    0 -0.00000000000E+00 -0.00000000000E+00 -0.45593999997E+02  0.45594000000E+02  0.51100000000E-03 0. -1.
    9900012    2    1    2    0    0  0.10187271764E+02 -0.96184505373E+01 -0.38168976509E+02  0.50528857554E+02  0.29999993021E+02 0.  0.
        -12    1    1    2    0    0 -0.10187271764E+02  0.96184505373E+01  0.38168976509E+02  0.40659142446E+02  0.00000000000E+00 0.  1.
         11    1    3    3    0    0  0.13646544801E+02 -0.12919731658E+02 -0.15544715768E+02  0.24388231582E+02  0.51100000000E-03 0. -1.
        -11    1    3    3    0    0  0.11322312617E+01 -0.31161581404E+01 -0.14265275867E+02  0.14645493676E+02  0.51100000000E-03 0.  1.
        -12    1    3    3    0    0 -0.45915042988E+01  0.64174392606E+01 -0.83589848731E+01  0.11495132296E+02  0.00000000000E+00 0.  1.
</event>
<event>
 7    1  0.3129575E-011  0.5052888E+02  0.7816164E-02  0.1300439E+00
        -11   -1    0    0    0    0  0.00000000000E+00  0.00000000000E+00  0.45593999997E+02  0.45594000000E+02  0.51100000000E-03 0.  1.
         11   -1    0    0    0    0 -0.00000000000E+00 -0.00000000000E+00 -0.45593999997E+02  0.45594000000E+02  0.51100000000E-03 0. -1.
    9900012    2    1    2    0    0  0.31499828716E+02 -0.24942774438E+02 -0.62276146406E+01  0.50528875687E+02  0.30000048137E+02 0.  0.
        -12    1    1    2    0    0 -0.31499828716E+02  0.24942774438E+02  0.62276146406E+01  0.40659124313E+02  0.00000000000E+00 0.  1.
         11    1    3    3    0    0  0.52391690250E+01 -0.15832631818E+02 -0.69930062263E+01  0.18083784413E+02  0.51100000000E-03 0. -1.
        -11    1    3    3    0    0  0.71686635005E+01 -0.62871495167E+01  0.73650314632E+01  0.12048305862E+02  0.51100000000E-03 0.  1.
        -12    1    3    3    0    0  0.19091996191E+02 -0.28229931029E+01 -0.65996398776E+01  0.20396785411E+02  0.00000000000E+00 0.  1.
</event>
<event>
 7    1  0.3129575E-011  0.5052886E+02  0.7816164E-02  0.1300439E+00
        -11   -1    0    0    0    0  0.00000000000E+00  0.00000000000E+00  0.45593999997E+02  0.45594000000E+02  0.51100000000E-03 0.  1.
         11   -1    0    0    0    0 -0.00000000000E+00 -0.00000000000E+00 -0.45593999997E+02  0.45594000000E+02  0.51100000000E-03 0. -1.
    9900012    2    1    2    0    0  0.13398658312E+02  0.62182451611E+01 -0.37881060323E+02  0.50528863898E+02  0.30000012303E+02 0.  0.
        -12    1    1    2    0    0 -0.13398658312E+02 -0.62182451611E+01  0.37881060323E+02  0.40659136102E+02  0.00000000000E+00 0.  1.
         11    1    3    3    0    0 -0.26169745271E+01  0.11863404371E+02 -0.16791223845E+02  0.20725204883E+02  0.51100000000E-03 0.  1.
        -11    1    3    3    0    0  0.10302497701E+02  0.27900997840E+01 -0.12820709947E+02  0.16682227653E+02  0.51100000000E-03 0. -1.
        -12    1    3    3    0    0  0.57131351381E+01 -0.84352589939E+01 -0.82691265307E+01  0.13121431362E+02  0.00000000000E+00 0.  1.
</event>
<event>
 7    1  0.3129575E-011  0.5052886E+02  0.7816164E-02  0.1300439E+00
        -11   -1    0    0    0    0  0.00000000000E+00  0.00000000000E+00  0.45593999997E+02  0.45594000000E+02  0.51100000000E-03 0.  1.
         11   -1    0    0    0    0 -0.00000000000E+00 -0.00000000000E+00 -0.45593999997E+02  0.45594000000E+02  0.51100000000E-03 0. -1.
    9900012    2    1    2    0    0  0.34332488412E+02  0.10671308198E+02 -0.18988664226E+02  0.50528856523E+02  0.29999989887E+02 0.  0.
        -12    1    1    2    0    0 -0.34332488412E+02 -0.10671308198E+02  0.18988664226E+02  0.40659143477E+02  0.00000000000E+00 0.  1.
         11    1    3    3    0    0  0.36646007699E+01 -0.67213072637E+01  0.20704628131E+01  0.79304531181E+01  0.51100000000E-03 0. -1.
        -11    1    3    3    0    0  0.10356749957E+02  0.31990536789E+00 -0.43201515980E+01  0.11226233527E+02  0.51100000000E-03 0.  1.
         12    1    3    3    0    0  0.20311137685E+02  0.17072710094E+02 -0.16738975441E+02  0.31372169878E+02  0.00000000000E+00 0. -1.
</event>
<event>
 7    1  0.3129575E-011  0.5052884E+02  0.7816164E-02  0.1300439E+00
        -11   -1    0    0    0    0  0.00000000000E+00  0.00000000000E+00  0.45593999997E+02  0.45594000000E+02  0.51100000000E-03 0.  1.
         11   -1    0    0    0    0 -0.00000000000E+00 -0.00000000000E+00 -0.45593999997E+02  0.45594000000E+02  0.51100000000E-03 0. -1.
    9900012    2    1    2    0    0  0.36171145482E+02  0.16849487178E+02 -0.78045233364E+01  0.50528836603E+02  0.29999929337E+02 0.  0.
        -12    1    1    2    0    0 -0.36171145482E+02 -0.16849487178E+02  0.78045233364E+01  0.40659163397E+02  0.00000000000E+00 0.  1.
         11    1    3    3    0    0  0.76096400348E+01  0.59220177736E+01 -0.85644263687E+01  0.12896755997E+02  0.51100000000E-03 0. -1.
        -11    1    3    3    0    0  0.12593277704E+02 -0.57670243494E+01 -0.31427083696E+01  0.14203021838E+02  0.51100000000E-03 0.  1.
        -12    1    3    3    0    0  0.15968227743E+02  0.16694493754E+02  0.39026114018E+01  0.23429058767E+02  0.00000000000E+00 0.  1.
</event>
<event>
 7    1  0.3129575E-011  0.5052886E+02  0.7816164E-02  0.1300439E+00
        -11   -1    0    0    0    0  0.00000000000E+00  0.00000000000E+00  0.45593999997E+02  0.45594000000E+02  0.51100000000E-03 0.  1.
         11   -1    0    0    0    0 -0.00000000000E+00 -0.00000000000E+00 -0.45593999997E+02  0.45594000000E+02  0.51100000000E-03 0. -1.
    9900012    2    1    2    0    0  0.59188431405E+01 -0.10510020070E+02 -0.38828757425E+02  0.50528860448E+02  0.30000001817E+02 0.  0.
        -12    1    1    2    0    0 -0.59188431405E+01  0.10510020070E+02  0.38828757425E+02  0.40659139552E+02  0.00000000000E+00 0.  1.
         11    1    3    3    0    0  0.38026958935E+01  0.76253206016E+00 -0.16233737271E+01  0.42044373845E+01  0.51100000000E-03 0. -1.
        -11    1    3    3    0    0  0.60486012930E+01 -0.14712125257E+02 -0.10377923806E+02  0.18992985810E+02  0.51100000000E-03 0.  1.
         12    1    3    3    0    0 -0.39324540459E+01  0.34395731276E+01 -0.26827459891E+02  0.27331437253E+02  0.00000000000E+00 0. -1.
</event>
<event>
 7    1  0.3129575E-011  0.5052882E+02  0.7816164E-02  0.1300439E+00
        -11   -1    0    0    0    0  0.00000000000E+00  0.00000000000E+00  0.45593999997E+02  0.45594000000E+02  0.51100000000E-03 0. -1.
         11   -1    0    0    0    0 -0.00000000000E+00 -0.00000000000E+00 -0.45593999997E+02  0.45594000000E+02  0.51100000000E-03 0.  1.
    9900012    2    1    2    0    0 -0.23176942319E+02  0.14670233273E+02  0.30013033776E+02  0.50528823963E+02  0.29999890917E+02 0.  0.
        -12    1    1    2    0    0  0.23176942319E+02 -0.14670233273E+02 -0.30013033776E+02  0.40659176037E+02  0.00000000000E+00 0.  1.
         11    1    3    3    0    0 -0.31365860245E+01 -0.66415261975E+00  0.47905699209E+01  0.57644454217E+01  0.51100000000E-03 0. -1.
        -11    1    3    3    0    0  0.53332510943E+01  0.88189089910E+01  0.10505539999E+02  0.14716762346E+02  0.51100000000E-03 0.  1.
         12    1    3    3    0    0 -0.25373607389E+02  0.65154769020E+01  0.14716923856E+02  0.30047616195E+02  0.00000000000E+00 0. -1.
</event>
<event>
 7    1  0.3129575E-011  0.5052886E+02  0.7816164E-02  0.1300439E+00
        -11   -1    0    0    0    0  0.00000000000E+00  0.00000000000E+00  0.45593999997E+02  0.45594000000E+02  0.51100000000E-03 0. -1.
         11   -1    0    0    0    0 -0.00000000000E+00 -0.00000000000E+00 -0.45593999997E+02  0.45594000000E+02  0.51100000000E-03 0.  1.
    9900012    2    1    2    0    0  0.38090501279E+02  0.13281450668E+02  0.50874657883E+01  0.50528861695E+02  0.30000005610E+02 0.  0.
        -12    1    1    2    0    0 -0.38090501279E+02 -0.13281450668E+02 -0.50874657883E+01  0.40659138305E+02  0.00000000000E+00 0.  1.
         11    1    3    3    0    0  0.79198467263E+01  0.93462153011E+01  0.83808997094E+00  0.12279173738E+02  0.51100000000E-03 0. -1.
        -11    1    3    3    0    0  0.30828696817E+01  0.82344191646E+01 -0.39274953142E+01  0.96298994884E+01  0.51100000000E-03 0.  1.
         12    1    3    3    0    0  0.27087784871E+02 -0.42991837974E+01  0.81768711315E+01  0.28619788469E+02  0.00000000000E+00 0. -1.
</event>
<event>
 7    1  0.3129575E-011  0.5052886E+02  0.7816164E-02  0.1300439E+00
        -11   -1    0    0    0    0  0.00000000000E+00  0.00000000000E+00  0.45593999997E+02  0.45594000000E+02  0.51100000000E-03 0.  1.
         11   -1    0    0    0    0 -0.00000000000E+00 -0.00000000000E+00 -0.45593999997E+02  0.45594000000E+02  0.51100000000E-03 0. -1.
    9900012    2    1    2    0    0  0.18305884816E+02 -0.24072840165E+02 -0.27176433670E+02  0.50528860812E+02  0.30000002923E+02 0.  0.
        -12    1    1    2    0    0 -0.18305884816E+02  0.24072840165E+02  0.27176433670E+02  0.40659139188E+02  0.00000000000E+00 0.  1.
         11    1    3    3    0    0  0.73224255747E+01 -0.74219130258E+01 -0.97208408386E+01  0.14254734516E+02  0.51100000000E-03 0. -1.
        -11    1    3    3    0    0  0.12737179228E+02 -0.12766342120E+01  0.19306236498E+00  0.12802453005E+02  0.51100000000E-03 0.  1.
         12    1    3    3    0    0 -0.17537199869E+01 -0.15374292928E+02 -0.17648655196E+02  0.23471673290E+02  0.00000000000E+00 0. -1.
</event>
<event>
 7    1  0.4167840E-011  0.5052886E+02  0.7816164E-02  0.1300439E+00
        -11   -1    0    0    0    0  0.00000000000E+00  0.00000000000E+00  0.45593999997E+02  0.45594000000E+02  0.51100000000E-03 0.  1.
         11   -1    0    0    0    0 -0.00000000000E+00 -0.00000000000E+00 -0.45593999997E+02  0.45594000000E+02  0.51100000000E-03 0. -1.
    9900012    2    1    2    0    0 -0.80150244969E+01  0.39652126458E+02  0.40784416665E+01  0.50528862814E+02  0.30000009008E+02 0.  0.
        -12    1    1    2    0    0  0.80150244969E+01 -0.39652126458E+02 -0.40784416665E+01  0.40659137186E+02  0.00000000000E+00 0.  1.
         11    1    3    3    0    0  0.10812340737E+01  0.18263407586E+01  0.49315759196E+01  0.53688945790E+01  0.51100000000E-03 0.  1.
        -11    1    3    3    0    0 -0.16909164098E-01  0.34655420411E+01 -0.81703421555E+01  0.88749511975E+01  0.51100000000E-03 0. -1.
         12    1    3    3    0    0 -0.90793494065E+01  0.34360243658E+02  0.73172079024E+01  0.36285017037E+02  0.00000000000E+00 0. -1.
</event>
<event>
 7    1  0.3129575E-011  0.5052885E+02  0.7816164E-02  0.1300439E+00
        -11   -1    0    0    0    0  0.00000000000E+00  0.00000000000E+00  0.45593999997E+02  0.45594000000E+02  0.51100000000E-03 0.  1.
         11   -1    0    0    0    0 -0.00000000000E+00 -0.00000000000E+00 -0.45593999997E+02  0.45594000000E+02  0.51100000000E-03 0. -1.
    9900012    2    1    2    0    0  0.13306202355E+01 -0.40024785440E+02 -0.70293819787E+01  0.50528853295E+02  0.29999980076E+02 0.  0.
        -12    1    1    2    0    0 -0.13306202355E+01  0.40024785440E+02  0.70293819787E+01  0.40659146705E+02  0.00000000000E+00 0.  1.
         11    1    3    3    0    0  0.44672280257E+01 -0.27596294236E+02 -0.12644335834E+01  0.27984109319E+02  0.51100000000E-03 0. -1.
        -11    1    3    3    0    0  0.21544595567E+01 -0.59731028321E+01  0.55847751710E+01  0.84563211503E+01  0.51100000000E-03 0.  1.
        -12    1    3    3    0    0 -0.52910673468E+01 -0.64553883720E+01 -0.11349723566E+02  0.14088422826E+02  0.00000000000E+00 0.  1.
</event>
<event>
 7    1  0.3129575E-011  0.5052886E+02  0.7816164E-02  0.1300439E+00
        -11   -1    0    0    0    0  0.00000000000E+00  0.00000000000E+00  0.45593999997E+02  0.45594000000E+02  0.51100000000E-03 0.  1.
         11   -1    0    0    0    0 -0.00000000000E+00 -0.00000000000E+00 -0.45593999997E+02  0.45594000000E+02  0.51100000000E-03 0. -1.
    9900012    2    1    2    0    0  0.16747319249E+02 -0.26957483161E+01 -0.36951668447E+02  0.50528861273E+02  0.30000004326E+02 0.  0.
        -12    1    1    2    0    0 -0.16747319249E+02  0.26957483161E+01  0.36951668447E+02  0.40659138727E+02  0.00000000000E+00 0.  1.
         11    1    3    3    0    0  0.17797142786E+02  0.50010652439E+00 -0.35542392704E+02  0.39752359393E+02  0.51100000000E-03 0. -1.
        -11    1    3    3    0    0 -0.10944649811E+01 -0.22459779125E+01 -0.57835094373E+01  0.63000993683E+01  0.51100000000E-03 0.  1.
        -12    1    3    3    0    0  0.44641443910E-01 -0.94987692797E+00  0.43742336945E+01  0.44764025121E+01  0.00000000000E+00 0.  1.
</event>
<event>
 7    1  0.3129575E-011  0.5052886E+02  0.7816164E-02  0.1300439E+00
        -11   -1    0    0    0    0  0.00000000000E+00  0.00000000000E+00  0.45593999997E+02  0.45594000000E+02  0.51100000000E-03 0.  1.
         11   -1    0    0    0    0 -0.00000000000E+00 -0.00000000000E+00 -0.45593999997E+02  0.45594000000E+02  0.51100000000E-03 0. -1.
    9900012    2    1    2    0    0 -0.12233909181E+01 -0.18521662209E+02 -0.36174808467E+02  0.50528862970E+02  0.30000009485E+02 0.  0.
        -12    1    1    2    0    0  0.12233909181E+01  0.18521662209E+02  0.36174808467E+02  0.40659137030E+02  0.00000000000E+00 0.  1.
         11    1    3    3    0    0 -0.67285295276E+01 -0.86116901038E+01 -0.17639139198E+02  0.20750266214E+02  0.51100000000E-03 0. -1.
        -11    1    3    3    0    0 -0.36618204835E+01  0.44217845232E+01 -0.77131174845E+01  0.96152633460E+01  0.51100000000E-03 0.  1.
        -12    1    3    3    0    0  0.91669590930E+01 -0.14331756629E+02 -0.10822551785E+02  0.20163333410E+02  0.00000000000E+00 0.  1.
</event>
<event>
 7    1  0.3129575E-011  0.5052886E+02  0.7816164E-02  0.1300439E+00
        -11   -1    0    0    0    0  0.00000000000E+00  0.00000000000E+00  0.45593999997E+02  0.45594000000E+02  0.51100000000E-03 0.  1.
         11   -1    0    0    0    0 -0.00000000000E+00 -0.00000000000E+00 -0.45593999997E+02  0.45594000000E+02  0.51100000000E-03 0. -1.
    9900012    2    1    2    0    0 -0.20169851495E+02 -0.24146023328E+02 -0.25754857426E+02  0.50528855482E+02  0.29999986723E+02 0.  0.
        -12    1    1    2    0    0  0.20169851495E+02  0.24146023328E+02  0.25754857426E+02  0.40659144518E+02  0.00000000000E+00 0.  1.
         11    1    3    3    0    0 -0.11013533573E+02 -0.66491489888E+01 -0.11680076485E+02  0.17376227755E+02  0.51100000000E-03 0. -1.
        -11    1    3    3    0    0 -0.33367714971E+01 -0.13684041274E+02 -0.19691948207E+02  0.24210738404E+02  0.51100000000E-03 0.  1.
        -12    1    3    3    0    0 -0.58195464250E+01 -0.38128330660E+01  0.56171672659E+01  0.89418893236E+01  0.00000000000E+00 0.  1.
</event>
<event>
 7    1  0.3129575E-011  0.5052884E+02  0.7816164E-02  0.1300439E+00
        -11   -1    0    0    0    0  0.00000000000E+00  0.00000000000E+00  0.45593999997E+02  0.45594000000E+02  0.51100000000E-03 0.  1.
         11   -1    0    0    0    0 -0.00000000000E+00 -0.00000000000E+00 -0.45593999997E+02  0.45594000000E+02  0.51100000000E-03 0. -1.
    9900012    2    1    2    0    0  0.12079668550E+02  0.10081314876E+02 -0.37491542040E+02  0.50528843264E+02  0.29999949586E+02 0.  0.
        -12    1    1    2    0    0 -0.12079668550E+02 -0.10081314876E+02  0.37491542040E+02  0.40659156736E+02  0.00000000000E+00 0.  1.
         11    1    3    3    0    0  0.10124078455E+02  0.10182546557E+01 -0.18776118271E+02  0.21355945886E+02  0.51100000000E-03 0. -1.
        -11    1    3    3    0    0 -0.34489977223E+01 -0.51475301117E+01 -0.96612078971E+01  0.11477438296E+02  0.51100000000E-03 0.  1.
        -12    1    3    3    0    0  0.54045878176E+01  0.14210590332E+02 -0.90542158722E+01  0.17695459082E+02  0.00000000000E+00 0.  1.
</event>
<event>
 7    1  0.3129575E-011  0.5052886E+02  0.7816164E-02  0.1300439E+00
        -11   -1    0    0    0    0  0.00000000000E+00  0.00000000000E+00  0.45593999997E+02  0.45594000000E+02  0.51100000000E-03 0.  1.
         11   -1    0    0    0    0 -0.00000000000E+00 -0.00000000000E+00 -0.45593999997E+02  0.45594000000E+02  0.51100000000E-03 0. -1.
    9900012    2    1    2    0    0 -0.30118559856E+02 -0.20232390623E+02 -0.18349064072E+02  0.50528862891E+02  0.30000009243E+02 0.  0.
        -12    1    1    2    0    0  0.30118559856E+02  0.20232390623E+02  0.18349064072E+02  0.40659137109E+02  0.00000000000E+00 0.  1.
         11    1    3    3    0    0 -0.35307558628E+01 -0.11601566655E+01 -0.10387680677E+02  0.11032502462E+02  0.51100000000E-03 0. -1.
        -11    1    3    3    0    0 -0.27326185627E+02 -0.10720486231E+02 -0.97358845824E+01  0.30926310721E+02  0.51100000000E-03 0.  1.
         12    1    3    3    0    0  0.73838163401E+00 -0.83517477269E+01  0.17745011873E+01  0.85700497078E+01  0.00000000000E+00 0. -1.
</event>
<event>
 7    1  0.3129575E-011  0.5052885E+02  0.7816164E-02  0.1300439E+00
        -11   -1    0    0    0    0  0.00000000000E+00  0.00000000000E+00  0.45593999997E+02  0.45594000000E+02  0.51100000000E-03 0. -1.
         11   -1    0    0    0    0 -0.00000000000E+00 -0.00000000000E+00 -0.45593999997E+02  0.45594000000E+02  0.51100000000E-03 0.  1.
    9900012    2    1    2    0    0 -0.31921412287E+02 -0.18056396893E+02  0.17554383428E+02  0.50528850861E+02  0.29999972677E+02 0.  0.
        -12    1    1    2    0    0  0.31921412287E+02  0.18056396893E+02 -0.17554383428E+02  0.40659149139E+02  0.00000000000E+00 0.  1.
         11    1    3    3    0    0 -0.15247444476E+02 -0.51332910270E+01  0.15522750072E+02  0.22356006125E+02  0.51100000000E-03 0. -1.
        -11    1    3    3    0    0 -0.11640932615E+02  0.24450741872E+01  0.18476315912E+00  0.11896379181E+02  0.51100000000E-03 0.  1.
        -12    1    3    3    0    0 -0.50330351963E+01 -0.15368180053E+02  0.18468701975E+01  0.16276465555E+02  0.00000000000E+00 0.  1.
</event>
<event>
 7    1  0.3129575E-011  0.5052885E+02  0.7816164E-02  0.1300439E+00
        -11   -1    0    0    0    0  0.00000000000E+00  0.00000000000E+00  0.45593999997E+02  0.45594000000E+02  0.51100000000E-03 0.  1.
         11   -1    0    0    0    0 -0.00000000000E+00 -0.00000000000E+00 -0.45593999997E+02  0.45594000000E+02  0.51100000000E-03 0. -1.
    9900012    2    1    2    0    0  0.37172117114E+02 -0.16378174610E+02 -0.17763107068E+01  0.50528853747E+02  0.29999981450E+02 0.  0.
        -12    1    1    2    0    0 -0.37172117114E+02  0.16378174610E+02  0.17763107068E+01  0.40659146253E+02  0.00000000000E+00 0.  1.
         11    1    3    3    0    0  0.14111578092E+02 -0.76280683872E+01 -0.46678851439E+00  0.16048113763E+02  0.51100000000E-03 0. -1.
        -11    1    3    3    0    0  0.22106472335E+02  0.93142534168E+00  0.52589344343E+01  0.22742472687E+02  0.51100000000E-03 0.  1.
        -12    1    3    3    0    0  0.95406668627E+00 -0.96815315643E+01 -0.65684566267E+01  0.11738267297E+02  0.00000000000E+00 0.  1.
</event>
<event>
 7    1  0.3129575E-011  0.5052885E+02  0.7816164E-02  0.1300439E+00
        -11   -1    0    0    0    0  0.00000000000E+00  0.00000000000E+00  0.45593999997E+02  0.45594000000E+02  0.51100000000E-03 0.  1.
         11   -1    0    0    0    0 -0.00000000000E+00 -0.00000000000E+00 -0.45593999997E+02  0.45594000000E+02  0.51100000000E-03 0. -1.
    9900012    2    1    2    0    0  0.30953490614E+02  0.50997581523E+01 -0.25865813059E+02  0.50528850973E+02  0.29999973018E+02 0.  0.
        -12    1    1    2    0    0 -0.30953490614E+02 -0.50997581523E+01  0.25865813059E+02  0.40659149027E+02  0.00000000000E+00 0.  1.
         11    1    3    3    0    0  0.64864030503E+01 -0.29621599970E+01 -0.17693429569E+02  0.19076301176E+02  0.51100000000E-03 0. -1.
        -11    1    3    3    0    0  0.95161322468E-01 -0.13956312912E+01  0.27771000838E+01  0.31095220718E+01  0.51100000000E-03 0.  1.
         12    1    3    3    0    0  0.24371926241E+02  0.94575494404E+01 -0.10949483573E+02  0.28343027725E+02  0.00000000000E+00 0. -1.
</event>
<event>
 7    1  0.3458664E-011  0.5052887E+02  0.7816164E-02  0.1300439E+00
        -11   -1    0    0    0    0  0.00000000000E+00  0.00000000000E+00  0.45593999997E+02  0.45594000000E+02  0.51100000000E-03 0. -1.
         11   -1    0    0    0    0 -0.00000000000E+00 -0.00000000000E+00 -0.45593999997E+02  0.45594000000E+02  0.51100000000E-03 0.  1.
    9900012    2    1    2    0    0 -0.52186916225E+00 -0.18845535355E+02  0.36024140035E+02  0.50528865534E+02  0.30000017278E+02 0.  0.
        -12    1    1    2    0    0  0.52186916225E+00  0.18845535355E+02 -0.36024140035E+02  0.40659134466E+02  0.00000000000E+00 0.  1.
         11    1    3    3    0    0  0.18435810550E+01 -0.39157245826E+01  0.28523595578E+02  0.28850081370E+02  0.51100000000E-03 0. -1.
        -11    1    3    3    0    0 -0.35421773081E+01  0.11757778330E+01  0.33265685360E+01  0.49995531881E+01  0.51100000000E-03 0.  1.
         12    1    3    3    0    0  0.11767270909E+01 -0.16105588605E+02  0.41739759214E+01  0.16679230976E+02  0.00000000000E+00 0. -1.
</event>
<event>
 7    1  0.3129575E-011  0.5052886E+02  0.7816164E-02  0.1300439E+00
        -11   -1    0    0    0    0  0.00000000000E+00  0.00000000000E+00  0.45593999997E+02  0.45594000000E+02  0.51100000000E-03 0.  1.
         11   -1    0    0    0    0 -0.00000000000E+00 -0.00000000000E+00 -0.45593999997E+02  0.45594000000E+02  0.51100000000E-03 0. -1.
    9900012    2    1    2    0    0 -0.37466854479E+02  0.23486741316E+01 -0.15616796685E+02  0.50528858427E+02  0.29999995674E+02 0.  0.
        -12    1    1    2    0    0  0.37466854479E+02 -0.23486741316E+01  0.15616796685E+02  0.40659141573E+02  0.00000000000E+00 0.  1.
         11    1    3    3    0    0 -0.52575612329E+01  0.83643046696E+01  0.17377002983E+01  0.10031108877E+02  0.51100000000E-03 0. -1.
        -11    1    3    3    0    0 -0.12271337920E+02 -0.62213274738E+01  0.45108675153E+00  0.13765686666E+02  0.51100000000E-03 0.  1.
         12    1    3    3    0    0 -0.19937955327E+02  0.20569693588E+00 -0.17805583735E+02  0.26732062883E+02  0.00000000000E+00 0. -1.
</event>
<event>
 7    1  0.3176204E-011  0.5052886E+02  0.7816164E-02  0.1300439E+00
        -11   -1    0    0    0    0  0.00000000000E+00  0.00000000000E+00  0.45593999997E+02  0.45594000000E+02  0.51100000000E-03 0.  1.
         11   -1    0    0    0    0 -0.00000000000E+00 -0.00000000000E+00 -0.45593999997E+02  0.45594000000E+02  0.51100000000E-03 0. -1.
    9900012    2    1    2    0    0  0.22383409639E+02  0.29867258246E+02 -0.16127478782E+02  0.50528859403E+02  0.29999998642E+02 0.  0.
        -12    1    1    2    0    0 -0.22383409639E+02 -0.29867258246E+02  0.16127478782E+02  0.40659140597E+02  0.00000000000E+00 0.  1.
         11    1    3    3    0    0  0.27639490988E+01  0.12894395222E+02 -0.85019231698E+01  0.15690364579E+02  0.51100000000E-03 0. -1.
        -11    1    3    3    0    0 -0.44909946157E+01  0.31187933687E-01 -0.47757945509E+00  0.45164242187E+01  0.51100000000E-03 0.  1.
         12    1    3    3    0    0  0.24110455156E+02  0.16941675090E+02 -0.71479761571E+01  0.30322070606E+02  0.00000000000E+00 0. -1.
</event>
<event>
 7    1  0.3129575E-011  0.5052886E+02  0.7816164E-02  0.1300439E+00
        -11   -1    0    0    0    0  0.00000000000E+00  0.00000000000E+00  0.45593999997E+02  0.45594000000E+02  0.51100000000E-03 0. -1.
         11   -1    0    0    0    0 -0.00000000000E+00 -0.00000000000E+00 -0.45593999997E+02  0.45594000000E+02  0.51100000000E-03 0.  1.
    9900012    2    1    2    0    0  0.10866148220E+01  0.31216482028E+02  0.26029141827E+02  0.50528859500E+02  0.29999998937E+02 0.  0.
        -12    1    1    2    0    0 -0.10866148220E+01 -0.31216482028E+02 -0.26029141827E+02  0.40659140500E+02  0.00000000000E+00 0.  1.
         11    1    3    3    0    0 -0.38408998032E+01  0.38266509511E+01  0.55453589927E+01  0.77554352179E+01  0.51100000000E-03 0. -1.
        -11    1    3    3    0    0  0.25820549956E+01 -0.26062377959E+00 -0.46553241858E+01  0.53298195364E+01  0.51100000000E-03 0.  1.
        -12    1    3    3    0    0  0.23454596296E+01  0.27650454856E+02  0.25139107020E+02  0.37443604746E+02  0.00000000000E+00 0.  1.
</event>
<event>
 7    1  0.3129575E-011  0.5052885E+02  0.7816164E-02  0.1300439E+00
        -11   -1    0    0    0    0  0.00000000000E+00  0.00000000000E+00  0.45593999997E+02  0.45594000000E+02  0.51100000000E-03 0.  1.
         11   -1    0    0    0    0 -0.00000000000E+00 -0.00000000000E+00 -0.45593999997E+02  0.45594000000E+02  0.51100000000E-03 0. -1.
    9900012    2    1    2    0    0  0.95100148141E+01  0.31703319658E+02 -0.23614091725E+02  0.50528853586E+02  0.29999980961E+02 0.  0.
        -12    1    1    2    0    0 -0.95100148141E+01 -0.31703319658E+02  0.23614091725E+02  0.40659146414E+02  0.00000000000E+00 0.  1.
         11    1    3    3    0    0  0.39526008335E+01  0.15544598968E+02  0.82108990036E+00  0.16060255269E+02  0.51100000000E-03 0. -1.
        -11    1    3    3    0    0  0.69373680142E+01  0.19498657384E+02 -0.20903201111E+02  0.29415447161E+02  0.51100000000E-03 0.  1.
        -12    1    3    3    0    0 -0.13799540336E+01 -0.33399366939E+01 -0.35319805142E+01  0.50531511561E+01  0.00000000000E+00 0.  1.
</event>
<event>
 7    1  0.3129575E-011  0.5052886E+02  0.7816164E-02  0.1300439E+00
        -11   -1    0    0    0    0  0.00000000000E+00  0.00000000000E+00  0.45593999997E+02  0.45594000000E+02  0.51100000000E-03 0. -1.
         11   -1    0    0    0    0 -0.00000000000E+00 -0.00000000000E+00 -0.45593999997E+02  0.45594000000E+02  0.51100000000E-03 0.  1.
    9900012    2    1    2    0    0  0.23120502396E+02  0.30514598146E+02 -0.13691877431E+02  0.50528857871E+02  0.29999993986E+02 0.  0.
        -12    1    1    2    0    0 -0.23120502396E+02 -0.30514598146E+02  0.13691877431E+02  0.40659142129E+02  0.00000000000E+00 0.  1.
         11    1    3    3    0    0  0.12018122732E+01  0.11427944382E+02 -0.36908688940E+01  0.12069166458E+02  0.51100000000E-03 0. -1.
        -11    1    3    3    0    0 -0.12821605504E+01 -0.31468824031E+01 -0.48398342171E+01  0.59136114216E+01  0.51100000000E-03 0.  1.
         12    1    3    3    0    0  0.23200850673E+02  0.22233536167E+02 -0.51611743197E+01  0.32546079991E+02  0.00000000000E+00 0. -1.
</event>
<event>
 7    1  0.3129575E-011  0.5052887E+02  0.7816164E-02  0.1300439E+00
        -11   -1    0    0    0    0  0.00000000000E+00  0.00000000000E+00  0.45593999997E+02  0.45594000000E+02  0.51100000000E-03 0.  1.
         11   -1    0    0    0    0 -0.00000000000E+00 -0.00000000000E+00 -0.45593999997E+02  0.45594000000E+02  0.51100000000E-03 0. -1.
    9900012    2    1    2    0    0 -0.16677440969E+02 -0.12494689541E+02 -0.34912896199E+02  0.50528872796E+02  0.30000039350E+02 0.  0.
        -12    1    1    2    0    0  0.16677440969E+02  0.12494689541E+02  0.34912896199E+02  0.40659127204E+02  0.00000000000E+00 0.  1.
         11    1    3    3    0    0 -0.10607311954E+02 -0.30594660141E+01 -0.26476813602E+02  0.28686182352E+02  0.51100000000E-03 0. -1.
        -11    1    3    3    0    0 -0.33076454078E+00 -0.78496363397E+01 -0.12407238572E+02  0.14685563152E+02  0.51100000000E-03 0.  1.
        -12    1    3    3    0    0 -0.57393644742E+01 -0.15855871870E+01  0.39711559746E+01  0.71571272917E+01  0.00000000000E+00 0.  1.
</event>
<event>
 7    1  0.3129575E-011  0.5052886E+02  0.7816164E-02  0.1300439E+00
        -11   -1    0    0    0    0  0.00000000000E+00  0.00000000000E+00  0.45593999997E+02  0.45594000000E+02  0.51100000000E-03 0.  1.
         11   -1    0    0    0    0 -0.00000000000E+00 -0.00000000000E+00 -0.45593999997E+02  0.45594000000E+02  0.51100000000E-03 0. -1.
    9900012    2    1    2    0    0 -0.20537316352E+02  0.58586390132E+01 -0.34598565057E+02  0.50528859354E+02  0.29999998492E+02 0.  0.
        -12    1    1    2    0    0  0.20537316352E+02 -0.58586390132E+01  0.34598565057E+02  0.40659140646E+02  0.00000000000E+00 0.  1.
         11    1    3    3    0    0 -0.27987554398E+01 -0.66785928309E+01 -0.97263890639E+01  0.12125975371E+02  0.51100000000E-03 0. -1.
        -11    1    3    3    0    0 -0.16088183766E+01 -0.29711293990E+01 -0.12260696528E+02  0.12717727238E+02  0.51100000000E-03 0.  1.
         12    1    3    3    0    0 -0.16129742536E+02  0.15508361243E+02 -0.12611479465E+02  0.25685156745E+02  0.00000000000E+00 0. -1.
</event>
<event>
 7    1  0.3129575E-011  0.5052886E+02  0.7816164E-02  0.1300439E+00
        -11   -1    0    0    0    0  0.00000000000E+00  0.00000000000E+00  0.45593999997E+02  0.45594000000E+02  0.51100000000E-03 0. -1.
         11   -1    0    0    0    0 -0.00000000000E+00 -0.00000000000E+00 -0.45593999997E+02  0.45594000000E+02  0.51100000000E-03 0.  1.
    9900012    2    1    2    0    0 -0.48505048264E+01 -0.19712732645E+02  0.35228489407E+02  0.50528859684E+02  0.29999999494E+02 0.  0.
        -12    1    1    2    0    0  0.48505048264E+01  0.19712732645E+02 -0.35228489407E+02  0.40659140316E+02  0.00000000000E+00 0.  1.
         11    1    3    3    0    0  0.46869717750E+00 -0.18885057797E+02  0.27966998886E+02  0.33749342394E+02  0.51100000000E-03 0. -1.
        -11    1    3    3    0    0 -0.85061067166E-01 -0.63315248499E+01  0.66143529137E+01  0.91566973871E+01  0.51100000000E-03 0.  1.
        -12    1    3    3    0    0 -0.52341409367E+01  0.55038500019E+01  0.64713760659E+00  0.76228199028E+01  0.00000000000E+00 0.  1.
</event>
<event>
 7    1  0.3129575E-011  0.5052887E+02  0.7816164E-02  0.1300439E+00
        -11   -1    0    0    0    0  0.00000000000E+00  0.00000000000E+00  0.45593999997E+02  0.45594000000E+02  0.51100000000E-03 0.  1.
         11   -1    0    0    0    0 -0.00000000000E+00 -0.00000000000E+00 -0.45593999997E+02  0.45594000000E+02  0.51100000000E-03 0. -1.
    9900012    2    1    2    0    0 -0.79595857729E+01 -0.20302328823E+02 -0.34316548002E+02  0.50528867839E+02  0.30000024284E+02 0.  0.
        -12    1    1    2    0    0  0.79595857729E+01  0.20302328823E+02  0.34316548002E+02  0.40659132161E+02  0.00000000000E+00 0.  1.
         11    1    3    3    0    0  0.78803683945E+00 -0.93967776278E+01 -0.42601717973E+01  0.10347439096E+02  0.51100000000E-03 0. -1.
        -11    1    3    3    0    0 -0.13875557652E+02 -0.14665581170E+02 -0.21162905021E+02  0.29248571254E+02  0.51100000000E-03 0.  1.
         12    1    3    3    0    0  0.51279350400E+01  0.37600299745E+01 -0.88934711833E+01  0.10932857489E+02  0.00000000000E+00 0. -1.
</event>
<event>
 7    1  0.3129575E-011  0.5052886E+02  0.7816164E-02  0.1300439E+00
        -11   -1    0    0    0    0  0.00000000000E+00  0.00000000000E+00  0.45593999997E+02  0.45594000000E+02  0.51100000000E-03 0.  1.
         11   -1    0    0    0    0 -0.00000000000E+00 -0.00000000000E+00 -0.45593999997E+02  0.45594000000E+02  0.51100000000E-03 0. -1.
    9900012    2    1    2    0    0 -0.14646654296E+02  0.73999022989E+01 -0.37200573209E+02  0.50528859783E+02  0.29999999796E+02 0.  0.
        -12    1    1    2    0    0  0.14646654296E+02 -0.73999022989E+01  0.37200573209E+02  0.40659140217E+02  0.00000000000E+00 0.  1.
         11    1    3    3    0    0  0.37285945144E+00  0.71578022409E+00 -0.11475194949E+02  0.11503541406E+02  0.51100000000E-03 0. -1.
        -11    1    3    3    0    0 -0.13214720141E+01  0.12578075176E+02 -0.52464729205E+01  0.13692324192E+02  0.51100000000E-03 0.  1.
         12    1    3    3    0    0 -0.13698041733E+02 -0.58939531007E+01 -0.20478905340E+02  0.25332994186E+02  0.00000000000E+00 0. -1.
</event>
<event>
 7    1  0.3129575E-011  0.5052884E+02  0.7816164E-02  0.1300439E+00
        -11   -1    0    0    0    0  0.00000000000E+00  0.00000000000E+00  0.45593999997E+02  0.45594000000E+02  0.51100000000E-03 0.  1.
         11   -1    0    0    0    0 -0.00000000000E+00 -0.00000000000E+00 -0.45593999997E+02  0.45594000000E+02  0.51100000000E-03 0. -1.
    9900012    2    1    2    0    0 -0.20211420358E+02 -0.35062655231E+02 -0.39084423626E+01  0.50528840805E+02  0.29999942110E+02 0.  0.
        -12    1    1    2    0    0  0.20211420358E+02  0.35062655231E+02  0.39084423626E+01  0.40659159195E+02  0.00000000000E+00 0.  1.
         11    1    3    3    0    0 -0.44731078625E+01 -0.26692104442E+01  0.17878212742E+01  0.55072391917E+01  0.51100000000E-03 0. -1.
        -11    1    3    3    0    0 -0.56710799553E+01 -0.12659103195E+02 -0.15495535665E+02  0.20797251438E+02  0.51100000000E-03 0.  1.
        -12    1    3    3    0    0 -0.10067232541E+02 -0.19734341592E+02  0.97992720286E+01  0.24224350175E+02  0.00000000000E+00 0.  1.
</event>
<event>
 7    1  0.3865434E-011  0.5052886E+02  0.7816164E-02  0.1300439E+00
        -11   -1    0    0    0    0  0.00000000000E+00  0.00000000000E+00  0.45593999997E+02  0.45594000000E+02  0.51100000000E-03 0. -1.
         11   -1    0    0    0    0 -0.00000000000E+00 -0.00000000000E+00 -0.45593999997E+02  0.45594000000E+02  0.51100000000E-03 0.  1.
    9900012    2    1    2    0    0 -0.34881813508E+02 -0.29923910910E+01  0.20675363276E+02  0.50528856322E+02  0.29999989277E+02 0.  0.
        -12    1    1    2    0    0  0.34881813508E+02  0.29923910910E+01 -0.20675363276E+02  0.40659143678E+02  0.00000000000E+00 0.  1.
         11    1    3    3    0    0 -0.58770667456E+00 -0.70454553047E+01  0.19529324635E+01  0.73346973389E+01  0.51100000000E-03 0. -1.
        -11    1    3    3    0    0 -0.55634022214E+01  0.28473976900E+01 -0.32126608133E+01  0.70271123261E+01  0.51100000000E-03 0.  1.
         12    1    3    3    0    0 -0.28730704612E+02  0.12056665238E+01  0.21935091626E+02  0.36167046657E+02  0.00000000000E+00 0. -1.
</event>
<event>
 7    1  0.3129575E-011  0.5052887E+02  0.7816164E-02  0.1300439E+00
        -11   -1    0    0    0    0  0.00000000000E+00  0.00000000000E+00  0.45593999997E+02  0.45594000000E+02  0.51100000000E-03 0. -1.
         11   -1    0    0    0    0 -0.00000000000E+00 -0.00000000000E+00 -0.45593999997E+02  0.45594000000E+02  0.51100000000E-03 0.  1.
    9900012    2    1    2    0    0  0.25069021577E+02 -0.31802617167E+02  0.36472720502E+01  0.50528869477E+02  0.30000029261E+02 0.  0.
        -12    1    1    2    0    0 -0.25069021577E+02  0.31802617167E+02 -0.36472720502E+01  0.40659130523E+02  0.00000000000E+00 0.  1.
         11    1    3    3    0    0  0.20853906524E+02 -0.20875491634E+02  0.69809135345E+01  0.30321687326E+02  0.51100000000E-03 0. -1.
        -11    1    3    3    0    0  0.19017724097E+01 -0.63464328057E+01  0.63949426217E+01  0.92081072459E+01  0.51100000000E-03 0.  1.
        -12    1    3    3    0    0  0.23133426438E+01 -0.45806927271E+01 -0.97285841060E+01  0.10999074904E+02  0.00000000000E+00 0.  1.
</event>
<event>
 7    1  0.3129575E-011  0.5052888E+02  0.7816164E-02  0.1300439E+00
        -11   -1    0    0    0    0  0.00000000000E+00  0.00000000000E+00  0.45593999997E+02  0.45594000000E+02  0.51100000000E-03 0.  1.
         11   -1    0    0    0    0 -0.00000000000E+00 -0.00000000000E+00 -0.45593999997E+02  0.45594000000E+02  0.51100000000E-03 0. -1.
    9900012    2    1    2    0    0  0.34907623333E+02 -0.12320252234E+02 -0.16817654400E+02  0.50528877021E+02  0.30000052193E+02 0.  0.
        -12    1    1    2    0    0 -0.34907623333E+02  0.12320252234E+02  0.16817654400E+02  0.40659122979E+02  0.00000000000E+00 0.  1.
         11    1    3    3    0    0  0.27117145034E+02 -0.12654669528E+01 -0.38413470553E+01  0.27417091546E+02  0.51100000000E-03 0. -1.
        -11    1    3    3    0    0  0.53875900540E+01 -0.79829492202E+01 -0.72128807136E-01  0.96311374026E+01  0.51100000000E-03 0.  1.
         12    1    3    3    0    0  0.24028882456E+01 -0.30718360615E+01 -0.12904178538E+02  0.13480648072E+02  0.00000000000E+00 0. -1.
</event>
<event>
 7    1  0.3129575E-011  0.5052886E+02  0.7816164E-02  0.1300439E+00
        -11   -1    0    0    0    0  0.00000000000E+00  0.00000000000E+00  0.45593999997E+02  0.45594000000E+02  0.51100000000E-03 0.  1.
         11   -1    0    0    0    0 -0.00000000000E+00 -0.00000000000E+00 -0.45593999997E+02  0.45594000000E+02  0.51100000000E-03 0. -1.
    9900012    2    1    2    0    0  0.22983046310E+02  0.32925343029E+02  0.63927505669E+01  0.50528857227E+02  0.29999992027E+02 0.  0.
        -12    1    1    2    0    0 -0.22983046310E+02 -0.32925343029E+02 -0.63927505669E+01  0.40659142773E+02  0.00000000000E+00 0.  1.
         11    1    3    3    0    0 -0.13638683840E+01  0.18364882209E+02  0.10851559247E+02  0.21374877167E+02  0.51100000000E-03 0.  1.
        -11    1    3    3    0    0  0.84484118802E+01  0.70183881483E+01 -0.35145090630E+01  0.11531921337E+02  0.51100000000E-03 0. -1.
        -12    1    3    3    0    0  0.15898502813E+02  0.75420726714E+01 -0.94429961743E+00  0.17622058724E+02  0.00000000000E+00 0.  1.
</event>
<event>
 7    1  0.3129575E-011  0.5052889E+02  0.7816164E-02  0.1300439E+00
        -11   -1    0    0    0    0  0.00000000000E+00  0.00000000000E+00  0.45593999997E+02  0.45594000000E+02  0.51100000000E-03 0.  1.
         11   -1    0    0    0    0 -0.00000000000E+00 -0.00000000000E+00 -0.45593999997E+02  0.45594000000E+02  0.51100000000E-03 0. -1.
    9900012    2    1    2    0    0 -0.45924813658E+01 -0.74580395008E+01 -0.39704536593E+02  0.50528887069E+02  0.30000082734E+02 0.  0.
        -12    1    1    2    0    0  0.45924813658E+01  0.74580395008E+01  0.39704536593E+02  0.40659112931E+02  0.00000000000E+00 0.  1.
         11    1    3    3    0    0  0.41724476818E+01 -0.67250968604E+01 -0.10948057325E+02  0.13509115696E+02  0.51100000000E-03 0. -1.
        -11    1    3    3    0    0  0.34254416217E+01  0.26026558042E+01 -0.22518336733E+02  0.22925596111E+02  0.51100000000E-03 0.  1.
         12    1    3    3    0    0 -0.12190370669E+02 -0.33355984445E+01 -0.62381425351E+01  0.14094175262E+02  0.00000000000E+00 0. -1.
</event>
<event>
 7    1  0.3129575E-011  0.5052883E+02  0.7816164E-02  0.1300439E+00
        -11   -1    0    0    0    0  0.00000000000E+00  0.00000000000E+00  0.45593999997E+02  0.45594000000E+02  0.51100000000E-03 0. -1.
         11   -1    0    0    0    0 -0.00000000000E+00 -0.00000000000E+00 -0.45593999997E+02  0.45594000000E+02  0.51100000000E-03 0.  1.
    9900012    2    1    2    0    0 -0.25996118434E+02 -0.31242252238E+02 -0.11366359181E+01  0.50528825885E+02  0.29999896760E+02 0.  0.
        -12    1    1    2    0    0  0.25996118434E+02  0.31242252238E+02  0.11366359181E+01  0.40659174115E+02  0.00000000000E+00 0.  1.
         11    1    3    3    0    0 -0.27019066202E+01 -0.53469328313E+01 -0.82446107418E+01  0.10191349108E+02  0.51100000000E-03 0. -1.
        -11    1    3    3    0    0 -0.82469029356E+01  0.13607174464E+01  0.32396882918E+01  0.89642925258E+01  0.51100000000E-03 0.  1.
         12    1    3    3    0    0 -0.15047308878E+02 -0.27256036853E+02  0.38682865320E+01  0.31373184252E+02  0.00000000000E+00 0. -1.
</event>
<event>
 7    1  0.3129575E-011  0.5052886E+02  0.7816164E-02  0.1300439E+00
        -11   -1    0    0    0    0  0.00000000000E+00  0.00000000000E+00  0.45593999997E+02  0.45594000000E+02  0.51100000000E-03 0.  1.
         11   -1    0    0    0    0 -0.00000000000E+00 -0.00000000000E+00 -0.45593999997E+02  0.45594000000E+02  0.51100000000E-03 0. -1.
    9900012    2    1    2    0    0 -0.37797233572E+02 -0.44686360129E+00 -0.14977811782E+02  0.50528863283E+02  0.30000010434E+02 0.  0.
        -12    1    1    2    0    0  0.37797233572E+02  0.44686360129E+00  0.14977811782E+02  0.40659136717E+02  0.00000000000E+00 0.  1.
         11    1    3    3    0    0 -0.23750292630E+02 -0.17074773632E+01 -0.38543564983E+00  0.23814710577E+02  0.51100000000E-03 0. -1.
        -11    1    3    3    0    0 -0.20587000234E+01 -0.15868330522E+01  0.37830178884E+01  0.45899356778E+01  0.51100000000E-03 0.  1.
        -12    1    3    3    0    0 -0.11988240919E+02  0.28474468141E+01 -0.18375394021E+02  0.22124217028E+02  0.00000000000E+00 0.  1.
</event>
<event>
 7    1  0.3129575E-011  0.5052886E+02  0.7816164E-02  0.1300439E+00
        -11   -1    0    0    0    0  0.00000000000E+00  0.00000000000E+00  0.45593999997E+02  0.45594000000E+02  0.51100000000E-03 0.  1.
         11   -1    0    0    0    0 -0.00000000000E+00 -0.00000000000E+00 -0.45593999997E+02  0.45594000000E+02  0.51100000000E-03 0. -1.
    9900012    2    1    2    0    0 -0.29175811466E+02 -0.92412138170E+01 -0.26768215189E+02  0.50528863857E+02  0.30000012179E+02 0.  0.
        -12    1    1    2    0    0  0.29175811466E+02  0.92412138170E+01  0.26768215189E+02  0.40659136143E+02  0.00000000000E+00 0.  1.
         11    1    3    3    0    0 -0.12755850715E+02  0.86869813484E+00 -0.26258279934E+01  0.13052254090E+02  0.51100000000E-03 0. -1.
        -11    1    3    3    0    0 -0.64337442953E+01 -0.81479523822E+01  0.92414400929E+00  0.10422870818E+02  0.51100000000E-03 0.  1.
         12    1    3    3    0    0 -0.99862164559E+01 -0.19619595696E+01 -0.25066531205E+02  0.27053738949E+02  0.00000000000E+00 0. -1.
</event>
<event>
 7    1  0.3129575E-011  0.5052890E+02  0.7816164E-02  0.1300439E+00
        -11   -1    0    0    0    0  0.00000000000E+00  0.00000000000E+00  0.45593999997E+02  0.45594000000E+02  0.51100000000E-03 0.  1.
         11   -1    0    0    0    0 -0.00000000000E+00 -0.00000000000E+00 -0.45593999997E+02  0.45594000000E+02  0.51100000000E-03 0. -1.
    9900012    2    1    2    0    0  0.50470207121E+01 -0.31238576998E+02 -0.25531181580E+02  0.50528900848E+02  0.30000124618E+02 0.  0.
        -12    1    1    2    0    0 -0.50470207121E+01  0.31238576998E+02  0.25531181580E+02  0.40659099152E+02  0.00000000000E+00 0.  1.
         11    1    3    3    0    0  0.36022402525E+01  0.12898229191E+01 -0.78702229474E+01  0.87510106561E+01  0.51100000000E-03 0. -1.
        -11    1    3    3    0    0 -0.90752251006E-01 -0.13056492015E+02 -0.18006864676E+02  0.22242468286E+02  0.51100000000E-03 0.  1.
        -12    1    3    3    0    0  0.15355327106E+01 -0.19471907902E+02  0.34590604346E+00  0.19535421906E+02  0.00000000000E+00 0.  1.
</event>
<event>
 7    1  0.3129575E-011  0.5052888E+02  0.7816164E-02  0.1300439E+00
        -11   -1    0    0    0    0  0.00000000000E+00  0.00000000000E+00  0.45593999997E+02  0.45594000000E+02  0.51100000000E-03 0.  1.
         11   -1    0    0    0    0 -0.00000000000E+00 -0.00000000000E+00 -0.45593999997E+02  0.45594000000E+02  0.51100000000E-03 0. -1.
    9900012    2    1    2    0    0 -0.45404344520E+01  0.60918287267E+01 -0.39942934168E+02  0.50528881561E+02  0.30000065993E+02 0.  0.
        -12    1    1    2    0    0  0.45404344520E+01 -0.60918287267E+01  0.39942934168E+02  0.40659118439E+02  0.00000000000E+00 0.  1.
         11    1    3    3    0    0 -0.14369583317E+01 -0.89758595136E+01 -0.22397712041E+02  0.24172058419E+02  0.51100000000E-03 0. -1.
        -11    1    3    3    0    0  0.29572506150E+01  0.12912415243E+01  0.18088508618E-01  0.32269123523E+01  0.51100000000E-03 0.  1.
         12    1    3    3    0    0 -0.60607267353E+01  0.13776446716E+02 -0.17563310636E+02  0.23129910790E+02  0.00000000000E+00 0. -1.
</event>
<event>
 7    1  0.4775117E-011  0.5052886E+02  0.7816164E-02  0.1300439E+00
        -11   -1    0    0    0    0  0.00000000000E+00  0.00000000000E+00  0.45593999997E+02  0.45594000000E+02  0.51100000000E-03 0.  1.
         11   -1    0    0    0    0 -0.00000000000E+00 -0.00000000000E+00 -0.45593999997E+02  0.45594000000E+02  0.51100000000E-03 0. -1.
    9900012    2    1    2    0    0 -0.10516649225E+02  0.38911369888E+02 -0.53358369409E+01  0.50528858674E+02  0.29999996426E+02 0.  0.
        -12    1    1    2    0    0  0.10516649225E+02 -0.38911369888E+02  0.53358369409E+01  0.40659141326E+02  0.00000000000E+00 0.  1.
         11    1    3    3    0    0 -0.13761093551E+02  0.22161320610E+02 -0.21422092418E+01  0.26174049889E+02  0.51100000000E-03 0. -1.
        -11    1    3    3    0    0 -0.27532940589E+01 -0.18311091591E+01  0.23515234730E+01  0.40574932942E+01  0.51100000000E-03 0.  1.
         12    1    3    3    0    0  0.59977383854E+01  0.18581158437E+02 -0.55451511721E+01  0.20297315491E+02  0.00000000000E+00 0. -1.
</event>
<event>
 7    1  0.3129575E-011  0.5052885E+02  0.7816164E-02  0.1300439E+00
        -11   -1    0    0    0    0  0.00000000000E+00  0.00000000000E+00  0.45593999997E+02  0.45594000000E+02  0.51100000000E-03 0.  1.
         11   -1    0    0    0    0 -0.00000000000E+00 -0.00000000000E+00 -0.45593999997E+02  0.45594000000E+02  0.51100000000E-03 0. -1.
    9900012    2    1    2    0    0 -0.32519510981E+02 -0.13167644313E+02 -0.20548990697E+02  0.50528850109E+02  0.29999970392E+02 0.  0.
        -12    1    1    2    0    0  0.32519510981E+02  0.13167644313E+02  0.20548990697E+02  0.40659149891E+02  0.00000000000E+00 0.  1.
         11    1    3    3    0    0 -0.21317675039E+02 -0.10866814665E+02 -0.39888115431E+01  0.24257814160E+02  0.51100000000E-03 0. -1.
        -11    1    3    3    0    0  0.21952838492E+01 -0.19604692295E+01  0.18673767284E+01  0.34856573104E+01  0.51100000000E-03 0.  1.
         12    1    3    3    0    0 -0.13397119790E+02 -0.34036041899E+00 -0.18427555883E+02  0.22785378639E+02  0.00000000000E+00 0. -1.
</event>
<event>
 7    1  0.3129575E-011  0.5052888E+02  0.7816164E-02  0.1300439E+00
        -11   -1    0    0    0    0  0.00000000000E+00  0.00000000000E+00  0.45593999997E+02  0.45594000000E+02  0.51100000000E-03 0. -1.
         11   -1    0    0    0    0 -0.00000000000E+00 -0.00000000000E+00 -0.45593999997E+02  0.45594000000E+02  0.51100000000E-03 0.  1.
    9900012    2    1    2    0    0 -0.15596001747E+02  0.89703435631E+01  0.36461787289E+02  0.50528877205E+02  0.30000052753E+02 0.  0.
        -12    1    1    2    0    0  0.15596001747E+02 -0.89703435631E+01 -0.36461787289E+02  0.40659122795E+02  0.00000000000E+00 0.  1.
         11    1    3    3    0    0  0.42638575071E+01  0.46075143585E+01  0.27709457395E+01  0.68620558113E+01  0.51100000000E-03 0. -1.
        -11    1    3    3    0    0 -0.13567670649E+01  0.74601544364E+01  0.40729223017E+01  0.86071724405E+01  0.51100000000E-03 0.  1.
        -12    1    3    3    0    0 -0.18503092189E+02 -0.30973252318E+01  0.29617919248E+02  0.35059648953E+02  0.00000000000E+00 0.  1.
</event>
<event>
 7    1  0.3129575E-011  0.5052885E+02  0.7816164E-02  0.1300439E+00
        -11   -1    0    0    0    0  0.00000000000E+00  0.00000000000E+00  0.45593999997E+02  0.45594000000E+02  0.51100000000E-03 0.  1.
         11   -1    0    0    0    0 -0.00000000000E+00 -0.00000000000E+00 -0.45593999997E+02  0.45594000000E+02  0.51100000000E-03 0. -1.
    9900012    2    1    2    0    0 -0.39128016580E+02 -0.98817159039E+01 -0.49514223212E+01  0.50528848832E+02  0.29999966510E+02 0.  0.
        -12    1    1    2    0    0  0.39128016580E+02  0.98817159039E+01  0.49514223212E+01  0.40659151168E+02  0.00000000000E+00 0.  1.
         11    1    3    3    0    0 -0.19029415840E+02  0.16115405479E+01 -0.17001267033E+01  0.19173058213E+02  0.51100000000E-03 0. -1.
        -11    1    3    3    0    0 -0.24067050298E+02 -0.11029730182E+02 -0.45314817727E+00  0.26477975781E+02  0.51100000000E-03 0.  1.
        -12    1    3    3    0    0  0.39684495582E+01 -0.46352626970E+00 -0.27981474407E+01  0.48778148384E+01  0.00000000000E+00 0.  1.
</event>
<event>
 7    1  0.3129575E-011  0.5052886E+02  0.7816164E-02  0.1300439E+00
        -11   -1    0    0    0    0  0.00000000000E+00  0.00000000000E+00  0.45593999997E+02  0.45594000000E+02  0.51100000000E-03 0. -1.
         11   -1    0    0    0    0 -0.00000000000E+00 -0.00000000000E+00 -0.45593999997E+02  0.45594000000E+02  0.51100000000E-03 0.  1.
    9900012    2    1    2    0    0  0.37124492682E+02 -0.15714103724E+02 -0.52919614214E+01  0.50528857505E+02  0.29999992873E+02 0.  0.
        -12    1    1    2    0    0 -0.37124492682E+02  0.15714103724E+02  0.52919614214E+01  0.40659142495E+02  0.00000000000E+00 0.  1.
         11    1    3    3    0    0  0.12517357525E+02 -0.70134283052E+01 -0.33085044687E+01  0.14724762072E+02  0.51100000000E-03 0. -1.
        -11    1    3    3    0    0  0.24115488398E+02 -0.56337071601E+01  0.74591226246E+01  0.25863757415E+02  0.51100000000E-03 0.  1.
        -12    1    3    3    0    0  0.49164675891E+00 -0.30669682592E+01 -0.94425795773E+01  0.99403380180E+01  0.00000000000E+00 0.  1.
</event>
<event>
 7    1  0.3129575E-011  0.5052886E+02  0.7816164E-02  0.1300439E+00
        -11   -1    0    0    0    0  0.00000000000E+00  0.00000000000E+00  0.45593999997E+02  0.45594000000E+02  0.51100000000E-03 0.  1.
         11   -1    0    0    0    0 -0.00000000000E+00 -0.00000000000E+00 -0.45593999997E+02  0.45594000000E+02  0.51100000000E-03 0. -1.
    9900012    2    1    2    0    0  0.63825520173E+01  0.33853560767E+02  0.21595489774E+02  0.50528859264E+02  0.29999998219E+02 0.  0.
        -12    1    1    2    0    0 -0.63825520173E+01 -0.33853560767E+02 -0.21595489774E+02  0.40659140736E+02  0.00000000000E+00 0.  1.
         11    1    3    3    0    0 -0.19688013383E+00  0.66974777716E+01 -0.50520181055E+01  0.83915348708E+01  0.51100000000E-03 0. -1.
        -11    1    3    3    0    0  0.74129239170E+01  0.13513569751E+02  0.44039309282E+01  0.16030053534E+02  0.51100000000E-03 0.  1.
        -12    1    3    3    0    0 -0.83349176588E+00  0.13642513243E+02  0.22243576951E+02  0.26107270859E+02  0.00000000000E+00 0.  1.
</event>
<event>
 7    1  0.3129575E-011  0.5052886E+02  0.7816164E-02  0.1300439E+00
        -11   -1    0    0    0    0  0.00000000000E+00  0.00000000000E+00  0.45593999997E+02  0.45594000000E+02  0.51100000000E-03 0.  1.
         11   -1    0    0    0    0 -0.00000000000E+00 -0.00000000000E+00 -0.45593999997E+02  0.45594000000E+02  0.51100000000E-03 0. -1.
    9900012    2    1    2    0    0  0.71041993349E+01 -0.12305757640E+02 -0.38095465732E+02  0.50528857995E+02  0.29999994361E+02 0.  0.
        -12    1    1    2    0    0 -0.71041993349E+01  0.12305757640E+02  0.38095465732E+02  0.40659142005E+02  0.00000000000E+00 0.  1.
         11    1    3    3    0    0 -0.22369720227E+01 -0.50028252842E+01 -0.81379549629E+01  0.98111475320E+01  0.51100000000E-03 0. -1.
        -11    1    3    3    0    0 -0.43897737682E+01  0.59000447677E+01 -0.35745184048E+01  0.81766633833E+01  0.51100000000E-03 0.  1.
        -12    1    3    3    0    0  0.13730945126E+02 -0.13202977124E+02 -0.26382992364E+02  0.32541047080E+02  0.00000000000E+00 0.  1.
</event>
<event>
 7    1  0.3129575E-011  0.5052882E+02  0.7816164E-02  0.1300439E+00
        -11   -1    0    0    0    0  0.00000000000E+00  0.00000000000E+00  0.45593999997E+02  0.45594000000E+02  0.51100000000E-03 0.  1.
         11   -1    0    0    0    0 -0.00000000000E+00 -0.00000000000E+00 -0.45593999997E+02  0.45594000000E+02  0.51100000000E-03 0. -1.
    9900012    2    1    2    0    0 -0.10700751943E+02  0.16255261990E+00 -0.39225453900E+02  0.50528822080E+02  0.29999885194E+02 0.  0.
        -12    1    1    2    0    0  0.10700751943E+02 -0.16255261990E+00  0.39225453900E+02  0.40659177920E+02  0.00000000000E+00 0.  1.
         11    1    3    3    0    0 -0.17509646301E+01 -0.35184916118E+01 -0.26592524738E+02  0.26881369619E+02  0.51100000000E-03 0. -1.
        -11    1    3    3    0    0 -0.53858414552E+01 -0.69383233715E+01 -0.52786945609E+01  0.10247547800E+02  0.51100000000E-03 0.  1.
        -12    1    3    3    0    0 -0.35639458580E+01  0.10619367603E+02 -0.73542346006E+01  0.13399904661E+02  0.00000000000E+00 0.  1.
</event>
<event>
 7    1  0.3129575E-011  0.5052886E+02  0.7816164E-02  0.1300439E+00
        -11   -1    0    0    0    0  0.00000000000E+00  0.00000000000E+00  0.45593999997E+02  0.45594000000E+02  0.51100000000E-03 0. -1.
         11   -1    0    0    0    0 -0.00000000000E+00 -0.00000000000E+00 -0.45593999997E+02  0.45594000000E+02  0.51100000000E-03 0.  1.
    9900012    2    1    2    0    0  0.29866671637E-01  0.21234305395E+02  0.34673751344E+02  0.50528860193E+02  0.30000001042E+02 0.  0.
        -12    1    1    2    0    0 -0.29866671637E-01 -0.21234305395E+02 -0.34673751344E+02  0.40659139807E+02  0.00000000000E+00 0.  1.
         11    1    3    3    0    0 -0.15375473333E+01  0.22059984716E+02  0.25846105858E+02  0.34015116724E+02  0.51100000000E-03 0. -1.
        -11    1    3    3    0    0  0.70071691613E+01  0.26085696858E+01  0.40738492883E+01  0.85147697412E+01  0.51100000000E-03 0.  1.
        -12    1    3    3    0    0 -0.54397551564E+01 -0.34342490071E+01  0.47537961972E+01  0.79989737272E+01  0.00000000000E+00 0.  1.
</event>
<event>
 7    1  0.3129575E-011  0.5052886E+02  0.7816164E-02  0.1300439E+00
        -11   -1    0    0    0    0  0.00000000000E+00  0.00000000000E+00  0.45593999997E+02  0.45594000000E+02  0.51100000000E-03 0.  1.
         11   -1    0    0    0    0 -0.00000000000E+00 -0.00000000000E+00 -0.45593999997E+02  0.45594000000E+02  0.51100000000E-03 0. -1.
    9900012    2    1    2    0    0  0.38955211210E+02 -0.44826797024E+01  0.10749994160E+02  0.50528864837E+02  0.30000015159E+02 0.  0.
        -12    1    1    2    0    0 -0.38955211210E+02  0.44826797024E+01 -0.10749994160E+02  0.40659135163E+02  0.00000000000E+00 0.  1.
         11    1    3    3    0    0  0.11119787130E+02 -0.17778230359E+01 -0.39937884510E+01  0.11948249538E+02  0.51100000000E-03 0.  1.
        -11    1    3    3    0    0  0.22776732944E+02  0.60004434688E+01  0.40619095870E+01  0.23901547967E+02  0.51100000000E-03 0. -1.
        -12    1    3    3    0    0  0.50586911357E+01 -0.87053001352E+01  0.10681873024E+02  0.14679067333E+02  0.00000000000E+00 0.  1.
</event>
<event>
 7    1  0.3129575E-011  0.5052886E+02  0.7816164E-02  0.1300439E+00
        -11   -1    0    0    0    0  0.00000000000E+00  0.00000000000E+00  0.45593999997E+02  0.45594000000E+02  0.51100000000E-03 0.  1.
         11   -1    0    0    0    0 -0.00000000000E+00 -0.00000000000E+00 -0.45593999997E+02  0.45594000000E+02  0.51100000000E-03 0. -1.
    9900012    2    1    2    0    0 -0.22541822533E+02 -0.33825171621E+02  0.94325115250E+00  0.50528859317E+02  0.29999998381E+02 0.  0.
        -12    1    1    2    0    0  0.22541822533E+02  0.33825171621E+02 -0.94325115250E+00  0.40659140683E+02  0.00000000000E+00 0.  1.
         11    1    3    3    0    0 -0.19609285773E+02 -0.30473535690E+02 -0.45704231003E+01  0.36524638719E+02  0.51100000000E-03 0. -1.
        -11    1    3    3    0    0  0.13131623980E+01 -0.15649794615E+01 -0.34023701657E+01  0.39685865499E+01  0.51100000000E-03 0.  1.
        -12    1    3    3    0    0 -0.42456991578E+01 -0.17866564695E+01  0.89160444185E+01  0.10035634048E+02  0.00000000000E+00 0.  1.
</event>
<event>
 7    1  0.3129575E-011  0.5052885E+02  0.7816164E-02  0.1300439E+00
        -11   -1    0    0    0    0  0.00000000000E+00  0.00000000000E+00  0.45593999997E+02  0.45594000000E+02  0.51100000000E-03 0.  1.
         11   -1    0    0    0    0 -0.00000000000E+00 -0.00000000000E+00 -0.45593999997E+02  0.45594000000E+02  0.51100000000E-03 0. -1.
    9900012    2    1    2    0    0  0.37284328904E+02  0.16641658632E+01 -0.16133056913E+02  0.50528853979E+02  0.29999982153E+02 0.  0.
        -12    1    1    2    0    0 -0.37284328904E+02 -0.16641658632E+01  0.16133056913E+02  0.40659146021E+02  0.00000000000E+00 0.  1.
         11    1    3    3    0    0  0.12544232903E+01  0.14638381797E+01 -0.55065535189E+01  0.58342550446E+01  0.51100000000E-03 0. -1.
        -11    1    3    3    0    0  0.27528911631E+02 -0.12728644962E+01 -0.18355099405E+02  0.33111490967E+02  0.51100000000E-03 0.  1.
        -12    1    3    3    0    0  0.85009939819E+01  0.14731921797E+01  0.77285960105E+01  0.11583107967E+02  0.00000000000E+00 0.  1.
</event>
<event>
 7    1  0.3129575E-011  0.5052885E+02  0.7816164E-02  0.1300439E+00
        -11   -1    0    0    0    0  0.00000000000E+00  0.00000000000E+00  0.45593999997E+02  0.45594000000E+02  0.51100000000E-03 0. -1.
         11   -1    0    0    0    0 -0.00000000000E+00 -0.00000000000E+00 -0.45593999997E+02  0.45594000000E+02  0.51100000000E-03 0.  1.
    9900012    2    1    2    0    0  0.66690621882E+01  0.38768616738E+02  0.10280301696E+02  0.50528848051E+02  0.29999964135E+02 0.  0.
        -12    1    1    2    0    0 -0.66690621882E+01 -0.38768616738E+02 -0.10280301696E+02  0.40659151949E+02  0.00000000000E+00 0.  1.
         11    1    3    3    0    0  0.18109449397E+01  0.10164750245E+02 -0.17007286672E+01  0.10463945116E+02  0.51100000000E-03 0. -1.
        -11    1    3    3    0    0  0.94188201074E+01  0.15665107688E+01  0.77989500927E+01  0.12328493461E+02  0.51100000000E-03 0.  1.
         12    1    3    3    0    0 -0.45607028589E+01  0.27037355724E+02  0.41820802703E+01  0.27736409474E+02  0.00000000000E+00 0. -1.
</event>
<event>
 7    1  0.3129575E-011  0.5052886E+02  0.7816164E-02  0.1300439E+00
        -11   -1    0    0    0    0  0.00000000000E+00  0.00000000000E+00  0.45593999997E+02  0.45594000000E+02  0.51100000000E-03 0.  1.
         11   -1    0    0    0    0 -0.00000000000E+00 -0.00000000000E+00 -0.45593999997E+02  0.45594000000E+02  0.51100000000E-03 0. -1.
    9900012    2    1    2    0    0  0.20391573304E+02 -0.23067222723E+02 -0.26556586427E+02  0.50528864389E+02  0.30000013797E+02 0.  0.
        -12    1    1    2    0    0 -0.20391573304E+02  0.23067222723E+02  0.26556586427E+02  0.40659135611E+02  0.00000000000E+00 0.  1.
         11    1    3    3    0    0 -0.67060756777E+01 -0.52054103014E+01 -0.90955375812E+01  0.12441726229E+02  0.51100000000E-03 0.  1.
        -11    1    3    3    0    0  0.67083759944E+01 -0.21620795835E+01 -0.80191413394E+01  0.10676306697E+02  0.51100000000E-03 0. -1.
        -12    1    3    3    0    0  0.20389272988E+02 -0.15699732838E+02 -0.94419075066E+01  0.27410831463E+02  0.00000000000E+00 0.  1.
</event>
<event>
 7    1  0.3941428E-011  0.5052886E+02  0.7816164E-02  0.1300439E+00
        -11   -1    0    0    0    0  0.00000000000E+00  0.00000000000E+00  0.45593999997E+02  0.45594000000E+02  0.51100000000E-03 0.  1.
         11   -1    0    0    0    0 -0.00000000000E+00 -0.00000000000E+00 -0.45593999997E+02  0.45594000000E+02  0.51100000000E-03 0. -1.
    9900012    2    1    2    0    0  0.20947776060E+02 -0.28225618706E+02 -0.20436998202E+02  0.50528858731E+02  0.29999996600E+02 0.  0.
        -12    1    1    2    0    0 -0.20947776060E+02  0.28225618706E+02  0.20436998202E+02  0.40659141269E+02  0.00000000000E+00 0.  1.
         11    1    3    3    0    0  0.58807354401E+01  0.28063646683E+00  0.17228621502E+01  0.61343345518E+01  0.51100000000E-03 0. -1.
        -11    1    3    3    0    0 -0.43272157746E+01 -0.14573834948E+01 -0.30281909347E+00  0.45760750295E+01  0.51100000000E-03 0.  1.
         12    1    3    3    0    0  0.19394256394E+02 -0.27048871678E+02 -0.21857041259E+02  0.39818449150E+02  0.00000000000E+00 0. -1.
</event>
<event>
 7    1  0.3129575E-011  0.5052885E+02  0.7816164E-02  0.1300439E+00
        -11   -1    0    0    0    0  0.00000000000E+00  0.00000000000E+00  0.45593999997E+02  0.45594000000E+02  0.51100000000E-03 0.  1.
         11   -1    0    0    0    0 -0.00000000000E+00 -0.00000000000E+00 -0.45593999997E+02  0.45594000000E+02  0.51100000000E-03 0. -1.
    9900012    2    1    2    0    0 -0.36958791980E+02 -0.98832598241E+01 -0.13767173403E+02  0.50528853515E+02  0.29999980744E+02 0.  0.
        -12    1    1    2    0    0  0.36958791980E+02  0.98832598241E+01  0.13767173403E+02  0.40659146485E+02  0.00000000000E+00 0.  1.
         11    1    3    3    0    0 -0.28814880029E+01 -0.33348051300E+01  0.39775311547E+01  0.59367207037E+01  0.51100000000E-03 0. -1.
        -11    1    3    3    0    0 -0.97854935576E+00 -0.11127911708E+01  0.42371631532E+01  0.44888099625E+01  0.51100000000E-03 0.  1.
         12    1    3    3    0    0 -0.33098754622E+02 -0.54356635233E+01 -0.21981867711E+02  0.40103322849E+02  0.00000000000E+00 0. -1.
</event>
<event>
 7    1  0.3129575E-011  0.5052886E+02  0.7816164E-02  0.1300439E+00
        -11   -1    0    0    0    0  0.00000000000E+00  0.00000000000E+00  0.45593999997E+02  0.45594000000E+02  0.51100000000E-03 0.  1.
         11   -1    0    0    0    0 -0.00000000000E+00 -0.00000000000E+00 -0.45593999997E+02  0.45594000000E+02  0.51100000000E-03 0. -1.
    9900012    2    1    2    0    0 -0.70279558243E+01  0.28552752233E+02 -0.28080490416E+02  0.50528858776E+02  0.29999996734E+02 0.  0.
        -12    1    1    2    0    0  0.70279558243E+01 -0.28552752233E+02  0.28080490416E+02  0.40659141224E+02  0.00000000000E+00 0.  1.
         11    1    3    3    0    0 -0.43740786904E+01  0.95200013522E+01 -0.10556157428E+02  0.14872640991E+02  0.51100000000E-03 0. -1.
        -11    1    3    3    0    0 -0.70382573445E+01  0.18528721034E+02 -0.24765066399E+01  0.19974575214E+02  0.51100000000E-03 0.  1.
        -12    1    3    3    0    0  0.43843802106E+01  0.50402984676E+00 -0.15047826348E+02  0.15681642571E+02  0.00000000000E+00 0.  1.
</event>
<event>
 7    1  0.3129575E-011  0.5052885E+02  0.7816164E-02  0.1300439E+00
        -11   -1    0    0    0    0  0.00000000000E+00  0.00000000000E+00  0.45593999997E+02  0.45594000000E+02  0.51100000000E-03 0. -1.
         11   -1    0    0    0    0 -0.00000000000E+00 -0.00000000000E+00 -0.45593999997E+02  0.45594000000E+02  0.51100000000E-03 0.  1.
    9900012    2    1    2    0    0 -0.32044439559E+01 -0.19836698074E+02  0.35346898742E+02  0.50528852171E+02  0.29999976658E+02 0.  0.
        -12    1    1    2    0    0  0.32044439559E+01  0.19836698074E+02 -0.35346898742E+02  0.40659147829E+02  0.00000000000E+00 0.  1.
         11    1    3    3    0    0  0.10201191880E+01 -0.15889232766E+01 -0.42183537845E+00  0.19347520989E+01  0.51100000000E-03 0. -1.
        -11    1    3    3    0    0  0.80071593057E+01  0.26981550355E+01  0.11615200644E+02  0.14363409309E+02  0.51100000000E-03 0.  1.
         12    1    3    3    0    0 -0.12231722450E+02 -0.20945929833E+02  0.24153533476E+02  0.34230690762E+02  0.00000000000E+00 0. -1.
</event>
<event>
 7    1  0.3129575E-011  0.5052885E+02  0.7816164E-02  0.1300439E+00
        -11   -1    0    0    0    0  0.00000000000E+00  0.00000000000E+00  0.45593999997E+02  0.45594000000E+02  0.51100000000E-03 0.  1.
         11   -1    0    0    0    0 -0.00000000000E+00 -0.00000000000E+00 -0.45593999997E+02  0.45594000000E+02  0.51100000000E-03 0. -1.
    9900012    2    1    2    0    0  0.25149799517E+02 -0.59261632204E+01 -0.31393224333E+02  0.50528851457E+02  0.29999974487E+02 0.  0.
        -12    1    1    2    0    0 -0.25149799517E+02  0.59261632204E+01  0.31393224333E+02  0.40659148543E+02  0.00000000000E+00 0.  1.
         11    1    3    3    0    0  0.38853309940E+01 -0.26867200329E+00 -0.72051036485E+01  0.81903296896E+01  0.51100000000E-03 0. -1.
        -11    1    3    3    0    0  0.39244928241E-01  0.47082632108E+01  0.35564362136E+01  0.59006373748E+01  0.51100000000E-03 0.  1.
        -12    1    3    3    0    0  0.21225223595E+02 -0.10365754428E+02 -0.27744556898E+02  0.36437884392E+02  0.00000000000E+00 0.  1.
</event>
<event>
 7    1  0.3129575E-011  0.5052886E+02  0.7816164E-02  0.1300439E+00
        -11   -1    0    0    0    0  0.00000000000E+00  0.00000000000E+00  0.45593999997E+02  0.45594000000E+02  0.51100000000E-03 0. -1.
         11   -1    0    0    0    0 -0.00000000000E+00 -0.00000000000E+00 -0.45593999997E+02  0.45594000000E+02  0.51100000000E-03 0.  1.
    9900012    2    1    2    0    0 -0.13333181185E+02  0.37550509143E+02  0.80839914631E+01  0.50528863568E+02  0.30000011301E+02 0.  0.
        -12    1    1    2    0    0  0.13333181185E+02 -0.37550509143E+02 -0.80839914631E+01  0.40659136432E+02  0.00000000000E+00 0.  1.
         11    1    3    3    0    0 -0.56166418310E+01  0.13018000994E+01 -0.39262244173E+01  0.69754273986E+01  0.51100000000E-03 0. -1.
        -11    1    3    3    0    0  0.27644045822E+01  0.12646946772E+02  0.12113156302E+02  0.17728952344E+02  0.51100000000E-03 0.  1.
         12    1    3    3    0    0 -0.10480943936E+02  0.23601762271E+02 -0.10294042164E+00  0.25824483825E+02  0.00000000000E+00 0. -1.
</event>
<event>
 7    1  0.3129575E-011  0.5052885E+02  0.7816164E-02  0.1300439E+00
        -11   -1    0    0    0    0  0.00000000000E+00  0.00000000000E+00  0.45593999997E+02  0.45594000000E+02  0.51100000000E-03 0.  1.
         11   -1    0    0    0    0 -0.00000000000E+00 -0.00000000000E+00 -0.45593999997E+02  0.45594000000E+02  0.51100000000E-03 0. -1.
    9900012    2    1    2    0    0  0.10729205957E+02  0.16146311094E+02 -0.35739999401E+02  0.50528846300E+02  0.29999958813E+02 0.  0.
        -12    1    1    2    0    0 -0.10729205957E+02 -0.16146311094E+02  0.35739999401E+02  0.40659153700E+02  0.00000000000E+00 0.  1.
         11    1    3    3    0    0 -0.19023680509E+01 -0.48160434540E+01 -0.48214449334E+01  0.70752816381E+01  0.51100000000E-03 0. -1.
        -11    1    3    3    0    0 -0.30308026866E+01  0.62960894244E+01 -0.16804391909E+01  0.71868200966E+01  0.51100000000E-03 0.  1.
         12    1    3    3    0    0  0.15662376695E+02  0.14666265124E+02 -0.29238115277E+02  0.36266744565E+02  0.00000000000E+00 0. -1.
</event>
<event>
 7    1  0.3814457E-011  0.5052886E+02  0.7816164E-02  0.1300439E+00
        -11   -1    0    0    0    0  0.00000000000E+00  0.00000000000E+00  0.45593999997E+02  0.45594000000E+02  0.51100000000E-03 0. -1.
         11   -1    0    0    0    0 -0.00000000000E+00 -0.00000000000E+00 -0.45593999997E+02  0.45594000000E+02  0.51100000000E-03 0.  1.
    9900012    2    1    2    0    0  0.14535514969E+02 -0.36961616849E+02  0.87019107637E+01  0.50528861219E+02  0.30000004161E+02 0.  0.
        -12    1    1    2    0    0 -0.14535514969E+02  0.36961616849E+02 -0.87019107637E+01  0.40659138781E+02  0.00000000000E+00 0.  1.
         11    1    3    3    0    0  0.80082618615E+01 -0.10523662431E+02 -0.53569364814E+01  0.14268023610E+02  0.51100000000E-03 0. -1.
        -11    1    3    3    0    0 -0.59650286947E+01 -0.32995468019E+01  0.96151686644E+00  0.68842640400E+01  0.51100000000E-03 0.  1.
         12    1    3    3    0    0  0.12492281802E+02 -0.23138407616E+02  0.13097330379E+02  0.29376573569E+02  0.00000000000E+00 0. -1.
</event>
<event>
 7    1  0.3129575E-011  0.5052886E+02  0.7816164E-02  0.1300439E+00
        -11   -1    0    0    0    0  0.00000000000E+00  0.00000000000E+00  0.45593999997E+02  0.45594000000E+02  0.51100000000E-03 0.  1.
         11   -1    0    0    0    0 -0.00000000000E+00 -0.00000000000E+00 -0.45593999997E+02  0.45594000000E+02  0.51100000000E-03 0. -1.
    9900012    2    1    2    0    0 -0.37339236179E+02 -0.28320855947E+01 -0.15840666510E+02  0.50528856100E+02  0.29999988601E+02 0.  0.
        -12    1    1    2    0    0  0.37339236179E+02  0.28320855947E+01  0.15840666510E+02  0.40659143900E+02  0.00000000000E+00 0.  1.
         11    1    3    3    0    0 -0.17397247101E+02  0.50965094316E+01 -0.13389940452E+02  0.22537282903E+02  0.51100000000E-03 0. -1.
        -11    1    3    3    0    0 -0.46681773041E+01  0.13765902370E+01  0.63967856260E+01  0.80377700035E+01  0.51100000000E-03 0.  1.
         12    1    3    3    0    0 -0.15273811774E+02 -0.93051852633E+01 -0.88475116841E+01  0.19953803193E+02  0.00000000000E+00 0. -1.
</event>
<event>
 7    1  0.3129575E-011  0.5052886E+02  0.7816164E-02  0.1300439E+00
        -11   -1    0    0    0    0  0.00000000000E+00  0.00000000000E+00  0.45593999997E+02  0.45594000000E+02  0.51100000000E-03 0.  1.
         11   -1    0    0    0    0 -0.00000000000E+00 -0.00000000000E+00 -0.45593999997E+02  0.45594000000E+02  0.51100000000E-03 0. -1.
    9900012    2    1    2    0    0  0.25662058566E+02  0.27056791787E+01 -0.31421393409E+02  0.50528856951E+02  0.29999991189E+02 0.  0.
        -12    1    1    2    0    0 -0.25662058566E+02 -0.27056791787E+01  0.31421393409E+02  0.40659143049E+02  0.00000000000E+00 0.  1.
         11    1    3    3    0    0 -0.23267496761E+01  0.14531238347E+01 -0.14967967439E+02  0.15217272504E+02  0.51100000000E-03 0. -1.
        -11    1    3    3    0    0  0.15509307492E+00  0.29971626987E+01 -0.33517639229E+01  0.44990398710E+01  0.51100000000E-03 0.  1.
         12    1    3    3    0    0  0.27833715168E+02 -0.17446073547E+01 -0.13101662047E+02  0.30812544576E+02  0.00000000000E+00 0. -1.
</event>
<event>
 7    1  0.3129575E-011  0.5052885E+02  0.7816164E-02  0.1300439E+00
        -11   -1    0    0    0    0  0.00000000000E+00  0.00000000000E+00  0.45593999997E+02  0.45594000000E+02  0.51100000000E-03 0. -1.
         11   -1    0    0    0    0 -0.00000000000E+00 -0.00000000000E+00 -0.45593999997E+02  0.45594000000E+02  0.51100000000E-03 0.  1.
    9900012    2    1    2    0    0  0.12293318082E+02 -0.21936265783E+02  0.31950599146E+02  0.50528853283E+02  0.29999980039E+02 0.  0.
        -12    1    1    2    0    0 -0.12293318082E+02  0.21936265783E+02 -0.31950599146E+02  0.40659146717E+02  0.00000000000E+00 0.  1.
         11    1    3    3    0    0 -0.13113414626E+01  0.27390120815E+00  0.67893715726E+01  0.69202749161E+01  0.51100000000E-03 0. -1.
        -11    1    3    3    0    0  0.51011652932E-01  0.15531811421E+01  0.13961838941E+02  0.14048057543E+02  0.51100000000E-03 0.  1.
         12    1    3    3    0    0  0.13553647891E+02 -0.23763348133E+02  0.11199388633E+02  0.29560520824E+02  0.00000000000E+00 0. -1.
</event>
<event>
 7    1  0.3129575E-011  0.5052886E+02  0.7816164E-02  0.1300439E+00
        -11   -1    0    0    0    0  0.00000000000E+00  0.00000000000E+00  0.45593999997E+02  0.45594000000E+02  0.51100000000E-03 0. -1.
         11   -1    0    0    0    0 -0.00000000000E+00 -0.00000000000E+00 -0.45593999997E+02  0.45594000000E+02  0.51100000000E-03 0.  1.
    9900012    2    1    2    0    0 -0.24289529424E+02 -0.17757217598E+01  0.32558127117E+02  0.50528855042E+02  0.29999985384E+02 0.  0.
        -12    1    1    2    0    0  0.24289529424E+02  0.17757217598E+01 -0.32558127117E+02  0.40659144958E+02  0.00000000000E+00 0.  1.
         11    1    3    3    0    0 -0.21128416277E+01 -0.27668493775E+01  0.17514077799E+02  0.17856720769E+02  0.51100000000E-03 0. -1.
        -11    1    3    3    0    0 -0.23829631349E+02 -0.36011512680E+01  0.12975092272E+02  0.27371018257E+02  0.51100000000E-03 0.  1.
         12    1    3    3    0    0  0.16529435526E+01  0.45922788858E+01  0.20689570458E+01  0.53011160155E+01  0.00000000000E+00 0. -1.
</event>
<event>
 7    1  0.3129575E-011  0.5052886E+02  0.7816164E-02  0.1300439E+00
        -11   -1    0    0    0    0  0.00000000000E+00  0.00000000000E+00  0.45593999997E+02  0.45594000000E+02  0.51100000000E-03 0.  1.
         11   -1    0    0    0    0 -0.00000000000E+00 -0.00000000000E+00 -0.45593999997E+02  0.45594000000E+02  0.51100000000E-03 0. -1.
    9900012    2    1    2    0    0 -0.13984312499E+02  0.99346600989E+01 -0.36863356062E+02  0.50528862190E+02  0.30000007112E+02 0.  0.
        -12    1    1    2    0    0  0.13984312499E+02 -0.99346600989E+01  0.36863356062E+02  0.40659137810E+02  0.00000000000E+00 0.  1.
         11    1    3    3    0    0 -0.18519627841E+02  0.54529362357E+01 -0.20753983400E+02  0.28344998786E+02  0.51100000000E-03 0. -1.
        -11    1    3    3    0    0 -0.23271307528E+01  0.20810844632E+01  0.12505219462E+01  0.33630723279E+01  0.51100000000E-03 0.  1.
        -12    1    3    3    0    0  0.68624460943E+01  0.24006394000E+01 -0.17359894608E+02  0.18820791076E+02  0.00000000000E+00 0.  1.
</event>
<event>
 7    1  0.3129575E-011  0.5052884E+02  0.7816164E-02  0.1300439E+00
        -11   -1    0    0    0    0  0.00000000000E+00  0.00000000000E+00  0.45593999997E+02  0.45594000000E+02  0.51100000000E-03 0. -1.
         11   -1    0    0    0    0 -0.00000000000E+00 -0.00000000000E+00 -0.45593999997E+02  0.45594000000E+02  0.51100000000E-03 0.  1.
    9900012    2    1    2    0    0 -0.30353773668E-01 -0.23745947224E+02  0.33004495074E+02  0.50528835892E+02  0.29999927176E+02 0.  0.
        -12    1    1    2    0    0  0.30353773668E-01  0.23745947224E+02 -0.33004495074E+02  0.40659164108E+02  0.00000000000E+00 0.  1.
         11    1    3    3    0    0 -0.62763684960E+01 -0.19320400963E+01  0.18569854900E+02  0.19696829484E+02  0.51100000000E-03 0. -1.
        -11    1    3    3    0    0  0.29428052202E+01  0.16702492118E+01  0.80178899968E+00  0.34774560895E+01  0.51100000000E-03 0.  1.
         12    1    3    3    0    0  0.33032095022E+01 -0.23484156340E+02  0.13632851174E+02  0.27354550319E+02  0.00000000000E+00 0. -1.
</event>
<event>
 7    1  0.3129575E-011  0.5052888E+02  0.7816164E-02  0.1300439E+00
        -11   -1    0    0    0    0  0.00000000000E+00  0.00000000000E+00  0.45593999997E+02  0.45594000000E+02  0.51100000000E-03 0. -1.
         11   -1    0    0    0    0 -0.00000000000E+00 -0.00000000000E+00 -0.45593999997E+02  0.45594000000E+02  0.51100000000E-03 0.  1.
    9900012    2    1    2    0    0  0.27406328458E+02  0.18529834981E+02  0.23636889629E+02  0.50528878326E+02  0.30000056159E+02 0.  0.
        -12    1    1    2    0    0 -0.27406328458E+02 -0.18529834981E+02 -0.23636889629E+02  0.40659121674E+02  0.00000000000E+00 0.  1.
         11    1    3    3    0    0  0.23978150862E+02  0.69723309995E+01  0.22948827021E+02  0.33914801787E+02  0.51100000000E-03 0. -1.
        -11    1    3    3    0    0  0.25001218872E+00  0.38223607942E+00 -0.40434576087E+01  0.40691719316E+01  0.51100000000E-03 0.  1.
        -12    1    3    3    0    0  0.31781654075E+01  0.11175267902E+02  0.47315202167E+01  0.12544904607E+02  0.00000000000E+00 0.  1.
</event>
<event>
 7    1  0.3129575E-011  0.5052886E+02  0.7816164E-02  0.1300439E+00
        -11   -1    0    0    0    0  0.00000000000E+00  0.00000000000E+00  0.45593999997E+02  0.45594000000E+02  0.51100000000E-03 0. -1.
         11   -1    0    0    0    0 -0.00000000000E+00 -0.00000000000E+00 -0.45593999997E+02  0.45594000000E+02  0.51100000000E-03 0.  1.
    9900012    2    1    2    0    0 -0.26726006488E+01 -0.31986608747E+02  0.24957559976E+02  0.50528859167E+02  0.29999997923E+02 0.  0.
        -12    1    1    2    0    0  0.26726006488E+01  0.31986608747E+02 -0.24957559976E+02  0.40659140833E+02  0.00000000000E+00 0.  1.
         11    1    3    3    0    0 -0.56860298315E+01 -0.33811940425E+02  0.15572584114E+02  0.37657451146E+02  0.51100000000E-03 0. -1.
        -11    1    3    3    0    0  0.11820284345E+01  0.67379614143E-01 -0.13758891738E+01  0.18151590872E+01  0.51100000000E-03 0.  1.
        -12    1    3    3    0    0  0.18314007483E+01  0.17579520641E+01  0.10760865036E+02  0.11056248934E+02  0.00000000000E+00 0.  1.
</event>
<event>
 7    1  0.3129575E-011  0.5052885E+02  0.7816164E-02  0.1300439E+00
        -11   -1    0    0    0    0  0.00000000000E+00  0.00000000000E+00  0.45593999997E+02  0.45594000000E+02  0.51100000000E-03 0.  1.
         11   -1    0    0    0    0 -0.00000000000E+00 -0.00000000000E+00 -0.45593999997E+02  0.45594000000E+02  0.51100000000E-03 0. -1.
    9900012    2    1    2    0    0 -0.39235053745E+02 -0.10502703381E+02  0.18628363683E+01  0.50528851214E+02  0.29999973749E+02 0.  0.
        -12    1    1    2    0    0  0.39235053745E+02  0.10502703381E+02 -0.18628363683E+01  0.40659148786E+02  0.00000000000E+00 0.  1.
         11    1    3    3    0    0 -0.14290324097E+02  0.11958051623E+01 -0.40812336496E+01  0.14909721028E+02  0.51100000000E-03 0. -1.
        -11    1    3    3    0    0 -0.91817459056E+01 -0.11499718628E+02 -0.59482280960E+01  0.15872284150E+02  0.51100000000E-03 0.  1.
        -12    1    3    3    0    0 -0.15762983743E+02 -0.19878991550E+00  0.11892298114E+02  0.19746846035E+02  0.00000000000E+00 0.  1.
</event>
<event>
 7    1  0.3129575E-011  0.5052883E+02  0.7816164E-02  0.1300439E+00
        -11   -1    0    0    0    0  0.00000000000E+00  0.00000000000E+00  0.45593999997E+02  0.45594000000E+02  0.51100000000E-03 0.  1.
         11   -1    0    0    0    0 -0.00000000000E+00 -0.00000000000E+00 -0.45593999997E+02  0.45594000000E+02  0.51100000000E-03 0. -1.
    9900012    2    1    2    0    0  0.32370610959E+02  0.59411795290E+01 -0.23874971199E+02  0.50528827384E+02  0.29999901317E+02 0.  0.
        -12    1    1    2    0    0 -0.32370610959E+02 -0.59411795290E+01  0.23874971199E+02  0.40659172616E+02  0.00000000000E+00 0.  1.
         11    1    3    3    0    0  0.10415782939E+02  0.91300017576E+00 -0.91874876696E+01  0.13918765517E+02  0.51100000000E-03 0. -1.
        -11    1    3    3    0    0  0.26895967971E+02  0.53511103325E+01 -0.85519588895E+01  0.28725658843E+02  0.51100000000E-03 0.  1.
         12    1    3    3    0    0 -0.49411399518E+01 -0.32293097927E+00 -0.61355246401E+01  0.78844030244E+01  0.00000000000E+00 0. -1.
</event>
<event>
 7    1  0.3129575E-011  0.5052886E+02  0.7816164E-02  0.1300439E+00
        -11   -1    0    0    0    0  0.00000000000E+00  0.00000000000E+00  0.45593999997E+02  0.45594000000E+02  0.51100000000E-03 0. -1.
         11   -1    0    0    0    0 -0.00000000000E+00 -0.00000000000E+00 -0.45593999997E+02  0.45594000000E+02  0.51100000000E-03 0.  1.
    9900012    2    1    2    0    0  0.29004489815E+02 -0.12497379036E+02 -0.25607038173E+02  0.50528864296E+02  0.30000013514E+02 0.  0.
        -12    1    1    2    0    0 -0.29004489815E+02  0.12497379036E+02  0.25607038173E+02  0.40659135704E+02  0.00000000000E+00 0.  1.
         11    1    3    3    0    0  0.13233607752E+02 -0.94985705368E+01 -0.20689811084E+02  0.26332859688E+02  0.51100000000E-03 0. -1.
        -11    1    3    3    0    0  0.17576130463E+01 -0.84670635478E+01 -0.19087772365E+01  0.88557212887E+01  0.51100000000E-03 0.  1.
         12    1    3    3    0    0  0.14013269017E+02  0.54682550487E+01 -0.30084498524E+01  0.15340283320E+02  0.00000000000E+00 0. -1.
</event>
<event>
 7    1  0.3129575E-011  0.5052886E+02  0.7816164E-02  0.1300439E+00
        -11   -1    0    0    0    0  0.00000000000E+00  0.00000000000E+00  0.45593999997E+02  0.45594000000E+02  0.51100000000E-03 0.  1.
         11   -1    0    0    0    0 -0.00000000000E+00 -0.00000000000E+00 -0.45593999997E+02  0.45594000000E+02  0.51100000000E-03 0. -1.
    9900012    2    1    2    0    0 -0.14948339031E+02 -0.34634292435E+02 -0.15171641496E+02  0.50528858864E+02  0.29999997003E+02 0.  0.
        -12    1    1    2    0    0  0.14948339031E+02  0.34634292435E+02  0.15171641496E+02  0.40659141136E+02  0.00000000000E+00 0.  1.
         11    1    3    3    0    0 -0.12218897780E+02 -0.16472817502E+02  0.41633999986E+01  0.20928188627E+02  0.51100000000E-03 0. -1.
        -11    1    3    3    0    0  0.81390883848E+00 -0.11137232390E+01  0.17674356981E+01  0.22420205749E+01  0.51100000000E-03 0.  1.
         12    1    3    3    0    0 -0.35433500891E+01 -0.17047751694E+02 -0.21102477192E+02  0.27358649662E+02  0.00000000000E+00 0. -1.
</event>
<event>
 7    1  0.3129575E-011  0.5052886E+02  0.7816164E-02  0.1300439E+00
        -11   -1    0    0    0    0  0.00000000000E+00  0.00000000000E+00  0.45593999997E+02  0.45594000000E+02  0.51100000000E-03 0.  1.
         11   -1    0    0    0    0 -0.00000000000E+00 -0.00000000000E+00 -0.45593999997E+02  0.45594000000E+02  0.51100000000E-03 0. -1.
    9900012    2    1    2    0    0 -0.84363234171E+01  0.35537253156E+02 -0.17863306798E+02  0.50528860260E+02  0.30000001245E+02 0.  0.
        -12    1    1    2    0    0  0.84363234171E+01 -0.35537253156E+02  0.17863306798E+02  0.40659139740E+02  0.00000000000E+00 0.  1.
         11    1    3    3    0    0 -0.10132940416E+02  0.28108895615E+02 -0.19053286745E+02  0.35437469298E+02  0.51100000000E-03 0. -1.
        -11    1    3    3    0    0 -0.14471493914E+00  0.80553927427E+01 -0.43949138008E+01  0.91774485687E+01  0.51100000000E-03 0.  1.
        -12    1    3    3    0    0  0.18413319378E+01 -0.62703520207E+00  0.55848937483E+01  0.59139423931E+01  0.00000000000E+00 0.  1.
</event>
<event>
 7    1  0.3129575E-011  0.5052886E+02  0.7816164E-02  0.1300439E+00
        -11   -1    0    0    0    0  0.00000000000E+00  0.00000000000E+00  0.45593999997E+02  0.45594000000E+02  0.51100000000E-03 0.  1.
         11   -1    0    0    0    0 -0.00000000000E+00 -0.00000000000E+00 -0.45593999997E+02  0.45594000000E+02  0.51100000000E-03 0. -1.
    9900012    2    1    2    0    0  0.59868207069E+01 -0.36381923050E+02  0.17137072233E+02  0.50528860908E+02  0.30000003216E+02 0.  0.
        -12    1    1    2    0    0 -0.59868207069E+01  0.36381923050E+02 -0.17137072233E+02  0.40659139092E+02  0.00000000000E+00 0.  1.
         11    1    3    3    0    0  0.94403373227E+01 -0.11455805408E+02  0.86310512744E+01  0.17171211159E+02  0.51100000000E-03 0. -1.
        -11    1    3    3    0    0 -0.16859813046E+01 -0.43627189833E+01  0.11581749145E+02  0.12490506932E+02  0.51100000000E-03 0.  1.
         12    1    3    3    0    0 -0.17675353112E+01 -0.20563398659E+02 -0.30757281869E+01  0.20867142817E+02  0.00000000000E+00 0. -1.
</event>
<event>
 7    1  0.3129575E-011  0.5052886E+02  0.7816164E-02  0.1300439E+00
        -11   -1    0    0    0    0  0.00000000000E+00  0.00000000000E+00  0.45593999997E+02  0.45594000000E+02  0.51100000000E-03 0.  1.
         11   -1    0    0    0    0 -0.00000000000E+00 -0.00000000000E+00 -0.45593999997E+02  0.45594000000E+02  0.51100000000E-03 0. -1.
    9900012    2    1    2    0    0  0.20188043100E+02  0.16106930927E+02 -0.31403435425E+02  0.50528855093E+02  0.29999985540E+02 0.  0.
        -12    1    1    2    0    0 -0.20188043100E+02 -0.16106930927E+02  0.31403435425E+02  0.40659144907E+02  0.00000000000E+00 0.  1.
         11    1    3    3    0    0  0.76940679449E+01  0.80683467280E+00 -0.17634501319E+01  0.79346972443E+01  0.51100000000E-03 0. -1.
        -11    1    3    3    0    0  0.18575985355E+02  0.15228407913E+02 -0.20305732240E+02  0.31453050751E+02  0.51100000000E-03 0.  1.
         12    1    3    3    0    0 -0.60820102004E+01  0.71688341375E-01 -0.93342530528E+01  0.11141107097E+02  0.00000000000E+00 0. -1.
</event>
<event>
 7    1  0.3129575E-011  0.5052885E+02  0.7816164E-02  0.1300439E+00
        -11   -1    0    0    0    0  0.00000000000E+00  0.00000000000E+00  0.45593999997E+02  0.45594000000E+02  0.51100000000E-03 0. -1.
         11   -1    0    0    0    0 -0.00000000000E+00 -0.00000000000E+00 -0.45593999997E+02  0.45594000000E+02  0.51100000000E-03 0.  1.
    9900012    2    1    2    0    0 -0.17305763306E+02  0.84157186809E+01  0.35816937662E+02  0.50528846197E+02  0.29999958499E+02 0.  0.
        -12    1    1    2    0    0  0.17305763306E+02 -0.84157186809E+01 -0.35816937662E+02  0.40659153803E+02  0.00000000000E+00 0.  1.
         11    1    3    3    0    0 -0.13938440060E+02  0.68611455591E+01  0.12452257654E+02  0.19910151950E+02  0.51100000000E-03 0. -1.
        -11    1    3    3    0    0 -0.17972306975E+01  0.54068867933E+00 -0.33493628501E+01  0.38393507512E+01  0.51100000000E-03 0.  1.
        -12    1    3    3    0    0 -0.15700925481E+01  0.10138844424E+01  0.26714042858E+02  0.26779343496E+02  0.00000000000E+00 0.  1.
</event>
<event>
 7    1  0.3129575E-011  0.5052886E+02  0.7816164E-02  0.1300439E+00
        -11   -1    0    0    0    0  0.00000000000E+00  0.00000000000E+00  0.45593999997E+02  0.45594000000E+02  0.51100000000E-03 0.  1.
         11   -1    0    0    0    0 -0.00000000000E+00 -0.00000000000E+00 -0.45593999997E+02  0.45594000000E+02  0.51100000000E-03 0. -1.
    9900012    2    1    2    0    0  0.12218144099E+02  0.13042558919E+02 -0.36520869349E+02  0.50528864662E+02  0.30000014627E+02 0.  0.
        -12    1    1    2    0    0 -0.12218144099E+02 -0.13042558919E+02  0.36520869349E+02  0.40659135338E+02  0.00000000000E+00 0.  1.
         11    1    3    3    0    0  0.88500164200E+01  0.62417165493E+01 -0.78574672418E+01  0.13379895659E+02  0.51100000000E-03 0.  1.
        -11    1    3    3    0    0  0.79906454262E+01  0.59969471504E+01 -0.30512014663E+02  0.32106024801E+02  0.51100000000E-03 0. -1.
        -12    1    3    3    0    0 -0.46225177475E+01  0.80389521970E+00  0.18486125555E+01  0.50429442026E+01  0.00000000000E+00 0.  1.
</event>
<event>
 7    1  0.3129575E-011  0.5052895E+02  0.7816164E-02  0.1300438E+00
        -11   -1    0    0    0    0  0.00000000000E+00  0.00000000000E+00  0.45593999997E+02  0.45594000000E+02  0.51100000000E-03 0.  1.
         11   -1    0    0    0    0 -0.00000000000E+00 -0.00000000000E+00 -0.45593999997E+02  0.45594000000E+02  0.51100000000E-03 0. -1.
    9900012    2    1    2    0    0 -0.19128665099E+02 -0.12446429643E+02 -0.33650242129E+02  0.50528951380E+02  0.30000278214E+02 0.  0.
        -12    1    1    2    0    0  0.19128665099E+02  0.12446429643E+02  0.33650242129E+02  0.40659048620E+02  0.00000000000E+00 0.  1.
         11    1    3    3    0    0 -0.82668622644E+01 -0.17137267261E+02 -0.22004285979E+02  0.29089784162E+02  0.51100000000E-03 0. -1.
        -11    1    3    3    0    0 -0.31321455175E+01 -0.37878833624E+01  0.23757236969E+00  0.49208573239E+01  0.51100000000E-03 0.  1.
        -12    1    3    3    0    0 -0.77296573170E+01  0.84787209803E+01 -0.11883528519E+02  0.16518309894E+02  0.00000000000E+00 0.  1.
</event>
<event>
 7    1  0.3129575E-011  0.5052892E+02  0.7816164E-02  0.1300439E+00
        -11   -1    0    0    0    0  0.00000000000E+00  0.00000000000E+00  0.45593999997E+02  0.45594000000E+02  0.51100000000E-03 0.  1.
         11   -1    0    0    0    0 -0.00000000000E+00 -0.00000000000E+00 -0.45593999997E+02  0.45594000000E+02  0.51100000000E-03 0. -1.
    9900012    2    1    2    0    0  0.28640565577E+02  0.17980824291E+01 -0.28803572564E+02  0.50528918733E+02  0.30000178980E+02 0.  0.
        -12    1    1    2    0    0 -0.28640565577E+02 -0.17980824291E+01  0.28803572564E+02  0.40659081267E+02  0.00000000000E+00 0.  1.
         11    1    3    3    0    0  0.10948421738E+02 -0.57504686138E+01 -0.41585980531E+01  0.13047212954E+02  0.51100000000E-03 0. -1.
        -11    1    3    3    0    0 -0.10574523634E+01  0.36401677948E+01  0.22921283562E+01  0.44297719735E+01  0.51100000000E-03 0.  1.
         12    1    3    3    0    0  0.18749596203E+02  0.39083832481E+01 -0.26937102868E+02  0.33051933805E+02  0.00000000000E+00 0. -1.
</event>
<event>
 7    1  0.3129575E-011  0.5052887E+02  0.7816164E-02  0.1300439E+00
        -11   -1    0    0    0    0  0.00000000000E+00  0.00000000000E+00  0.45593999997E+02  0.45594000000E+02  0.51100000000E-03 0. -1.
         11   -1    0    0    0    0 -0.00000000000E+00 -0.00000000000E+00 -0.45593999997E+02  0.45594000000E+02  0.51100000000E-03 0.  1.
    9900012    2    1    2    0    0 -0.36769286096E+02 -0.17261201115E+02 -0.17987170071E+01  0.50528870068E+02  0.30000031059E+02 0.  0.
        -12    1    1    2    0    0  0.36769286096E+02  0.17261201115E+02  0.17987170071E+01  0.40659129932E+02  0.00000000000E+00 0.  1.
         11    1    3    3    0    0 -0.63515718713E+01 -0.24034052320E+01  0.49604273719E+01  0.84097955932E+01  0.51100000000E-03 0. -1.
        -11    1    3    3    0    0 -0.43566066322E+01  0.65337184319E+01 -0.15076950689E+01  0.79964143576E+01  0.51100000000E-03 0.  1.
        -12    1    3    3    0    0 -0.26061107593E+02 -0.21391514315E+02 -0.52514493100E+01  0.34122660117E+02  0.00000000000E+00 0.  1.
</event>
<event>
 7    1  0.3129575E-011  0.5052891E+02  0.7816164E-02  0.1300439E+00
        -11   -1    0    0    0    0  0.00000000000E+00  0.00000000000E+00  0.45593999997E+02  0.45594000000E+02  0.51100000000E-03 0.  1.
         11   -1    0    0    0    0 -0.00000000000E+00 -0.00000000000E+00 -0.45593999997E+02  0.45594000000E+02  0.51100000000E-03 0. -1.
    9900012    2    1    2    0    0  0.31716055248E+02 -0.99554321773E+01 -0.23412447964E+02  0.50528911102E+02  0.30000155787E+02 0.  0.
        -12    1    1    2    0    0 -0.31716055248E+02  0.99554321773E+01  0.23412447964E+02  0.40659088898E+02  0.00000000000E+00 0.  1.
         11    1    3    3    0    0  0.15525833205E+02 -0.10167945527E+02 -0.18077113481E+02  0.25907926296E+02  0.51100000000E-03 0. -1.
        -11    1    3    3    0    0  0.80903084706E+00 -0.61101934820E+01  0.19507562237E+01  0.64648623655E+01  0.51100000000E-03 0.  1.
        -12    1    3    3    0    0  0.15381191196E+02  0.63227068313E+01 -0.72860907071E+01  0.18156122441E+02  0.00000000000E+00 0.  1.
</event>
<event>
 7    1  0.3129575E-011  0.5052886E+02  0.7816164E-02  0.1300439E+00
        -11   -1    0    0    0    0  0.00000000000E+00  0.00000000000E+00  0.45593999997E+02  0.45594000000E+02  0.51100000000E-03 0. -1.
         11   -1    0    0    0    0 -0.00000000000E+00 -0.00000000000E+00 -0.45593999997E+02  0.45594000000E+02  0.51100000000E-03 0.  1.
    9900012    2    1    2    0    0 -0.53208538363E-02 -0.38976775088E+02  0.11574832148E+02  0.50528858792E+02  0.29999996783E+02 0.  0.
        -12    1    1    2    0    0  0.53208538363E-02  0.38976775088E+02 -0.11574832148E+02  0.40659141208E+02  0.00000000000E+00 0.  1.
         11    1    3    3    0    0  0.94715647249E+00 -0.95968886245E+01  0.76569198872E+01  0.12313642803E+02  0.51100000000E-03 0. -1.
        -11    1    3    3    0    0  0.39133883072E+01 -0.31172386423E+02 -0.47261927474E+00  0.31420624637E+02  0.51100000000E-03 0.  1.
        -12    1    3    3    0    0 -0.48658656336E+01  0.17924999600E+01  0.43905315356E+01  0.67945913516E+01  0.00000000000E+00 0.  1.
</event>
<event>
 7    1  0.3129575E-011  0.5052885E+02  0.7816164E-02  0.1300439E+00
        -11   -1    0    0    0    0  0.00000000000E+00  0.00000000000E+00  0.45593999997E+02  0.45594000000E+02  0.51100000000E-03 0.  1.
         11   -1    0    0    0    0 -0.00000000000E+00 -0.00000000000E+00 -0.45593999997E+02  0.45594000000E+02  0.51100000000E-03 0. -1.
    9900012    2    1    2    0    0  0.21224226639E+02 -0.24138831455E+02 -0.24900107336E+02  0.50528851881E+02  0.29999975777E+02 0.  0.
        -12    1    1    2    0    0 -0.21224226639E+02  0.24138831455E+02  0.24900107336E+02  0.40659148119E+02  0.00000000000E+00 0.  1.
         11    1    3    3    0    0  0.55048473328E+00 -0.16620824342E+02 -0.20306331510E+01  0.16753456554E+02  0.51100000000E-03 0. -1.
        -11    1    3    3    0    0  0.13501646180E+02 -0.89203352920E+01 -0.10138258361E+02  0.19095840232E+02  0.51100000000E-03 0.  1.
        -12    1    3    3    0    0  0.71720957254E+01  0.14023281800E+01 -0.12731215824E+02  0.14679555095E+02  0.00000000000E+00 0.  1.
</event>
<event>
 7    1  0.3129575E-011  0.5052886E+02  0.7816164E-02  0.1300439E+00
        -11   -1    0    0    0    0  0.00000000000E+00  0.00000000000E+00  0.45593999997E+02  0.45594000000E+02  0.51100000000E-03 0.  1.
         11   -1    0    0    0    0 -0.00000000000E+00 -0.00000000000E+00 -0.45593999997E+02  0.45594000000E+02  0.51100000000E-03 0. -1.
    9900012    2    1    2    0    0 -0.33019589627E+02 -0.17716897267E+02 -0.15779229376E+02  0.50528858007E+02  0.29999994398E+02 0.  0.
        -12    1    1    2    0    0  0.33019589627E+02  0.17716897267E+02  0.15779229376E+02  0.40659141993E+02  0.00000000000E+00 0.  1.
         11    1    3    3    0    0 -0.99719472344E+01  0.37880829717E+01  0.67504469511E+00  0.10688544796E+02  0.51100000000E-03 0. -1.
        -11    1    3    3    0    0 -0.19191165020E+01  0.24801181102E+01  0.11608025531E+01  0.33438685407E+01  0.51100000000E-03 0.  1.
         12    1    3    3    0    0 -0.21128525891E+02 -0.23985098349E+02 -0.17615076625E+02  0.36496444671E+02  0.00000000000E+00 0. -1.
</event>
<event>
 7    1  0.3129575E-011  0.5052886E+02  0.7816164E-02  0.1300439E+00
        -11   -1    0    0    0    0  0.00000000000E+00  0.00000000000E+00  0.45593999997E+02  0.45594000000E+02  0.51100000000E-03 0. -1.
         11   -1    0    0    0    0 -0.00000000000E+00 -0.00000000000E+00 -0.45593999997E+02  0.45594000000E+02  0.51100000000E-03 0.  1.
    9900012    2    1    2    0    0  0.21548920937E+02  0.27244892553E+02  0.21131148214E+02  0.50528860946E+02  0.30000003330E+02 0.  0.
        -12    1    1    2    0    0 -0.21548920937E+02 -0.27244892553E+02 -0.21131148214E+02  0.40659139054E+02  0.00000000000E+00 0.  1.
         11    1    3    3    0    0  0.72564039916E+01  0.16857580041E+02  0.41941007209E+00  0.18357813290E+02  0.51100000000E-03 0.  1.
        -11    1    3    3    0    0 -0.22327245210E+01  0.56609242134E+01  0.10618924750E+02  0.12238982182E+02  0.51100000000E-03 0. -1.
        -12    1    3    3    0    0  0.16525241467E+02  0.47263882990E+01  0.10092813392E+02  0.19932065474E+02  0.00000000000E+00 0.  1.
</event>
<event>
 7    1  0.3129575E-011  0.5052886E+02  0.7816164E-02  0.1300439E+00
        -11   -1    0    0    0    0  0.00000000000E+00  0.00000000000E+00  0.45593999997E+02  0.45594000000E+02  0.51100000000E-03 0.  1.
         11   -1    0    0    0    0 -0.00000000000E+00 -0.00000000000E+00 -0.45593999997E+02  0.45594000000E+02  0.51100000000E-03 0. -1.
    9900012    2    1    2    0    0  0.10215595645E+02  0.29062112093E+02 -0.26536782131E+02  0.50528861304E+02  0.30000004418E+02 0.  0.
        -12    1    1    2    0    0 -0.10215595645E+02 -0.29062112093E+02  0.26536782131E+02  0.40659138696E+02  0.00000000000E+00 0.  1.
         11    1    3    3    0    0  0.10436312475E+02  0.14262140135E+02 -0.13355224296E+02  0.22151462154E+02  0.51100000000E-03 0. -1.
        -11    1    3    3    0    0  0.72960064741E+01  0.77334830883E+01  0.11768545343E+01  0.10696890109E+02  0.51100000000E-03 0.  1.
        -12    1    3    3    0    0 -0.75167233041E+01  0.70664888695E+01 -0.14358412369E+02  0.17680509041E+02  0.00000000000E+00 0.  1.
</event>
<event>
 7    1  0.3129575E-011  0.5052885E+02  0.7816164E-02  0.1300439E+00
        -11   -1    0    0    0    0  0.00000000000E+00  0.00000000000E+00  0.45593999997E+02  0.45594000000E+02  0.51100000000E-03 0. -1.
         11   -1    0    0    0    0 -0.00000000000E+00 -0.00000000000E+00 -0.45593999997E+02  0.45594000000E+02  0.51100000000E-03 0.  1.
    9900012    2    1    2    0    0  0.36123022327E+02  0.18196575963E+02  0.41447031779E+01  0.50528847485E+02  0.29999962414E+02 0.  0.
        -12    1    1    2    0    0 -0.36123022327E+02 -0.18196575963E+02 -0.41447031779E+01  0.40659152515E+02  0.00000000000E+00 0.  1.
         11    1    3    3    0    0  0.15688364709E+01 -0.31156925996E+01  0.23384199893E+01  0.41996424318E+01  0.51100000000E-03 0. -1.
        -11    1    3    3    0    0  0.76353310261E+01  0.16127985911E+02 -0.40482230045E+01  0.18297494888E+02  0.51100000000E-03 0.  1.
         12    1    3    3    0    0  0.26918854830E+02  0.51842826519E+01  0.58545061930E+01  0.28031710165E+02  0.00000000000E+00 0. -1.
</event>
<event>
 7    1  0.3129575E-011  0.5052886E+02  0.7816164E-02  0.1300439E+00
        -11   -1    0    0    0    0  0.00000000000E+00  0.00000000000E+00  0.45593999997E+02  0.45594000000E+02  0.51100000000E-03 0.  1.
         11   -1    0    0    0    0 -0.00000000000E+00 -0.00000000000E+00 -0.45593999997E+02  0.45594000000E+02  0.51100000000E-03 0. -1.
    9900012    2    1    2    0    0 -0.17912187976E+02 -0.30032145982E+02 -0.20745819154E+02  0.50528864707E+02  0.30000014764E+02 0.  0.
        -12    1    1    2    0    0  0.17912187976E+02  0.30032145982E+02  0.20745819154E+02  0.40659135293E+02  0.00000000000E+00 0.  1.
         11    1    3    3    0    0 -0.12480327898E+01  0.80563433945E+00 -0.54307168140E+01  0.56302147302E+01  0.51100000000E-03 0. -1.
        -11    1    3    3    0    0  0.35864328244E+01  0.93126975306E+00 -0.42383002437E+01  0.56296494539E+01  0.51100000000E-03 0.  1.
        -12    1    3    3    0    0 -0.20250588011E+02 -0.31769050075E+02 -0.11076802096E+02  0.39269000523E+02  0.00000000000E+00 0.  1.
</event>
<event>
 7    1  0.3129575E-011  0.5052886E+02  0.7816164E-02  0.1300439E+00
        -11   -1    0    0    0    0  0.00000000000E+00  0.00000000000E+00  0.45593999997E+02  0.45594000000E+02  0.51100000000E-03 0.  1.
         11   -1    0    0    0    0 -0.00000000000E+00 -0.00000000000E+00 -0.45593999997E+02  0.45594000000E+02  0.51100000000E-03 0. -1.
    9900012    2    1    2    0    0  0.31920372669E+02 -0.10228413586E+02 -0.23013802859E+02  0.50528858865E+02  0.29999997006E+02 0.  0.
        -12    1    1    2    0    0 -0.31920372669E+02  0.10228413586E+02  0.23013802859E+02  0.40659141135E+02  0.00000000000E+00 0.  1.
         11    1    3    3    0    0  0.28003691173E+01 -0.39863740966E+01  0.29323569642E+01  0.56861202290E+01  0.51100000000E-03 0.  1.
        -11    1    3    3    0    0  0.21711516748E+02 -0.13844388655E+02 -0.20490296796E+02  0.32907587571E+02  0.51100000000E-03 0. -1.
         12    1    3    3    0    0  0.74084868039E+01  0.76023491657E+01 -0.54558630272E+01  0.11935151064E+02  0.00000000000E+00 0. -1.
</event>
<event>
 7    1  0.3129575E-011  0.5052885E+02  0.7816164E-02  0.1300439E+00
        -11   -1    0    0    0    0  0.00000000000E+00  0.00000000000E+00  0.45593999997E+02  0.45594000000E+02  0.51100000000E-03 0.  1.
         11   -1    0    0    0    0 -0.00000000000E+00 -0.00000000000E+00 -0.45593999997E+02  0.45594000000E+02  0.51100000000E-03 0. -1.
    9900012    2    1    2    0    0  0.26266958128E+02  0.26904130050E+02 -0.15471959998E+02  0.50528845444E+02  0.29999956213E+02 0.  0.
        -12    1    1    2    0    0 -0.26266958128E+02 -0.26904130050E+02  0.15471959998E+02  0.40659154556E+02  0.00000000000E+00 0.  1.
         11    1    3    3    0    0  0.57573596718E+01  0.21603886865E+02 -0.12262560535E+02  0.25499911945E+02  0.51100000000E-03 0. -1.
        -11    1    3    3    0    0  0.43566608568E+01 -0.72303283893E+00 -0.61184808414E+01  0.75457987234E+01  0.51100000000E-03 0.  1.
        -12    1    3    3    0    0  0.16152937599E+02  0.60232760238E+01  0.29090813787E+01  0.17483134776E+02  0.00000000000E+00 0.  1.
</event>
<event>
 7    1  0.3129575E-011  0.5052874E+02  0.7816164E-02  0.1300439E+00
        -11   -1    0    0    0    0  0.00000000000E+00  0.00000000000E+00  0.45593999997E+02  0.45594000000E+02  0.51100000000E-03 0.  1.
         11   -1    0    0    0    0 -0.00000000000E+00 -0.00000000000E+00 -0.45593999997E+02  0.45594000000E+02  0.51100000000E-03 0. -1.
    9900012    2    1    2    0    0 -0.14276811643E+01  0.37910569820E+02 -0.14626205870E+02  0.50528739360E+02  0.29999633757E+02 0.  0.
        -12    1    1    2    0    0  0.14276811643E+01 -0.37910569820E+02  0.14626205870E+02  0.40659260640E+02  0.00000000000E+00 0.  1.
         11    1    3    3    0    0  0.33948366329E+01 -0.80270067425E+00  0.79392369730E-01  0.34893477250E+01  0.51100000000E-03 0.  1.
        -11    1    3    3    0    0  0.71515889446E+01  0.25179847681E+02 -0.54515413572E+01  0.26737413059E+02  0.51100000000E-03 0. -1.
         12    1    3    3    0    0 -0.11974106742E+02  0.13533422814E+02 -0.92540568829E+01  0.20301978576E+02  0.00000000000E+00 0. -1.
</event>
<event>
 7    1  0.3129575E-011  0.5052887E+02  0.7816164E-02  0.1300439E+00
        -11   -1    0    0    0    0  0.00000000000E+00  0.00000000000E+00  0.45593999997E+02  0.45594000000E+02  0.51100000000E-03 0.  1.
         11   -1    0    0    0    0 -0.00000000000E+00 -0.00000000000E+00 -0.45593999997E+02  0.45594000000E+02  0.51100000000E-03 0. -1.
    9900012    2    1    2    0    0  0.10122169982E+02 -0.14967829338E+02 -0.36423489706E+02  0.50528870120E+02  0.30000031215E+02 0.  0.
        -12    1    1    2    0    0 -0.10122169982E+02  0.14967829338E+02  0.36423489706E+02  0.40659129880E+02  0.00000000000E+00 0.  1.
         11    1    3    3    0    0  0.79729266074E+01 -0.10910588890E+02 -0.21729719972E+02  0.25588849895E+02  0.51100000000E-03 0. -1.
        -11    1    3    3    0    0  0.83112090803E+01 -0.59363259974E+01 -0.15876159979E+01  0.10336183413E+02  0.51100000000E-03 0.  1.
         12    1    3    3    0    0 -0.61619657058E+01  0.18790855493E+01 -0.13106153737E+02  0.14603836812E+02  0.00000000000E+00 0. -1.
</event>
<event>
 7    1  0.3129575E-011  0.5052886E+02  0.7816164E-02  0.1300439E+00
        -11   -1    0    0    0    0  0.00000000000E+00  0.00000000000E+00  0.45593999997E+02  0.45594000000E+02  0.51100000000E-03 0.  1.
         11   -1    0    0    0    0 -0.00000000000E+00 -0.00000000000E+00 -0.45593999997E+02  0.45594000000E+02  0.51100000000E-03 0. -1.
    9900012    2    1    2    0    0 -0.34925394980E+02 -0.18791308713E+02 -0.89592984869E+01  0.50528861703E+02  0.30000005633E+02 0.  0.
        -12    1    1    2    0    0  0.34925394980E+02  0.18791308713E+02  0.89592984869E+01  0.40659138297E+02  0.00000000000E+00 0.  1.
         11    1    3    3    0    0  0.10271018983E+00 -0.13966460012E+01  0.40023312145E+00  0.14564876410E+01  0.51100000000E-03 0.  1.
        -11    1    3    3    0    0 -0.31422089472E+02 -0.12262315779E+02 -0.18126897796E+02  0.38292251423E+02  0.51100000000E-03 0. -1.
         12    1    3    3    0    0 -0.36060156983E+01 -0.51323469324E+01  0.87673661879E+01  0.10780122640E+02  0.00000000000E+00 0. -1.
</event>
<event>
 7    1  0.3129575E-011  0.5052886E+02  0.7816164E-02  0.1300439E+00
        -11   -1    0    0    0    0  0.00000000000E+00  0.00000000000E+00  0.45593999997E+02  0.45594000000E+02  0.51100000000E-03 0.  1.
         11   -1    0    0    0    0 -0.00000000000E+00 -0.00000000000E+00 -0.45593999997E+02  0.45594000000E+02  0.51100000000E-03 0. -1.
    9900012    2    1    2    0    0 -0.19770404549E+01 -0.40405619423E+02  0.40795944697E+01  0.50528857597E+02  0.29999993153E+02 0.  0.
        -12    1    1    2    0    0  0.19770404549E+01  0.40405619423E+02 -0.40795944697E+01  0.40659142403E+02  0.00000000000E+00 0.  1.
         11    1    3    3    0    0  0.27549707058E+00  0.19996887001E+01 -0.25697623315E+00  0.20348686883E+01  0.51100000000E-03 0. -1.
        -11    1    3    3    0    0 -0.10622114037E+02 -0.17567696057E+02  0.79926961521E+01  0.22030352775E+02  0.51100000000E-03 0.  1.
         12    1    3    3    0    0  0.83695765117E+01 -0.24837612066E+02 -0.36561254493E+01  0.26463636134E+02  0.00000000000E+00 0. -1.
</event>
<event>
 7    1  0.3129575E-011  0.5052885E+02  0.7816164E-02  0.1300439E+00
        -11   -1    0    0    0    0  0.00000000000E+00  0.00000000000E+00  0.45593999997E+02  0.45594000000E+02  0.51100000000E-03 0.  1.
         11   -1    0    0    0    0 -0.00000000000E+00 -0.00000000000E+00 -0.45593999997E+02  0.45594000000E+02  0.51100000000E-03 0. -1.
    9900012    2    1    2    0    0 -0.17417963189E+02 -0.29666764161E+02  0.21671732260E+02  0.50528851994E+02  0.29999976120E+02 0.  0.
        -12    1    1    2    0    0  0.17417963189E+02  0.29666764161E+02 -0.21671732260E+02  0.40659148006E+02  0.00000000000E+00 0.  1.
         11    1    3    3    0    0  0.67001740589E+01 -0.35644018596E+01  0.19340332167E+00  0.75917519811E+01  0.51100000000E-03 0. -1.
        -11    1    3    3    0    0 -0.11478701465E+02 -0.20115243845E+02  0.14266775913E+02  0.27201553586E+02  0.51100000000E-03 0.  1.
        -12    1    3    3    0    0 -0.12639435782E+02 -0.59871184566E+01  0.72115530257E+01  0.15735546427E+02  0.00000000000E+00 0.  1.
</event>
<event>
 7    1  0.3129575E-011  0.5052886E+02  0.7816164E-02  0.1300439E+00
        -11   -1    0    0    0    0  0.00000000000E+00  0.00000000000E+00  0.45593999997E+02  0.45594000000E+02  0.51100000000E-03 0.  1.
         11   -1    0    0    0    0 -0.00000000000E+00 -0.00000000000E+00 -0.45593999997E+02  0.45594000000E+02  0.51100000000E-03 0. -1.
    9900012    2    1    2    0    0 -0.21372415346E+02  0.75197006867E+01 -0.33761511605E+02  0.50528859552E+02  0.29999999095E+02 0.  0.
        -12    1    1    2    0    0  0.21372415346E+02 -0.75197006867E+01  0.33761511605E+02  0.40659140448E+02  0.00000000000E+00 0.  1.
         11    1    3    3    0    0 -0.10747303762E+02  0.79868986077E+01 -0.23203149088E+02  0.26789572886E+02  0.51100000000E-03 0. -1.
        -11    1    3    3    0    0 -0.15822230693E+02 -0.91250013783E+00 -0.64973042220E+01  0.17128648605E+02  0.51100000000E-03 0.  1.
        -12    1    3    3    0    0  0.51971191101E+01  0.44530221686E+00 -0.40610582946E+01  0.66106380616E+01  0.00000000000E+00 0.  1.
</event>
<event>
 7    1  0.3129575E-011  0.5052886E+02  0.7816164E-02  0.1300439E+00
        -11   -1    0    0    0    0  0.00000000000E+00  0.00000000000E+00  0.45593999997E+02  0.45594000000E+02  0.51100000000E-03 0.  1.
         11   -1    0    0    0    0 -0.00000000000E+00 -0.00000000000E+00 -0.45593999997E+02  0.45594000000E+02  0.51100000000E-03 0. -1.
    9900012    2    1    2    0    0  0.19182063994E+02 -0.15840519342E+02 -0.32160413618E+02  0.50528857901E+02  0.29999994077E+02 0.  0.
        -12    1    1    2    0    0 -0.19182063994E+02  0.15840519342E+02  0.32160413618E+02  0.40659142099E+02  0.00000000000E+00 0.  1.
         11    1    3    3    0    0  0.34043828037E+01  0.45446473474E+01 -0.10663149215E+02  0.12080827506E+02  0.51100000000E-03 0. -1.
        -11    1    3    3    0    0  0.10262008809E+02 -0.41399843805E+00 -0.30679147927E+01  0.10718783557E+02  0.51100000000E-03 0.  1.
        -12    1    3    3    0    0  0.55156723816E+01 -0.19971168252E+02 -0.18429349610E+02  0.27729246838E+02  0.00000000000E+00 0.  1.
</event>
<event>
 7    1  0.3129575E-011  0.5052886E+02  0.7816164E-02  0.1300439E+00
        -11   -1    0    0    0    0  0.00000000000E+00  0.00000000000E+00  0.45593999997E+02  0.45594000000E+02  0.51100000000E-03 0. -1.
         11   -1    0    0    0    0 -0.00000000000E+00 -0.00000000000E+00 -0.45593999997E+02  0.45594000000E+02  0.51100000000E-03 0.  1.
    9900012    2    1    2    0    0  0.19742835770E+02 -0.10422509339E+02  0.33981726273E+02  0.50528856064E+02  0.29999988491E+02 0.  0.
        -12    1    1    2    0    0 -0.19742835770E+02  0.10422509339E+02 -0.33981726273E+02  0.40659143936E+02  0.00000000000E+00 0.  1.
         11    1    3    3    0    0  0.57462395888E+01  0.51750564245E+01  0.20775652051E+01  0.80072939156E+01  0.51100000000E-03 0. -1.
        -11    1    3    3    0    0  0.14409255566E+02 -0.15064455307E+02  0.15189050307E+02  0.25792861593E+02  0.51100000000E-03 0.  1.
         12    1    3    3    0    0 -0.41265938462E+00 -0.53311045638E+00  0.16715110761E+02  0.16728700555E+02  0.00000000000E+00 0. -1.
</event>
<event>
 7    1  0.3129575E-011  0.5052887E+02  0.7816164E-02  0.1300439E+00
        -11   -1    0    0    0    0  0.00000000000E+00  0.00000000000E+00  0.45593999997E+02  0.45594000000E+02  0.51100000000E-03 0.  1.
         11   -1    0    0    0    0 -0.00000000000E+00 -0.00000000000E+00 -0.45593999997E+02  0.45594000000E+02  0.51100000000E-03 0. -1.
    9900012    2    1    2    0    0  0.34097373178E+02 -0.11637735035E+01 -0.22117401499E+02  0.50528872175E+02  0.30000037464E+02 0.  0.
        -12    1    1    2    0    0 -0.34097373178E+02  0.11637735035E+01  0.22117401499E+02  0.40659127825E+02  0.00000000000E+00 0.  1.
         11    1    3    3    0    0  0.13427240145E+02  0.78554931791E+00 -0.19659171553E+02  0.23819968347E+02  0.51100000000E-03 0. -1.
        -11    1    3    3    0    0  0.21017140163E+02 -0.55924094182E+01 -0.49204518818E+01  0.22298118098E+02  0.51100000000E-03 0.  1.
        -12    1    3    3    0    0 -0.34700713028E+00  0.36430865968E+01  0.24622219351E+01  0.44107857302E+01  0.00000000000E+00 0.  1.
</event>
<event>
 7    1  0.3129575E-011  0.5052885E+02  0.7816164E-02  0.1300439E+00
        -11   -1    0    0    0    0  0.00000000000E+00  0.00000000000E+00  0.45593999997E+02  0.45594000000E+02  0.51100000000E-03 0.  1.
         11   -1    0    0    0    0 -0.00000000000E+00 -0.00000000000E+00 -0.45593999997E+02  0.45594000000E+02  0.51100000000E-03 0. -1.
    9900012    2    1    2    0    0  0.11797009573E+02  0.15712855032E+02 -0.35596389189E+02  0.50528853779E+02  0.29999981546E+02 0.  0.
        -12    1    1    2    0    0 -0.11797009573E+02 -0.15712855032E+02  0.35596389189E+02  0.40659146221E+02  0.00000000000E+00 0.  1.
         11    1    3    3    0    0  0.72151984871E+01  0.19372228251E+01 -0.13209048519E+02  0.15175338036E+02  0.51100000000E-03 0. -1.
        -11    1    3    3    0    0  0.72883794461E+01  0.24753591431E+01  0.23290812035E+01  0.80419212475E+01  0.51100000000E-03 0.  1.
        -12    1    3    3    0    0 -0.27065683599E+01  0.11300273064E+02 -0.24716421874E+02  0.27311594495E+02  0.00000000000E+00 0.  1.
</event>
<event>
 7    1  0.3129575E-011  0.5052885E+02  0.7816164E-02  0.1300439E+00
        -11   -1    0    0    0    0  0.00000000000E+00  0.00000000000E+00  0.45593999997E+02  0.45594000000E+02  0.51100000000E-03 0. -1.
         11   -1    0    0    0    0 -0.00000000000E+00 -0.00000000000E+00 -0.45593999997E+02  0.45594000000E+02  0.51100000000E-03 0.  1.
    9900012    2    1    2    0    0 -0.16495247031E+02  0.12237269196E+02  0.35090202415E+02  0.50528852967E+02  0.29999979077E+02 0.  0.
        -12    1    1    2    0    0  0.16495247031E+02 -0.12237269196E+02 -0.35090202415E+02  0.40659147033E+02  0.00000000000E+00 0.  1.
         11    1    3    3    0    0 -0.16919622353E+02  0.40247802205E+01  0.10898094609E+02  0.20524155105E+02  0.51100000000E-03 0. -1.
        -11    1    3    3    0    0  0.32239066856E-01 -0.10694718344E+01 -0.19701337115E+01  0.22419269534E+01  0.51100000000E-03 0.  1.
        -12    1    3    3    0    0  0.39213625552E+00  0.92819608097E+01  0.26162241517E+02  0.27762770908E+02  0.00000000000E+00 0.  1.
</event>
<event>
 7    1  0.3129575E-011  0.5052885E+02  0.7816164E-02  0.1300439E+00
        -11   -1    0    0    0    0  0.00000000000E+00  0.00000000000E+00  0.45593999997E+02  0.45594000000E+02  0.51100000000E-03 0. -1.
         11   -1    0    0    0    0 -0.00000000000E+00 -0.00000000000E+00 -0.45593999997E+02  0.45594000000E+02  0.51100000000E-03 0.  1.
    9900012    2    1    2    0    0  0.24112939474E+02  0.31787373521E+02  0.78291211317E+01  0.50528854619E+02  0.29999984100E+02 0.  0.
        -12    1    1    2    0    0 -0.24112939474E+02 -0.31787373521E+02 -0.78291211317E+01  0.40659145381E+02  0.00000000000E+00 0.  1.
         11    1    3    3    0    0  0.19140787963E+02  0.12574559534E+02  0.45983999873E+01  0.23358822616E+02  0.51100000000E-03 0. -1.
        -11    1    3    3    0    0  0.64883337730E+01  0.14767584899E+02 -0.56770056827E+01  0.17099954172E+02  0.51100000000E-03 0.  1.
         12    1    3    3    0    0 -0.15161822617E+01  0.44452290880E+01  0.89077268271E+01  0.10070077831E+02  0.00000000000E+00 0. -1.
</event>
<event>
 7    1  0.3129575E-011  0.5052892E+02  0.7816164E-02  0.1300439E+00
        -11   -1    0    0    0    0  0.00000000000E+00  0.00000000000E+00  0.45593999997E+02  0.45594000000E+02  0.51100000000E-03 0.  1.
         11   -1    0    0    0    0 -0.00000000000E+00 -0.00000000000E+00 -0.45593999997E+02  0.45594000000E+02  0.51100000000E-03 0. -1.
    9900012    2    1    2    0    0 -0.26997179841E+02 -0.22371568259E+02 -0.20587025991E+02  0.50528924447E+02  0.30000196347E+02 0.  0.
        -12    1    1    2    0    0  0.26997179841E+02  0.22371568259E+02  0.20587025991E+02  0.40659075553E+02  0.00000000000E+00 0.  1.
         11    1    3    3    0    0 -0.96402404592E+01 -0.12227414466E+02 -0.77714786842E+01  0.17402292430E+02  0.51100000000E-03 0. -1.
        -11    1    3    3    0    0  0.35522250078E+01 -0.89105660596E+01 -0.44048327382E+01  0.10555521859E+02  0.51100000000E-03 0.  1.
        -12    1    3    3    0    0 -0.20909164389E+02 -0.12335877331E+01 -0.84107145689E+01  0.22571110157E+02  0.00000000000E+00 0.  1.
</event>
<event>
 7    1  0.3129575E-011  0.5052886E+02  0.7816164E-02  0.1300439E+00
        -11   -1    0    0    0    0  0.00000000000E+00  0.00000000000E+00  0.45593999997E+02  0.45594000000E+02  0.51100000000E-03 0. -1.
         11   -1    0    0    0    0 -0.00000000000E+00 -0.00000000000E+00 -0.45593999997E+02  0.45594000000E+02  0.51100000000E-03 0.  1.
    9900012    2    1    2    0    0  0.82086965300E+01 -0.38962790686E+02  0.82270405801E+01  0.50528856459E+02  0.29999989693E+02 0.  0.
        -12    1    1    2    0    0 -0.82086965300E+01  0.38962790686E+02 -0.82270405801E+01  0.40659143541E+02  0.00000000000E+00 0.  1.
         11    1    3    3    0    0 -0.54809593289E+01 -0.66042422120E+01  0.49445734737E+01  0.99048340449E+01  0.51100000000E-03 0. -1.
        -11    1    3    3    0    0  0.21364075210E+01 -0.27306036715E+02 -0.70588138364E+00  0.27398579287E+02  0.51100000000E-03 0.  1.
         12    1    3    3    0    0  0.11553248338E+02 -0.50525117593E+01  0.39883484901E+01  0.13225443127E+02  0.00000000000E+00 0. -1.
</event>
<event>
 7    1  0.3129575E-011  0.5052886E+02  0.7816164E-02  0.1300439E+00
        -11   -1    0    0    0    0  0.00000000000E+00  0.00000000000E+00  0.45593999997E+02  0.45594000000E+02  0.51100000000E-03 0. -1.
         11   -1    0    0    0    0 -0.00000000000E+00 -0.00000000000E+00 -0.45593999997E+02  0.45594000000E+02  0.51100000000E-03 0.  1.
    9900012    2    1    2    0    0 -0.11014904847E+02  0.23768493508E+01  0.39066454216E+02  0.50528863430E+02  0.30000010881E+02 0.  0.
        -12    1    1    2    0    0  0.11014904847E+02 -0.23768493508E+01 -0.39066454216E+02  0.40659136570E+02  0.00000000000E+00 0.  1.
         11    1    3    3    0    0 -0.52651191327E+00  0.48530755023E+01  0.12963836658E+02  0.13852458907E+02  0.51100000000E-03 0. -1.
        -11    1    3    3    0    0 -0.16922108796E+01  0.47147476433E+01 -0.27166390938E+01  0.56984692004E+01  0.51100000000E-03 0.  1.
        -12    1    3    3    0    0 -0.87961820542E+01 -0.71909737948E+01  0.28819256652E+02  0.30977935322E+02  0.00000000000E+00 0.  1.
</event>
<event>
 7    1  0.3129575E-011  0.5052887E+02  0.7816164E-02  0.1300439E+00
        -11   -1    0    0    0    0  0.00000000000E+00  0.00000000000E+00  0.45593999997E+02  0.45594000000E+02  0.51100000000E-03 0.  1.
         11   -1    0    0    0    0 -0.00000000000E+00 -0.00000000000E+00 -0.45593999997E+02  0.45594000000E+02  0.51100000000E-03 0. -1.
    9900012    2    1    2    0    0 -0.13871135512E+02 -0.30680600680E+02 -0.22791612333E+02  0.50528865095E+02  0.30000015942E+02 0.  0.
        -12    1    1    2    0    0  0.13871135512E+02  0.30680600680E+02  0.22791612333E+02  0.40659134905E+02  0.00000000000E+00 0.  1.
         11    1    3    3    0    0 -0.28171606681E+01 -0.15812832728E+02 -0.12378771730E+01  0.16109451054E+02  0.51100000000E-03 0. -1.
        -11    1    3    3    0    0  0.35758114093E+01 -0.11189673484E+02 -0.96956412419E+01  0.15231568510E+02  0.51100000000E-03 0.  1.
         12    1    3    3    0    0 -0.14629786253E+02 -0.36780944677E+01 -0.11858093918E+02  0.19187845530E+02  0.00000000000E+00 0. -1.
</event>
<event>
 7    1  0.3129575E-011  0.5052885E+02  0.7816164E-02  0.1300439E+00
        -11   -1    0    0    0    0  0.00000000000E+00  0.00000000000E+00  0.45593999997E+02  0.45594000000E+02  0.51100000000E-03 0.  1.
         11   -1    0    0    0    0 -0.00000000000E+00 -0.00000000000E+00 -0.45593999997E+02  0.45594000000E+02  0.51100000000E-03 0. -1.
    9900012    2    1    2    0    0  0.15099894959E+02  0.23313182272E+02 -0.29692680978E+02  0.50528848520E+02  0.29999965562E+02 0.  0.
        -12    1    1    2    0    0 -0.15099894959E+02 -0.23313182272E+02  0.29692680978E+02  0.40659151480E+02  0.00000000000E+00 0.  1.
         11    1    3    3    0    0 -0.17273244008E+01 -0.90072149160E+00  0.93772073680E+00  0.21620058354E+01  0.51100000000E-03 0.  1.
        -11    1    3    3    0    0 -0.27472436775E+01  0.14710297860E+02 -0.17189466808E+02  0.22790743304E+02  0.51100000000E-03 0. -1.
        -12    1    3    3    0    0  0.19574463037E+02  0.95036059036E+01 -0.13440934907E+02  0.25576099381E+02  0.00000000000E+00 0.  1.
</event>
<event>
 7    1  0.3129575E-011  0.5052887E+02  0.7816164E-02  0.1300439E+00
        -11   -1    0    0    0    0  0.00000000000E+00  0.00000000000E+00  0.45593999997E+02  0.45594000000E+02  0.51100000000E-03 0.  1.
         11   -1    0    0    0    0 -0.00000000000E+00 -0.00000000000E+00 -0.45593999997E+02  0.45594000000E+02  0.51100000000E-03 0. -1.
    9900012    2    1    2    0    0 -0.36515104834E+02  0.32928912749E+00 -0.17880249791E+02  0.50528872550E+02  0.30000038603E+02 0.  0.
        -12    1    1    2    0    0  0.36515104834E+02 -0.32928912749E+00  0.17880249791E+02  0.40659127450E+02  0.00000000000E+00 0.  1.
         11    1    3    3    0    0  0.29933744297E+01  0.34517717808E+01 -0.29324148059E+01  0.54290032012E+01  0.51100000000E-03 0. -1.
        -11    1    3    3    0    0 -0.12734988544E+02  0.51537229341E+01 -0.94001102376E+00  0.13770418087E+02  0.51100000000E-03 0.  1.
        -12    1    3    3    0    0 -0.26773490720E+02 -0.82762055874E+01 -0.14007823961E+02  0.31329451262E+02  0.00000000000E+00 0.  1.
</event>
<event>
 7    1  0.3129575E-011  0.5052885E+02  0.7816164E-02  0.1300439E+00
        -11   -1    0    0    0    0  0.00000000000E+00  0.00000000000E+00  0.45593999997E+02  0.45594000000E+02  0.51100000000E-03 0. -1.
         11   -1    0    0    0    0 -0.00000000000E+00 -0.00000000000E+00 -0.45593999997E+02  0.45594000000E+02  0.51100000000E-03 0.  1.
    9900012    2    1    2    0    0 -0.20117329426E+02  0.32247622677E+02  0.14441262733E+02  0.50528853662E+02  0.29999981192E+02 0.  0.
        -12    1    1    2    0    0  0.20117329426E+02 -0.32247622677E+02 -0.14441262733E+02  0.40659146338E+02  0.00000000000E+00 0.  1.
         11    1    3    3    0    0 -0.18168693844E+02  0.20783660366E+02  0.27212363287E+01  0.27739270027E+02  0.51100000000E-03 0. -1.
        -11    1    3    3    0    0 -0.30507723140E+00  0.42466340498E+01 -0.37284155434E+01  0.56593334940E+01  0.51100000000E-03 0.  1.
        -12    1    3    3    0    0 -0.16435583508E+01  0.72173282613E+01  0.15448441948E+02  0.17130250141E+02  0.00000000000E+00 0.  1.
</event>
<event>
 7    1  0.3129575E-011  0.5052886E+02  0.7816164E-02  0.1300439E+00
        -11   -1    0    0    0    0  0.00000000000E+00  0.00000000000E+00  0.45593999997E+02  0.45594000000E+02  0.51100000000E-03 0.  1.
         11   -1    0    0    0    0 -0.00000000000E+00 -0.00000000000E+00 -0.45593999997E+02  0.45594000000E+02  0.51100000000E-03 0. -1.
    9900012    2    1    2    0    0  0.59504247833E+01  0.10976688957E+02 -0.38694582019E+02  0.50528856709E+02  0.29999990452E+02 0.  0.
        -12    1    1    2    0    0 -0.59504247833E+01 -0.10976688957E+02  0.38694582019E+02  0.40659143291E+02  0.00000000000E+00 0.  1.
         11    1    3    3    0    0 -0.21421213703E+01 -0.71811308155E+01 -0.86618753223E+01  0.11453619870E+02  0.51100000000E-03 0. -1.
        -11    1    3    3    0    0  0.65996471824E+01  0.27472801404E+01 -0.26605274960E+01  0.76276666104E+01  0.51100000000E-03 0.  1.
         12    1    3    3    0    0  0.14928989712E+01  0.15410539632E+02 -0.27372179201E+02  0.31447570229E+02  0.00000000000E+00 0. -1.
</event>
<event>
 7    1  0.3129575E-011  0.5052886E+02  0.7816164E-02  0.1300439E+00
        -11   -1    0    0    0    0  0.00000000000E+00  0.00000000000E+00  0.45593999997E+02  0.45594000000E+02  0.51100000000E-03 0.  1.
         11   -1    0    0    0    0 -0.00000000000E+00 -0.00000000000E+00 -0.45593999997E+02  0.45594000000E+02  0.51100000000E-03 0. -1.
    9900012    2    1    2    0    0  0.35388980711E+02  0.19536730033E+02  0.43705643806E+01  0.50528860693E+02  0.30000002563E+02 0.  0.
        -12    1    1    2    0    0 -0.35388980711E+02 -0.19536730033E+02 -0.43705643806E+01  0.40659139307E+02  0.00000000000E+00 0.  1.
         11    1    3    3    0    0  0.85087515491E+01  0.13111297321E+02 -0.64941518984E+01  0.16925689927E+02  0.51100000000E-03 0. -1.
        -11    1    3    3    0    0  0.56826616713E+01  0.72987264021E+01  0.79331974081E+01  0.12186044155E+02  0.51100000000E-03 0.  1.
         12    1    3    3    0    0  0.21197567491E+02 -0.87329368977E+00  0.29315188709E+01  0.21417126612E+02  0.00000000000E+00 0. -1.
</event>
<event>
 7    1  0.3129575E-011  0.5052886E+02  0.7816164E-02  0.1300439E+00
        -11   -1    0    0    0    0  0.00000000000E+00  0.00000000000E+00  0.45593999997E+02  0.45594000000E+02  0.51100000000E-03 0.  1.
         11   -1    0    0    0    0 -0.00000000000E+00 -0.00000000000E+00 -0.45593999997E+02  0.45594000000E+02  0.51100000000E-03 0. -1.
    9900012    2    1    2    0    0  0.30320566415E+02 -0.47647924414E+01 -0.26666936250E+02  0.50528862237E+02  0.30000007254E+02 0.  0.
        -12    1    1    2    0    0 -0.30320566415E+02  0.47647924414E+01  0.26666936250E+02  0.40659137763E+02  0.00000000000E+00 0.  1.
         11    1    3    3    0    0  0.15456098379E+02  0.71799190395E+01 -0.13604997288E+02  0.21806837597E+02  0.51100000000E-03 0. -1.
        -11    1    3    3    0    0  0.58303619460E+01  0.24565969450E+01 -0.94014241691E+01  0.11332023899E+02  0.51100000000E-03 0.  1.
        -12    1    3    3    0    0  0.90341060896E+01 -0.14401308426E+02 -0.36605147923E+01  0.17390000741E+02  0.00000000000E+00 0.  1.
</event>
<event>
 7    1  0.3129575E-011  0.5052886E+02  0.7816164E-02  0.1300439E+00
        -11   -1    0    0    0    0  0.00000000000E+00  0.00000000000E+00  0.45593999997E+02  0.45594000000E+02  0.51100000000E-03 0.  1.
         11   -1    0    0    0    0 -0.00000000000E+00 -0.00000000000E+00 -0.45593999997E+02  0.45594000000E+02  0.51100000000E-03 0. -1.
    9900012    2    1    2    0    0 -0.20089599181E+02  0.15726838643E+01 -0.35314302911E+02  0.50528864250E+02  0.30000013375E+02 0.  0.
        -12    1    1    2    0    0  0.20089599181E+02 -0.15726838643E+01  0.35314302911E+02  0.40659135750E+02  0.00000000000E+00 0.  1.
         11    1    3    3    0    0 -0.55051153704E+01 -0.46976829312E+01 -0.15155868224E+02  0.16795084461E+02  0.51100000000E-03 0. -1.
        -11    1    3    3    0    0  0.50384736522E+01  0.34281004339E+01 -0.10250016443E+01  0.61797020932E+01  0.51100000000E-03 0.  1.
         12    1    3    3    0    0 -0.19622957463E+02  0.28422663615E+01 -0.19133433043E+02  0.27554077696E+02  0.00000000000E+00 0. -1.
</event>
<event>
 7    1  0.3129575E-011  0.5052886E+02  0.7816164E-02  0.1300439E+00
        -11   -1    0    0    0    0  0.00000000000E+00  0.00000000000E+00  0.45593999997E+02  0.45594000000E+02  0.51100000000E-03 0.  1.
         11   -1    0    0    0    0 -0.00000000000E+00 -0.00000000000E+00 -0.45593999997E+02  0.45594000000E+02  0.51100000000E-03 0. -1.
    9900012    2    1    2    0    0 -0.29138308774E+02 -0.41780553139E+00 -0.28354014980E+02  0.50528858775E+02  0.29999996732E+02 0.  0.
        -12    1    1    2    0    0  0.29138308774E+02  0.41780553139E+00  0.28354014980E+02  0.40659141225E+02  0.00000000000E+00 0.  1.
         11    1    3    3    0    0 -0.52393429497E+01 -0.98560876823E+00 -0.12684584591E+02  0.13759390455E+02  0.51100000000E-03 0. -1.
        -11    1    3    3    0    0 -0.20424209009E+02  0.39715597069E+01 -0.47147603666E+00  0.20812109217E+02  0.51100000000E-03 0.  1.
        -12    1    3    3    0    0 -0.34747568153E+01 -0.34037564701E+01 -0.15197954352E+02  0.15957359102E+02  0.00000000000E+00 0.  1.
</event>
<event>
 7    1  0.3129575E-011  0.5052886E+02  0.7816164E-02  0.1300439E+00
        -11   -1    0    0    0    0  0.00000000000E+00  0.00000000000E+00  0.45593999997E+02  0.45594000000E+02  0.51100000000E-03 0.  1.
         11   -1    0    0    0    0 -0.00000000000E+00 -0.00000000000E+00 -0.45593999997E+02  0.45594000000E+02  0.51100000000E-03 0. -1.
    9900012    2    1    2    0    0  0.13242118016E+02  0.38358641885E+02  0.25350390783E+01  0.50528861790E+02  0.30000005898E+02 0.  0.
        -12    1    1    2    0    0 -0.13242118016E+02 -0.38358641885E+02 -0.25350390783E+01  0.40659138210E+02  0.00000000000E+00 0.  1.
         11    1    3    3    0    0 -0.21202115643E+01  0.59962692180E+01 -0.61099706020E+01  0.88194264343E+01  0.51100000000E-03 0. -1.
        -11    1    3    3    0    0  0.14311071662E+01 -0.18527751553E+01  0.37822464574E+01  0.44481717619E+01  0.51100000000E-03 0.  1.
         12    1    3    3    0    0  0.13931222414E+02  0.34215147823E+02  0.48627632229E+01  0.37261263594E+02  0.00000000000E+00 0. -1.
</event>
<event>
 7    1  0.3129575E-011  0.5052886E+02  0.7816164E-02  0.1300439E+00
        -11   -1    0    0    0    0  0.00000000000E+00  0.00000000000E+00  0.45593999997E+02  0.45594000000E+02  0.51100000000E-03 0.  1.
         11   -1    0    0    0    0 -0.00000000000E+00 -0.00000000000E+00 -0.45593999997E+02  0.45594000000E+02  0.51100000000E-03 0. -1.
    9900012    2    1    2    0    0  0.96422417067E+01 -0.36720551942E+02 -0.14553139808E+02  0.50528860334E+02  0.30000001472E+02 0.  0.
        -12    1    1    2    0    0 -0.96422417067E+01  0.36720551942E+02  0.14553139808E+02  0.40659139666E+02  0.00000000000E+00 0.  1.
         11    1    3    3    0    0  0.44812907331E+01 -0.37906482291E+01  0.16868028715E+00  0.58719191013E+01  0.51100000000E-03 0. -1.
        -11    1    3    3    0    0  0.90642412456E+01 -0.18809112426E+02 -0.20165995444E+02  0.29027754858E+02  0.51100000000E-03 0.  1.
        -12    1    3    3    0    0 -0.39032902720E+01 -0.14120791287E+02  0.54441753483E+01  0.15629186375E+02  0.00000000000E+00 0.  1.
</event>
<event>
 7    1  0.3129575E-011  0.5052879E+02  0.7816164E-02  0.1300439E+00
        -11   -1    0    0    0    0  0.00000000000E+00  0.00000000000E+00  0.45593999997E+02  0.45594000000E+02  0.51100000000E-03 0. -1.
         11   -1    0    0    0    0 -0.00000000000E+00 -0.00000000000E+00 -0.45593999997E+02  0.45594000000E+02  0.51100000000E-03 0.  1.
    9900012    2    1    2    0    0 -0.29411554068E+02  0.47087302163E+01 -0.27675975367E+02  0.50528791136E+02  0.29999791136E+02 0.  0.
        -12    1    1    2    0    0  0.29411554068E+02 -0.47087302163E+01  0.27675975367E+02  0.40659208864E+02  0.00000000000E+00 0.  1.
         11    1    3    3    0    0  0.34268025725E+01  0.10847258666E+01  0.23282727607E+01  0.42825763724E+01  0.51100000000E-03 0. -1.
        -11    1    3    3    0    0 -0.40656489295E+01 -0.34408163511E+01 -0.66551132007E+01  0.85240395562E+01  0.51100000000E-03 0.  1.
        -12    1    3    3    0    0 -0.28772707710E+02  0.70648207007E+01 -0.23349134927E+02  0.37722175207E+02  0.00000000000E+00 0.  1.
</event>
<event>
 7    1  0.3129575E-011  0.5052896E+02  0.7816164E-02  0.1300438E+00
        -11   -1    0    0    0    0  0.00000000000E+00  0.00000000000E+00  0.45593999997E+02  0.45594000000E+02  0.51100000000E-03 0.  1.
         11   -1    0    0    0    0 -0.00000000000E+00 -0.00000000000E+00 -0.45593999997E+02  0.45594000000E+02  0.51100000000E-03 0. -1.
    9900012    2    1    2    0    0 -0.12403540077E+02  0.94917471110E+01 -0.37539531608E+02  0.50528960378E+02  0.30000305564E+02 0.  0.
        -12    1    1    2    0    0  0.12403540077E+02 -0.94917471110E+01  0.37539531608E+02  0.40659039622E+02  0.00000000000E+00 0.  1.
         11    1    3    3    0    0 -0.22289330173E+01  0.63458812117E+01 -0.40073568713E+01  0.78292566763E+01  0.51100000000E-03 0. -1.
        -11    1    3    3    0    0 -0.95002081066E+01  0.13177259803E+02 -0.18561135435E+02  0.24665966003E+02  0.51100000000E-03 0.  1.
         12    1    3    3    0    0 -0.67439895276E+00 -0.10031393904E+02 -0.14971039302E+02  0.18033737698E+02  0.00000000000E+00 0. -1.
</event>
<event>
 7    1  0.3129575E-011  0.5052888E+02  0.7816164E-02  0.1300439E+00
        -11   -1    0    0    0    0  0.00000000000E+00  0.00000000000E+00  0.45593999997E+02  0.45594000000E+02  0.51100000000E-03 0.  1.
         11   -1    0    0    0    0 -0.00000000000E+00 -0.00000000000E+00 -0.45593999997E+02  0.45594000000E+02  0.51100000000E-03 0. -1.
    9900012    2    1    2    0    0  0.53145238471E+01  0.74144144646E+00 -0.40303477962E+02  0.50528877592E+02  0.30000053929E+02 0.  0.
        -12    1    1    2    0    0 -0.53145238471E+01 -0.74144144646E+00  0.40303477962E+02  0.40659122408E+02  0.00000000000E+00 0.  1.
         11    1    3    3    0    0  0.60477114645E+01  0.70471438879E+01 -0.12799356498E+02  0.15813303828E+02  0.51100000000E-03 0. -1.
        -11    1    3    3    0    0 -0.87059963596E+01  0.10800873256E+01 -0.60219817188E+01  0.10640734248E+02  0.51100000000E-03 0.  1.
        -12    1    3    3    0    0  0.79728087423E+01 -0.73857897670E+01 -0.21482139745E+02  0.24074839516E+02  0.00000000000E+00 0.  1.
</event>
<event>
 7    1  0.3129575E-011  0.5052886E+02  0.7816164E-02  0.1300439E+00
        -11   -1    0    0    0    0  0.00000000000E+00  0.00000000000E+00  0.45593999997E+02  0.45594000000E+02  0.51100000000E-03 0. -1.
         11   -1    0    0    0    0 -0.00000000000E+00 -0.00000000000E+00 -0.45593999997E+02  0.45594000000E+02  0.51100000000E-03 0.  1.
    9900012    2    1    2    0    0 -0.28498091473E+02  0.10505683645E+02  0.27030632148E+02  0.50528859812E+02  0.29999999886E+02 0.  0.
        -12    1    1    2    0    0  0.28498091473E+02 -0.10505683645E+02 -0.27030632148E+02  0.40659140188E+02  0.00000000000E+00 0.  1.
         11    1    3    3    0    0  0.17642370777E+01  0.47689858865E+01  0.46242231935E+01  0.68730778591E+01  0.51100000000E-03 0. -1.
        -11    1    3    3    0    0 -0.17890068479E+02  0.13867495691E+02  0.12735475059E+02  0.25972183431E+02  0.51100000000E-03 0.  1.
        -12    1    3    3    0    0 -0.12372260072E+02 -0.81307979320E+01  0.96709338955E+01  0.17683598523E+02  0.00000000000E+00 0.  1.
</event>
<event>
 7    1  0.3129575E-011  0.5052885E+02  0.7816164E-02  0.1300439E+00
        -11   -1    0    0    0    0  0.00000000000E+00  0.00000000000E+00  0.45593999997E+02  0.45594000000E+02  0.51100000000E-03 0. -1.
         11   -1    0    0    0    0 -0.00000000000E+00 -0.00000000000E+00 -0.45593999997E+02  0.45594000000E+02  0.51100000000E-03 0.  1.
    9900012    2    1    2    0    0  0.10141382500E+02  0.39208592311E+02 -0.36062189800E+01  0.50528853854E+02  0.29999981775E+02 0.  0.
        -12    1    1    2    0    0 -0.10141382500E+02 -0.39208592311E+02  0.36062189800E+01  0.40659146146E+02  0.00000000000E+00 0.  1.
         11    1    3    3    0    0 -0.38134258141E+01  0.27181034518E+02 -0.89971131341E+01  0.28884232705E+02  0.51100000000E-03 0. -1.
        -11    1    3    3    0    0  0.17348221644E+01  0.42194398610E+01  0.54958935058E+01  0.71426974156E+01  0.51100000000E-03 0.  1.
        -12    1    3    3    0    0  0.12219986149E+02  0.78081179313E+01 -0.10499935172E+00  0.14501923734E+02  0.00000000000E+00 0.  1.
</event>
<event>
 7    1  0.3129575E-011  0.5052882E+02  0.7816164E-02  0.1300439E+00
        -11   -1    0    0    0    0  0.00000000000E+00  0.00000000000E+00  0.45593999997E+02  0.45594000000E+02  0.51100000000E-03 0.  1.
         11   -1    0    0    0    0 -0.00000000000E+00 -0.00000000000E+00 -0.45593999997E+02  0.45594000000E+02  0.51100000000E-03 0. -1.
    9900012    2    1    2    0    0  0.27488898171E+02 -0.24014468626E+02 -0.17911857893E+02  0.50528820480E+02  0.29999880331E+02 0.  0.
        -12    1    1    2    0    0 -0.27488898171E+02  0.24014468626E+02  0.17911857893E+02  0.40659179520E+02  0.00000000000E+00 0.  1.
         11    1    3    3    0    0  0.10775001525E+02 -0.17402317258E+02 -0.51109952664E+01  0.21096529968E+02  0.51100000000E-03 0. -1.
        -11    1    3    3    0    0  0.55005858975E+01 -0.86785057227E+01  0.22813769376E+01  0.10525093244E+02  0.51100000000E-03 0.  1.
         12    1    3    3    0    0  0.11213310749E+02  0.20663543549E+01 -0.15082239564E+02  0.18907197269E+02  0.00000000000E+00 0. -1.
</event>
<event>
 7    1  0.3129575E-011  0.5052885E+02  0.7816164E-02  0.1300439E+00
        -11   -1    0    0    0    0  0.00000000000E+00  0.00000000000E+00  0.45593999997E+02  0.45594000000E+02  0.51100000000E-03 0. -1.
         11   -1    0    0    0    0 -0.00000000000E+00 -0.00000000000E+00 -0.45593999997E+02  0.45594000000E+02  0.51100000000E-03 0.  1.
    9900012    2    1    2    0    0 -0.30193016243E+02 -0.73092198830E+01 -0.26232111228E+02  0.50528848698E+02  0.29999966102E+02 0.  0.
        -12    1    1    2    0    0  0.30193016243E+02  0.73092198830E+01  0.26232111228E+02  0.40659151302E+02  0.00000000000E+00 0.  1.
         11    1    3    3    0    0 -0.29140335893E+02 -0.58497782278E+00 -0.14833111214E+02  0.32703555825E+02  0.51100000000E-03 0. -1.
        -11    1    3    3    0    0  0.25565845149E+01 -0.10802297920E+01  0.15984821381E+01  0.32028372097E+01  0.51100000000E-03 0.  1.
        -12    1    3    3    0    0 -0.36092648641E+01 -0.56440122683E+01 -0.12997482152E+02  0.14622455663E+02  0.00000000000E+00 0.  1.
</event>
<event>
 7    1  0.3129575E-011  0.5052887E+02  0.7816164E-02  0.1300439E+00
        -11   -1    0    0    0    0  0.00000000000E+00  0.00000000000E+00  0.45593999997E+02  0.45594000000E+02  0.51100000000E-03 0. -1.
         11   -1    0    0    0    0 -0.00000000000E+00 -0.00000000000E+00 -0.45593999997E+02  0.45594000000E+02  0.51100000000E-03 0.  1.
    9900012    2    1    2    0    0  0.25322233212E+02 -0.13967029353E+01  0.31780481132E+02  0.50528865049E+02  0.30000015804E+02 0.  0.
        -12    1    1    2    0    0 -0.25322233212E+02  0.13967029353E+01 -0.31780481132E+02  0.40659134951E+02  0.00000000000E+00 0.  1.
         11    1    3    3    0    0 -0.33909333197E+01 -0.59353896211E+00  0.45496607400E+01  0.57052721573E+01  0.51100000000E-03 0. -1.
        -11    1    3    3    0    0  0.26317987851E+02 -0.10875782662E+01  0.30792799768E+02  0.40521794492E+02  0.51100000000E-03 0.  1.
         12    1    3    3    0    0  0.23951786806E+01  0.28441429294E+00 -0.35619793759E+01  0.43017984002E+01  0.00000000000E+00 0. -1.
</event>
<event>
 7    1  0.3129575E-011  0.5052885E+02  0.7816164E-02  0.1300439E+00
        -11   -1    0    0    0    0  0.00000000000E+00  0.00000000000E+00  0.45593999997E+02  0.45594000000E+02  0.51100000000E-03 0.  1.
         11   -1    0    0    0    0 -0.00000000000E+00 -0.00000000000E+00 -0.45593999997E+02  0.45594000000E+02  0.51100000000E-03 0. -1.
    9900012    2    1    2    0    0  0.35391303489E+02  0.47929089766E+01 -0.19433221083E+02  0.50528850713E+02  0.29999972226E+02 0.  0.
        -12    1    1    2    0    0 -0.35391303489E+02 -0.47929089766E+01  0.19433221083E+02  0.40659149287E+02  0.00000000000E+00 0.  1.
         11    1    3    3    0    0  0.19482158862E+02 -0.26736821764E+01 -0.56975193045E+01  0.20473515008E+02  0.51100000000E-03 0. -1.
        -11    1    3    3    0    0  0.15520531384E+02  0.39965828049E+01 -0.14941453779E+00  0.16027535478E+02  0.51100000000E-03 0.  1.
        -12    1    3    3    0    0  0.38861324321E+00  0.34700083482E+01 -0.13586287241E+02  0.14027800226E+02  0.00000000000E+00 0.  1.
</event>
<event>
 7    1  0.3129575E-011  0.5052886E+02  0.7816164E-02  0.1300439E+00
        -11   -1    0    0    0    0  0.00000000000E+00  0.00000000000E+00  0.45593999997E+02  0.45594000000E+02  0.51100000000E-03 0. -1.
         11   -1    0    0    0    0 -0.00000000000E+00 -0.00000000000E+00 -0.45593999997E+02  0.45594000000E+02  0.51100000000E-03 0.  1.
    9900012    2    1    2    0    0 -0.33079732628E+02  0.19561309724E+02  0.13276004958E+02  0.50528857652E+02  0.29999993318E+02 0.  0.
        -12    1    1    2    0    0  0.33079732628E+02 -0.19561309724E+02 -0.13276004958E+02  0.40659142348E+02  0.00000000000E+00 0.  1.
         11    1    3    3    0    0 -0.19998669625E+02  0.40826343371E+01  0.75132258719E+01  0.21750017314E+02  0.51100000000E-03 0. -1.
        -11    1    3    3    0    0 -0.23084219048E+01 -0.16370507332E+00  0.91919199983E+01  0.94787659829E+01  0.51100000000E-03 0.  1.
         12    1    3    3    0    0 -0.10772641098E+02  0.15642380460E+02 -0.34291409123E+01  0.19300074355E+02  0.00000000000E+00 0. -1.
</event>
<event>
 7    1  0.3129575E-011  0.5052887E+02  0.7816164E-02  0.1300439E+00
        -11   -1    0    0    0    0  0.00000000000E+00  0.00000000000E+00  0.45593999997E+02  0.45594000000E+02  0.51100000000E-03 0.  1.
         11   -1    0    0    0    0 -0.00000000000E+00 -0.00000000000E+00 -0.45593999997E+02  0.45594000000E+02  0.51100000000E-03 0. -1.
    9900012    2    1    2    0    0  0.39075459979E+02 -0.95719772674E+01  0.58865014422E+01  0.50528865471E+02  0.30000017087E+02 0.  0.
        -12    1    1    2    0    0 -0.39075459979E+02  0.95719772674E+01 -0.58865014422E+01  0.40659134529E+02  0.00000000000E+00 0.  1.
         11    1    3    3    0    0  0.39323567240E+02 -0.30794297015E+01  0.16430978739E+01  0.39478166100E+02  0.51100000000E-03 0. -1.
        -11    1    3    3    0    0  0.12856010618E+01 -0.11198310393E+00  0.42986364427E+01  0.44881606292E+01  0.51100000000E-03 0.  1.
        -12    1    3    3    0    0 -0.15337083224E+01 -0.63805644620E+01 -0.55232874467E-01  0.65625387421E+01  0.00000000000E+00 0.  1.
</event>
<event>
 7    1  0.3129575E-011  0.5052887E+02  0.7816164E-02  0.1300439E+00
        -11   -1    0    0    0    0  0.00000000000E+00  0.00000000000E+00  0.45593999997E+02  0.45594000000E+02  0.51100000000E-03 0.  1.
         11   -1    0    0    0    0 -0.00000000000E+00 -0.00000000000E+00 -0.45593999997E+02  0.45594000000E+02  0.51100000000E-03 0. -1.
    9900012    2    1    2    0    0 -0.11673222525E+02  0.19035225166E+02 -0.33978835937E+02  0.50528865567E+02  0.30000017377E+02 0.  0.
        -12    1    1    2    0    0  0.11673222525E+02 -0.19035225166E+02  0.33978835937E+02  0.40659134433E+02  0.00000000000E+00 0.  1.
         11    1    3    3    0    0  0.52597516398E+01  0.90466681672E+01 -0.16974729950E+02  0.19941129591E+02  0.51100000000E-03 0. -1.
        -11    1    3    3    0    0 -0.57042897162E+01 -0.30555515459E+01 -0.10201432996E+02  0.12080751295E+02  0.51100000000E-03 0.  1.
        -12    1    3    3    0    0 -0.11228684449E+02  0.13044108544E+02 -0.68026729914E+01  0.18506984681E+02  0.00000000000E+00 0.  1.
</event>
<event>
 7    1  0.3129575E-011  0.5052886E+02  0.7816164E-02  0.1300439E+00
        -11   -1    0    0    0    0  0.00000000000E+00  0.00000000000E+00  0.45593999997E+02  0.45594000000E+02  0.51100000000E-03 0.  1.
         11   -1    0    0    0    0 -0.00000000000E+00 -0.00000000000E+00 -0.45593999997E+02  0.45594000000E+02  0.51100000000E-03 0. -1.
    9900012    2    1    2    0    0 -0.10352946252E+02 -0.12626629938E+02 -0.37236414119E+02  0.50528858148E+02  0.29999994826E+02 0.  0.
        -12    1    1    2    0    0  0.10352946252E+02  0.12626629938E+02  0.37236414119E+02  0.40659141852E+02  0.00000000000E+00 0.  1.
         11    1    3    3    0    0  0.76473339315E+01 -0.83010063972E+00 -0.46163459308E+01  0.89711444836E+01  0.51100000000E-03 0. -1.
        -11    1    3    3    0    0 -0.51403418527E+01  0.55918459967E+00 -0.17270511926E+02  0.18027933443E+02  0.51100000000E-03 0.  1.
        -12    1    3    3    0    0 -0.12859938331E+02 -0.12355713898E+02 -0.15349556262E+02  0.23529780221E+02  0.00000000000E+00 0.  1.
</event>
<event>
 7    1  0.3129575E-011  0.5052887E+02  0.7816164E-02  0.1300439E+00
        -11   -1    0    0    0    0  0.00000000000E+00  0.00000000000E+00  0.45593999997E+02  0.45594000000E+02  0.51100000000E-03 0.  1.
         11   -1    0    0    0    0 -0.00000000000E+00 -0.00000000000E+00 -0.45593999997E+02  0.45594000000E+02  0.51100000000E-03 0. -1.
    9900012    2    1    2    0    0 -0.15267250413E+02  0.17012110854E+02 -0.33625348901E+02  0.50528868927E+02  0.30000027591E+02 0.  0.
        -12    1    1    2    0    0  0.15267250413E+02 -0.17012110854E+02  0.33625348901E+02  0.40659131073E+02  0.00000000000E+00 0.  1.
         11    1    3    3    0    0 -0.53277911696E+01  0.16918596252E+02 -0.12813343689E+02  0.21881636928E+02  0.51100000000E-03 0. -1.
        -11    1    3    3    0    0 -0.23091143158E+01  0.46905780646E+00  0.28990501965E+01  0.37358421343E+01  0.51100000000E-03 0.  1.
         12    1    3    3    0    0 -0.76303449276E+01 -0.37554320471E+00 -0.23711055409E+02  0.24911389865E+02  0.00000000000E+00 0. -1.
</event>
<event>
 7    1  0.3129575E-011  0.5052886E+02  0.7816164E-02  0.1300439E+00
        -11   -1    0    0    0    0  0.00000000000E+00  0.00000000000E+00  0.45593999997E+02  0.45594000000E+02  0.51100000000E-03 0. -1.
         11   -1    0    0    0    0 -0.00000000000E+00 -0.00000000000E+00 -0.45593999997E+02  0.45594000000E+02  0.51100000000E-03 0.  1.
    9900012    2    1    2    0    0  0.38774975113E+02 -0.84844849538E+00 -0.12204380982E+02  0.50528862343E+02  0.30000007579E+02 0.  0.
        -12    1    1    2    0    0 -0.38774975113E+02  0.84844849538E+00  0.12204380982E+02  0.40659137657E+02  0.00000000000E+00 0.  1.
         11    1    3    3    0    0  0.46527174040E+01 -0.63538913025E+01 -0.28078141037E+01  0.83608333453E+01  0.51100000000E-03 0. -1.
        -11    1    3    3    0    0  0.11479203099E+02  0.85768833112E+00 -0.14482471350E+02  0.18499992155E+02  0.51100000000E-03 0.  1.
         12    1    3    3    0    0  0.22643054610E+02  0.46477544760E+01  0.50859044716E+01  0.23668036843E+02  0.00000000000E+00 0. -1.
</event>
<event>
 7    1  0.3129575E-011  0.5052882E+02  0.7816164E-02  0.1300439E+00
        -11   -1    0    0    0    0  0.00000000000E+00  0.00000000000E+00  0.45593999997E+02  0.45594000000E+02  0.51100000000E-03 0. -1.
         11   -1    0    0    0    0 -0.00000000000E+00 -0.00000000000E+00 -0.45593999997E+02  0.45594000000E+02  0.51100000000E-03 0.  1.
    9900012    2    1    2    0    0  0.26321012094E+02  0.30823109526E+02  0.32107725374E+01  0.50528821223E+02  0.29999882590E+02 0.  0.
        -12    1    1    2    0    0 -0.26321012094E+02 -0.30823109526E+02 -0.32107725374E+01  0.40659178777E+02  0.00000000000E+00 0.  1.
         11    1    3    3    0    0  0.62760547220E+00  0.16073961097E+02  0.92651436481E+01  0.18563647300E+02  0.51100000000E-03 0. -1.
        -11    1    3    3    0    0  0.29066916366E+01  0.55085506697E+01 -0.37456684510E+01  0.72679446309E+01  0.51100000000E-03 0.  1.
         12    1    3    3    0    0  0.22786714985E+02  0.92405977589E+01 -0.23087026597E+01  0.24697229293E+02  0.00000000000E+00 0. -1.
</event>
<event>
 7    1  0.3129575E-011  0.5052887E+02  0.7816164E-02  0.1300439E+00
        -11   -1    0    0    0    0  0.00000000000E+00  0.00000000000E+00  0.45593999997E+02  0.45594000000E+02  0.51100000000E-03 0.  1.
         11   -1    0    0    0    0 -0.00000000000E+00 -0.00000000000E+00 -0.45593999997E+02  0.45594000000E+02  0.51100000000E-03 0. -1.
    9900012    2    1    2    0    0  0.17480017564E+01  0.39594184537E+02 -0.90779861254E+01  0.50528870750E+02  0.30000033132E+02 0.  0.
        -12    1    1    2    0    0 -0.17480017564E+01 -0.39594184537E+02  0.90779861254E+01  0.40659129250E+02  0.00000000000E+00 0.  1.
         11    1    3    3    0    0 -0.13880690674E+01  0.17327865604E+02 -0.99227621485E+01  0.20016065324E+02  0.51100000000E-03 0. -1.
        -11    1    3    3    0    0  0.63092328041E+01  0.47467945963E+01 -0.74638855462E+01  0.10864992647E+02  0.51100000000E-03 0.  1.
        -12    1    3    3    0    0 -0.31731619803E+01  0.17519524336E+02  0.83086615692E+01  0.19647812779E+02  0.00000000000E+00 0.  1.
</event>
<event>
 7    1  0.3129575E-011  0.5052886E+02  0.7816164E-02  0.1300439E+00
        -11   -1    0    0    0    0  0.00000000000E+00  0.00000000000E+00  0.45593999997E+02  0.45594000000E+02  0.51100000000E-03 0.  1.
         11   -1    0    0    0    0 -0.00000000000E+00 -0.00000000000E+00 -0.45593999997E+02  0.45594000000E+02  0.51100000000E-03 0. -1.
    9900012    2    1    2    0    0 -0.15657813889E+02  0.19602614344E+02 -0.31995878511E+02  0.50528857527E+02  0.29999992940E+02 0.  0.
        -12    1    1    2    0    0  0.15657813889E+02 -0.19602614344E+02  0.31995878511E+02  0.40659142473E+02  0.00000000000E+00 0.  1.
         11    1    3    3    0    0 -0.10287112817E+02  0.12326365869E+02 -0.24064024244E+02  0.28928208530E+02  0.51100000000E-03 0. -1.
        -11    1    3    3    0    0 -0.57398613796E+01  0.13069775988E+02 -0.59713006680E+01  0.15473250627E+02  0.51100000000E-03 0.  1.
        -12    1    3    3    0    0  0.36916030794E+00 -0.57935275132E+01 -0.19605535990E+01  0.61273983707E+01  0.00000000000E+00 0.  1.
</event>
<event>
 7    1  0.3129575E-011  0.5052884E+02  0.7816164E-02  0.1300439E+00
        -11   -1    0    0    0    0  0.00000000000E+00  0.00000000000E+00  0.45593999997E+02  0.45594000000E+02  0.51100000000E-03 0.  1.
         11   -1    0    0    0    0 -0.00000000000E+00 -0.00000000000E+00 -0.45593999997E+02  0.45594000000E+02  0.51100000000E-03 0. -1.
    9900012    2    1    2    0    0  0.98912513890E+01  0.37012993030E+02 -0.13615006528E+02  0.50528844699E+02  0.29999953946E+02 0.  0.
        -12    1    1    2    0    0 -0.98912513890E+01 -0.37012993030E+02  0.13615006528E+02  0.40659155301E+02  0.00000000000E+00 0.  1.
         11    1    3    3    0    0  0.48609569570E+01  0.82691405369E+01 -0.11629949833E+02  0.15075255259E+02  0.51100000000E-03 0. -1.
        -11    1    3    3    0    0  0.78405859406E+01  0.29515896319E+02 -0.53471974054E+01  0.31004119787E+02  0.51100000000E-03 0.  1.
        -12    1    3    3    0    0 -0.28102915086E+01 -0.77204382573E+00  0.33621407107E+01  0.44494696527E+01  0.00000000000E+00 0.  1.
</event>
<event>
 7    1  0.3129575E-011  0.5052886E+02  0.7816164E-02  0.1300439E+00
        -11   -1    0    0    0    0  0.00000000000E+00  0.00000000000E+00  0.45593999997E+02  0.45594000000E+02  0.51100000000E-03 0. -1.
         11   -1    0    0    0    0 -0.00000000000E+00 -0.00000000000E+00 -0.45593999997E+02  0.45594000000E+02  0.51100000000E-03 0.  1.
    9900012    2    1    2    0    0  0.15310854085E+02 -0.37512082464E+02  0.34039671312E+01  0.50528861104E+02  0.30000003810E+02 0.  0.
        -12    1    1    2    0    0 -0.15310854085E+02  0.37512082464E+02 -0.34039671312E+01  0.40659138896E+02  0.00000000000E+00 0.  1.
         11    1    3    3    0    0  0.96294235144E+01 -0.22316713145E+02  0.66563153621E+00  0.24314698198E+02  0.51100000000E-03 0. -1.
        -11    1    3    3    0    0  0.93973128112E+01 -0.86261724789E+01  0.96383810124E+01  0.15988080826E+02  0.51100000000E-03 0.  1.
         12    1    3    3    0    0 -0.37158822406E+01 -0.65691968392E+01 -0.69000454174E+01  0.10226082080E+02  0.00000000000E+00 0. -1.
</event>
<event>
 7    1  0.3129575E-011  0.5052886E+02  0.7816164E-02  0.1300439E+00
        -11   -1    0    0    0    0  0.00000000000E+00  0.00000000000E+00  0.45593999997E+02  0.45594000000E+02  0.51100000000E-03 0. -1.
         11   -1    0    0    0    0 -0.00000000000E+00 -0.00000000000E+00 -0.45593999997E+02  0.45594000000E+02  0.51100000000E-03 0.  1.
    9900012    2    1    2    0    0 -0.38780528631E+02 -0.80077783436E+01 -0.92256075570E+01  0.50528858965E+02  0.29999997311E+02 0.  0.
        -12    1    1    2    0    0  0.38780528631E+02  0.80077783436E+01  0.92256075570E+01  0.40659141035E+02  0.00000000000E+00 0.  1.
         11    1    3    3    0    0  0.16510425236E+01 -0.12527286818E+01  0.63306242123E+00  0.21670345764E+01  0.51100000000E-03 0. -1.
        -11    1    3    3    0    0 -0.15944554931E+02 -0.13663063311E+02 -0.91617411473E+01  0.22909509644E+02  0.51100000000E-03 0.  1.
         12    1    3    3    0    0 -0.24487016223E+02  0.69080136497E+01 -0.69692883089E+00  0.25452314746E+02  0.00000000000E+00 0. -1.
</event>
<event>
 7    1  0.3129575E-011  0.5052886E+02  0.7816164E-02  0.1300439E+00
        -11   -1    0    0    0    0  0.00000000000E+00  0.00000000000E+00  0.45593999997E+02  0.45594000000E+02  0.51100000000E-03 0.  1.
         11   -1    0    0    0    0 -0.00000000000E+00 -0.00000000000E+00 -0.45593999997E+02  0.45594000000E+02  0.51100000000E-03 0. -1.
    9900012    2    1    2    0    0  0.12482800416E+02 -0.10924252391E+02 -0.37121509383E+02  0.50528855206E+02  0.29999985884E+02 0.  0.
        -12    1    1    2    0    0 -0.12482800416E+02  0.10924252391E+02  0.37121509383E+02  0.40659144794E+02  0.00000000000E+00 0.  1.
         11    1    3    3    0    0  0.23377944194E+01 -0.13524543528E+02 -0.15567180979E+02  0.20753690859E+02  0.51100000000E-03 0. -1.
        -11    1    3    3    0    0  0.67751207666E+01 -0.44493837189E+01 -0.20303928185E+02  0.21862039633E+02  0.51100000000E-03 0.  1.
        -12    1    3    3    0    0  0.33698852299E+01  0.70496748557E+01 -0.12504002189E+01  0.79131247141E+01  0.00000000000E+00 0.  1.
</event>
<event>
 7    1  0.3129575E-011  0.5052886E+02  0.7816164E-02  0.1300439E+00
        -11   -1    0    0    0    0  0.00000000000E+00  0.00000000000E+00  0.45593999997E+02  0.45594000000E+02  0.51100000000E-03 0. -1.
         11   -1    0    0    0    0 -0.00000000000E+00 -0.00000000000E+00 -0.45593999997E+02  0.45594000000E+02  0.51100000000E-03 0.  1.
    9900012    2    1    2    0    0  0.20469387433E+02  0.20477713598E+02  0.28545275104E+02  0.50528864411E+02  0.30000013864E+02 0.  0.
        -12    1    1    2    0    0 -0.20469387433E+02 -0.20477713598E+02 -0.28545275104E+02  0.40659135589E+02  0.00000000000E+00 0.  1.
         11    1    3    3    0    0  0.79516250160E+01  0.18164837291E+02  0.21545024519E+02  0.29281013234E+02  0.51100000000E-03 0. -1.
        -11    1    3    3    0    0  0.69999763438E+01  0.54304076398E+01 -0.30470424051E+01  0.93687493097E+01  0.51100000000E-03 0.  1.
        -12    1    3    3    0    0  0.55177860729E+01 -0.31175313331E+01  0.10047292990E+02  0.11879101867E+02  0.00000000000E+00 0.  1.
</event>
<event>
 7    1  0.3129575E-011  0.5052886E+02  0.7816164E-02  0.1300439E+00
        -11   -1    0    0    0    0  0.00000000000E+00  0.00000000000E+00  0.45593999997E+02  0.45594000000E+02  0.51100000000E-03 0. -1.
         11   -1    0    0    0    0 -0.00000000000E+00 -0.00000000000E+00 -0.45593999997E+02  0.45594000000E+02  0.51100000000E-03 0.  1.
    9900012    2    1    2    0    0 -0.27543684943E+02 -0.29742943032E+02  0.31414229457E+01  0.50528858610E+02  0.29999996231E+02 0.  0.
        -12    1    1    2    0    0  0.27543684943E+02  0.29742943032E+02 -0.31414229457E+01  0.40659141390E+02  0.00000000000E+00 0.  1.
         11    1    3    3    0    0 -0.13483153386E+01 -0.19483291617E+01  0.52791532348E+01  0.57864842445E+01  0.51100000000E-03 0. -1.
        -11    1    3    3    0    0 -0.15573012846E+02 -0.71263323471E+01 -0.10449708636E+02  0.20062396484E+02  0.51100000000E-03 0.  1.
         12    1    3    3    0    0 -0.10622356758E+02 -0.20668281523E+02  0.83119783469E+01  0.24679977882E+02  0.00000000000E+00 0. -1.
</event>
<event>
 7    1  0.3129575E-011  0.5052887E+02  0.7816164E-02  0.1300439E+00
        -11   -1    0    0    0    0  0.00000000000E+00  0.00000000000E+00  0.45593999997E+02  0.45594000000E+02  0.51100000000E-03 0.  1.
         11   -1    0    0    0    0 -0.00000000000E+00 -0.00000000000E+00 -0.45593999997E+02  0.45594000000E+02  0.51100000000E-03 0. -1.
    9900012    2    1    2    0    0 -0.10000703566E+02 -0.22155162310E+02 -0.32592940126E+02  0.50528867756E+02  0.30000024030E+02 0.  0.
        -12    1    1    2    0    0  0.10000703566E+02  0.22155162310E+02  0.32592940126E+02  0.40659132244E+02  0.00000000000E+00 0.  1.
         11    1    3    3    0    0 -0.49120279492E+00 -0.84199028021E+01 -0.48215243856E+01  0.97150986122E+01  0.51100000000E-03 0. -1.
        -11    1    3    3    0    0  0.81842601163E+01 -0.72940186331E+01 -0.85167468833E+01  0.13882355679E+02  0.51100000000E-03 0.  1.
        -12    1    3    3    0    0 -0.17693760888E+02 -0.64412408743E+01 -0.19254668858E+02  0.26931413464E+02  0.00000000000E+00 0.  1.
</event>
<event>
 7    1  0.3129575E-011  0.5052886E+02  0.7816164E-02  0.1300439E+00
        -11   -1    0    0    0    0  0.00000000000E+00  0.00000000000E+00  0.45593999997E+02  0.45594000000E+02  0.51100000000E-03 0. -1.
         11   -1    0    0    0    0 -0.00000000000E+00 -0.00000000000E+00 -0.45593999997E+02  0.45594000000E+02  0.51100000000E-03 0.  1.
    9900012    2    1    2    0    0 -0.27281244519E+02  0.27159557043E+02 -0.13086542225E+02  0.50528862913E+02  0.30000009309E+02 0.  0.
        -12    1    1    2    0    0  0.27281244519E+02 -0.27159557043E+02  0.13086542225E+02  0.40659137087E+02  0.00000000000E+00 0.  1.
         11    1    3    3    0    0 -0.16085528882E+02  0.60720962075E+01  0.14235167622E+01  0.17252274980E+02  0.51100000000E-03 0. -1.
        -11    1    3    3    0    0 -0.94178280954E+01  0.10166045432E+01 -0.69784740228E+01  0.11765545919E+02  0.51100000000E-03 0.  1.
        -12    1    3    3    0    0 -0.17778875422E+01  0.20070856292E+02 -0.75315849640E+01  0.21511042013E+02  0.00000000000E+00 0.  1.
</event>
<event>
 7    1  0.3129575E-011  0.5052885E+02  0.7816164E-02  0.1300439E+00
        -11   -1    0    0    0    0  0.00000000000E+00  0.00000000000E+00  0.45593999997E+02  0.45594000000E+02  0.51100000000E-03 0.  1.
         11   -1    0    0    0    0 -0.00000000000E+00 -0.00000000000E+00 -0.45593999997E+02  0.45594000000E+02  0.51100000000E-03 0. -1.
    9900012    2    1    2    0    0  0.39317552037E+01  0.41242438021E+01 -0.40257897460E+02  0.50528851044E+02  0.29999973234E+02 0.  0.
        -12    1    1    2    0    0 -0.39317552037E+01 -0.41242438021E+01  0.40257897460E+02  0.40659148956E+02  0.00000000000E+00 0.  1.
         11    1    3    3    0    0  0.30167996186E+01 -0.52679543176E+00 -0.89602416207E+01  0.94691353104E+01  0.51100000000E-03 0. -1.
        -11    1    3    3    0    0  0.39292656751E+01 -0.52785625274E+01 -0.29868411127E+02  0.30584707528E+02  0.51100000000E-03 0.  1.
         12    1    3    3    0    0 -0.30143100900E+01  0.99296017612E+01 -0.14292447123E+01  0.10475008205E+02  0.00000000000E+00 0. -1.
</event>
<event>
 7    1  0.3129575E-011  0.5052886E+02  0.7816164E-02  0.1300439E+00
        -11   -1    0    0    0    0  0.00000000000E+00  0.00000000000E+00  0.45593999997E+02  0.45594000000E+02  0.51100000000E-03 0. -1.
         11   -1    0    0    0    0 -0.00000000000E+00 -0.00000000000E+00 -0.45593999997E+02  0.45594000000E+02  0.51100000000E-03 0.  1.
    9900012    2    1    2    0    0 -0.30998543107E+02 -0.25555112051E+02  0.62603429705E+01  0.50528864239E+02  0.30000013342E+02 0.  0.
        -12    1    1    2    0    0  0.30998543107E+02  0.25555112051E+02 -0.62603429705E+01  0.40659135761E+02  0.00000000000E+00 0.  1.
         11    1    3    3    0    0 -0.48319870684E+01 -0.23751145626E+01  0.62685863795E+01  0.82634401839E+01  0.51100000000E-03 0. -1.
        -11    1    3    3    0    0 -0.92452474605E+01 -0.21350458948E+02  0.63163785623E+01  0.24108366520E+02  0.51100000000E-03 0.  1.
        -12    1    3    3    0    0 -0.16921308578E+02 -0.18295385412E+01 -0.63246219712E+01  0.18157057535E+02  0.00000000000E+00 0.  1.
</event>
<event>
 7    1  0.3129575E-011  0.5052885E+02  0.7816164E-02  0.1300439E+00
        -11   -1    0    0    0    0  0.00000000000E+00  0.00000000000E+00  0.45593999997E+02  0.45594000000E+02  0.51100000000E-03 0.  1.
         11   -1    0    0    0    0 -0.00000000000E+00 -0.00000000000E+00 -0.45593999997E+02  0.45594000000E+02  0.51100000000E-03 0. -1.
    9900012    2    1    2    0    0  0.56550842792E+01 -0.29588003578E+02 -0.27308177520E+02  0.50528849819E+02  0.29999969511E+02 0.  0.
        -12    1    1    2    0    0 -0.56550842792E+01  0.29588003578E+02  0.27308177520E+02  0.40659150181E+02  0.00000000000E+00 0.  1.
         11    1    3    3    0    0  0.96157452125E+01 -0.13938375722E+02 -0.20989354034E+02  0.26968386247E+02  0.51100000000E-03 0. -1.
        -11    1    3    3    0    0 -0.20858996188E+01 -0.41562092235E+00 -0.78521748227E+01  0.81351316940E+01  0.51100000000E-03 0.  1.
        -12    1    3    3    0    0 -0.18747613145E+01 -0.15234006934E+02  0.15333513361E+01  0.15425331878E+02  0.00000000000E+00 0.  1.
</event>
<event>
 7    1  0.3129575E-011  0.5052886E+02  0.7816164E-02  0.1300439E+00
        -11   -1    0    0    0    0  0.00000000000E+00  0.00000000000E+00  0.45593999997E+02  0.45594000000E+02  0.51100000000E-03 0.  1.
         11   -1    0    0    0    0 -0.00000000000E+00 -0.00000000000E+00 -0.45593999997E+02  0.45594000000E+02  0.51100000000E-03 0. -1.
    9900012    2    1    2    0    0  0.21968928242E+02  0.14097883289E+02 -0.31173414931E+02  0.50528856874E+02  0.29999990953E+02 0.  0.
        -12    1    1    2    0    0 -0.21968928242E+02 -0.14097883289E+02  0.31173414931E+02  0.40659143126E+02  0.00000000000E+00 0.  1.
         11    1    3    3    0    0  0.30127340385E+01  0.80449551008E+01 -0.73385569755E+01  0.11298331191E+02  0.51100000000E-03 0. -1.
        -11    1    3    3    0    0  0.23878601146E+02  0.76880621836E+01 -0.15734970712E+02  0.29612213636E+02  0.51100000000E-03 0.  1.
        -12    1    3    3    0    0 -0.49224069424E+01 -0.16351339954E+01 -0.80998872427E+01  0.96183120470E+01  0.00000000000E+00 0.  1.
</event>
<event>
 7    1  0.3129575E-011  0.5052886E+02  0.7816164E-02  0.1300439E+00
        -11   -1    0    0    0    0  0.00000000000E+00  0.00000000000E+00  0.45593999997E+02  0.45594000000E+02  0.51100000000E-03 0.  1.
         11   -1    0    0    0    0 -0.00000000000E+00 -0.00000000000E+00 -0.45593999997E+02  0.45594000000E+02  0.51100000000E-03 0. -1.
    9900012    2    1    2    0    0  0.50723050613E+00  0.85890721752E+01 -0.39738348040E+02  0.50528858979E+02  0.29999997351E+02 0.  0.
        -12    1    1    2    0    0 -0.50723050613E+00 -0.85890721752E+01  0.39738348040E+02  0.40659141021E+02  0.00000000000E+00 0.  1.
         11    1    3    3    0    0  0.12734707880E+01  0.21513700432E+01 -0.90366491147E+00  0.26583324555E+01  0.51100000000E-03 0. -1.
        -11    1    3    3    0    0 -0.13711791141E+01 -0.10576238819E+01  0.40115902026E+01  0.43693885904E+01  0.51100000000E-03 0.  1.
         12    1    3    3    0    0  0.60493883221E+00  0.74953260140E+01 -0.42846273332E+02  0.43501137933E+02  0.00000000000E+00 0. -1.
</event>
<event>
 7    1  0.3129575E-011  0.5052886E+02  0.7816164E-02  0.1300439E+00
        -11   -1    0    0    0    0  0.00000000000E+00  0.00000000000E+00  0.45593999997E+02  0.45594000000E+02  0.51100000000E-03 0. -1.
         11   -1    0    0    0    0 -0.00000000000E+00 -0.00000000000E+00 -0.45593999997E+02  0.45594000000E+02  0.51100000000E-03 0.  1.
    9900012    2    1    2    0    0  0.23698416916E+02  0.26898364183E+02  0.19184071780E+02  0.50528861173E+02  0.30000004022E+02 0.  0.
        -12    1    1    2    0    0 -0.23698416916E+02 -0.26898364183E+02 -0.19184071780E+02  0.40659138827E+02  0.00000000000E+00 0.  1.
         11    1    3    3    0    0  0.10093091966E+02  0.17634012009E+02 -0.37255929866E+01  0.20656934147E+02  0.51100000000E-03 0.  1.
        -11    1    3    3    0    0  0.53253548602E+01 -0.13926462744E+01  0.85249085638E+01  0.10147558047E+02  0.51100000000E-03 0. -1.
        -12    1    3    3    0    0  0.82799700897E+01  0.10656998449E+02  0.14384756203E+02  0.19724368980E+02  0.00000000000E+00 0.  1.
</event>
<event>
 7    1  0.3129575E-011  0.5052886E+02  0.7816164E-02  0.1300439E+00
        -11   -1    0    0    0    0  0.00000000000E+00  0.00000000000E+00  0.45593999997E+02  0.45594000000E+02  0.51100000000E-03 0.  1.
         11   -1    0    0    0    0 -0.00000000000E+00 -0.00000000000E+00 -0.45593999997E+02  0.45594000000E+02  0.51100000000E-03 0. -1.
    9900012    2    1    2    0    0 -0.18468509479E+02 -0.61605399824E+01 -0.35694918722E+02  0.50528864276E+02  0.30000013453E+02 0.  0.
        -12    1    1    2    0    0  0.18468509479E+02  0.61605399824E+01  0.35694918722E+02  0.40659135724E+02  0.00000000000E+00 0.  1.
         11    1    3    3    0    0 -0.38131095578E+01 -0.21338813814E+00  0.26144705425E+01  0.46282605238E+01  0.51100000000E-03 0.  1.
        -11    1    3    3    0    0 -0.19256724573E+02 -0.22724034926E+01 -0.29749618062E+02  0.35510914294E+02  0.51100000000E-03 0. -1.
        -12    1    3    3    0    0  0.46013246516E+01 -0.36747483516E+01 -0.85597712026E+01  0.10389689458E+02  0.00000000000E+00 0.  1.
</event>
<event>
 7    1  0.3129575E-011  0.5052883E+02  0.7816164E-02  0.1300439E+00
        -11   -1    0    0    0    0  0.00000000000E+00  0.00000000000E+00  0.45593999997E+02  0.45594000000E+02  0.51100000000E-03 0.  1.
         11   -1    0    0    0    0 -0.00000000000E+00 -0.00000000000E+00 -0.45593999997E+02  0.45594000000E+02  0.51100000000E-03 0. -1.
    9900012    2    1    2    0    0  0.21920050156E+02 -0.32638922086E+02 -0.10362456991E+02  0.50528827004E+02  0.29999900162E+02 0.  0.
        -12    1    1    2    0    0 -0.21920050156E+02  0.32638922086E+02  0.10362456991E+02  0.40659172996E+02  0.00000000000E+00 0.  1.
         11    1    3    3    0    0  0.19383558396E+02 -0.25271937041E+02  0.50769943926E+01  0.32251651279E+02  0.51100000000E-03 0.  1.
        -11    1    3    3    0    0  0.65912259129E+00  0.93745568504E+00 -0.10323909944E+01  0.15424322281E+01  0.51100000000E-03 0. -1.
        -12    1    3    3    0    0  0.18773691689E+01 -0.83044407301E+01 -0.14407060390E+02  0.16734743497E+02  0.00000000000E+00 0.  1.
</event>
<event>
 7    1  0.3129575E-011  0.5052886E+02  0.7816164E-02  0.1300439E+00
        -11   -1    0    0    0    0  0.00000000000E+00  0.00000000000E+00  0.45593999997E+02  0.45594000000E+02  0.51100000000E-03 0.  1.
         11   -1    0    0    0    0 -0.00000000000E+00 -0.00000000000E+00 -0.45593999997E+02  0.45594000000E+02  0.51100000000E-03 0. -1.
    9900012    2    1    2    0    0 -0.70523820077E+01  0.27959513604E+02 -0.28665224517E+02  0.50528860934E+02  0.30000003295E+02 0.  0.
        -12    1    1    2    0    0  0.70523820077E+01 -0.27959513604E+02  0.28665224517E+02  0.40659139066E+02  0.00000000000E+00 0.  1.
         11    1    3    3    0    0  0.55037258634E+00 -0.24823086496E+01 -0.43783675815E+01  0.50630888947E+01  0.51100000000E-03 0. -1.
        -11    1    3    3    0    0 -0.79330217246E+01  0.43441960559E+01  0.10318366218E+01  0.91032719464E+01  0.51100000000E-03 0.  1.
        -12    1    3    3    0    0  0.33026713058E+00  0.26097626198E+02 -0.25318693557E+02  0.36362500093E+02  0.00000000000E+00 0.  1.
</event>
<event>
 7    1  0.3129575E-011  0.5052885E+02  0.7816164E-02  0.1300439E+00
        -11   -1    0    0    0    0  0.00000000000E+00  0.00000000000E+00  0.45593999997E+02  0.45594000000E+02  0.51100000000E-03 0. -1.
         11   -1    0    0    0    0 -0.00000000000E+00 -0.00000000000E+00 -0.45593999997E+02  0.45594000000E+02  0.51100000000E-03 0.  1.
    9900012    2    1    2    0    0  0.18095391558E+02  0.32803980682E+02  0.15799428157E+02  0.50528852514E+02  0.29999977702E+02 0.  0.
        -12    1    1    2    0    0 -0.18095391558E+02 -0.32803980682E+02 -0.15799428157E+02  0.40659147486E+02  0.00000000000E+00 0.  1.
         11    1    3    3    0    0  0.23036911655E+01  0.24927293438E+02  0.49511301172E+01  0.25518437272E+02  0.51100000000E-03 0. -1.
        -11    1    3    3    0    0  0.12033468547E+02  0.11966514225E+02  0.78461140820E+01  0.18696612913E+02  0.51100000000E-03 0.  1.
        -12    1    3    3    0    0  0.37582318454E+01 -0.40898269808E+01  0.30021839581E+01  0.63138023295E+01  0.00000000000E+00 0.  1.
</event>
<event>
 7    1  0.3129575E-011  0.5052886E+02  0.7816164E-02  0.1300439E+00
        -11   -1    0    0    0    0  0.00000000000E+00  0.00000000000E+00  0.45593999997E+02  0.45594000000E+02  0.51100000000E-03 0.  1.
         11   -1    0    0    0    0 -0.00000000000E+00 -0.00000000000E+00 -0.45593999997E+02  0.45594000000E+02  0.51100000000E-03 0. -1.
    9900012    2    1    2    0    0 -0.28608993697E+02  0.28479816994E+02  0.48570687165E+01  0.50528860647E+02  0.30000002424E+02 0.  0.
        -12    1    1    2    0    0  0.28608993697E+02 -0.28479816994E+02 -0.48570687165E+01  0.40659139353E+02  0.00000000000E+00 0.  1.
         11    1    3    3    0    0 -0.17970411129E+01  0.13065560031E+02 -0.17085976314E+01  0.13298778959E+02  0.51100000000E-03 0. -1.
        -11    1    3    3    0    0 -0.17438881865E+02  0.17465870282E+02  0.10548834738E+02  0.26841183655E+02  0.51100000000E-03 0.  1.
         12    1    3    3    0    0 -0.93730707192E+01 -0.20516133193E+01 -0.39831683897E+01  0.10388898033E+02  0.00000000000E+00 0. -1.
</event>
<event>
 7    1  0.3129575E-011  0.5052886E+02  0.7816164E-02  0.1300439E+00
        -11   -1    0    0    0    0  0.00000000000E+00  0.00000000000E+00  0.45593999997E+02  0.45594000000E+02  0.51100000000E-03 0.  1.
         11   -1    0    0    0    0 -0.00000000000E+00 -0.00000000000E+00 -0.45593999997E+02  0.45594000000E+02  0.51100000000E-03 0. -1.
    9900012    2    1    2    0    0  0.35416257023E+02  0.13077679861E+02  0.15093990312E+02  0.50528861844E+02  0.30000006062E+02 0.  0.
        -12    1    1    2    0    0 -0.35416257023E+02 -0.13077679861E+02 -0.15093990312E+02  0.40659138156E+02  0.00000000000E+00 0.  1.
         11    1    3    3    0    0 -0.37663290898E+01  0.17602233877E+00  0.78726663767E-01  0.37712619672E+01  0.51100000000E-03 0. -1.
        -11    1    3    3    0    0  0.76038360958E+01  0.73555752158E+00  0.99421825203E+01  0.12538196113E+02  0.51100000000E-03 0.  1.
         12    1    3    3    0    0  0.31578750017E+02  0.12166100001E+02  0.50730811277E+01  0.34219403764E+02  0.00000000000E+00 0. -1.
</event>
<event>
 7    1  0.3129575E-011  0.5052887E+02  0.7816164E-02  0.1300439E+00
        -11   -1    0    0    0    0  0.00000000000E+00  0.00000000000E+00  0.45593999997E+02  0.45594000000E+02  0.51100000000E-03 0.  1.
         11   -1    0    0    0    0 -0.00000000000E+00 -0.00000000000E+00 -0.45593999997E+02  0.45594000000E+02  0.51100000000E-03 0. -1.
    9900012    2    1    2    0    0  0.23298021898E+02 -0.47451308806E+01 -0.32982586401E+02  0.50528866990E+02  0.30000021703E+02 0.  0.
        -12    1    1    2    0    0 -0.23298021898E+02  0.47451308806E+01  0.32982586401E+02  0.40659133010E+02  0.00000000000E+00 0.  1.
         11    1    3    3    0    0  0.37330484563E+01 -0.88515441298E+01 -0.62671903287E+01  0.11470098480E+02  0.51100000000E-03 0.  1.
        -11    1    3    3    0    0 -0.14021135975E+01 -0.39260816485E+01 -0.10687833985E+02  0.11472132984E+02  0.51100000000E-03 0. -1.
        -12    1    3    3    0    0  0.20967087039E+02  0.80324948977E+01 -0.16027562086E+02  0.27586635526E+02  0.00000000000E+00 0.  1.
</event>
<event>
 7    1  0.3129575E-011  0.5052886E+02  0.7816164E-02  0.1300439E+00
        -11   -1    0    0    0    0  0.00000000000E+00  0.00000000000E+00  0.45593999997E+02  0.45594000000E+02  0.51100000000E-03 0.  1.
         11   -1    0    0    0    0 -0.00000000000E+00 -0.00000000000E+00 -0.45593999997E+02  0.45594000000E+02  0.51100000000E-03 0. -1.
    9900012    2    1    2    0    0  0.23597420692E+02  0.98580161194E+01 -0.31609279786E+02  0.50528864326E+02  0.30000013606E+02 0.  0.
        -12    1    1    2    0    0 -0.23597420692E+02 -0.98580161194E+01  0.31609279786E+02  0.40659135674E+02  0.00000000000E+00 0.  1.
         11    1    3    3    0    0  0.19461103846E+02  0.38502695107E+01 -0.27464981186E+02  0.33880441703E+02  0.51100000000E-03 0. -1.
        -11    1    3    3    0    0  0.16427305314E+01  0.10495917871E+02 -0.11027150962E+01  0.10680769466E+02  0.51100000000E-03 0.  1.
        -12    1    3    3    0    0  0.24935863149E+01 -0.44881712620E+01 -0.30415835042E+01  0.59676531568E+01  0.00000000000E+00 0.  1.
</event>
<event>
 7    1  0.3129575E-011  0.5052886E+02  0.7816164E-02  0.1300439E+00
        -11   -1    0    0    0    0  0.00000000000E+00  0.00000000000E+00  0.45593999997E+02  0.45594000000E+02  0.51100000000E-03 0. -1.
         11   -1    0    0    0    0 -0.00000000000E+00 -0.00000000000E+00 -0.45593999997E+02  0.45594000000E+02  0.51100000000E-03 0.  1.
    9900012    2    1    2    0    0 -0.63430054866E+01  0.23514133787E+02  0.32557912793E+02  0.50528857217E+02  0.29999991998E+02 0.  0.
        -12    1    1    2    0    0  0.63430054866E+01 -0.23514133787E+02 -0.32557912793E+02  0.40659142783E+02  0.00000000000E+00 0.  1.
         11    1    3    3    0    0 -0.95664529727E+00 -0.21913724305E+01  0.16141037561E+02  0.16317180429E+02  0.51100000000E-03 0. -1.
        -11    1    3    3    0    0 -0.80641114515E+01  0.75861335406E+01  0.96457556484E+01  0.14684002107E+02  0.51100000000E-03 0.  1.
         12    1    3    3    0    0  0.26777512622E+01  0.18119372677E+02  0.67711195845E+01  0.19527674681E+02  0.00000000000E+00 0. -1.
</event>
<event>
 7    1  0.3129575E-011  0.5052887E+02  0.7816164E-02  0.1300439E+00
        -11   -1    0    0    0    0  0.00000000000E+00  0.00000000000E+00  0.45593999997E+02  0.45594000000E+02  0.51100000000E-03 0. -1.
         11   -1    0    0    0    0 -0.00000000000E+00 -0.00000000000E+00 -0.45593999997E+02  0.45594000000E+02  0.51100000000E-03 0.  1.
    9900012    2    1    2    0    0  0.19908301376E+01 -0.32550586260E+02  0.24282936579E+02  0.50528867208E+02  0.30000022364E+02 0.  0.
        -12    1    1    2    0    0 -0.19908301376E+01  0.32550586260E+02 -0.24282936579E+02  0.40659132792E+02  0.00000000000E+00 0.  1.
         11    1    3    3    0    0 -0.48714366429E+01 -0.11045731478E+02  0.12292687822E+02  0.17229313770E+02  0.51100000000E-03 0. -1.
        -11    1    3    3    0    0 -0.93593531419E+00  0.40423940421E+01  0.29849685351E+01  0.51114539928E+01  0.51100000000E-03 0.  1.
        -12    1    3    3    0    0  0.77982020947E+01 -0.25547248825E+02  0.90052802215E+01  0.28188099445E+02  0.00000000000E+00 0.  1.
</event>
<event>
 7    1  0.3129575E-011  0.5052886E+02  0.7816164E-02  0.1300439E+00
        -11   -1    0    0    0    0  0.00000000000E+00  0.00000000000E+00  0.45593999997E+02  0.45594000000E+02  0.51100000000E-03 0.  1.
         11   -1    0    0    0    0 -0.00000000000E+00 -0.00000000000E+00 -0.45593999997E+02  0.45594000000E+02  0.51100000000E-03 0. -1.
    9900012    2    1    2    0    0 -0.16127914699E+02  0.14288013880E+02 -0.34480557131E+02  0.50528858429E+02  0.29999995682E+02 0.  0.
        -12    1    1    2    0    0  0.16127914699E+02 -0.14288013880E+02  0.34480557131E+02  0.40659141571E+02  0.00000000000E+00 0.  1.
         11    1    3    3    0    0 -0.68782026228E+01  0.75042612483E+01 -0.33001317731E+01  0.10701143779E+02  0.51100000000E-03 0. -1.
        -11    1    3    3    0    0 -0.59838481121E+01  0.10078646267E+02 -0.41993510546E+01  0.12450706741E+02  0.51100000000E-03 0.  1.
         12    1    3    3    0    0 -0.32658639646E+01 -0.32948936355E+01 -0.26981074304E+02  0.27377007910E+02  0.00000000000E+00 0. -1.
</event>
<event>
 7    1  0.3129575E-011  0.5052886E+02  0.7816164E-02  0.1300439E+00
        -11   -1    0    0    0    0  0.00000000000E+00  0.00000000000E+00  0.45593999997E+02  0.45594000000E+02  0.51100000000E-03 0. -1.
         11   -1    0    0    0    0 -0.00000000000E+00 -0.00000000000E+00 -0.45593999997E+02  0.45594000000E+02  0.51100000000E-03 0.  1.
    9900012    2    1    2    0    0 -0.94812600329E+01  0.32055073839E+02  0.23146144653E+02  0.50528855113E+02  0.29999985602E+02 0.  0.
        -12    1    1    2    0    0  0.94812600329E+01 -0.32055073839E+02 -0.23146144653E+02  0.40659144887E+02  0.00000000000E+00 0.  1.
         11    1    3    3    0    0  0.19772989607E+01  0.45548678073E+01  0.14241685413E+02  0.15082510918E+02  0.51100000000E-03 0. -1.
        -11    1    3    3    0    0 -0.12177874551E+02  0.19864345100E+02  0.13073092411E+02  0.26717009195E+02  0.51100000000E-03 0.  1.
        -12    1    3    3    0    0  0.71931555781E+00  0.76358609314E+01 -0.41686331713E+01  0.87293350006E+01  0.00000000000E+00 0.  1.
</event>
<event>
 7    1  0.3129575E-011  0.5052886E+02  0.7816164E-02  0.1300439E+00
        -11   -1    0    0    0    0  0.00000000000E+00  0.00000000000E+00  0.45593999997E+02  0.45594000000E+02  0.51100000000E-03 0.  1.
         11   -1    0    0    0    0 -0.00000000000E+00 -0.00000000000E+00 -0.45593999997E+02  0.45594000000E+02  0.51100000000E-03 0. -1.
    9900012    2    1    2    0    0  0.27077647410E+02  0.25793614333E+02 -0.15957957704E+02  0.50528856579E+02  0.29999990058E+02 0.  0.
        -12    1    1    2    0    0 -0.27077647410E+02 -0.25793614333E+02  0.15957957704E+02  0.40659143421E+02  0.00000000000E+00 0.  1.
         11    1    3    3    0    0  0.11322151190E+02  0.11584068091E+02 -0.17450441392E+02  0.23809654474E+02  0.51100000000E-03 0. -1.
        -11    1    3    3    0    0  0.43524305281E+01 -0.26469900368E+01 -0.29529095852E+01  0.58881137078E+01  0.51100000000E-03 0.  1.
         12    1    3    3    0    0  0.11403065692E+02  0.16856536279E+02  0.44453932732E+01  0.20831088398E+02  0.00000000000E+00 0. -1.
</event>
<event>
 7    1  0.3129575E-011  0.5052886E+02  0.7816164E-02  0.1300439E+00
        -11   -1    0    0    0    0  0.00000000000E+00  0.00000000000E+00  0.45593999997E+02  0.45594000000E+02  0.51100000000E-03 0.  1.
         11   -1    0    0    0    0 -0.00000000000E+00 -0.00000000000E+00 -0.45593999997E+02  0.45594000000E+02  0.51100000000E-03 0. -1.
    9900012    2    1    2    0    0 -0.23448772597E+02 -0.33122323458E+02  0.24965165630E+01  0.50528857824E+02  0.29999993841E+02 0.  0.
        -12    1    1    2    0    0  0.23448772597E+02  0.33122323458E+02 -0.24965165630E+01  0.40659142176E+02  0.00000000000E+00 0.  1.
         11    1    3    3    0    0 -0.25650830504E+01 -0.23292884548E+01 -0.68656151174E+01  0.76903775565E+01  0.51100000000E-03 0. -1.
        -11    1    3    3    0    0 -0.12157634703E+02 -0.10945767567E+02  0.12948034083E+02  0.20863113288E+02  0.51100000000E-03 0.  1.
        -12    1    3    3    0    0 -0.87260548442E+01 -0.19847267436E+02 -0.35859024030E+01  0.21975366979E+02  0.00000000000E+00 0.  1.
</event>
<event>
 7    1  0.3129575E-011  0.5052887E+02  0.7816164E-02  0.1300439E+00
        -11   -1    0    0    0    0  0.00000000000E+00  0.00000000000E+00  0.45593999997E+02  0.45594000000E+02  0.51100000000E-03 0.  1.
         11   -1    0    0    0    0 -0.00000000000E+00 -0.00000000000E+00 -0.45593999997E+02  0.45594000000E+02  0.51100000000E-03 0. -1.
    9900012    2    1    2    0    0 -0.37556204860E+01  0.33364862160E+02 -0.22931334059E+02  0.50528870718E+02  0.30000033036E+02 0.  0.
        -12    1    1    2    0    0  0.37556204860E+01 -0.33364862160E+02  0.22931334059E+02  0.40659129282E+02  0.00000000000E+00 0.  1.
         11    1    3    3    0    0 -0.93233824760E+01  0.29660821608E+02 -0.15107037860E+02  0.34567504862E+02  0.51100000000E-03 0. -1.
        -11    1    3    3    0    0  0.58336689443E+00 -0.23753918450E+00  0.31866660709E+01  0.32483199821E+01  0.51100000000E-03 0.  1.
         12    1    3    3    0    0  0.49843950956E+01  0.39415797372E+01 -0.11010962269E+02  0.12713045874E+02  0.00000000000E+00 0. -1.
</event>
<event>
 7    1  0.3129575E-011  0.5052883E+02  0.7816164E-02  0.1300439E+00
        -11   -1    0    0    0    0  0.00000000000E+00  0.00000000000E+00  0.45593999997E+02  0.45594000000E+02  0.51100000000E-03 0.  1.
         11   -1    0    0    0    0 -0.00000000000E+00 -0.00000000000E+00 -0.45593999997E+02  0.45594000000E+02  0.51100000000E-03 0. -1.
    9900012    2    1    2    0    0 -0.21377306860E+02  0.18667025243E+02 -0.29115651410E+02  0.50528828377E+02  0.29999904336E+02 0.  0.
        -12    1    1    2    0    0  0.21377306860E+02 -0.18667025243E+02  0.29115651410E+02  0.40659171623E+02  0.00000000000E+00 0.  1.
         11    1    3    3    0    0 -0.14364659877E+02  0.17755278697E+02 -0.19049301114E+02  0.29740027710E+02  0.51100000000E-03 0. -1.
        -11    1    3    3    0    0 -0.11683375498E+02  0.11536379931E+01 -0.10921019206E+02  0.16034363237E+02  0.51100000000E-03 0.  1.
        -12    1    3    3    0    0  0.46707285156E+01 -0.24189144766E+00  0.85466890954E+00  0.47544374308E+01  0.00000000000E+00 0.  1.
</event>
<event>
 7    1  0.3808711E-011  0.5052887E+02  0.7816164E-02  0.1300439E+00
        -11   -1    0    0    0    0  0.00000000000E+00  0.00000000000E+00  0.45593999997E+02  0.45594000000E+02  0.51100000000E-03 0.  1.
         11   -1    0    0    0    0 -0.00000000000E+00 -0.00000000000E+00 -0.45593999997E+02  0.45594000000E+02  0.51100000000E-03 0. -1.
    9900012    2    1    2    0    0 -0.40409412367E+01 -0.25202155340E+02 -0.31649440684E+02  0.50528868978E+02  0.30000027744E+02 0.  0.
        -12    1    1    2    0    0  0.40409412367E+01  0.25202155340E+02  0.31649440684E+02  0.40659131022E+02  0.00000000000E+00 0.  1.
         11    1    3    3    0    0 -0.10386136278E-01 -0.16278895597E+01 -0.13982017983E+02  0.14076468287E+02  0.51100000000E-03 0. -1.
        -11    1    3    3    0    0  0.92154482767E+00 -0.12909795426E+00  0.40240766827E+01  0.41302668874E+01  0.51100000000E-03 0.  1.
         12    1    3    3    0    0 -0.49520999281E+01 -0.23445167826E+02 -0.21691499384E+02  0.32322133804E+02  0.00000000000E+00 0. -1.
</event>
<event>
 7    1  0.3129575E-011  0.5052887E+02  0.7816164E-02  0.1300439E+00
        -11   -1    0    0    0    0  0.00000000000E+00  0.00000000000E+00  0.45593999997E+02  0.45594000000E+02  0.51100000000E-03 0.  1.
         11   -1    0    0    0    0 -0.00000000000E+00 -0.00000000000E+00 -0.45593999997E+02  0.45594000000E+02  0.51100000000E-03 0. -1.
    9900012    2    1    2    0    0 -0.12179617361E+02 -0.20364048501E+02 -0.33017071353E+02  0.50528873704E+02  0.30000042110E+02 0.  0.
        -12    1    1    2    0    0  0.12179617361E+02  0.20364048501E+02  0.33017071353E+02  0.40659126296E+02  0.00000000000E+00 0.  1.
         11    1    3    3    0    0 -0.89544524427E+01 -0.18276339534E+02 -0.17469825159E+02  0.26821662824E+02  0.51100000000E-03 0. -1.
        -11    1    3    3    0    0  0.30982308610E+01 -0.81482990194E+01 -0.51998135225E+01  0.10150461679E+02  0.51100000000E-03 0.  1.
         12    1    3    3    0    0 -0.63233957797E+01  0.60605900526E+01 -0.10347432672E+02  0.13556749200E+02  0.00000000000E+00 0. -1.
</event>
<event>
 7    1  0.3129575E-011  0.5052887E+02  0.7816164E-02  0.1300439E+00
        -11   -1    0    0    0    0  0.00000000000E+00  0.00000000000E+00  0.45593999997E+02  0.45594000000E+02  0.51100000000E-03 0.  1.
         11   -1    0    0    0    0 -0.00000000000E+00 -0.00000000000E+00 -0.45593999997E+02  0.45594000000E+02  0.51100000000E-03 0. -1.
    9900012    2    1    2    0    0 -0.12121258236E+02 -0.15815501247E+02 -0.35441644261E+02  0.50528866600E+02  0.30000020518E+02 0.  0.
        -12    1    1    2    0    0  0.12121258236E+02  0.15815501247E+02  0.35441644261E+02  0.40659133400E+02  0.00000000000E+00 0.  1.
         11    1    3    3    0    0 -0.11572607177E+02 -0.14178637947E+02 -0.16715005219E+02  0.24786093089E+02  0.51100000000E-03 0. -1.
        -11    1    3    3    0    0 -0.13561804116E+01 -0.32263169726E+01  0.25886241049E+01  0.43530818433E+01  0.51100000000E-03 0.  1.
        -12    1    3    3    0    0  0.80752935218E+00  0.15894536720E+01 -0.21315263147E+02  0.21389691668E+02  0.00000000000E+00 0.  1.
</event>
<event>
 7    1  0.3129575E-011  0.5052885E+02  0.7816164E-02  0.1300439E+00
        -11   -1    0    0    0    0  0.00000000000E+00  0.00000000000E+00  0.45593999997E+02  0.45594000000E+02  0.51100000000E-03 0. -1.
         11   -1    0    0    0    0 -0.00000000000E+00 -0.00000000000E+00 -0.45593999997E+02  0.45594000000E+02  0.51100000000E-03 0.  1.
    9900012    2    1    2    0    0 -0.39122755982E+01 -0.22607289991E+02  0.33567415464E+02  0.50528845532E+02  0.29999956480E+02 0.  0.
        -12    1    1    2    0    0  0.39122755982E+01  0.22607289991E+02 -0.33567415464E+02  0.40659154468E+02  0.00000000000E+00 0.  1.
         11    1    3    3    0    0 -0.69678162221E+01 -0.55648518609E+01  0.91513548524E+01  0.12777532431E+02  0.51100000000E-03 0. -1.
        -11    1    3    3    0    0  0.83387850303E+01 -0.15583348283E+02  0.62024902961E+01  0.18730909365E+02  0.51100000000E-03 0.  1.
         12    1    3    3    0    0 -0.52832444063E+01 -0.14590898467E+01  0.18213570316E+02  0.19020403736E+02  0.00000000000E+00 0. -1.
</event>
<event>
 7    1  0.3129575E-011  0.5052886E+02  0.7816164E-02  0.1300439E+00
        -11   -1    0    0    0    0  0.00000000000E+00  0.00000000000E+00  0.45593999997E+02  0.45594000000E+02  0.51100000000E-03 0.  1.
         11   -1    0    0    0    0 -0.00000000000E+00 -0.00000000000E+00 -0.45593999997E+02  0.45594000000E+02  0.51100000000E-03 0. -1.
    9900012    2    1    2    0    0  0.30750923013E+02 -0.13698039735E+02 -0.22801533961E+02  0.50528861916E+02  0.30000006280E+02 0.  0.
        -12    1    1    2    0    0 -0.30750923013E+02  0.13698039735E+02  0.22801533961E+02  0.40659138084E+02  0.00000000000E+00 0.  1.
         11    1    3    3    0    0  0.21104516832E+02 -0.16037004338E+02 -0.97269538287E+01  0.28234726312E+02  0.51100000000E-03 0. -1.
        -11    1    3    3    0    0  0.91410495637E+01  0.21336757791E+01 -0.18047673286E+00  0.93884999637E+01  0.51100000000E-03 0.  1.
         12    1    3    3    0    0  0.50535661729E+00  0.20528882391E+00 -0.12894103399E+02  0.12905635640E+02  0.00000000000E+00 0. -1.
</event>
<event>
 7    1  0.3129575E-011  0.5052885E+02  0.7816164E-02  0.1300439E+00
        -11   -1    0    0    0    0  0.00000000000E+00  0.00000000000E+00  0.45593999997E+02  0.45594000000E+02  0.51100000000E-03 0. -1.
         11   -1    0    0    0    0 -0.00000000000E+00 -0.00000000000E+00 -0.45593999997E+02  0.45594000000E+02  0.51100000000E-03 0.  1.
    9900012    2    1    2    0    0  0.24722199875E+02  0.31612875977E+02 -0.65272921071E+01  0.50528848060E+02  0.29999964164E+02 0.  0.
        -12    1    1    2    0    0 -0.24722199875E+02 -0.31612875977E+02  0.65272921071E+01  0.40659151940E+02  0.00000000000E+00 0.  1.
         11    1    3    3    0    0  0.65370748774E+01  0.34944768292E+01 -0.14690012958E+01  0.75566316128E+01  0.51100000000E-03 0. -1.
        -11    1    3    3    0    0 -0.24693440869E+01  0.11806958762E+02 -0.10621223247E+02  0.16072097528E+02  0.51100000000E-03 0.  1.
         12    1    3    3    0    0  0.20654469084E+02  0.16311440385E+02  0.55629324352E+01  0.26900118920E+02  0.00000000000E+00 0. -1.
</event>
<event>
 7    1  0.3129575E-011  0.5052886E+02  0.7816164E-02  0.1300439E+00
        -11   -1    0    0    0    0  0.00000000000E+00  0.00000000000E+00  0.45593999997E+02  0.45594000000E+02  0.51100000000E-03 0. -1.
         11   -1    0    0    0    0 -0.00000000000E+00 -0.00000000000E+00 -0.45593999997E+02  0.45594000000E+02  0.51100000000E-03 0.  1.
    9900012    2    1    2    0    0  0.30666700532E+02  0.26695953055E+02  0.21254508162E+00  0.50528860727E+02  0.30000002665E+02 0.  0.
        -12    1    1    2    0    0 -0.30666700532E+02 -0.26695953055E+02 -0.21254508162E+00  0.40659139273E+02  0.00000000000E+00 0.  1.
         11    1    3    3    0    0  0.15801732570E+02  0.70994549182E+00 -0.33618081830E+01  0.16170977995E+02  0.51100000000E-03 0. -1.
        -11    1    3    3    0    0  0.84698248845E+01  0.18874615904E+02 -0.52512969985E+01  0.21343972909E+02  0.51100000000E-03 0.  1.
         12    1    3    3    0    0  0.63951430777E+01  0.71113916590E+01  0.88256502631E+01  0.13013909823E+02  0.00000000000E+00 0. -1.
</event>
<event>
 7    1  0.3129575E-011  0.5052886E+02  0.7816164E-02  0.1300439E+00
        -11   -1    0    0    0    0  0.00000000000E+00  0.00000000000E+00  0.45593999997E+02  0.45594000000E+02  0.51100000000E-03 0. -1.
         11   -1    0    0    0    0 -0.00000000000E+00 -0.00000000000E+00 -0.45593999997E+02  0.45594000000E+02  0.51100000000E-03 0.  1.
    9900012    2    1    2    0    0 -0.11206230774E+02 -0.99156102185E+01  0.37805641039E+02  0.50528862914E+02  0.30000009314E+02 0.  0.
        -12    1    1    2    0    0  0.11206230774E+02  0.99156102185E+01 -0.37805641039E+02  0.40659137086E+02  0.00000000000E+00 0.  1.
         11    1    3    3    0    0  0.53996693222E+01 -0.14147357161E+01  0.34269988190E+01  0.65499791681E+01  0.51100000000E-03 0.  1.
        -11    1    3    3    0    0 -0.12085604631E+02  0.30931638081E+01  0.80207866628E+01  0.14831133490E+02  0.51100000000E-03 0. -1.
         12    1    3    3    0    0 -0.45202954657E+01 -0.11594038310E+02  0.26357855557E+02  0.29147750257E+02  0.00000000000E+00 0. -1.
</event>
<event>
 7    1  0.3129575E-011  0.5052886E+02  0.7816164E-02  0.1300439E+00
        -11   -1    0    0    0    0  0.00000000000E+00  0.00000000000E+00  0.45593999997E+02  0.45594000000E+02  0.51100000000E-03 0. -1.
         11   -1    0    0    0    0 -0.00000000000E+00 -0.00000000000E+00 -0.45593999997E+02  0.45594000000E+02  0.51100000000E-03 0.  1.
    9900012    2    1    2    0    0 -0.10811151883E+02 -0.13391936621E+02  0.36836675341E+02  0.50528860540E+02  0.30000002097E+02 0.  0.
        -12    1    1    2    0    0  0.10811151883E+02  0.13391936621E+02 -0.36836675341E+02  0.40659139460E+02  0.00000000000E+00 0.  1.
         11    1    3    3    0    0 -0.48349379417E+01 -0.38984023141E+01  0.18709279527E+01  0.64864888166E+01  0.51100000000E-03 0. -1.
        -11    1    3    3    0    0 -0.51826302785E+01  0.74552384120E+01  0.75867286952E+01  0.11832104164E+02  0.51100000000E-03 0.  1.
        -12    1    3    3    0    0 -0.79358366238E+00 -0.16948772719E+02  0.27379018693E+02  0.32210267560E+02  0.00000000000E+00 0.  1.
</event>
<event>
 7    1  0.3129575E-011  0.5052886E+02  0.7816164E-02  0.1300439E+00
        -11   -1    0    0    0    0  0.00000000000E+00  0.00000000000E+00  0.45593999997E+02  0.45594000000E+02  0.51100000000E-03 0. -1.
         11   -1    0    0    0    0 -0.00000000000E+00 -0.00000000000E+00 -0.45593999997E+02  0.45594000000E+02  0.51100000000E-03 0.  1.
    9900012    2    1    2    0    0 -0.73423124915E+01  0.38012676325E+02 -0.12421448812E+02  0.50528861977E+02  0.30000006466E+02 0.  0.
        -12    1    1    2    0    0  0.73423124915E+01 -0.38012676325E+02  0.12421448812E+02  0.40659138023E+02  0.00000000000E+00 0.  1.
         11    1    3    3    0    0  0.59964749683E+01  0.51524355035E+01 -0.48972171092E+01  0.92998945875E+01  0.51100000000E-03 0.  1.
        -11    1    3    3    0    0 -0.40687159766E+01  0.17539740777E+02 -0.13331920857E+02  0.22403952111E+02  0.51100000000E-03 0. -1.
        -12    1    3    3    0    0 -0.92700714831E+01  0.15320500045E+02  0.58076891534E+01  0.18825015279E+02  0.00000000000E+00 0.  1.
</event>
<event>
 7    1  0.3129575E-011  0.5052893E+02  0.7816164E-02  0.1300439E+00
        -11   -1    0    0    0    0  0.00000000000E+00  0.00000000000E+00  0.45593999997E+02  0.45594000000E+02  0.51100000000E-03 0. -1.
         11   -1    0    0    0    0 -0.00000000000E+00 -0.00000000000E+00 -0.45593999997E+02  0.45594000000E+02  0.51100000000E-03 0.  1.
    9900012    2    1    2    0    0 -0.28224803124E+02  0.23074333366E+02  0.18002660660E+02  0.50528927673E+02  0.30000206154E+02 0.  0.
        -12    1    1    2    0    0  0.28224803124E+02 -0.23074333366E+02 -0.18002660660E+02  0.40659072327E+02  0.00000000000E+00 0.  1.
         11    1    3    3    0    0 -0.18174007754E+02  0.23742218692E+02  0.18434932191E+02  0.35125976591E+02  0.51100000000E-03 0. -1.
        -11    1    3    3    0    0 -0.10863544562E+02  0.30286394146E+01 -0.17132950503E+01  0.11407218650E+02  0.51100000000E-03 0.  1.
        -12    1    3    3    0    0  0.81274919181E+00 -0.36965247414E+01  0.12810235191E+01  0.39957324321E+01  0.00000000000E+00 0.  1.
</event>
<event>
 7    1  0.3129575E-011  0.5052890E+02  0.7816164E-02  0.1300439E+00
        -11   -1    0    0    0    0  0.00000000000E+00  0.00000000000E+00  0.45593999997E+02  0.45594000000E+02  0.51100000000E-03 0. -1.
         11   -1    0    0    0    0 -0.00000000000E+00 -0.00000000000E+00 -0.45593999997E+02  0.45594000000E+02  0.51100000000E-03 0.  1.
    9900012    2    1    2    0    0  0.15915827047E+02  0.73887502818E+01  0.36677718371E+02  0.50528902541E+02  0.30000129762E+02 0.  0.
        -12    1    1    2    0    0 -0.15915827047E+02 -0.73887502818E+01 -0.36677718371E+02  0.40659097459E+02  0.00000000000E+00 0.  1.
         11    1    3    3    0    0  0.10493592803E+02  0.76701677659E+01  0.27821818604E+02  0.30708314089E+02  0.51100000000E-03 0. -1.
        -11    1    3    3    0    0  0.11062446734E+02  0.16550063930E-01  0.88590086984E+01  0.14172509906E+02  0.51100000000E-03 0.  1.
        -12    1    3    3    0    0 -0.56402124905E+01 -0.29796754800E+00 -0.31089316228E-02  0.56480785461E+01  0.00000000000E+00 0.  1.
</event>
<event>
 7    1  0.3129575E-011  0.5052885E+02  0.7816164E-02  0.1300439E+00
        -11   -1    0    0    0    0  0.00000000000E+00  0.00000000000E+00  0.45593999997E+02  0.45594000000E+02  0.51100000000E-03 0. -1.
         11   -1    0    0    0    0 -0.00000000000E+00 -0.00000000000E+00 -0.45593999997E+02  0.45594000000E+02  0.51100000000E-03 0.  1.
    9900012    2    1    2    0    0 -0.54264677901E+01 -0.12875549804E+02  0.38182980266E+02  0.50528851984E+02  0.29999976090E+02 0.  0.
        -12    1    1    2    0    0  0.54264677901E+01  0.12875549804E+02 -0.38182980266E+02  0.40659148016E+02  0.00000000000E+00 0.  1.
         11    1    3    3    0    0 -0.68093274359E+01 -0.12629049787E+01  0.30823061964E+01  0.75804011018E+01  0.51100000000E-03 0. -1.
        -11    1    3    3    0    0  0.57981136055E+01 -0.12126717214E+02  0.83347263434E+01  0.15815911458E+02  0.51100000000E-03 0.  1.
        -12    1    3    3    0    0 -0.44152539596E+01  0.51407238808E+00  0.26765947726E+02  0.27132539424E+02  0.00000000000E+00 0.  1.
</event>
<event>
 7    1  0.3129575E-011  0.5052885E+02  0.7816164E-02  0.1300439E+00
        -11   -1    0    0    0    0  0.00000000000E+00  0.00000000000E+00  0.45593999997E+02  0.45594000000E+02  0.51100000000E-03 0. -1.
         11   -1    0    0    0    0 -0.00000000000E+00 -0.00000000000E+00 -0.45593999997E+02  0.45594000000E+02  0.51100000000E-03 0.  1.
    9900012    2    1    2    0    0 -0.12681697092E+02 -0.20694266475E+02  0.32620370838E+02  0.50528847283E+02  0.29999961802E+02 0.  0.
        -12    1    1    2    0    0  0.12681697092E+02  0.20694266475E+02 -0.32620370838E+02  0.40659152717E+02  0.00000000000E+00 0.  1.
         11    1    3    3    0    0 -0.91968867944E+01 -0.40477070332E+01  0.83137686691E+01  0.13041679672E+02  0.51100000000E-03 0. -1.
        -11    1    3    3    0    0 -0.10307503994E+02 -0.67333613823E+00  0.13618893260E+02  0.17093047534E+02  0.51100000000E-03 0.  1.
        -12    1    3    3    0    0  0.68226936956E+01 -0.15973223303E+02  0.10687708909E+02  0.20394120076E+02  0.00000000000E+00 0.  1.
</event>
<event>
 7    1  0.3129575E-011  0.5052886E+02  0.7816164E-02  0.1300439E+00
        -11   -1    0    0    0    0  0.00000000000E+00  0.00000000000E+00  0.45593999997E+02  0.45594000000E+02  0.51100000000E-03 0.  1.
         11   -1    0    0    0    0 -0.00000000000E+00 -0.00000000000E+00 -0.45593999997E+02  0.45594000000E+02  0.51100000000E-03 0. -1.
    9900012    2    1    2    0    0  0.57053623587E+01 -0.13432111861E+02 -0.37949872589E+02  0.50528860582E+02  0.30000002226E+02 0.  0.
        -12    1    1    2    0    0 -0.57053623587E+01  0.13432111861E+02  0.37949872589E+02  0.40659139418E+02  0.00000000000E+00 0.  1.
         11    1    3    3    0    0  0.13356070943E+01  0.45590614753E+01 -0.82278790726E+00  0.48213968979E+01  0.51100000000E-03 0.  1.
        -11    1    3    3    0    0 -0.70554420407E+01 -0.57104747592E+01 -0.18718273343E+02  0.20802945502E+02  0.51100000000E-03 0. -1.
        -12    1    3    3    0    0  0.11425197305E+02 -0.12280698577E+02 -0.18408811339E+02  0.24904518182E+02  0.00000000000E+00 0.  1.
</event>
<event>
 7    1  0.3129575E-011  0.5052886E+02  0.7816164E-02  0.1300439E+00
        -11   -1    0    0    0    0  0.00000000000E+00  0.00000000000E+00  0.45593999997E+02  0.45594000000E+02  0.51100000000E-03 0.  1.
         11   -1    0    0    0    0 -0.00000000000E+00 -0.00000000000E+00 -0.45593999997E+02  0.45594000000E+02  0.51100000000E-03 0. -1.
    9900012    2    1    2    0    0  0.13315921452E+02  0.23758765575E+02 -0.30188955587E+02  0.50528859021E+02  0.29999997480E+02 0.  0.
        -12    1    1    2    0    0 -0.13315921452E+02 -0.23758765575E+02  0.30188955587E+02  0.40659140979E+02  0.00000000000E+00 0.  1.
         11    1    3    3    0    0  0.41823069793E+01 -0.31282656630E+01 -0.14733783366E+01  0.54266547441E+01  0.51100000000E-03 0. -1.
        -11    1    3    3    0    0  0.91978987772E+01  0.18896172762E+02 -0.73054980703E+01  0.22249426718E+02  0.51100000000E-03 0.  1.
         12    1    3    3    0    0 -0.64284304463E-01  0.79908584755E+01 -0.21410079180E+02  0.22852777558E+02  0.00000000000E+00 0. -1.
</event>
<event>
 7    1  0.3129575E-011  0.5052886E+02  0.7816164E-02  0.1300439E+00
        -11   -1    0    0    0    0  0.00000000000E+00  0.00000000000E+00  0.45593999997E+02  0.45594000000E+02  0.51100000000E-03 0.  1.
         11   -1    0    0    0    0 -0.00000000000E+00 -0.00000000000E+00 -0.45593999997E+02  0.45594000000E+02  0.51100000000E-03 0. -1.
    9900012    2    1    2    0    0 -0.37234189232E+02  0.76738090888E+01 -0.14418514900E+02  0.50528858769E+02  0.29999996715E+02 0.  0.
        -12    1    1    2    0    0  0.37234189232E+02 -0.76738090888E+01  0.14418514900E+02  0.40659141231E+02  0.00000000000E+00 0.  1.
         11    1    3    3    0    0 -0.15358387486E+02  0.18321986747E+01 -0.15215206809E+02  0.21696532826E+02  0.51100000000E-03 0. -1.
        -11    1    3    3    0    0 -0.62121236765E+01 -0.58385877851E+01 -0.27830091669E+01  0.89679835070E+01  0.51100000000E-03 0.  1.
         12    1    3    3    0    0 -0.15663678070E+02  0.11680198199E+02  0.35797010757E+01  0.19864342437E+02  0.00000000000E+00 0. -1.
</event>
<event>
 7    1  0.4391170E-011  0.5052881E+02  0.7816164E-02  0.1300439E+00
        -11   -1    0    0    0    0  0.00000000000E+00  0.00000000000E+00  0.45593999997E+02  0.45594000000E+02  0.51100000000E-03 0. -1.
         11   -1    0    0    0    0 -0.00000000000E+00 -0.00000000000E+00 -0.45593999997E+02  0.45594000000E+02  0.51100000000E-03 0.  1.
    9900012    2    1    2    0    0  0.64896644362E+01  0.21325768528E+02  0.34003902199E+02  0.50528812692E+02  0.29999856659E+02 0.  0.
        -12    1    1    2    0    0 -0.64896644362E+01 -0.21325768528E+02 -0.34003902199E+02  0.40659187308E+02  0.00000000000E+00 0.  1.
         11    1    3    3    0    0  0.41102564928E+00  0.56620982995E+01 -0.25257597181E+01  0.62135144365E+01  0.51100000000E-03 0. -1.
        -11    1    3    3    0    0  0.86966667848E+01  0.42996379709E+00  0.77932157099E+01  0.11685507836E+02  0.51100000000E-03 0.  1.
         12    1    3    3    0    0 -0.26180279979E+01  0.15233706431E+02  0.28736446207E+02  0.32629790419E+02  0.00000000000E+00 0. -1.
</event>
<event>
 7    1  0.3129575E-011  0.5052887E+02  0.7816164E-02  0.1300439E+00
        -11   -1    0    0    0    0  0.00000000000E+00  0.00000000000E+00  0.45593999997E+02  0.45594000000E+02  0.51100000000E-03 0.  1.
         11   -1    0    0    0    0 -0.00000000000E+00 -0.00000000000E+00 -0.45593999997E+02  0.45594000000E+02  0.51100000000E-03 0. -1.
    9900012    2    1    2    0    0  0.14087829913E+02  0.32325218001E+02 -0.20242974671E+02  0.50528871948E+02  0.30000036773E+02 0.  0.
        -12    1    1    2    0    0 -0.14087829913E+02 -0.32325218001E+02  0.20242974671E+02  0.40659128052E+02  0.00000000000E+00 0.  1.
         11    1    3    3    0    0  0.15387284956E+02  0.28232156726E+02 -0.14371330913E+02  0.35218721785E+02  0.51100000000E-03 0. -1.
        -11    1    3    3    0    0  0.46911226787E+01  0.32185274463E+01  0.13894591989E+01  0.58562913210E+01  0.51100000000E-03 0.  1.
         12    1    3    3    0    0 -0.59905777221E+01  0.87453382872E+00 -0.72611029562E+01  0.94538588419E+01  0.00000000000E+00 0. -1.
</event>
<event>
 7    1  0.3129575E-011  0.5052886E+02  0.7816164E-02  0.1300439E+00
        -11   -1    0    0    0    0  0.00000000000E+00  0.00000000000E+00  0.45593999997E+02  0.45594000000E+02  0.51100000000E-03 0.  1.
         11   -1    0    0    0    0 -0.00000000000E+00 -0.00000000000E+00 -0.45593999997E+02  0.45594000000E+02  0.51100000000E-03 0. -1.
    9900012    2    1    2    0    0  0.14438883274E+02 -0.31099253321E+02 -0.21852246325E+02  0.50528861092E+02  0.30000003774E+02 0.  0.
        -12    1    1    2    0    0 -0.14438883274E+02  0.31099253321E+02  0.21852246325E+02  0.40659138908E+02  0.00000000000E+00 0.  1.
         11    1    3    3    0    0  0.80548860677E+01 -0.18588542114E+02 -0.86979934196E+01  0.22046999280E+02  0.51100000000E-03 0. -1.
        -11    1    3    3    0    0 -0.52781598485E+01 -0.12277531296E+02 -0.50870147910E+01  0.14299456838E+02  0.51100000000E-03 0.  1.
         12    1    3    3    0    0  0.11662157055E+02 -0.23317991130E+00 -0.80672381144E+01  0.14182404974E+02  0.00000000000E+00 0. -1.
</event>
<event>
 7    1  0.3129575E-011  0.5052885E+02  0.7816164E-02  0.1300439E+00
        -11   -1    0    0    0    0  0.00000000000E+00  0.00000000000E+00  0.45593999997E+02  0.45594000000E+02  0.51100000000E-03 0.  1.
         11   -1    0    0    0    0 -0.00000000000E+00 -0.00000000000E+00 -0.45593999997E+02  0.45594000000E+02  0.51100000000E-03 0. -1.
    9900012    2    1    2    0    0  0.45689975994E+01  0.16183125897E+02 -0.37018871700E+02  0.50528853860E+02  0.29999981793E+02 0.  0.
        -12    1    1    2    0    0 -0.45689975994E+01 -0.16183125897E+02  0.37018871700E+02  0.40659146140E+02  0.00000000000E+00 0.  1.
         11    1    3    3    0    0  0.39882315540E+01  0.20077493757E+02 -0.21826757217E+02  0.29923553889E+02  0.51100000000E-03 0. -1.
        -11    1    3    3    0    0  0.56367422412E+01  0.19403238622E+01 -0.47686822184E+01  0.76340061662E+01  0.51100000000E-03 0.  1.
        -12    1    3    3    0    0 -0.50559761958E+01 -0.58346917225E+01 -0.10423432265E+02  0.12971293805E+02  0.00000000000E+00 0.  1.
</event>
<event>
 7    1  0.3129575E-011  0.5052886E+02  0.7816164E-02  0.1300439E+00
        -11   -1    0    0    0    0  0.00000000000E+00  0.00000000000E+00  0.45593999997E+02  0.45594000000E+02  0.51100000000E-03 0.  1.
         11   -1    0    0    0    0 -0.00000000000E+00 -0.00000000000E+00 -0.45593999997E+02  0.45594000000E+02  0.51100000000E-03 0. -1.
    9900012    2    1    2    0    0  0.18405670188E+02  0.36095272623E+02  0.33953519250E+01  0.50528858156E+02  0.29999994851E+02 0.  0.
        -12    1    1    2    0    0 -0.18405670188E+02 -0.36095272623E+02 -0.33953519250E+01  0.40659141844E+02  0.00000000000E+00 0.  1.
         11    1    3    3    0    0  0.61552166347E+01  0.43631703745E+01 -0.64803400241E+01  0.99457907994E+01  0.51100000000E-03 0. -1.
        -11    1    3    3    0    0  0.61169240110E+01  0.11936703409E+02 -0.57852835295E+01  0.14607229491E+02  0.51100000000E-03 0.  1.
        -12    1    3    3    0    0  0.61335295427E+01  0.19795398839E+02  0.15660975479E+02  0.25975837865E+02  0.00000000000E+00 0.  1.
</event>
<event>
 7    1  0.3129575E-011  0.5052886E+02  0.7816164E-02  0.1300439E+00
        -11   -1    0    0    0    0  0.00000000000E+00  0.00000000000E+00  0.45593999997E+02  0.45594000000E+02  0.51100000000E-03 0. -1.
         11   -1    0    0    0    0 -0.00000000000E+00 -0.00000000000E+00 -0.45593999997E+02  0.45594000000E+02  0.51100000000E-03 0.  1.
    9900012    2    1    2    0    0  0.19057357634E+02 -0.25741172276E+02  0.25047459353E+02  0.50528855270E+02  0.29999986077E+02 0.  0.
        -12    1    1    2    0    0 -0.19057357634E+02  0.25741172276E+02 -0.25047459353E+02  0.40659144730E+02  0.00000000000E+00 0.  1.
         11    1    3    3    0    0  0.72152847940E+01 -0.94849341480E+01  0.17661637659E+02  0.21306284413E+02  0.51100000000E-03 0. -1.
        -11    1    3    3    0    0 -0.42673250722E+01  0.68242954652E+00  0.34234942916E+01  0.55132646212E+01  0.51100000000E-03 0.  1.
        -12    1    3    3    0    0  0.16109397912E+02 -0.16938667675E+02  0.39623274030E+01  0.23709306235E+02  0.00000000000E+00 0.  1.
</event>
<event>
 7    1  0.3129575E-011  0.5052887E+02  0.7816164E-02  0.1300439E+00
        -11   -1    0    0    0    0  0.00000000000E+00  0.00000000000E+00  0.45593999997E+02  0.45594000000E+02  0.51100000000E-03 0.  1.
         11   -1    0    0    0    0 -0.00000000000E+00 -0.00000000000E+00 -0.45593999997E+02  0.45594000000E+02  0.51100000000E-03 0. -1.
    9900012    2    1    2    0    0 -0.23311626949E+02  0.29039437830E+02 -0.16323122000E+02  0.50528865573E+02  0.30000017397E+02 0.  0.
        -12    1    1    2    0    0  0.23311626949E+02 -0.29039437830E+02  0.16323122000E+02  0.40659134427E+02  0.00000000000E+00 0.  1.
         11    1    3    3    0    0 -0.10617678964E+02  0.13520936453E+02 -0.20479468200E+02  0.26738725608E+02  0.51100000000E-03 0. -1.
        -11    1    3    3    0    0 -0.14620850076E+01 -0.13466755435E+01  0.28636784353E+01  0.34859549669E+01  0.51100000000E-03 0.  1.
        -12    1    3    3    0    0 -0.11231862978E+02  0.16865176921E+02  0.12926677637E+01  0.20304184999E+02  0.00000000000E+00 0.  1.
</event>
<event>
 7    1  0.3129575E-011  0.5052887E+02  0.7816164E-02  0.1300439E+00
        -11   -1    0    0    0    0  0.00000000000E+00  0.00000000000E+00  0.45593999997E+02  0.45594000000E+02  0.51100000000E-03 0.  1.
         11   -1    0    0    0    0 -0.00000000000E+00 -0.00000000000E+00 -0.45593999997E+02  0.45594000000E+02  0.51100000000E-03 0. -1.
    9900012    2    1    2    0    0 -0.67842155634E+00 -0.40281448433E+02 -0.54872430014E+01  0.50528865978E+02  0.30000018626E+02 0.  0.
        -12    1    1    2    0    0  0.67842155634E+00  0.40281448433E+02  0.54872430014E+01  0.40659134022E+02  0.00000000000E+00 0.  1.
         11    1    3    3    0    0  0.68786677318E+01 -0.10466212215E+02  0.11473666796E+01  0.12576729243E+02  0.51100000000E-03 0. -1.
        -11    1    3    3    0    0 -0.20786572332E+01 -0.21996046299E+02  0.52483497148E+01  0.22708853861E+02  0.51100000000E-03 0.  1.
         12    1    3    3    0    0 -0.54784320549E+01 -0.78191899195E+01 -0.11882959396E+02  0.15243282874E+02  0.00000000000E+00 0. -1.
</event>
<event>
 7    1  0.3129575E-011  0.5052887E+02  0.7816164E-02  0.1300439E+00
        -11   -1    0    0    0    0  0.00000000000E+00  0.00000000000E+00  0.45593999997E+02  0.45594000000E+02  0.51100000000E-03 0. -1.
         11   -1    0    0    0    0 -0.00000000000E+00 -0.00000000000E+00 -0.45593999997E+02  0.45594000000E+02  0.51100000000E-03 0.  1.
    9900012    2    1    2    0    0  0.11201328832E+02 -0.35334628648E+02  0.16708054267E+02  0.50528870316E+02  0.30000031812E+02 0.  0.
        -12    1    1    2    0    0 -0.11201328832E+02  0.35334628648E+02 -0.16708054267E+02  0.40659129684E+02  0.00000000000E+00 0.  1.
         11    1    3    3    0    0  0.13434514569E+02 -0.20519978107E+02  0.43615003128E+01  0.24911410407E+02  0.51100000000E-03 0. -1.
        -11    1    3    3    0    0  0.20249352414E+01 -0.13085587939E+02  0.15238303428E+02  0.20187591884E+02  0.51100000000E-03 0.  1.
        -12    1    3    3    0    0 -0.42581209785E+01 -0.17290626014E+01 -0.28917494737E+01  0.54298680247E+01  0.00000000000E+00 0.  1.
</event>
<event>
 7    1  0.3129575E-011  0.5052899E+02  0.7816164E-02  0.1300438E+00
        -11   -1    0    0    0    0  0.00000000000E+00  0.00000000000E+00  0.45593999997E+02  0.45594000000E+02  0.51100000000E-03 0. -1.
         11   -1    0    0    0    0 -0.00000000000E+00 -0.00000000000E+00 -0.45593999997E+02  0.45594000000E+02  0.51100000000E-03 0.  1.
    9900012    2    1    2    0    0 -0.22303565667E+01 -0.10314720767E+02  0.39265593659E+02  0.50528993614E+02  0.30000406587E+02 0.  0.
        -12    1    1    2    0    0  0.22303565667E+01  0.10314720767E+02 -0.39265593659E+02  0.40659006386E+02  0.00000000000E+00 0.  1.
         11    1    3    3    0    0  0.43652831750E+01  0.28920627410E+01  0.46927261115E+01  0.70314580789E+01  0.51100000000E-03 0. -1.
        -11    1    3    3    0    0  0.35520435159E+01 -0.44563593897E+01  0.27997672855E+02  0.28571766443E+02  0.51100000000E-03 0.  1.
        -12    1    3    3    0    0 -0.10147683258E+02 -0.87504241180E+01  0.65751946926E+01  0.14925769092E+02  0.00000000000E+00 0.  1.
</event>
<event>
 7    1  0.3129575E-011  0.5052889E+02  0.7816164E-02  0.1300439E+00
        -11   -1    0    0    0    0  0.00000000000E+00  0.00000000000E+00  0.45593999997E+02  0.45594000000E+02  0.51100000000E-03 0.  1.
         11   -1    0    0    0    0 -0.00000000000E+00 -0.00000000000E+00 -0.45593999997E+02  0.45594000000E+02  0.51100000000E-03 0. -1.
    9900012    2    1    2    0    0 -0.83848166716E-01  0.37186497055E+02 -0.16441429842E+02  0.50528890209E+02  0.30000092280E+02 0.  0.
        -12    1    1    2    0    0  0.83848166716E-01 -0.37186497055E+02  0.16441429842E+02  0.40659109791E+02  0.00000000000E+00 0.  1.
         11    1    3    3    0    0 -0.31484805262E+01  0.17751363722E+02 -0.89027270077E+01  0.20106774780E+02  0.51100000000E-03 0. -1.
        -11    1    3    3    0    0 -0.46208728103E+01  0.16406785539E+02  0.27095602285E+01  0.17259107571E+02  0.51100000000E-03 0.  1.
        -12    1    3    3    0    0  0.76855051698E+01  0.30283477940E+01 -0.10248263062E+02  0.13163007858E+02  0.00000000000E+00 0.  1.
</event>
<event>
 7    1  0.3129575E-011  0.5052886E+02  0.7816164E-02  0.1300439E+00
        -11   -1    0    0    0    0  0.00000000000E+00  0.00000000000E+00  0.45593999997E+02  0.45594000000E+02  0.51100000000E-03 0.  1.
         11   -1    0    0    0    0 -0.00000000000E+00 -0.00000000000E+00 -0.45593999997E+02  0.45594000000E+02  0.51100000000E-03 0. -1.
    9900012    2    1    2    0    0 -0.35657117728E+02 -0.16639059422E+02 -0.10240951317E+02  0.50528862933E+02  0.30000009372E+02 0.  0.
        -12    1    1    2    0    0  0.35657117728E+02  0.16639059422E+02  0.10240951317E+02  0.40659137067E+02  0.00000000000E+00 0.  1.
         11    1    3    3    0    0 -0.12418417342E+01  0.39422500781E+01  0.58739686567E+00  0.41747505207E+01  0.51100000000E-03 0. -1.
        -11    1    3    3    0    0 -0.10017832693E+02 -0.80721518041E+01  0.59878116734E+01  0.14190507233E+02  0.51100000000E-03 0.  1.
         12    1    3    3    0    0 -0.24397443301E+02 -0.12509157696E+02 -0.16816159856E+02  0.32163605180E+02  0.00000000000E+00 0. -1.
</event>
<event>
 7    1  0.3129575E-011  0.5052886E+02  0.7816164E-02  0.1300439E+00
        -11   -1    0    0    0    0  0.00000000000E+00  0.00000000000E+00  0.45593999997E+02  0.45594000000E+02  0.51100000000E-03 0. -1.
         11   -1    0    0    0    0 -0.00000000000E+00 -0.00000000000E+00 -0.45593999997E+02  0.45594000000E+02  0.51100000000E-03 0.  1.
    9900012    2    1    2    0    0 -0.30068838832E+01 -0.30808184018E+02  0.26362480362E+02  0.50528856822E+02  0.29999990796E+02 0.  0.
        -12    1    1    2    0    0  0.30068838832E+01  0.30808184018E+02 -0.26362480362E+02  0.40659143178E+02  0.00000000000E+00 0.  1.
         11    1    3    3    0    0 -0.85681677053E+01 -0.20667076903E+02  0.11774371966E+02  0.25281958014E+02  0.51100000000E-03 0.  1.
        -11    1    3    3    0    0 -0.10586970084E+01  0.43142610625E+01  0.49655898468E+01  0.66626399166E+01  0.51100000000E-03 0. -1.
         12    1    3    3    0    0  0.66199808305E+01 -0.14455368177E+02  0.96225185488E+01  0.18584258892E+02  0.00000000000E+00 0. -1.
</event>
<event>
 7    1  0.3129575E-011  0.5052886E+02  0.7816164E-02  0.1300439E+00
        -11   -1    0    0    0    0  0.00000000000E+00  0.00000000000E+00  0.45593999997E+02  0.45594000000E+02  0.51100000000E-03 0.  1.
         11   -1    0    0    0    0 -0.00000000000E+00 -0.00000000000E+00 -0.45593999997E+02  0.45594000000E+02  0.51100000000E-03 0. -1.
    9900012    2    1    2    0    0 -0.11940758507E+02 -0.38051497819E+02  0.79162559983E+01  0.50528864384E+02  0.30000013782E+02 0.  0.
        -12    1    1    2    0    0  0.11940758507E+02  0.38051497819E+02 -0.79162559983E+01  0.40659135616E+02  0.00000000000E+00 0.  1.
         11    1    3    3    0    0  0.15293111442E+01 -0.19887361187E+01 -0.57459557041E+01  0.62697584595E+01  0.51100000000E-03 0.  1.
        -11    1    3    3    0    0 -0.72713751657E+01 -0.16616683382E+02 -0.23873941083E+01  0.18294444903E+02  0.51100000000E-03 0. -1.
        -12    1    3    3    0    0 -0.61986944858E+01 -0.19446078318E+02  0.16049605811E+02  0.25964661022E+02  0.00000000000E+00 0.  1.
</event>
<event>
 7    1  0.3890521E-011  0.5052889E+02  0.7816164E-02  0.1300439E+00
        -11   -1    0    0    0    0  0.00000000000E+00  0.00000000000E+00  0.45593999997E+02  0.45594000000E+02  0.51100000000E-03 0.  1.
         11   -1    0    0    0    0 -0.00000000000E+00 -0.00000000000E+00 -0.45593999997E+02  0.45594000000E+02  0.51100000000E-03 0. -1.
    9900012    2    1    2    0    0  0.29494491692E+02  0.16337603813E+01  0.27938663636E+02  0.50528891071E+02  0.30000094899E+02 0.  0.
        -12    1    1    2    0    0 -0.29494491692E+02 -0.16337603813E+01 -0.27938663636E+02  0.40659108929E+02  0.00000000000E+00 0.  1.
         11    1    3    3    0    0  0.63226276864E+01 -0.76166738976E+01  0.73545916212E+01  0.12332046071E+02  0.51100000000E-03 0. -1.
        -11    1    3    3    0    0 -0.28614723175E+01  0.35276116757E+01  0.68300479175E+01  0.82025375814E+01  0.51100000000E-03 0.  1.
         12    1    3    3    0    0  0.26033336323E+02  0.57228226032E+01  0.13754024097E+02  0.29994307419E+02  0.00000000000E+00 0. -1.
</event>
<event>
 7    1  0.3129575E-011  0.5052886E+02  0.7816164E-02  0.1300439E+00
        -11   -1    0    0    0    0  0.00000000000E+00  0.00000000000E+00  0.45593999997E+02  0.45594000000E+02  0.51100000000E-03 0.  1.
         11   -1    0    0    0    0 -0.00000000000E+00 -0.00000000000E+00 -0.45593999997E+02  0.45594000000E+02  0.51100000000E-03 0. -1.
    9900012    2    1    2    0    0 -0.16333981673E+02 -0.95482170410E+01 -0.35988868026E+02  0.50528855545E+02  0.29999986916E+02 0.  0.
        -12    1    1    2    0    0  0.16333981673E+02  0.95482170410E+01  0.35988868026E+02  0.40659144455E+02  0.00000000000E+00 0.  1.
         11    1    3    3    0    0 -0.18818151262E+02 -0.53316596141E+01 -0.19468695568E+02  0.27596730214E+02  0.51100000000E-03 0. -1.
        -11    1    3    3    0    0 -0.18817230189E+01 -0.47725517180E+01 -0.17656468624E+02  0.18386653201E+02  0.51100000000E-03 0.  1.
        -12    1    3    3    0    0  0.43658926071E+01  0.55599429112E+00  0.11362961651E+01  0.45454721299E+01  0.00000000000E+00 0.  1.
</event>
<event>
 7    1  0.3129575E-011  0.5052885E+02  0.7816164E-02  0.1300439E+00
        -11   -1    0    0    0    0  0.00000000000E+00  0.00000000000E+00  0.45593999997E+02  0.45594000000E+02  0.51100000000E-03 0. -1.
         11   -1    0    0    0    0 -0.00000000000E+00 -0.00000000000E+00 -0.45593999997E+02  0.45594000000E+02  0.51100000000E-03 0.  1.
    9900012    2    1    2    0    0 -0.16886140486E+02  0.34495130675E+02  0.13345802013E+02  0.50528853278E+02  0.29999980024E+02 0.  0.
        -12    1    1    2    0    0  0.16886140486E+02 -0.34495130675E+02 -0.13345802013E+02  0.40659146722E+02  0.00000000000E+00 0.  1.
         11    1    3    3    0    0 -0.51547978392E+01 -0.20084878463E+01  0.32028964596E+01  0.63925355051E+01  0.51100000000E-03 0. -1.
        -11    1    3    3    0    0  0.30945495473E+01  0.85379066235E+01 -0.34149565533E+01  0.97022685458E+01  0.51100000000E-03 0.  1.
         12    1    3    3    0    0 -0.14825892194E+02  0.27965711898E+02  0.13557862107E+02  0.34434049227E+02  0.00000000000E+00 0. -1.
</event>
<event>
 7    1  0.4009404E-011  0.5052886E+02  0.7816164E-02  0.1300439E+00
        -11   -1    0    0    0    0  0.00000000000E+00  0.00000000000E+00  0.45593999997E+02  0.45594000000E+02  0.51100000000E-03 0. -1.
         11   -1    0    0    0    0 -0.00000000000E+00 -0.00000000000E+00 -0.45593999997E+02  0.45594000000E+02  0.51100000000E-03 0.  1.
    9900012    2    1    2    0    0  0.27295249550E+02 -0.20625807015E+02  0.21970689749E+02  0.50528858703E+02  0.29999996512E+02 0.  0.
        -12    1    1    2    0    0 -0.27295249550E+02  0.20625807015E+02 -0.21970689749E+02  0.40659141297E+02  0.00000000000E+00 0.  1.
         11    1    3    3    0    0  0.13588457455E+02  0.16002229817E+01  0.15068399288E+01  0.13765081054E+02  0.51100000000E-03 0. -1.
        -11    1    3    3    0    0  0.55830330223E+00 -0.35383722117E+01 -0.25002315568E+01  0.43684022919E+01  0.51100000000E-03 0.  1.
         12    1    3    3    0    0  0.13148488793E+02 -0.18687657785E+02  0.22964081377E+02  0.32395375357E+02  0.00000000000E+00 0. -1.
</event>
<event>
 7    1  0.3129575E-011  0.5052887E+02  0.7816164E-02  0.1300439E+00
        -11   -1    0    0    0    0  0.00000000000E+00  0.00000000000E+00  0.45593999997E+02  0.45594000000E+02  0.51100000000E-03 0.  1.
         11   -1    0    0    0    0 -0.00000000000E+00 -0.00000000000E+00 -0.45593999997E+02  0.45594000000E+02  0.51100000000E-03 0. -1.
    9900012    2    1    2    0    0 -0.20937175520E+02  0.32179887592E+02  0.13388598746E+02  0.50528867440E+02  0.30000023070E+02 0.  0.
        -12    1    1    2    0    0  0.20937175520E+02 -0.32179887592E+02 -0.13388598746E+02  0.40659132560E+02  0.00000000000E+00 0.  1.
         11    1    3    3    0    0 -0.50543215663E+01  0.19503174955E+02  0.49239857011E+01  0.20740434790E+02  0.51100000000E-03 0. -1.
        -11    1    3    3    0    0 -0.21049155492E+01 -0.26772812181E+01 -0.43334408302E+01  0.55115527648E+01  0.51100000000E-03 0.  1.
         12    1    3    3    0    0 -0.13777938404E+02  0.15353993855E+02  0.12798053875E+02  0.24276879885E+02  0.00000000000E+00 0. -1.
</event>
<event>
 7    1  0.3129575E-011  0.5052884E+02  0.7816164E-02  0.1300439E+00
        -11   -1    0    0    0    0  0.00000000000E+00  0.00000000000E+00  0.45593999997E+02  0.45594000000E+02  0.51100000000E-03 0.  1.
         11   -1    0    0    0    0 -0.00000000000E+00 -0.00000000000E+00 -0.45593999997E+02  0.45594000000E+02  0.51100000000E-03 0. -1.
    9900012    2    1    2    0    0 -0.28120951904E+02  0.61955813740E+01 -0.28705291553E+02  0.50528844479E+02  0.29999953279E+02 0.  0.
        -12    1    1    2    0    0  0.28120951904E+02 -0.61955813740E+01  0.28705291553E+02  0.40659155521E+02  0.00000000000E+00 0.  1.
         11    1    3    3    0    0 -0.95937166150E+01  0.12224166672E+01 -0.87258907054E+01  0.13025930672E+02  0.51100000000E-03 0. -1.
        -11    1    3    3    0    0 -0.22433353389E+02  0.24820812554E+01 -0.68602994208E+01  0.23589823654E+02  0.51100000000E-03 0.  1.
         12    1    3    3    0    0  0.39061181005E+01  0.24910834515E+01 -0.13119101426E+02  0.13913090153E+02  0.00000000000E+00 0. -1.
</event>
<event>
 7    1  0.3129575E-011  0.5052882E+02  0.7816164E-02  0.1300439E+00
        -11   -1    0    0    0    0  0.00000000000E+00  0.00000000000E+00  0.45593999997E+02  0.45594000000E+02  0.51100000000E-03 0.  1.
         11   -1    0    0    0    0 -0.00000000000E+00 -0.00000000000E+00 -0.45593999997E+02  0.45594000000E+02  0.51100000000E-03 0. -1.
    9900012    2    1    2    0    0 -0.20573553377E+02  0.25950500983E+02  0.23589595846E+02  0.50528823521E+02  0.29999889574E+02 0.  0.
        -12    1    1    2    0    0  0.20573553377E+02 -0.25950500983E+02 -0.23589595846E+02  0.40659176479E+02  0.00000000000E+00 0.  1.
         11    1    3    3    0    0 -0.10735734666E+02  0.30149968708E+02  0.13806699904E+02  0.34855438234E+02  0.51100000000E-03 0. -1.
        -11    1    3    3    0    0 -0.50930930083E-01 -0.19605696503E+01  0.55798991835E+00  0.20390635899E+01  0.51100000000E-03 0.  1.
        -12    1    3    3    0    0 -0.97868877801E+01 -0.22388980754E+01  0.92249060230E+01  0.13634321697E+02  0.00000000000E+00 0.  1.
</event>
<event>
 7    1  0.3129575E-011  0.5052887E+02  0.7816164E-02  0.1300439E+00
        -11   -1    0    0    0    0  0.00000000000E+00  0.00000000000E+00  0.45593999997E+02  0.45594000000E+02  0.51100000000E-03 0.  1.
         11   -1    0    0    0    0 -0.00000000000E+00 -0.00000000000E+00 -0.45593999997E+02  0.45594000000E+02  0.51100000000E-03 0. -1.
    9900012    2    1    2    0    0  0.60857865359E+01  0.36698557091E+02 -0.16411708863E+02  0.50528867223E+02  0.30000022412E+02 0.  0.
        -12    1    1    2    0    0 -0.60857865359E+01 -0.36698557091E+02  0.16411708863E+02  0.40659132777E+02  0.00000000000E+00 0.  1.
         11    1    3    3    0    0  0.15794408872E+01  0.28778725720E+01 -0.37307410314E+01  0.49694278304E+01  0.51100000000E-03 0. -1.
        -11    1    3    3    0    0 -0.74562103860E+00  0.44106029792E+01  0.80406755405E+01  0.92011864877E+01  0.51100000000E-03 0.  1.
        -12    1    3    3    0    0  0.52519666874E+01  0.29410081540E+02 -0.20721643372E+02  0.36358252905E+02  0.00000000000E+00 0.  1.
</event>
<event>
 7    1  0.3129575E-011  0.5052886E+02  0.7816164E-02  0.1300439E+00
        -11   -1    0    0    0    0  0.00000000000E+00  0.00000000000E+00  0.45593999997E+02  0.45594000000E+02  0.51100000000E-03 0. -1.
         11   -1    0    0    0    0 -0.00000000000E+00 -0.00000000000E+00 -0.45593999997E+02  0.45594000000E+02  0.51100000000E-03 0.  1.
    9900012    2    1    2    0    0 -0.29221234841E+02 -0.27474866395E+02 -0.66645715716E+01  0.50528863716E+02  0.30000011752E+02 0.  0.
        -12    1    1    2    0    0  0.29221234841E+02  0.27474866395E+02  0.66645715716E+01  0.40659136284E+02  0.00000000000E+00 0.  1.
         11    1    3    3    0    0 -0.22521102629E+02 -0.16145446272E+02 -0.39443214119E+01  0.27989876216E+02  0.51100000000E-03 0. -1.
        -11    1    3    3    0    0 -0.11145066489E+02 -0.11230538928E+02 -0.60968560951E+01  0.16956095252E+02  0.51100000000E-03 0.  1.
         12    1    3    3    0    0  0.44449342767E+01 -0.98881194987E-01  0.33766059354E+01  0.55828922484E+01  0.00000000000E+00 0. -1.
</event>
<event>
 7    1  0.3129575E-011  0.5052886E+02  0.7816164E-02  0.1300439E+00
        -11   -1    0    0    0    0  0.00000000000E+00  0.00000000000E+00  0.45593999997E+02  0.45594000000E+02  0.51100000000E-03 0.  1.
         11   -1    0    0    0    0 -0.00000000000E+00 -0.00000000000E+00 -0.45593999997E+02  0.45594000000E+02  0.51100000000E-03 0. -1.
    9900012    2    1    2    0    0  0.28544840273E+02  0.28883081109E+02  0.20311195880E+01  0.50528859240E+02  0.29999998145E+02 0.  0.
        -12    1    1    2    0    0 -0.28544840273E+02 -0.28883081109E+02 -0.20311195880E+01  0.40659140760E+02  0.00000000000E+00 0.  1.
         11    1    3    3    0    0  0.60775057158E+01  0.40926551778E+01 -0.87047289301E+01  0.11377970300E+02  0.51100000000E-03 0. -1.
        -11    1    3    3    0    0 -0.58764256293E+00  0.10508682261E+02  0.32869111767E+01  0.11026400682E+02  0.51100000000E-03 0.  1.
         12    1    3    3    0    0  0.23054977120E+02  0.14281743670E+02  0.74489373414E+01  0.28124488258E+02  0.00000000000E+00 0. -1.
</event>
<event>
 7    1  0.3129575E-011  0.5052886E+02  0.7816164E-02  0.1300439E+00
        -11   -1    0    0    0    0  0.00000000000E+00  0.00000000000E+00  0.45593999997E+02  0.45594000000E+02  0.51100000000E-03 0. -1.
         11   -1    0    0    0    0 -0.00000000000E+00 -0.00000000000E+00 -0.45593999997E+02  0.45594000000E+02  0.51100000000E-03 0.  1.
    9900012    2    1    2    0    0 -0.10854027185E+02  0.30387587022E+02  0.24737626222E+02  0.50528862008E+02  0.30000006560E+02 0.  0.
        -12    1    1    2    0    0  0.10854027185E+02 -0.30387587022E+02 -0.24737626222E+02  0.40659137992E+02  0.00000000000E+00 0.  1.
         11    1    3    3    0    0  0.47585609817E+01  0.16175751643E+01 -0.23664392245E+01  0.55552215881E+01  0.51100000000E-03 0. -1.
        -11    1    3    3    0    0 -0.49484804203E+01 -0.23819298702E+00  0.43753008896E+01  0.66096484403E+01  0.51100000000E-03 0.  1.
         12    1    3    3    0    0 -0.10664107746E+02  0.29008204844E+02  0.22728764557E+02  0.38363991980E+02  0.00000000000E+00 0. -1.
</event>
<event>
 7    1  0.3129575E-011  0.5052883E+02  0.7816164E-02  0.1300439E+00
        -11   -1    0    0    0    0  0.00000000000E+00  0.00000000000E+00  0.45593999997E+02  0.45594000000E+02  0.51100000000E-03 0.  1.
         11   -1    0    0    0    0 -0.00000000000E+00 -0.00000000000E+00 -0.45593999997E+02  0.45594000000E+02  0.51100000000E-03 0. -1.
    9900012    2    1    2    0    0  0.27175244197E+02 -0.15960816927E+02 -0.25689036470E+02  0.50528829215E+02  0.29999906882E+02 0.  0.
        -12    1    1    2    0    0 -0.27175244197E+02  0.15960816927E+02  0.25689036470E+02  0.40659170785E+02  0.00000000000E+00 0.  1.
         11    1    3    3    0    0 -0.31935107743E+01 -0.48279083236E+01 -0.28274701816E+01  0.64421888932E+01  0.51100000000E-03 0. -1.
        -11    1    3    3    0    0  0.16835215715E+02  0.15098131293E+01 -0.34381654296E+01  0.17248913173E+02  0.51100000000E-03 0.  1.
         12    1    3    3    0    0  0.13533539257E+02 -0.12642721733E+02 -0.19423400859E+02  0.26837727149E+02  0.00000000000E+00 0. -1.
</event>
<event>
 7    1  0.3129575E-011  0.5052886E+02  0.7816164E-02  0.1300439E+00
        -11   -1    0    0    0    0  0.00000000000E+00  0.00000000000E+00  0.45593999997E+02  0.45594000000E+02  0.51100000000E-03 0.  1.
         11   -1    0    0    0    0 -0.00000000000E+00 -0.00000000000E+00 -0.45593999997E+02  0.45594000000E+02  0.51100000000E-03 0. -1.
    9900012    2    1    2    0    0 -0.22424440152E+02 -0.44712763486E+01 -0.33620194934E+02  0.50528864056E+02  0.30000012785E+02 0.  0.
        -12    1    1    2    0    0  0.22424440152E+02  0.44712763486E+01  0.33620194934E+02  0.40659135944E+02  0.00000000000E+00 0.  1.
         11    1    3    3    0    0 -0.12773106829E+02 -0.17784011152E+01 -0.36427378480E+02  0.38642837264E+02  0.51100000000E-03 0. -1.
        -11    1    3    3    0    0 -0.42788713908E+00 -0.86279845451E+00 -0.13058595175E+01  0.16225837166E+01  0.51100000000E-03 0.  1.
        -12    1    3    3    0    0 -0.92234461838E+01 -0.18300767789E+01  0.41130430639E+01  0.10263443076E+02  0.00000000000E+00 0.  1.
</event>
<event>
 7    1  0.3129575E-011  0.5052886E+02  0.7816164E-02  0.1300439E+00
        -11   -1    0    0    0    0  0.00000000000E+00  0.00000000000E+00  0.45593999997E+02  0.45594000000E+02  0.51100000000E-03 0. -1.
         11   -1    0    0    0    0 -0.00000000000E+00 -0.00000000000E+00 -0.45593999997E+02  0.45594000000E+02  0.51100000000E-03 0.  1.
    9900012    2    1    2    0    0  0.28565598007E+01 -0.36340851293E+02  0.18009675281E+02  0.50528858219E+02  0.29999995043E+02 0.  0.
        -12    1    1    2    0    0 -0.28565598007E+01  0.36340851293E+02 -0.18009675281E+02  0.40659141781E+02  0.00000000000E+00 0.  1.
         11    1    3    3    0    0  0.16346244489E+01 -0.12942692347E+02  0.35977965048E+01  0.13532531997E+02  0.51100000000E-03 0. -1.
        -11    1    3    3    0    0  0.34552504316E+01 -0.52649992716E+01 -0.66200874977E+01  0.91369870096E+01  0.51100000000E-03 0.  1.
        -12    1    3    3    0    0 -0.22333150798E+01 -0.18133159674E+02  0.21031966274E+02  0.27859339213E+02  0.00000000000E+00 0.  1.
</event>
<event>
 7    1  0.3129575E-011  0.5052886E+02  0.7816164E-02  0.1300439E+00
        -11   -1    0    0    0    0  0.00000000000E+00  0.00000000000E+00  0.45593999997E+02  0.45594000000E+02  0.51100000000E-03 0.  1.
         11   -1    0    0    0    0 -0.00000000000E+00 -0.00000000000E+00 -0.45593999997E+02  0.45594000000E+02  0.51100000000E-03 0. -1.
    9900012    2    1    2    0    0 -0.71117139638E+01 -0.16414960293E+02 -0.36512165705E+02  0.50528860297E+02  0.30000001360E+02 0.  0.
        -12    1    1    2    0    0  0.71117139638E+01  0.16414960293E+02  0.36512165705E+02  0.40659139703E+02  0.00000000000E+00 0.  1.
         11    1    3    3    0    0  0.33958463429E+01 -0.59623952091E+01 -0.32628303497E+02  0.33341987319E+02  0.51100000000E-03 0. -1.
        -11    1    3    3    0    0  0.20899945137E+00  0.61647216711E+00  0.84874592592E+00  0.10696207792E+01  0.51100000000E-03 0.  1.
         12    1    3    3    0    0 -0.10716559758E+02 -0.11069037251E+02 -0.47326081335E+01  0.16117252199E+02  0.00000000000E+00 0. -1.
</event>
<event>
 7    1  0.3129575E-011  0.5052886E+02  0.7816164E-02  0.1300439E+00
        -11   -1    0    0    0    0  0.00000000000E+00  0.00000000000E+00  0.45593999997E+02  0.45594000000E+02  0.51100000000E-03 0. -1.
         11   -1    0    0    0    0 -0.00000000000E+00 -0.00000000000E+00 -0.45593999997E+02  0.45594000000E+02  0.51100000000E-03 0.  1.
    9900012    2    1    2    0    0  0.10674184911E+01  0.36652067856E+02  0.17568496751E+02  0.50528861563E+02  0.30000005207E+02 0.  0.
        -12    1    1    2    0    0 -0.10674184911E+01 -0.36652067856E+02 -0.17568496751E+02  0.40659138437E+02  0.00000000000E+00 0.  1.
         11    1    3    3    0    0 -0.10593009698E+02  0.17685511384E+02  0.21397685989E+01  0.20726016918E+02  0.51100000000E-03 0. -1.
        -11    1    3    3    0    0 -0.40989407119E+00  0.10221177646E+02  0.38554530997E+01  0.10931834452E+02  0.51100000000E-03 0.  1.
        -12    1    3    3    0    0  0.12070322260E+02  0.87453788261E+01  0.11573275052E+02  0.18871010193E+02  0.00000000000E+00 0.  1.
</event>
<event>
 7    1  0.3129575E-011  0.5052885E+02  0.7816164E-02  0.1300439E+00
        -11   -1    0    0    0    0  0.00000000000E+00  0.00000000000E+00  0.45593999997E+02  0.45594000000E+02  0.51100000000E-03 0.  1.
         11   -1    0    0    0    0 -0.00000000000E+00 -0.00000000000E+00 -0.45593999997E+02  0.45594000000E+02  0.51100000000E-03 0. -1.
    9900012    2    1    2    0    0 -0.10083268125E+01  0.30482778295E+02 -0.26887722628E+02  0.50528854366E+02  0.29999983332E+02 0.  0.
        -12    1    1    2    0    0  0.10083268125E+01 -0.30482778295E+02  0.26887722628E+02  0.40659145634E+02  0.00000000000E+00 0.  1.
         11    1    3    3    0    0 -0.91911432230E+01  0.16643452960E+01 -0.33916048253E+01  0.99373106303E+01  0.51100000000E-03 0. -1.
        -11    1    3    3    0    0  0.84863094783E+01  0.63532947225E+01 -0.83697641790E+01  0.13506841047E+02  0.51100000000E-03 0.  1.
         12    1    3    3    0    0 -0.30349306774E+00  0.22465138277E+02 -0.15126353623E+02  0.27084702689E+02  0.00000000000E+00 0. -1.
</event>
<event>
 7    1  0.3129575E-011  0.5052886E+02  0.7816164E-02  0.1300439E+00
        -11   -1    0    0    0    0  0.00000000000E+00  0.00000000000E+00  0.45593999997E+02  0.45594000000E+02  0.51100000000E-03 0.  1.
         11   -1    0    0    0    0 -0.00000000000E+00 -0.00000000000E+00 -0.45593999997E+02  0.45594000000E+02  0.51100000000E-03 0. -1.
    9900012    2    1    2    0    0 -0.19157596514E+02 -0.33105368837E+02 -0.13790805886E+02  0.50528864778E+02  0.30000014978E+02 0.  0.
        -12    1    1    2    0    0  0.19157596514E+02  0.33105368837E+02  0.13790805886E+02  0.40659135222E+02  0.00000000000E+00 0.  1.
         11    1    3    3    0    0 -0.87416850547E+01 -0.17032881834E+00  0.43032246052E+01  0.97449377507E+01  0.51100000000E-03 0. -1.
        -11    1    3    3    0    0 -0.56572131305E+01 -0.46673353201E+01 -0.98235768769E+00  0.73995341935E+01  0.51100000000E-03 0.  1.
        -12    1    3    3    0    0 -0.47586983287E+01 -0.28267704699E+02 -0.17111672803E+02  0.33384392833E+02  0.00000000000E+00 0.  1.
</event>
<event>
 7    1  0.3129575E-011  0.5052884E+02  0.7816164E-02  0.1300439E+00
        -11   -1    0    0    0    0  0.00000000000E+00  0.00000000000E+00  0.45593999997E+02  0.45594000000E+02  0.51100000000E-03 0.  1.
         11   -1    0    0    0    0 -0.00000000000E+00 -0.00000000000E+00 -0.45593999997E+02  0.45594000000E+02  0.51100000000E-03 0. -1.
    9900012    2    1    2    0    0  0.14049631868E+02  0.35029795115E+01 -0.37993471927E+02  0.50528844448E+02  0.29999953185E+02 0.  0.
        -12    1    1    2    0    0 -0.14049631868E+02 -0.35029795115E+01  0.37993471927E+02  0.40659155552E+02  0.00000000000E+00 0.  1.
         11    1    3    3    0    0  0.40351874900E+01 -0.71180530245E+01 -0.75260718513E+01  0.11117156773E+02  0.51100000000E-03 0. -1.
        -11    1    3    3    0    0 -0.44977959898E+01  0.32052165901E+01 -0.82455299934E+00  0.55842161549E+01  0.51100000000E-03 0.  1.
         12    1    3    3    0    0  0.14512240368E+02  0.74158159459E+01 -0.29642847077E+02  0.33827471520E+02  0.00000000000E+00 0. -1.
</event>
<event>
 7    1  0.3129575E-011  0.5052884E+02  0.7816164E-02  0.1300439E+00
        -11   -1    0    0    0    0  0.00000000000E+00  0.00000000000E+00  0.45593999997E+02  0.45594000000E+02  0.51100000000E-03 0.  1.
         11   -1    0    0    0    0 -0.00000000000E+00 -0.00000000000E+00 -0.45593999997E+02  0.45594000000E+02  0.51100000000E-03 0. -1.
    9900012    2    1    2    0    0 -0.31405098792E+02  0.68208569364E+01 -0.24907093453E+02  0.50528835919E+02  0.29999927260E+02 0.  0.
        -12    1    1    2    0    0  0.31405098792E+02 -0.68208569364E+01  0.24907093453E+02  0.40659164081E+02  0.00000000000E+00 0.  1.
         11    1    3    3    0    0 -0.13736334122E+02 -0.47203690620E+01 -0.18268832760E+02  0.23339216137E+02  0.51100000000E-03 0. -1.
        -11    1    3    3    0    0 -0.97164831381E+01 -0.15332956878E+01  0.13469701081E+01  0.99285129285E+01  0.51100000000E-03 0.  1.
        -12    1    3    3    0    0 -0.79522815311E+01  0.13074521686E+02 -0.79852308018E+01  0.17261106854E+02  0.00000000000E+00 0.  1.
</event>
<event>
 7    1  0.3129575E-011  0.5052887E+02  0.7816164E-02  0.1300439E+00
        -11   -1    0    0    0    0  0.00000000000E+00  0.00000000000E+00  0.45593999997E+02  0.45594000000E+02  0.51100000000E-03 0. -1.
         11   -1    0    0    0    0 -0.00000000000E+00 -0.00000000000E+00 -0.45593999997E+02  0.45594000000E+02  0.51100000000E-03 0.  1.
    9900012    2    1    2    0    0 -0.14918186587E+02  0.20624384055E+02  0.31705635646E+02  0.50528870147E+02  0.30000031299E+02 0.  0.
        -12    1    1    2    0    0  0.14918186587E+02 -0.20624384055E+02 -0.31705635646E+02  0.40659129853E+02  0.00000000000E+00 0.  1.
         11    1    3    3    0    0 -0.95465273855E+01  0.75927288736E+01  0.98159786911E+01  0.15656920348E+02  0.51100000000E-03 0. -1.
        -11    1    3    3    0    0 -0.26022702885E+01  0.93921673976E+01 -0.24964908787E+01  0.10060670258E+02  0.51100000000E-03 0.  1.
         12    1    3    3    0    0 -0.27693889135E+01  0.36394877837E+01  0.24386147833E+02  0.24811279540E+02  0.00000000000E+00 0. -1.
</event>
<event>
 7    1  0.3129575E-011  0.5052887E+02  0.7816164E-02  0.1300439E+00
        -11   -1    0    0    0    0  0.00000000000E+00  0.00000000000E+00  0.45593999997E+02  0.45594000000E+02  0.51100000000E-03 0.  1.
         11   -1    0    0    0    0 -0.00000000000E+00 -0.00000000000E+00 -0.45593999997E+02  0.45594000000E+02  0.51100000000E-03 0. -1.
    9900012    2    1    2    0    0  0.13797576516E+02 -0.26420503664E+02 -0.27654084111E+02  0.50528874338E+02  0.30000044038E+02 0.  0.
        -12    1    1    2    0    0 -0.13797576516E+02  0.26420503664E+02  0.27654084111E+02  0.40659125662E+02  0.00000000000E+00 0.  1.
         11    1    3    3    0    0  0.31017188762E+01 -0.15258854257E+02 -0.20171350184E+02  0.25482085113E+02  0.51100000000E-03 0. -1.
        -11    1    3    3    0    0  0.28069351216E+01 -0.14889131092E+02 -0.41801637402E+01  0.15717470491E+02  0.51100000000E-03 0.  1.
        -12    1    3    3    0    0  0.78889225183E+01  0.37274816848E+01 -0.33025701871E+01  0.93293187345E+01  0.00000000000E+00 0.  1.
</event>
<event>
 7    1  0.3129575E-011  0.5052886E+02  0.7816164E-02  0.1300439E+00
        -11   -1    0    0    0    0  0.00000000000E+00  0.00000000000E+00  0.45593999997E+02  0.45594000000E+02  0.51100000000E-03 0.  1.
         11   -1    0    0    0    0 -0.00000000000E+00 -0.00000000000E+00 -0.45593999997E+02  0.45594000000E+02  0.51100000000E-03 0. -1.
    9900012    2    1    2    0    0  0.38153817763E+02  0.70998094681E+01 -0.12126193060E+02  0.50528860037E+02  0.30000000569E+02 0.  0.
        -12    1    1    2    0    0 -0.38153817763E+02 -0.70998094681E+01  0.12126193060E+02  0.40659139963E+02  0.00000000000E+00 0.  1.
         11    1    3    3    0    0  0.10467916582E+02  0.97821674572E+01 -0.10089242999E+02  0.17523153321E+02  0.51100000000E-03 0. -1.
        -11    1    3    3    0    0  0.26542266581E+02  0.15395368628E+01 -0.58271510897E+01  0.27217967946E+02  0.51100000000E-03 0.  1.
        -12    1    3    3    0    0  0.11436346002E+01 -0.42218948519E+01  0.37902010292E+01  0.57877387709E+01  0.00000000000E+00 0.  1.
</event>
<event>
 7    1  0.3129575E-011  0.5052885E+02  0.7816164E-02  0.1300439E+00
        -11   -1    0    0    0    0  0.00000000000E+00  0.00000000000E+00  0.45593999997E+02  0.45594000000E+02  0.51100000000E-03 0.  1.
         11   -1    0    0    0    0 -0.00000000000E+00 -0.00000000000E+00 -0.45593999997E+02  0.45594000000E+02  0.51100000000E-03 0. -1.
    9900012    2    1    2    0    0 -0.26307950770E+02  0.14386844328E+02 -0.27460455068E+02  0.50528853969E+02  0.29999982124E+02 0.  0.
        -12    1    1    2    0    0  0.26307950770E+02 -0.14386844328E+02  0.27460455068E+02  0.40659146031E+02  0.00000000000E+00 0.  1.
         11    1    3    3    0    0 -0.22135730113E+02  0.14356014376E+02 -0.13110904370E+02  0.29461525929E+02  0.51100000000E-03 0. -1.
        -11    1    3    3    0    0 -0.32367767337E+01  0.62823346405E+01 -0.12701010788E+02  0.14534790245E+02  0.51100000000E-03 0.  1.
         12    1    3    3    0    0 -0.93544392361E+00 -0.62515046890E+01 -0.16485399099E+01  0.65325377952E+01  0.00000000000E+00 0. -1.
</event>
<event>
 7    1  0.3129575E-011  0.5052886E+02  0.7816164E-02  0.1300439E+00
        -11   -1    0    0    0    0  0.00000000000E+00  0.00000000000E+00  0.45593999997E+02  0.45594000000E+02  0.51100000000E-03 0. -1.
         11   -1    0    0    0    0 -0.00000000000E+00 -0.00000000000E+00 -0.45593999997E+02  0.45594000000E+02  0.51100000000E-03 0.  1.
    9900012    2    1    2    0    0 -0.40379959917E+01  0.18072590901E+02  0.36197265408E+02  0.50528856176E+02  0.29999988831E+02 0.  0.
        -12    1    1    2    0    0  0.40379959917E+01 -0.18072590901E+02 -0.36197265408E+02  0.40659143824E+02  0.00000000000E+00 0.  1.
         11    1    3    3    0    0  0.32139631559E+01  0.11960924112E+02  0.14380876183E+02  0.18979011166E+02  0.51100000000E-03 0. -1.
        -11    1    3    3    0    0 -0.12927029444E+02  0.95126855496E+01  0.16901284141E+02  0.23307781587E+02  0.51100000000E-03 0.  1.
         12    1    3    3    0    0  0.56750702965E+01 -0.34010187607E+01  0.49151050839E+01  0.82420634229E+01  0.00000000000E+00 0. -1.
</event>
<event>
 7    1  0.3129575E-011  0.5052886E+02  0.7816164E-02  0.1300439E+00
        -11   -1    0    0    0    0  0.00000000000E+00  0.00000000000E+00  0.45593999997E+02  0.45594000000E+02  0.51100000000E-03 0. -1.
         11   -1    0    0    0    0 -0.00000000000E+00 -0.00000000000E+00 -0.45593999997E+02  0.45594000000E+02  0.51100000000E-03 0.  1.
    9900012    2    1    2    0    0 -0.11612694605E+02 -0.21601252793E+02  0.32429877326E+02  0.50528859065E+02  0.29999997613E+02 0.  0.
        -12    1    1    2    0    0  0.11612694605E+02  0.21601252793E+02 -0.32429877326E+02  0.40659140935E+02  0.00000000000E+00 0.  1.
         11    1    3    3    0    0  0.82427212629E+01 -0.51938489061E+01  0.10509916268E+02  0.14330975560E+02  0.51100000000E-03 0. -1.
        -11    1    3    3    0    0 -0.12488456195E+01 -0.16978401704E+01 -0.17123751435E+01  0.27156040799E+01  0.51100000000E-03 0.  1.
        -12    1    3    3    0    0 -0.18606570248E+02 -0.14709563716E+02  0.23632336202E+02  0.33482279425E+02  0.00000000000E+00 0.  1.
</event>
<event>
 7    1  0.3129575E-011  0.5052880E+02  0.7816164E-02  0.1300439E+00
        -11   -1    0    0    0    0  0.00000000000E+00  0.00000000000E+00  0.45593999997E+02  0.45594000000E+02  0.51100000000E-03 0. -1.
         11   -1    0    0    0    0 -0.00000000000E+00 -0.00000000000E+00 -0.45593999997E+02  0.45594000000E+02  0.51100000000E-03 0.  1.
    9900012    2    1    2    0    0  0.99755556811E+01 -0.30807452043E+02  0.24587795768E+02  0.50528800386E+02  0.29999819253E+02 0.  0.
        -12    1    1    2    0    0 -0.99755556811E+01  0.30807452043E+02 -0.24587795768E+02  0.40659199614E+02  0.00000000000E+00 0.  1.
         11    1    3    3    0    0  0.15872322504E+02 -0.13696928269E+02  0.11490371184E+02  0.23907427630E+02  0.51100000000E-03 0. -1.
        -11    1    3    3    0    0  0.18025473802E+01 -0.15096854784E+02  0.81517640209E+01  0.17251534956E+02  0.51100000000E-03 0.  1.
        -12    1    3    3    0    0 -0.76993142028E+01 -0.20136689892E+01  0.49456605625E+01  0.93698377996E+01  0.00000000000E+00 0.  1.
</event>
<event>
 7    1  0.3129575E-011  0.5052892E+02  0.7816164E-02  0.1300439E+00
        -11   -1    0    0    0    0  0.00000000000E+00  0.00000000000E+00  0.45593999997E+02  0.45594000000E+02  0.51100000000E-03 0. -1.
         11   -1    0    0    0    0 -0.00000000000E+00 -0.00000000000E+00 -0.45593999997E+02  0.45594000000E+02  0.51100000000E-03 0.  1.
    9900012    2    1    2    0    0  0.75171674169E+01 -0.34888720502E+02  0.19478972316E+02  0.50528917537E+02  0.30000175345E+02 0.  0.
        -12    1    1    2    0    0 -0.75171674169E+01  0.34888720502E+02 -0.19478972316E+02  0.40659082463E+02  0.00000000000E+00 0.  1.
         11    1    3    3    0    0  0.17318616696E+01 -0.19039604073E+02  0.12128502976E+02  0.22640813873E+02  0.51100000000E-03 0. -1.
        -11    1    3    3    0    0  0.60187146483E+01 -0.71251845450E+01  0.14065260299E+02  0.16876751120E+02  0.51100000000E-03 0.  1.
         12    1    3    3    0    0 -0.23340890101E+00 -0.87239318840E+01 -0.67147909595E+01  0.11011352545E+02  0.00000000000E+00 0. -1.
</event>
<event>
 7    1  0.3129575E-011  0.5052886E+02  0.7816164E-02  0.1300439E+00
        -11   -1    0    0    0    0  0.00000000000E+00  0.00000000000E+00  0.45593999997E+02  0.45594000000E+02  0.51100000000E-03 0.  1.
         11   -1    0    0    0    0 -0.00000000000E+00 -0.00000000000E+00 -0.45593999997E+02  0.45594000000E+02  0.51100000000E-03 0. -1.
    9900012    2    1    2    0    0  0.19605688785E+02  0.67549439145E+01 -0.34973614884E+02  0.50528855419E+02  0.29999986531E+02 0.  0.
        -12    1    1    2    0    0 -0.19605688785E+02 -0.67549439145E+01  0.34973614884E+02  0.40659144581E+02  0.00000000000E+00 0.  1.
         11    1    3    3    0    0  0.15643905931E+02 -0.36627072448E+01 -0.14747708364E+02  0.21809220971E+02  0.51100000000E-03 0. -1.
        -11    1    3    3    0    0  0.75751880541E+01  0.34716830252E+01 -0.19062280873E+02  0.20804004649E+02  0.51100000000E-03 0.  1.
        -12    1    3    3    0    0 -0.36134051997E+01  0.69459681340E+01 -0.11636256464E+01  0.79156297981E+01  0.00000000000E+00 0.  1.
</event>
<event>
 7    1  0.3129575E-011  0.5052886E+02  0.7816164E-02  0.1300439E+00
        -11   -1    0    0    0    0  0.00000000000E+00  0.00000000000E+00  0.45593999997E+02  0.45594000000E+02  0.51100000000E-03 0. -1.
         11   -1    0    0    0    0 -0.00000000000E+00 -0.00000000000E+00 -0.45593999997E+02  0.45594000000E+02  0.51100000000E-03 0.  1.
    9900012    2    1    2    0    0 -0.25704000525E+02 -0.25924369778E+02  0.17899633313E+02  0.50528862477E+02  0.30000007985E+02 0.  0.
        -12    1    1    2    0    0  0.25704000525E+02  0.25924369778E+02 -0.17899633313E+02  0.40659137523E+02  0.00000000000E+00 0.  1.
         11    1    3    3    0    0  0.79191079975E+00  0.13173082813E+01 -0.45000342654E+01  0.47552846890E+01  0.51100000000E-03 0. -1.
        -11    1    3    3    0    0 -0.38302942444E+01 -0.13410727915E+01 -0.96892599203E+00  0.41723432349E+01  0.51100000000E-03 0.  1.
         12    1    3    3    0    0 -0.22665617081E+02 -0.25900605268E+02  0.23368593570E+02  0.41601234553E+02  0.00000000000E+00 0. -1.
</event>
<event>
 7    1  0.3129575E-011  0.5052884E+02  0.7816164E-02  0.1300439E+00
        -11   -1    0    0    0    0  0.00000000000E+00  0.00000000000E+00  0.45593999997E+02  0.45594000000E+02  0.51100000000E-03 0. -1.
         11   -1    0    0    0    0 -0.00000000000E+00 -0.00000000000E+00 -0.45593999997E+02  0.45594000000E+02  0.51100000000E-03 0.  1.
    9900012    2    1    2    0    0  0.26909400341E+02 -0.11129281925E+02  0.28375874889E+02  0.50528843360E+02  0.29999949878E+02 0.  0.
        -12    1    1    2    0    0 -0.26909400341E+02  0.11129281925E+02 -0.28375874889E+02  0.40659156640E+02  0.00000000000E+00 0.  1.
         11    1    3    3    0    0  0.10398893854E+02 -0.15658614058E+02  0.12500192014E+02  0.22573967047E+02  0.51100000000E-03 0. -1.
        -11    1    3    3    0    0  0.42474870086E+01  0.10929198304E+01 -0.29069541221E+01  0.52617489652E+01  0.51100000000E-03 0.  1.
         12    1    3    3    0    0  0.12263019479E+02  0.34364123026E+01  0.18782636997E+02  0.22693127348E+02  0.00000000000E+00 0. -1.
</event>
<event>
 7    1  0.3129575E-011  0.5052886E+02  0.7816164E-02  0.1300439E+00
        -11   -1    0    0    0    0  0.00000000000E+00  0.00000000000E+00  0.45593999997E+02  0.45594000000E+02  0.51100000000E-03 0. -1.
         11   -1    0    0    0    0 -0.00000000000E+00 -0.00000000000E+00 -0.45593999997E+02  0.45594000000E+02  0.51100000000E-03 0.  1.
    9900012    2    1    2    0    0  0.60284826456E+01 -0.40035258294E+02  0.37418119172E+01  0.50528859993E+02  0.30000000435E+02 0.  0.
        -12    1    1    2    0    0 -0.60284826456E+01  0.40035258294E+02 -0.37418119172E+01  0.40659140007E+02  0.00000000000E+00 0.  1.
         11    1    3    3    0    0 -0.53352345695E+01 -0.29964771354E+02  0.70274041835E+00  0.30444147131E+02  0.51100000000E-03 0. -1.
        -11    1    3    3    0    0  0.71795110124E+01 -0.12469116633E+02  0.79554789300E-02  0.14388339430E+02  0.51100000000E-03 0.  1.
        -12    1    3    3    0    0  0.41842062027E+01  0.23986296932E+01  0.30311160199E+01  0.56963734321E+01  0.00000000000E+00 0.  1.
</event>
<event>
 7    1  0.3129575E-011  0.5052887E+02  0.7816164E-02  0.1300439E+00
        -11   -1    0    0    0    0  0.00000000000E+00  0.00000000000E+00  0.45593999997E+02  0.45594000000E+02  0.51100000000E-03 0.  1.
         11   -1    0    0    0    0 -0.00000000000E+00 -0.00000000000E+00 -0.45593999997E+02  0.45594000000E+02  0.51100000000E-03 0. -1.
    9900012    2    1    2    0    0  0.17756439842E+02 -0.13983989378E+02 -0.33798255945E+02  0.50528865483E+02  0.30000017122E+02 0.  0.
        -12    1    1    2    0    0 -0.17756439842E+02  0.13983989378E+02  0.33798255945E+02  0.40659134517E+02  0.00000000000E+00 0.  1.
         11    1    3    3    0    0  0.14088956276E+02  0.71213130044E+00 -0.14771119572E+02  0.20425273403E+02  0.51100000000E-03 0. -1.
        -11    1    3    3    0    0 -0.52182471427E+01 -0.10868160232E+02 -0.15862460354E+02  0.19923971964E+02  0.51100000000E-03 0.  1.
         12    1    3    3    0    0  0.88857307084E+01 -0.38279604464E+01 -0.31646760186E+01  0.10179620116E+02  0.00000000000E+00 0. -1.
</event>
<event>
 7    1  0.3129575E-011  0.5052886E+02  0.7816164E-02  0.1300439E+00
        -11   -1    0    0    0    0  0.00000000000E+00  0.00000000000E+00  0.45593999997E+02  0.45594000000E+02  0.51100000000E-03 0.  1.
         11   -1    0    0    0    0 -0.00000000000E+00 -0.00000000000E+00 -0.45593999997E+02  0.45594000000E+02  0.51100000000E-03 0. -1.
    9900012    2    1    2    0    0 -0.97456158837E+01  0.30362238029E+02 -0.25225451937E+02  0.50528856471E+02  0.29999989729E+02 0.  0.
        -12    1    1    2    0    0  0.97456158837E+01 -0.30362238029E+02  0.25225451937E+02  0.40659143529E+02  0.00000000000E+00 0.  1.
         11    1    3    3    0    0 -0.62937998865E+01  0.95000555500E+01 -0.78672309850E+01  0.13847609761E+02  0.51100000000E-03 0. -1.
        -11    1    3    3    0    0 -0.12636233832E+01  0.82901847992E+01 -0.21650392233E+02  0.23217738739E+02  0.51100000000E-03 0.  1.
        -12    1    3    3    0    0 -0.21881926140E+01  0.12571997680E+02  0.42921712804E+01  0.13463507971E+02  0.00000000000E+00 0.  1.
</event>
<event>
 7    1  0.3129575E-011  0.5052887E+02  0.7816164E-02  0.1300439E+00
        -11   -1    0    0    0    0  0.00000000000E+00  0.00000000000E+00  0.45593999997E+02  0.45594000000E+02  0.51100000000E-03 0.  1.
         11   -1    0    0    0    0 -0.00000000000E+00 -0.00000000000E+00 -0.45593999997E+02  0.45594000000E+02  0.51100000000E-03 0. -1.
    9900012    2    1    2    0    0  0.35350546912E+01 -0.28675985573E+02 -0.28606930766E+02  0.50528865134E+02  0.30000016060E+02 0.  0.
        -12    1    1    2    0    0 -0.35350546912E+01  0.28675985573E+02  0.28606930766E+02  0.40659134866E+02  0.00000000000E+00 0.  1.
         11    1    3    3    0    0  0.86752639466E+00 -0.10447530025E+02 -0.13374632833E+02  0.16993654385E+02  0.51100000000E-03 0. -1.
        -11    1    3    3    0    0 -0.54659209903E+01 -0.19034479315E+02 -0.49736988225E+01  0.20418750582E+02  0.51100000000E-03 0.  1.
        -12    1    3    3    0    0  0.81334492868E+01  0.80602376766E+00 -0.10258599110E+02  0.13116460167E+02  0.00000000000E+00 0.  1.
</event>
<event>
 7    1  0.3129575E-011  0.5052885E+02  0.7816164E-02  0.1300439E+00
        -11   -1    0    0    0    0  0.00000000000E+00  0.00000000000E+00  0.45593999997E+02  0.45594000000E+02  0.51100000000E-03 0.  1.
         11   -1    0    0    0    0 -0.00000000000E+00 -0.00000000000E+00 -0.45593999997E+02  0.45594000000E+02  0.51100000000E-03 0. -1.
    9900012    2    1    2    0    0  0.36841935480E+02  0.12171747683E+02 -0.12152632945E+02  0.50528854177E+02  0.29999982756E+02 0.  0.
        -12    1    1    2    0    0 -0.36841935480E+02 -0.12171747683E+02  0.12152632945E+02  0.40659145823E+02  0.00000000000E+00 0.  1.
         11    1    3    3    0    0  0.64354249405E+01 -0.60043114581E+01 -0.23723847328E+01  0.91156272319E+01  0.51100000000E-03 0. -1.
        -11    1    3    3    0    0  0.90298624319E+01  0.12527551466E+02 -0.11473014609E+02  0.19238191853E+02  0.51100000000E-03 0.  1.
         12    1    3    3    0    0  0.21376648108E+02  0.56485076753E+01  0.16927663974E+01  0.22175035092E+02  0.00000000000E+00 0. -1.
</event>
<event>
 7    1  0.3129575E-011  0.5052886E+02  0.7816164E-02  0.1300439E+00
        -11   -1    0    0    0    0  0.00000000000E+00  0.00000000000E+00  0.45593999997E+02  0.45594000000E+02  0.51100000000E-03 0.  1.
         11   -1    0    0    0    0 -0.00000000000E+00 -0.00000000000E+00 -0.45593999997E+02  0.45594000000E+02  0.51100000000E-03 0. -1.
    9900012    2    1    2    0    0  0.90696380809E+01 -0.53488951233E+01 -0.39272086941E+02  0.50528858019E+02  0.29999994433E+02 0.  0.
        -12    1    1    2    0    0 -0.90696380809E+01  0.53488951233E+01  0.39272086941E+02  0.40659141981E+02  0.00000000000E+00 0.  1.
         11    1    3    3    0    0 -0.58121698565E+01  0.25471611322E+01 -0.16298499133E+02  0.17490295095E+02  0.51100000000E-03 0. -1.
        -11    1    3    3    0    0  0.42115714187E+01  0.46845169485E+01 -0.10924251307E+02  0.12610364774E+02  0.51100000000E-03 0.  1.
        -12    1    3    3    0    0  0.10670236519E+02 -0.12580573204E+02 -0.12049336502E+02  0.20428198149E+02  0.00000000000E+00 0.  1.
</event>
<event>
 7    1  0.3129575E-011  0.5052890E+02  0.7816164E-02  0.1300439E+00
        -11   -1    0    0    0    0  0.00000000000E+00  0.00000000000E+00  0.45593999997E+02  0.45594000000E+02  0.51100000000E-03 0.  1.
         11   -1    0    0    0    0 -0.00000000000E+00 -0.00000000000E+00 -0.45593999997E+02  0.45594000000E+02  0.51100000000E-03 0. -1.
    9900012    2    1    2    0    0  0.38173663019E+02  0.10332074503E+02 -0.94436248630E+01  0.50528900620E+02  0.30000123924E+02 0.  0.
        -12    1    1    2    0    0 -0.38173663019E+02 -0.10332074503E+02  0.94436248630E+01  0.40659099380E+02  0.00000000000E+00 0.  1.
         11    1    3    3    0    0  0.18978369856E+02 -0.81783724456E+01 -0.40009120780E+01  0.21049265924E+02  0.51100000000E-03 0. -1.
        -11    1    3    3    0    0  0.17248773101E+02  0.96274460909E+01 -0.24445008325E+01  0.19904358224E+02  0.51100000000E-03 0.  1.
        -12    1    3    3    0    0  0.19465200626E+01  0.88830008578E+01 -0.29982119524E+01  0.95752764715E+01  0.00000000000E+00 0.  1.
</event>
<event>
 7    1  0.3129575E-011  0.5052879E+02  0.7816164E-02  0.1300439E+00
        -11   -1    0    0    0    0  0.00000000000E+00  0.00000000000E+00  0.45593999997E+02  0.45594000000E+02  0.51100000000E-03 0. -1.
         11   -1    0    0    0    0 -0.00000000000E+00 -0.00000000000E+00 -0.45593999997E+02  0.45594000000E+02  0.51100000000E-03 0.  1.
    9900012    2    1    2    0    0  0.25507352028E+02  0.63915078274E+01  0.31011203030E+02  0.50528793254E+02  0.29999797575E+02 0.  0.
        -12    1    1    2    0    0 -0.25507352028E+02 -0.63915078274E+01 -0.31011203030E+02  0.40659206746E+02  0.00000000000E+00 0.  1.
         11    1    3    3    0    0  0.32601235240E+01 -0.82627560587E+01  0.18042767490E+01  0.90640475465E+01  0.51100000000E-03 0. -1.
        -11    1    3    3    0    0  0.33022427916E+01  0.86087128394E+00 -0.68622866160E+00  0.34809218404E+01  0.51100000000E-03 0.  1.
         12    1    3    3    0    0  0.18944985713E+02  0.13793392602E+02  0.29893154943E+02  0.37983823867E+02  0.00000000000E+00 0. -1.
</event>
<event>
 7    1  0.3129575E-011  0.5052888E+02  0.7816164E-02  0.1300439E+00
        -11   -1    0    0    0    0  0.00000000000E+00  0.00000000000E+00  0.45593999997E+02  0.45594000000E+02  0.51100000000E-03 0.  1.
         11   -1    0    0    0    0 -0.00000000000E+00 -0.00000000000E+00 -0.45593999997E+02  0.45594000000E+02  0.51100000000E-03 0. -1.
    9900012    2    1    2    0    0  0.12571183446E+02  0.27756406635E+01 -0.38567146630E+02  0.50528884989E+02  0.30000076412E+02 0.  0.
        -12    1    1    2    0    0 -0.12571183446E+02 -0.27756406635E+01  0.38567146630E+02  0.40659115011E+02  0.00000000000E+00 0.  1.
         11    1    3    3    0    0  0.26568659063E+01  0.59742091553E+01 -0.25683681224E+02  0.26502860090E+02  0.51100000000E-03 0. -1.
        -11    1    3    3    0    0 -0.36443922479E+01 -0.30856348524E+00  0.15865856258E+01  0.39867355681E+01  0.51100000000E-03 0.  1.
         12    1    3    3    0    0  0.13558709787E+02 -0.28900050065E+01 -0.14470051032E+02  0.20039289331E+02  0.00000000000E+00 0. -1.
</event>
<event>
 7    1  0.3129575E-011  0.5052886E+02  0.7816164E-02  0.1300439E+00
        -11   -1    0    0    0    0  0.00000000000E+00  0.00000000000E+00  0.45593999997E+02  0.45594000000E+02  0.51100000000E-03 0. -1.
         11   -1    0    0    0    0 -0.00000000000E+00 -0.00000000000E+00 -0.45593999997E+02  0.45594000000E+02  0.51100000000E-03 0.  1.
    9900012    2    1    2    0    0 -0.24346140848E+01  0.25481854942E+02  0.31589770514E+02  0.50528857385E+02  0.29999992508E+02 0.  0.
        -12    1    1    2    0    0  0.24346140848E+01 -0.25481854942E+02 -0.31589770514E+02  0.40659142615E+02  0.00000000000E+00 0.  1.
         11    1    3    3    0    0  0.34505734437E+01  0.11257496541E+02  0.18483183964E+02  0.21914966921E+02  0.51100000000E-03 0. -1.
        -11    1    3    3    0    0 -0.16112319901E+01  0.18895898398E+02  0.84913733935E+01  0.20778702249E+02  0.51100000000E-03 0.  1.
         12    1    3    3    0    0 -0.42739555384E+01 -0.46715399963E+01  0.46152131570E+01  0.78351882151E+01  0.00000000000E+00 0. -1.
</event>
<event>
 7    1  0.3129575E-011  0.5052885E+02  0.7816164E-02  0.1300439E+00
        -11   -1    0    0    0    0  0.00000000000E+00  0.00000000000E+00  0.45593999997E+02  0.45594000000E+02  0.51100000000E-03 0. -1.
         11   -1    0    0    0    0 -0.00000000000E+00 -0.00000000000E+00 -0.45593999997E+02  0.45594000000E+02  0.51100000000E-03 0.  1.
    9900012    2    1    2    0    0 -0.28031470943E+02  0.28988028106E+02  0.52055365229E+01  0.50528846698E+02  0.29999960025E+02 0.  0.
        -12    1    1    2    0    0  0.28031470943E+02 -0.28988028106E+02 -0.52055365229E+01  0.40659153302E+02  0.00000000000E+00 0.  1.
         11    1    3    3    0    0 -0.14279378454E+02  0.13985000425E+02  0.95931318873E+01  0.22170003734E+02  0.51100000000E-03 0. -1.
        -11    1    3    3    0    0 -0.14741622076E+02  0.18883154275E+02 -0.31177744726E+01  0.24158010156E+02  0.51100000000E-03 0.  1.
        -12    1    3    3    0    0  0.98952958635E+00 -0.38801265935E+01 -0.12698208919E+01  0.42008328080E+01  0.00000000000E+00 0.  1.
</event>
<event>
 7    1  0.3129575E-011  0.5052883E+02  0.7816164E-02  0.1300439E+00
        -11   -1    0    0    0    0  0.00000000000E+00  0.00000000000E+00  0.45593999997E+02  0.45594000000E+02  0.51100000000E-03 0.  1.
         11   -1    0    0    0    0 -0.00000000000E+00 -0.00000000000E+00 -0.45593999997E+02  0.45594000000E+02  0.51100000000E-03 0. -1.
    9900012    2    1    2    0    0  0.19835612922E+02  0.31590690202E+02 -0.16178538206E+02  0.50528827038E+02  0.29999900266E+02 0.  0.
        -12    1    1    2    0    0 -0.19835612922E+02 -0.31590690202E+02  0.16178538206E+02  0.40659172962E+02  0.00000000000E+00 0.  1.
         11    1    3    3    0    0  0.17188086508E+02  0.35355942639E+02 -0.18543660652E+02  0.43466542861E+02  0.51100000000E-03 0. -1.
        -11    1    3    3    0    0  0.14341234872E+01 -0.46698268665E+00 -0.12951285234E+01  0.19879992856E+01  0.51100000000E-03 0.  1.
        -12    1    3    3    0    0  0.12134029267E+01 -0.32982697502E+01  0.36602509686E+01  0.50742848916E+01  0.00000000000E+00 0.  1.
</event>
<event>
 7    1  0.3129575E-011  0.5052881E+02  0.7816164E-02  0.1300439E+00
        -11   -1    0    0    0    0  0.00000000000E+00  0.00000000000E+00  0.45593999997E+02  0.45594000000E+02  0.51100000000E-03 0. -1.
         11   -1    0    0    0    0 -0.00000000000E+00 -0.00000000000E+00 -0.45593999997E+02  0.45594000000E+02  0.51100000000E-03 0.  1.
    9900012    2    1    2    0    0 -0.23658089769E+02 -0.18291913260E+02  0.27547610072E+02  0.50528805186E+02  0.29999833843E+02 0.  0.
        -12    1    1    2    0    0  0.23658089769E+02  0.18291913260E+02 -0.27547610072E+02  0.40659194814E+02  0.00000000000E+00 0.  1.
         11    1    3    3    0    0 -0.25420572763E+01  0.73520160142E-01 -0.26045017726E+01  0.36401772147E+01  0.51100000000E-03 0. -1.
        -11    1    3    3    0    0  0.26667069354E+01 -0.10423073499E+02  0.10471465403E+02  0.15013439813E+02  0.51100000000E-03 0.  1.
         12    1    3    3    0    0 -0.23782739428E+02 -0.79423599207E+01  0.19680646441E+02  0.31875188159E+02  0.00000000000E+00 0. -1.
</event>
<event>
 7    1  0.3129575E-011  0.5052886E+02  0.7816164E-02  0.1300439E+00
        -11   -1    0    0    0    0  0.00000000000E+00  0.00000000000E+00  0.45593999997E+02  0.45594000000E+02  0.51100000000E-03 0.  1.
         11   -1    0    0    0    0 -0.00000000000E+00 -0.00000000000E+00 -0.45593999997E+02  0.45594000000E+02  0.51100000000E-03 0. -1.
    9900012    2    1    2    0    0  0.28879569409E+02  0.16760645847E+01 -0.28571434404E+02  0.50528860983E+02  0.30000003443E+02 0.  0.
        -12    1    1    2    0    0 -0.28879569409E+02 -0.16760645847E+01  0.28571434404E+02  0.40659139017E+02  0.00000000000E+00 0.  1.
         11    1    3    3    0    0  0.35777224198E+01  0.82367023807E+01 -0.42718328175E+01  0.99444416486E+01  0.51100000000E-03 0. -1.
        -11    1    3    3    0    0 -0.84386655831E+00 -0.61307899278E+01 -0.31017597815E+01  0.69223991441E+01  0.51100000000E-03 0.  1.
         12    1    3    3    0    0  0.26145713547E+02 -0.42984786818E+00 -0.21197841805E+02  0.33662020190E+02  0.00000000000E+00 0. -1.
</event>
<event>
 7    1  0.3129575E-011  0.5052885E+02  0.7816164E-02  0.1300439E+00
        -11   -1    0    0    0    0  0.00000000000E+00  0.00000000000E+00  0.45593999997E+02  0.45594000000E+02  0.51100000000E-03 0. -1.
         11   -1    0    0    0    0 -0.00000000000E+00 -0.00000000000E+00 -0.45593999997E+02  0.45594000000E+02  0.51100000000E-03 0.  1.
    9900012    2    1    2    0    0 -0.27628612305E+02 -0.26463008904E+02 -0.13767180268E+02  0.50528852066E+02  0.29999976341E+02 0.  0.
        -12    1    1    2    0    0  0.27628612305E+02  0.26463008904E+02  0.13767180268E+02  0.40659147934E+02  0.00000000000E+00 0.  1.
         11    1    3    3    0    0 -0.21497625530E+02 -0.25204310014E+02 -0.18241966453E+02  0.37817647826E+02  0.51100000000E-03 0. -1.
        -11    1    3    3    0    0  0.14592942501E+01 -0.57716189708E+00 -0.21169014760E+01  0.26351333332E+01  0.51100000000E-03 0.  1.
         12    1    3    3    0    0 -0.75902810253E+01 -0.68153699239E+00  0.65916876608E+01  0.10076070907E+02  0.00000000000E+00 0. -1.
</event>
<event>
 7    1  0.3129575E-011  0.5052886E+02  0.7816164E-02  0.1300439E+00
        -11   -1    0    0    0    0  0.00000000000E+00  0.00000000000E+00  0.45593999997E+02  0.45594000000E+02  0.51100000000E-03 0. -1.
         11   -1    0    0    0    0 -0.00000000000E+00 -0.00000000000E+00 -0.45593999997E+02  0.45594000000E+02  0.51100000000E-03 0.  1.
    9900012    2    1    2    0    0 -0.10041312198E+02 -0.18724168790E+02  0.34666164918E+02  0.50528862803E+02  0.30000008975E+02 0.  0.
        -12    1    1    2    0    0  0.10041312198E+02  0.18724168790E+02 -0.34666164918E+02  0.40659137197E+02  0.00000000000E+00 0.  1.
         11    1    3    3    0    0 -0.82042531425E+01  0.30952795092E+01  0.10579254640E+02  0.13740857100E+02  0.51100000000E-03 0. -1.
        -11    1    3    3    0    0 -0.90512410943E+01 -0.16286058397E+02  0.17488698625E+02  0.25554162935E+02  0.51100000000E-03 0.  1.
        -12    1    3    3    0    0  0.72141820386E+01 -0.55333899021E+01  0.65982116539E+01  0.11233842767E+02  0.00000000000E+00 0.  1.
</event>
<event>
 7    1  0.3129575E-011  0.5052885E+02  0.7816164E-02  0.1300439E+00
        -11   -1    0    0    0    0  0.00000000000E+00  0.00000000000E+00  0.45593999997E+02  0.45594000000E+02  0.51100000000E-03 0.  1.
         11   -1    0    0    0    0 -0.00000000000E+00 -0.00000000000E+00 -0.45593999997E+02  0.45594000000E+02  0.51100000000E-03 0. -1.
    9900012    2    1    2    0    0 -0.27442391073E+01  0.40179923665E+02 -0.55865614420E+01  0.50528846261E+02  0.29999958696E+02 0.  0.
        -12    1    1    2    0    0  0.27442391073E+01 -0.40179923665E+02  0.55865614420E+01  0.40659153739E+02  0.00000000000E+00 0.  1.
         11    1    3    3    0    0 -0.28598760228E+01  0.11314776904E+02 -0.23912489662E+00  0.11673056507E+02  0.51100000000E-03 0.  1.
        -11    1    3    3    0    0  0.50173933189E+01  0.24142884645E+02 -0.13598423233E+02  0.28159727083E+02  0.51100000000E-03 0. -1.
         12    1    3    3    0    0 -0.49017564035E+01  0.47222621166E+01  0.82509866881E+01  0.10696062671E+02  0.00000000000E+00 0. -1.
</event>
<event>
 7    1  0.3129575E-011  0.5052886E+02  0.7816164E-02  0.1300439E+00
        -11   -1    0    0    0    0  0.00000000000E+00  0.00000000000E+00  0.45593999997E+02  0.45594000000E+02  0.51100000000E-03 0.  1.
         11   -1    0    0    0    0 -0.00000000000E+00 -0.00000000000E+00 -0.45593999997E+02  0.45594000000E+02  0.51100000000E-03 0. -1.
    9900012    2    1    2    0    0 -0.26209173409E+02  0.12412134774E+02 -0.28498836757E+02  0.50528861335E+02  0.30000004515E+02 0.  0.
        -12    1    1    2    0    0  0.26209173409E+02 -0.12412134774E+02  0.28498836757E+02  0.40659138665E+02  0.00000000000E+00 0.  1.
         11    1    3    3    0    0 -0.16705729218E+02  0.14177576990E+02 -0.19982869195E+02  0.29654681579E+02  0.51100000000E-03 0. -1.
        -11    1    3    3    0    0  0.31309395625E+01  0.40370194807E+01 -0.29416545541E+01  0.58952218455E+01  0.51100000000E-03 0.  1.
        -12    1    3    3    0    0 -0.12634383754E+02 -0.58024616972E+01 -0.55743130075E+01  0.14978957911E+02  0.00000000000E+00 0.  1.
</event>
<event>
 7    1  0.3129575E-011  0.5052886E+02  0.7816164E-02  0.1300439E+00
        -11   -1    0    0    0    0  0.00000000000E+00  0.00000000000E+00  0.45593999997E+02  0.45594000000E+02  0.51100000000E-03 0.  1.
         11   -1    0    0    0    0 -0.00000000000E+00 -0.00000000000E+00 -0.45593999997E+02  0.45594000000E+02  0.51100000000E-03 0. -1.
    9900012    2    1    2    0    0 -0.20392743603E+02  0.34069633940E+02 -0.87499771087E+01  0.50528855299E+02  0.29999986165E+02 0.  0.
        -12    1    1    2    0    0  0.20392743603E+02 -0.34069633940E+02  0.87499771087E+01  0.40659144701E+02  0.00000000000E+00 0.  1.
         11    1    3    3    0    0 -0.91953406305E+01  0.19985426137E+02 -0.23794857324E+01  0.22127663677E+02  0.51100000000E-03 0. -1.
        -11    1    3    3    0    0 -0.13707441202E+02  0.69326502840E+01  0.36971469570E+01  0.15799508858E+02  0.51100000000E-03 0.  1.
         12    1    3    3    0    0  0.25100382299E+01  0.71515575187E+01 -0.10067638333E+02  0.12601682763E+02  0.00000000000E+00 0. -1.
</event>
<event>
 7    1  0.3129575E-011  0.5052886E+02  0.7816164E-02  0.1300439E+00
        -11   -1    0    0    0    0  0.00000000000E+00  0.00000000000E+00  0.45593999997E+02  0.45594000000E+02  0.51100000000E-03 0.  1.
         11   -1    0    0    0    0 -0.00000000000E+00 -0.00000000000E+00 -0.45593999997E+02  0.45594000000E+02  0.51100000000E-03 0. -1.
    9900012    2    1    2    0    0  0.54959160298E+01  0.39055722069E+02 -0.98798296892E+01  0.50528861372E+02  0.30000004625E+02 0.  0.
        -12    1    1    2    0    0 -0.54959160298E+01 -0.39055722069E+02  0.98798296892E+01  0.40659138628E+02  0.00000000000E+00 0.  1.
         11    1    3    3    0    0  0.39879488677E+01  0.82134382088E+01  0.16377803371E+01  0.92761321722E+01  0.51100000000E-03 0. -1.
        -11    1    3    3    0    0 -0.59435069375E+01  0.30135663048E+02 -0.45962181862E+01  0.31058150040E+02  0.51100000000E-03 0.  1.
         12    1    3    3    0    0  0.74514740996E+01  0.70662081200E+00 -0.69213918402E+01  0.10194579159E+02  0.00000000000E+00 0. -1.
</event>
<event>
 7    1  0.3129575E-011  0.5052886E+02  0.7816164E-02  0.1300439E+00
        -11   -1    0    0    0    0  0.00000000000E+00  0.00000000000E+00  0.45593999997E+02  0.45594000000E+02  0.51100000000E-03 0.  1.
         11   -1    0    0    0    0 -0.00000000000E+00 -0.00000000000E+00 -0.45593999997E+02  0.45594000000E+02  0.51100000000E-03 0. -1.
    9900012    2    1    2    0    0  0.17187702461E+02 -0.27646041213E+02 -0.24360726015E+02  0.50528859790E+02  0.29999999817E+02 0.  0.
        -12    1    1    2    0    0 -0.17187702461E+02  0.27646041213E+02  0.24360726015E+02  0.40659140210E+02  0.00000000000E+00 0.  1.
         11    1    3    3    0    0  0.42279940117E+01 -0.67969923569E+01 -0.21595579337E+02  0.23031371770E+02  0.51100000000E-03 0. -1.
        -11    1    3    3    0    0  0.48110143433E+01 -0.68139554762E-01 -0.18574645454E+01  0.51575843967E+01  0.51100000000E-03 0.  1.
         12    1    3    3    0    0  0.81486941060E+01 -0.20780909301E+02 -0.90768213317E+00  0.22339903623E+02  0.00000000000E+00 0. -1.
</event>
<event>
 7    1  0.3129575E-011  0.5052886E+02  0.7816164E-02  0.1300439E+00
        -11   -1    0    0    0    0  0.00000000000E+00  0.00000000000E+00  0.45593999997E+02  0.45594000000E+02  0.51100000000E-03 0.  1.
         11   -1    0    0    0    0 -0.00000000000E+00 -0.00000000000E+00 -0.45593999997E+02  0.45594000000E+02  0.51100000000E-03 0. -1.
    9900012    2    1    2    0    0  0.76477282348E+01  0.39577242857E+02 -0.53216294088E+01  0.50528860328E+02  0.30000001453E+02 0.  0.
        -12    1    1    2    0    0 -0.76477282348E+01 -0.39577242857E+02  0.53216294088E+01  0.40659139672E+02  0.00000000000E+00 0.  1.
         11    1    3    3    0    0 -0.58392149033E+01  0.19700719000E+01  0.92523044890E+00  0.62316663601E+01  0.51100000000E-03 0. -1.
        -11    1    3    3    0    0  0.15417580480E+02  0.33186447533E+02 -0.24074483674E+00  0.36593715936E+02  0.51100000000E-03 0.  1.
         12    1    3    3    0    0 -0.19306373414E+01  0.44207234240E+01 -0.60061150210E+01  0.77034780314E+01  0.00000000000E+00 0. -1.
</event>
<event>
 7    1  0.3129575E-011  0.5052886E+02  0.7816164E-02  0.1300439E+00
        -11   -1    0    0    0    0  0.00000000000E+00  0.00000000000E+00  0.45593999997E+02  0.45594000000E+02  0.51100000000E-03 0.  1.
         11   -1    0    0    0    0 -0.00000000000E+00 -0.00000000000E+00 -0.45593999997E+02  0.45594000000E+02  0.51100000000E-03 0. -1.
    9900012    2    1    2    0    0 -0.36491041347E+02  0.99635548634E+01  0.14909625391E+02  0.50528862608E+02  0.30000008384E+02 0.  0.
        -12    1    1    2    0    0  0.36491041347E+02 -0.99635548634E+01 -0.14909625391E+02  0.40659137392E+02  0.00000000000E+00 0.  1.
         11    1    3    3    0    0 -0.44669925595E+01 -0.31480743626E+01  0.18434882134E+01  0.57673948861E+01  0.51100000000E-03 0. -1.
        -11    1    3    3    0    0  0.30473753169E+01  0.52168019977E+01 -0.10649400510E+01  0.61347874436E+01  0.51100000000E-03 0.  1.
         12    1    3    3    0    0 -0.35071424105E+02  0.78948272283E+01  0.14131077229E+02  0.38626680279E+02  0.00000000000E+00 0. -1.
</event>
<event>
 7    1  0.3129575E-011  0.5052886E+02  0.7816164E-02  0.1300439E+00
        -11   -1    0    0    0    0  0.00000000000E+00  0.00000000000E+00  0.45593999997E+02  0.45594000000E+02  0.51100000000E-03 0.  1.
         11   -1    0    0    0    0 -0.00000000000E+00 -0.00000000000E+00 -0.45593999997E+02  0.45594000000E+02  0.51100000000E-03 0. -1.
    9900012    2    1    2    0    0  0.26886359351E+02 -0.20175393407E+02 -0.22874496198E+02  0.50528863332E+02  0.30000010584E+02 0.  0.
        -12    1    1    2    0    0 -0.26886359351E+02  0.20175393407E+02  0.22874496198E+02  0.40659136668E+02  0.00000000000E+00 0.  1.
         11    1    3    3    0    0  0.16092480531E+02 -0.16622838169E+02 -0.19605458701E+02  0.30325907893E+02  0.51100000000E-03 0. -1.
        -11    1    3    3    0    0 -0.42908836696E+01 -0.51879638373E+00  0.52885376554E+00  0.43543677980E+01  0.51100000000E-03 0.  1.
        -12    1    3    3    0    0  0.15084762490E+02 -0.30337588548E+01 -0.37978912628E+01  0.15848587641E+02  0.00000000000E+00 0.  1.
</event>
<event>
 7    1  0.3129575E-011  0.5052886E+02  0.7816164E-02  0.1300439E+00
        -11   -1    0    0    0    0  0.00000000000E+00  0.00000000000E+00  0.45593999997E+02  0.45594000000E+02  0.51100000000E-03 0.  1.
         11   -1    0    0    0    0 -0.00000000000E+00 -0.00000000000E+00 -0.45593999997E+02  0.45594000000E+02  0.51100000000E-03 0. -1.
    9900012    2    1    2    0    0  0.97346888748E+01  0.37660066314E+01 -0.39296550455E+02  0.50528857718E+02  0.29999993519E+02 0.  0.
        -12    1    1    2    0    0 -0.97346888748E+01 -0.37660066314E+01  0.39296550455E+02  0.40659142282E+02  0.00000000000E+00 0.  1.
         11    1    3    3    0    0 -0.26313337429E+01 -0.80103518327E+00 -0.35862771977E+01  0.45196193459E+01  0.51100000000E-03 0. -1.
        -11    1    3    3    0    0  0.96904223418E+01 -0.97515184376E+01 -0.12353635008E+02  0.18482659310E+02  0.51100000000E-03 0.  1.
         12    1    3    3    0    0  0.26756002759E+01  0.14318560252E+02 -0.23356638249E+02  0.27526579062E+02  0.00000000000E+00 0. -1.
</event>
<event>
 7    1  0.3129575E-011  0.5052886E+02  0.7816164E-02  0.1300439E+00
        -11   -1    0    0    0    0  0.00000000000E+00  0.00000000000E+00  0.45593999997E+02  0.45594000000E+02  0.51100000000E-03 0. -1.
         11   -1    0    0    0    0 -0.00000000000E+00 -0.00000000000E+00 -0.45593999997E+02  0.45594000000E+02  0.51100000000E-03 0.  1.
    9900012    2    1    2    0    0  0.27386367226E+02  0.28063642665E+02  0.10751042008E+02  0.50528855227E+02  0.29999985947E+02 0.  0.
        -12    1    1    2    0    0 -0.27386367226E+02 -0.28063642665E+02 -0.10751042008E+02  0.40659144773E+02  0.00000000000E+00 0.  1.
         11    1    3    3    0    0  0.79878948055E+01  0.17817508844E+02  0.11056384748E+02  0.22439111587E+02  0.51100000000E-03 0. -1.
        -11    1    3    3    0    0  0.15482131210E+02  0.98876383697E+01  0.71084040543E+01  0.19697491916E+02  0.51100000000E-03 0.  1.
        -12    1    3    3    0    0  0.39163412108E+01  0.35849545096E+00 -0.74137467944E+01  0.83922517240E+01  0.00000000000E+00 0.  1.
</event>
<event>
 7    1  0.3129575E-011  0.5052887E+02  0.7816164E-02  0.1300439E+00
        -11   -1    0    0    0    0  0.00000000000E+00  0.00000000000E+00  0.45593999997E+02  0.45594000000E+02  0.51100000000E-03 0. -1.
         11   -1    0    0    0    0 -0.00000000000E+00 -0.00000000000E+00 -0.45593999997E+02  0.45594000000E+02  0.51100000000E-03 0.  1.
    9900012    2    1    2    0    0 -0.54095472191E+01  0.39840407112E+02  0.60534072034E+01  0.50528868445E+02  0.30000026127E+02 0.  0.
        -12    1    1    2    0    0  0.54095472191E+01 -0.39840407112E+02 -0.60534072034E+01  0.40659131555E+02  0.00000000000E+00 0.  1.
         11    1    3    3    0    0 -0.41187801490E+01  0.14596910550E+02  0.66531768062E+01  0.16561971784E+02  0.51100000000E-03 0. -1.
        -11    1    3    3    0    0 -0.63531803052E+01  0.26025756752E+02 -0.49536158343E+01  0.27244104401E+02  0.51100000000E-03 0.  1.
        -12    1    3    3    0    0  0.50624132351E+01 -0.78226018925E+00  0.43538462315E+01  0.67227922602E+01  0.00000000000E+00 0.  1.
</event>
<event>
 7    1  0.3129575E-011  0.5052886E+02  0.7816164E-02  0.1300439E+00
        -11   -1    0    0    0    0  0.00000000000E+00  0.00000000000E+00  0.45593999997E+02  0.45594000000E+02  0.51100000000E-03 0.  1.
         11   -1    0    0    0    0 -0.00000000000E+00 -0.00000000000E+00 -0.45593999997E+02  0.45594000000E+02  0.51100000000E-03 0. -1.
    9900012    2    1    2    0    0 -0.65232481579E+01 -0.30407994869E+02 -0.26190968778E+02  0.50528858789E+02  0.29999996774E+02 0.  0.
        -12    1    1    2    0    0  0.65232481579E+01  0.30407994869E+02  0.26190968778E+02  0.40659141211E+02  0.00000000000E+00 0.  1.
         11    1    3    3    0    0  0.45572852739E+01 -0.21813056021E+02 -0.19616610738E+02  0.29688207746E+02  0.51100000000E-03 0. -1.
        -11    1    3    3    0    0  0.11091564014E+01 -0.17384697745E+00 -0.59040542472E+01  0.60098508725E+01  0.51100000000E-03 0.  1.
         12    1    3    3    0    0 -0.12189689833E+02 -0.84210918706E+01 -0.67030379323E+00  0.14830800171E+02  0.00000000000E+00 0. -1.
</event>
<event>
 7    1  0.3129575E-011  0.5052886E+02  0.7816164E-02  0.1300439E+00
        -11   -1    0    0    0    0  0.00000000000E+00  0.00000000000E+00  0.45593999997E+02  0.45594000000E+02  0.51100000000E-03 0. -1.
         11   -1    0    0    0    0 -0.00000000000E+00 -0.00000000000E+00 -0.45593999997E+02  0.45594000000E+02  0.51100000000E-03 0.  1.
    9900012    2    1    2    0    0 -0.26927830394E+02  0.28982437578E+02 -0.93848732194E+01  0.50528861015E+02  0.30000003541E+02 0.  0.
        -12    1    1    2    0    0  0.26927830394E+02 -0.28982437578E+02  0.93848732194E+01  0.40659138985E+02  0.00000000000E+00 0.  1.
         11    1    3    3    0    0 -0.33932396442E+01 -0.42165155752E+01 -0.14955757644E+01  0.56151425633E+01  0.51100000000E-03 0. -1.
        -11    1    3    3    0    0 -0.30103538801E+01 -0.18109105405E+01 -0.15472891192E+01  0.38387148043E+01  0.51100000000E-03 0.  1.
         12    1    3    3    0    0 -0.20524236869E+02  0.35009863693E+02 -0.63420083358E+01  0.41075003647E+02  0.00000000000E+00 0. -1.
</event>
<event>
 7    1  0.3129575E-011  0.5052886E+02  0.7816164E-02  0.1300439E+00
        -11   -1    0    0    0    0  0.00000000000E+00  0.00000000000E+00  0.45593999997E+02  0.45594000000E+02  0.51100000000E-03 0.  1.
         11   -1    0    0    0    0 -0.00000000000E+00 -0.00000000000E+00 -0.45593999997E+02  0.45594000000E+02  0.51100000000E-03 0. -1.
    9900012    2    1    2    0    0  0.27579918227E+02  0.66008981127E+01 -0.29136606541E+02  0.50528860977E+02  0.30000003427E+02 0.  0.
        -12    1    1    2    0    0 -0.27579918227E+02 -0.66008981127E+01  0.29136606541E+02  0.40659139023E+02  0.00000000000E+00 0.  1.
         11    1    3    3    0    0  0.76987915858E+01  0.74272540724E+00 -0.21512054638E+02  0.22860260890E+02  0.51100000000E-03 0. -1.
        -11    1    3    3    0    0  0.15513858532E+02 -0.58563209376E+00 -0.11159191451E+02  0.19119370429E+02  0.51100000000E-03 0.  1.
        -12    1    3    3    0    0  0.43672681096E+01  0.64438047993E+01  0.35346395478E+01  0.85492296591E+01  0.00000000000E+00 0.  1.
</event>
<event>
 7    1  0.3129575E-011  0.5052885E+02  0.7816164E-02  0.1300439E+00
        -11   -1    0    0    0    0  0.00000000000E+00  0.00000000000E+00  0.45593999997E+02  0.45594000000E+02  0.51100000000E-03 0.  1.
         11   -1    0    0    0    0 -0.00000000000E+00 -0.00000000000E+00 -0.45593999997E+02  0.45594000000E+02  0.51100000000E-03 0. -1.
    9900012    2    1    2    0    0  0.11469969272E+02  0.32766759328E+01 -0.38869904403E+02  0.50528852584E+02  0.29999977915E+02 0.  0.
        -12    1    1    2    0    0 -0.11469969272E+02 -0.32766759328E+01  0.38869904403E+02  0.40659147416E+02  0.00000000000E+00 0.  1.
         11    1    3    3    0    0  0.13897494846E+02 -0.21513524910E+01 -0.31197522479E+02  0.34220667580E+02  0.51100000000E-03 0. -1.
        -11    1    3    3    0    0  0.14473902646E+01 -0.39663733419E+01 -0.24730012731E+01  0.48931371964E+01  0.51100000000E-03 0.  1.
        -12    1    3    3    0    0 -0.38749158388E+01  0.93944017657E+01 -0.51993806510E+01  0.11415047807E+02  0.00000000000E+00 0.  1.
</event>
<event>
 7    1  0.3129575E-011  0.5052889E+02  0.7816164E-02  0.1300439E+00
        -11   -1    0    0    0    0  0.00000000000E+00  0.00000000000E+00  0.45593999997E+02  0.45594000000E+02  0.51100000000E-03 0. -1.
         11   -1    0    0    0    0 -0.00000000000E+00 -0.00000000000E+00 -0.45593999997E+02  0.45594000000E+02  0.51100000000E-03 0.  1.
    9900012    2    1    2    0    0  0.17531252769E+02  0.22596092225E+02  0.28900436223E+02  0.50528887597E+02  0.30000084339E+02 0.  0.
        -12    1    1    2    0    0 -0.17531252769E+02 -0.22596092225E+02 -0.28900436223E+02  0.40659112403E+02  0.00000000000E+00 0.  1.
         11    1    3    3    0    0  0.78413016980E+01  0.42048633919E+01  0.19090780212E+02  0.21062401996E+02  0.51100000000E-03 0. -1.
        -11    1    3    3    0    0  0.13257054825E+02  0.75063757032E+01  0.96058957278E+01  0.18010230755E+02  0.51100000000E-03 0.  1.
         12    1    3    3    0    0 -0.35671037538E+01  0.10884853130E+02  0.20376028337E+00  0.11456254847E+02  0.00000000000E+00 0. -1.
</event>
<event>
 7    1  0.3129575E-011  0.5052886E+02  0.7816164E-02  0.1300439E+00
        -11   -1    0    0    0    0  0.00000000000E+00  0.00000000000E+00  0.45593999997E+02  0.45594000000E+02  0.51100000000E-03 0.  1.
         11   -1    0    0    0    0 -0.00000000000E+00 -0.00000000000E+00 -0.45593999997E+02  0.45594000000E+02  0.51100000000E-03 0. -1.
    9900012    2    1    2    0    0 -0.16357701214E+01 -0.40418017463E+02  0.41078120722E+01  0.50528855893E+02  0.29999987971E+02 0.  0.
        -12    1    1    2    0    0  0.16357701214E+01  0.40418017463E+02 -0.41078120722E+01  0.40659144107E+02  0.00000000000E+00 0.  1.
         11    1    3    3    0    0  0.32405773346E+01 -0.25053304480E+02 -0.63081410710E+01  0.26037704409E+02  0.51100000000E-03 0. -1.
        -11    1    3    3    0    0  0.40204809281E+01  0.42204278569E+00  0.20319276826E+01  0.45245018924E+01  0.51100000000E-03 0.  1.
        -12    1    3    3    0    0 -0.88968283841E+01 -0.15786755768E+02  0.83840254606E+01  0.19966649592E+02  0.00000000000E+00 0.  1.
</event>
<event>
 7    1  0.3129575E-011  0.5052888E+02  0.7816164E-02  0.1300439E+00
        -11   -1    0    0    0    0  0.00000000000E+00  0.00000000000E+00  0.45593999997E+02  0.45594000000E+02  0.51100000000E-03 0.  1.
         11   -1    0    0    0    0 -0.00000000000E+00 -0.00000000000E+00 -0.45593999997E+02  0.45594000000E+02  0.51100000000E-03 0. -1.
    9900012    2    1    2    0    0  0.21025885202E+02 -0.16408507448E+02 -0.30689370099E+02  0.50528875535E+02  0.30000047676E+02 0.  0.
        -12    1    1    2    0    0 -0.21025885202E+02  0.16408507448E+02  0.30689370099E+02  0.40659124465E+02  0.00000000000E+00 0.  1.
         11    1    3    3    0    0  0.13592183277E+02 -0.19842196458E+02 -0.28768842254E+02  0.37498086503E+02  0.51100000000E-03 0. -1.
        -11    1    3    3    0    0  0.67119780925E+01  0.37024311099E+01 -0.54582817593E+01  0.94101799166E+01  0.51100000000E-03 0.  1.
        -12    1    3    3    0    0  0.72172383182E+00 -0.26874209974E+00  0.35377539140E+01  0.36206091147E+01  0.00000000000E+00 0.  1.
</event>
<event>
 7    1  0.3129575E-011  0.5052886E+02  0.7816164E-02  0.1300439E+00
        -11   -1    0    0    0    0  0.00000000000E+00  0.00000000000E+00  0.45593999997E+02  0.45594000000E+02  0.51100000000E-03 0.  1.
         11   -1    0    0    0    0 -0.00000000000E+00 -0.00000000000E+00 -0.45593999997E+02  0.45594000000E+02  0.51100000000E-03 0. -1.
    9900012    2    1    2    0    0  0.24586484590E+02  0.18011786858E+02 -0.26911817056E+02  0.50528860959E+02  0.30000003370E+02 0.  0.
        -12    1    1    2    0    0 -0.24586484590E+02 -0.18011786858E+02  0.26911817056E+02  0.40659139041E+02  0.00000000000E+00 0.  1.
         11    1    3    3    0    0  0.35496582022E+01 -0.52631018112E+01 -0.15305644296E+02  0.16569944527E+02  0.51100000000E-03 0. -1.
        -11    1    3    3    0    0  0.44690070797E+01  0.22551323561E+01 -0.68563097427E+00  0.50524980273E+01  0.51100000000E-03 0.  1.
        -12    1    3    3    0    0  0.16567819308E+02  0.21019756313E+02 -0.10920541786E+02  0.28906418405E+02  0.00000000000E+00 0.  1.
</event>
<event>
 7    1  0.3129575E-011  0.5052885E+02  0.7816164E-02  0.1300439E+00
        -11   -1    0    0    0    0  0.00000000000E+00  0.00000000000E+00  0.45593999997E+02  0.45594000000E+02  0.51100000000E-03 0. -1.
         11   -1    0    0    0    0 -0.00000000000E+00 -0.00000000000E+00 -0.45593999997E+02  0.45594000000E+02  0.51100000000E-03 0.  1.
    9900012    2    1    2    0    0  0.27525775792E+02 -0.25803760735E+02  0.15154660306E+02  0.50528854288E+02  0.29999983094E+02 0.  0.
        -12    1    1    2    0    0 -0.27525775792E+02  0.25803760735E+02 -0.15154660306E+02  0.40659145712E+02  0.00000000000E+00 0.  1.
         11    1    3    3    0    0  0.18869617480E+01 -0.52994681722E+01 -0.44591917259E+01  0.71783966633E+01  0.51100000000E-03 0.  1.
        -11    1    3    3    0    0  0.55322942397E+01  0.40372454900E+01  0.46058920794E+01  0.82534764075E+01  0.51100000000E-03 0. -1.
         12    1    3    3    0    0  0.20106519804E+02 -0.24541538053E+02  0.15007959953E+02  0.35096981217E+02  0.00000000000E+00 0. -1.
</event>
<event>
 7    1  0.3129575E-011  0.5052886E+02  0.7816164E-02  0.1300439E+00
        -11   -1    0    0    0    0  0.00000000000E+00  0.00000000000E+00  0.45593999997E+02  0.45594000000E+02  0.51100000000E-03 0. -1.
         11   -1    0    0    0    0 -0.00000000000E+00 -0.00000000000E+00 -0.45593999997E+02  0.45594000000E+02  0.51100000000E-03 0.  1.
    9900012    2    1    2    0    0  0.38637820249E+02  0.12147828227E+01 -0.12601941316E+02  0.50528858643E+02  0.29999996332E+02 0.  0.
        -12    1    1    2    0    0 -0.38637820249E+02 -0.12147828227E+01  0.12601941316E+02  0.40659141357E+02  0.00000000000E+00 0.  1.
         11    1    3    3    0    0  0.27706363545E+02  0.42799378884E+01 -0.10814587550E+02  0.30048556594E+02  0.51100000000E-03 0. -1.
        -11    1    3    3    0    0  0.24904362192E+01  0.39609641452E+01  0.55599474387E+01  0.72666722304E+01  0.51100000000E-03 0.  1.
         12    1    3    3    0    0  0.84410204853E+01 -0.70261192110E+01 -0.73473012050E+01  0.13213629819E+02  0.00000000000E+00 0. -1.
</event>
<event>
 7    1  0.3129575E-011  0.5052886E+02  0.7816164E-02  0.1300439E+00
        -11   -1    0    0    0    0  0.00000000000E+00  0.00000000000E+00  0.45593999997E+02  0.45594000000E+02  0.51100000000E-03 0.  1.
         11   -1    0    0    0    0 -0.00000000000E+00 -0.00000000000E+00 -0.45593999997E+02  0.45594000000E+02  0.51100000000E-03 0. -1.
    9900012    2    1    2    0    0 -0.98627573226E+01 -0.27556076848E+02 -0.28223293469E+02  0.50528860221E+02  0.30000001129E+02 0.  0.
        -12    1    1    2    0    0  0.98627573226E+01  0.27556076848E+02  0.28223293469E+02  0.40659139779E+02  0.00000000000E+00 0.  1.
         11    1    3    3    0    0 -0.75655394992E+01 -0.21247699033E+02 -0.22657859141E+02  0.31969996610E+02  0.51100000000E-03 0. -1.
        -11    1    3    3    0    0 -0.61453886329E+01 -0.19558633679E+01 -0.95431295682E+01  0.11517921912E+02  0.51100000000E-03 0.  1.
        -12    1    3    3    0    0  0.38481708095E+01 -0.43525144473E+01  0.39776952395E+01  0.70409416992E+01  0.00000000000E+00 0.  1.
</event>
<event>
 7    1  0.3129575E-011  0.5052885E+02  0.7816164E-02  0.1300439E+00
        -11   -1    0    0    0    0  0.00000000000E+00  0.00000000000E+00  0.45593999997E+02  0.45594000000E+02  0.51100000000E-03 0. -1.
         11   -1    0    0    0    0 -0.00000000000E+00 -0.00000000000E+00 -0.45593999997E+02  0.45594000000E+02  0.51100000000E-03 0.  1.
    9900012    2    1    2    0    0 -0.25499195563E+02  0.16603135536E+02 -0.26968372263E+02  0.50528853594E+02  0.29999980983E+02 0.  0.
        -12    1    1    2    0    0  0.25499195563E+02 -0.16603135536E+02  0.26968372263E+02  0.40659146406E+02  0.00000000000E+00 0.  1.
         11    1    3    3    0    0 -0.16449200632E+02  0.21514221998E+02 -0.19502847357E+02  0.33373627386E+02  0.51100000000E-03 0. -1.
        -11    1    3    3    0    0 -0.10811569562E+02 -0.22307841230E+01 -0.26226722101E+01  0.11346578514E+02  0.51100000000E-03 0.  1.
        -12    1    3    3    0    0  0.17615746306E+01 -0.26803023380E+01 -0.48428526957E+01  0.58086476941E+01  0.00000000000E+00 0.  1.
</event>
<event>
 7    1  0.3129575E-011  0.5052885E+02  0.7816164E-02  0.1300439E+00
        -11   -1    0    0    0    0  0.00000000000E+00  0.00000000000E+00  0.45593999997E+02  0.45594000000E+02  0.51100000000E-03 0. -1.
         11   -1    0    0    0    0 -0.00000000000E+00 -0.00000000000E+00 -0.45593999997E+02  0.45594000000E+02  0.51100000000E-03 0.  1.
    9900012    2    1    2    0    0  0.29803355728E+02 -0.39666872151E+01  0.27371364993E+02  0.50528852915E+02  0.29999978921E+02 0.  0.
        -12    1    1    2    0    0 -0.29803355728E+02  0.39666872151E+01 -0.27371364993E+02  0.40659147085E+02  0.00000000000E+00 0.  1.
         11    1    3    3    0    0  0.20597072110E+02  0.68516652255E+01  0.14849650787E+02  0.26300129746E+02  0.51100000000E-03 0. -1.
        -11    1    3    3    0    0  0.55951077251E+01 -0.32977218735E+01  0.14293630648E+02  0.15699938770E+02  0.51100000000E-03 0.  1.
        -12    1    3    3    0    0  0.36111758925E+01 -0.75206305672E+01 -0.17719164430E+01  0.85287843996E+01  0.00000000000E+00 0.  1.
</event>
<event>
 7    1  0.3129575E-011  0.5052885E+02  0.7816164E-02  0.1300439E+00
        -11   -1    0    0    0    0  0.00000000000E+00  0.00000000000E+00  0.45593999997E+02  0.45594000000E+02  0.51100000000E-03 0. -1.
         11   -1    0    0    0    0 -0.00000000000E+00 -0.00000000000E+00 -0.45593999997E+02  0.45594000000E+02  0.51100000000E-03 0.  1.
    9900012    2    1    2    0    0  0.17928496537E+02 -0.36365785465E+02 -0.30438054874E+01  0.50528854751E+02  0.29999984500E+02 0.  0.
        -12    1    1    2    0    0 -0.17928496537E+02  0.36365785465E+02  0.30438054874E+01  0.40659145249E+02  0.00000000000E+00 0.  1.
         11    1    3    3    0    0  0.20319190118E+02 -0.17937408642E+02  0.53007631045E+01  0.27617353341E+02  0.51100000000E-03 0. -1.
        -11    1    3    3    0    0  0.28789975569E+01 -0.14418198050E+02 -0.53808996295E+01  0.15656536751E+02  0.51100000000E-03 0.  1.
         12    1    3    3    0    0 -0.52696911378E+01 -0.40101787735E+01 -0.29636689625E+01  0.72549646590E+01  0.00000000000E+00 0. -1.
</event>
<event>
 7    1  0.3129575E-011  0.5052886E+02  0.7816164E-02  0.1300439E+00
        -11   -1    0    0    0    0  0.00000000000E+00  0.00000000000E+00  0.45593999997E+02  0.45594000000E+02  0.51100000000E-03 0. -1.
         11   -1    0    0    0    0 -0.00000000000E+00 -0.00000000000E+00 -0.45593999997E+02  0.45594000000E+02  0.51100000000E-03 0.  1.
    9900012    2    1    2    0    0 -0.19557267680E+02 -0.81926813977E+01  0.34692348629E+02  0.50528858334E+02  0.29999995391E+02 0.  0.
        -12    1    1    2    0    0  0.19557267680E+02  0.81926813977E+01 -0.34692348629E+02  0.40659141666E+02  0.00000000000E+00 0.  1.
         11    1    3    3    0    0 -0.13184451941E+02 -0.14122450766E+02  0.20329484226E+02  0.28045700522E+02  0.51100000000E-03 0. -1.
        -11    1    3    3    0    0 -0.14670670919E+00 -0.31565386634E+01 -0.12311478936E+01  0.33913101582E+01  0.51100000000E-03 0.  1.
        -12    1    3    3    0    0 -0.62261090298E+01  0.90863080315E+01  0.15594012297E+02  0.19091847654E+02  0.00000000000E+00 0.  1.
</event>
<event>
 7    1  0.3129575E-011  0.5052886E+02  0.7816164E-02  0.1300439E+00
        -11   -1    0    0    0    0  0.00000000000E+00  0.00000000000E+00  0.45593999997E+02  0.45594000000E+02  0.51100000000E-03 0. -1.
         11   -1    0    0    0    0 -0.00000000000E+00 -0.00000000000E+00 -0.45593999997E+02  0.45594000000E+02  0.51100000000E-03 0.  1.
    9900012    2    1    2    0    0  0.39452410829E+02 -0.83627749852E+01 -0.51707658873E+01  0.50528861475E+02  0.30000004940E+02 0.  0.
        -12    1    1    2    0    0 -0.39452410829E+02  0.83627749852E+01  0.51707658873E+01  0.40659138525E+02  0.00000000000E+00 0.  1.
         11    1    3    3    0    0  0.13018841967E+02  0.24861322220E+01 -0.93746965303E+01  0.16234408979E+02  0.51100000000E-03 0. -1.
        -11    1    3    3    0    0 -0.88331236177E-01  0.31967958866E+01  0.27992158840E+01  0.42500489614E+01  0.51100000000E-03 0.  1.
         12    1    3    3    0    0  0.26521900099E+02 -0.14045703094E+02  0.14047147590E+01  0.30044403535E+02  0.00000000000E+00 0. -1.
</event>
<event>
 7    1  0.3129575E-011  0.5052886E+02  0.7816164E-02  0.1300439E+00
        -11   -1    0    0    0    0  0.00000000000E+00  0.00000000000E+00  0.45593999997E+02  0.45594000000E+02  0.51100000000E-03 0. -1.
         11   -1    0    0    0    0 -0.00000000000E+00 -0.00000000000E+00 -0.45593999997E+02  0.45594000000E+02  0.51100000000E-03 0.  1.
    9900012    2    1    2    0    0  0.25516090883E+02  0.22613983968E+02 -0.22151813669E+02  0.50528855719E+02  0.29999987444E+02 0.  0.
        -12    1    1    2    0    0 -0.25516090883E+02 -0.22613983968E+02  0.22151813669E+02  0.40659144281E+02  0.00000000000E+00 0.  1.
         11    1    3    3    0    0  0.24139911770E+01 -0.10820872706E+01  0.21401740162E+01  0.34027358617E+01  0.51100000000E-03 0. -1.
        -11    1    3    3    0    0  0.27390754931E+01  0.18691438792E+02 -0.77551065468E+01  0.20420923007E+02  0.51100000000E-03 0.  1.
        -12    1    3    3    0    0  0.20363024213E+02  0.50046324470E+01 -0.16536881138E+02  0.26705196850E+02  0.00000000000E+00 0.  1.
</event>
<event>
 7    1  0.3129575E-011  0.5052886E+02  0.7816164E-02  0.1300439E+00
        -11   -1    0    0    0    0  0.00000000000E+00  0.00000000000E+00  0.45593999997E+02  0.45594000000E+02  0.51100000000E-03 0.  1.
         11   -1    0    0    0    0 -0.00000000000E+00 -0.00000000000E+00 -0.45593999997E+02  0.45594000000E+02  0.51100000000E-03 0. -1.
    9900012    2    1    2    0    0  0.37950123958E+01  0.31735252038E+01 -0.40357057813E+02  0.50528862077E+02  0.30000006768E+02 0.  0.
        -12    1    1    2    0    0 -0.37950123958E+01 -0.31735252038E+01  0.40357057813E+02  0.40659137923E+02  0.00000000000E+00 0.  1.
         11    1    3    3    0    0 -0.38859505774E+01  0.51325964145E+01 -0.17226937842E+02  0.18390528691E+02  0.51100000000E-03 0. -1.
        -11    1    3    3    0    0 -0.65875164034E+01 -0.18696740112E+01 -0.30289799663E+01  0.74877081387E+01  0.51100000000E-03 0.  1.
         12    1    3    3    0    0  0.14268479377E+02 -0.89397199579E-01 -0.20101140005E+02  0.24650625247E+02  0.00000000000E+00 0. -1.
</event>
<event>
 7    1  0.3129575E-011  0.5052886E+02  0.7816164E-02  0.1300439E+00
        -11   -1    0    0    0    0  0.00000000000E+00  0.00000000000E+00  0.45593999997E+02  0.45594000000E+02  0.51100000000E-03 0. -1.
         11   -1    0    0    0    0 -0.00000000000E+00 -0.00000000000E+00 -0.45593999997E+02  0.45594000000E+02  0.51100000000E-03 0.  1.
    9900012    2    1    2    0    0  0.27219603740E+02  0.30011421519E+02  0.34019979981E+01  0.50528857858E+02  0.29999993946E+02 0.  0.
        -12    1    1    2    0    0 -0.27219603740E+02 -0.30011421519E+02 -0.34019979981E+01  0.40659142142E+02  0.00000000000E+00 0.  1.
         11    1    3    3    0    0  0.18502332123E+01  0.14442288435E+02  0.77533528146E+01  0.16495985521E+02  0.51100000000E-03 0. -1.
        -11    1    3    3    0    0  0.62619718337E+01 -0.31450380308E+01 -0.99982600419E+00  0.70783619405E+01  0.51100000000E-03 0.  1.
        -12    1    3    3    0    0  0.19107398694E+02  0.18714171114E+02 -0.33515288123E+01  0.26954510396E+02  0.00000000000E+00 0.  1.
</event>
<event>
 7    1  0.3129575E-011  0.5052887E+02  0.7816164E-02  0.1300439E+00
        -11   -1    0    0    0    0  0.00000000000E+00  0.00000000000E+00  0.45593999997E+02  0.45594000000E+02  0.51100000000E-03 0.  1.
         11   -1    0    0    0    0 -0.00000000000E+00 -0.00000000000E+00 -0.45593999997E+02  0.45594000000E+02  0.51100000000E-03 0. -1.
    9900012    2    1    2    0    0 -0.11512923125E+02 -0.34227593520E+02 -0.18683939232E+02  0.50528866435E+02  0.30000020015E+02 0.  0.
        -12    1    1    2    0    0  0.11512923125E+02  0.34227593520E+02  0.18683939232E+02  0.40659133565E+02  0.00000000000E+00 0.  1.
         11    1    3    3    0    0 -0.11824028865E+02 -0.12064374609E+02 -0.16965342616E+02  0.23941170473E+02  0.51100000000E-03 0. -1.
        -11    1    3    3    0    0  0.60603939340E+01 -0.45479858203E+01 -0.26694571297E+01  0.80335889418E+01  0.51100000000E-03 0.  1.
         12    1    3    3    0    0 -0.57492881946E+01 -0.17615233090E+02  0.95086051330E+00  0.18554107019E+02  0.00000000000E+00 0. -1.
</event>
<event>
 7    1  0.6135586E-011  0.5052883E+02  0.7816164E-02  0.1300439E+00
        -11   -1    0    0    0    0  0.00000000000E+00  0.00000000000E+00  0.45593999997E+02  0.45594000000E+02  0.51100000000E-03 0. -1.
         11   -1    0    0    0    0 -0.00000000000E+00 -0.00000000000E+00 -0.45593999997E+02  0.45594000000E+02  0.51100000000E-03 0.  1.
    9900012    2    1    2    0    0 -0.55828098423E+00 -0.13086394153E+02  0.38491592401E+02  0.50528830368E+02  0.29999910386E+02 0.  0.
        -12    1    1    2    0    0  0.55828098423E+00  0.13086394153E+02 -0.38491592401E+02  0.40659169632E+02  0.00000000000E+00 0.  1.
         11    1    3    3    0    0  0.69713826805E+01 -0.93570302646E+01  0.92853604955E+01  0.14912146447E+02  0.51100000000E-03 0. -1.
        -11    1    3    3    0    0  0.42241613843E+01  0.28299156860E+01  0.24034533029E+01  0.56239265847E+01  0.51100000000E-03 0.  1.
         12    1    3    3    0    0 -0.11753825049E+02 -0.65592795747E+01  0.26802778603E+02  0.29992757337E+02  0.00000000000E+00 0. -1.
</event>
<event>
 7    1  0.3129575E-011  0.5052887E+02  0.7816164E-02  0.1300439E+00
        -11   -1    0    0    0    0  0.00000000000E+00  0.00000000000E+00  0.45593999997E+02  0.45594000000E+02  0.51100000000E-03 0. -1.
         11   -1    0    0    0    0 -0.00000000000E+00 -0.00000000000E+00 -0.45593999997E+02  0.45594000000E+02  0.51100000000E-03 0.  1.
    9900012    2    1    2    0    0 -0.97418265046E+01 -0.25594076607E+02  0.30053372930E+02  0.50528866149E+02  0.30000019147E+02 0.  0.
        -12    1    1    2    0    0  0.97418265046E+01  0.25594076607E+02 -0.30053372930E+02  0.40659133851E+02  0.00000000000E+00 0.  1.
         11    1    3    3    0    0  0.65849378724E+01 -0.13500337523E+02  0.10395211224E+02  0.18266935613E+02  0.51100000000E-03 0. -1.
        -11    1    3    3    0    0 -0.94611302541E+00  0.27078007235E+01 -0.48888976964E+00  0.29096955310E+01  0.51100000000E-03 0.  1.
        -12    1    3    3    0    0 -0.15380651352E+02 -0.14801539807E+02  0.20147051475E+02  0.29352235006E+02  0.00000000000E+00 0.  1.
</event>
<event>
 7    1  0.3129575E-011  0.5052886E+02  0.7816164E-02  0.1300439E+00
        -11   -1    0    0    0    0  0.00000000000E+00  0.00000000000E+00  0.45593999997E+02  0.45594000000E+02  0.51100000000E-03 0.  1.
         11   -1    0    0    0    0 -0.00000000000E+00 -0.00000000000E+00 -0.45593999997E+02  0.45594000000E+02  0.51100000000E-03 0. -1.
    9900012    2    1    2    0    0  0.32086558066E+02  0.49296958407E+01 -0.24480935765E+02  0.50528864181E+02  0.30000013165E+02 0.  0.
        -12    1    1    2    0    0 -0.32086558066E+02 -0.49296958407E+01  0.24480935765E+02  0.40659135819E+02  0.00000000000E+00 0.  1.
         11    1    3    3    0    0  0.20262562617E+02 -0.80026332866E+01 -0.54353814867E+01  0.22453439726E+02  0.51100000000E-03 0.  1.
        -11    1    3    3    0    0  0.69743084746E+00 -0.13669586410E+01 -0.47645596129E+01  0.50055982939E+01  0.51100000000E-03 0. -1.
        -12    1    3    3    0    0  0.11126564601E+02  0.14299287768E+02 -0.14280994665E+02  0.23069826162E+02  0.00000000000E+00 0.  1.
</event>
<event>
 7    1  0.3129575E-011  0.5052887E+02  0.7816164E-02  0.1300439E+00
        -11   -1    0    0    0    0  0.00000000000E+00  0.00000000000E+00  0.45593999997E+02  0.45594000000E+02  0.51100000000E-03 0.  1.
         11   -1    0    0    0    0 -0.00000000000E+00 -0.00000000000E+00 -0.45593999997E+02  0.45594000000E+02  0.51100000000E-03 0. -1.
    9900012    2    1    2    0    0 -0.25712505098E+02  0.11752291561E+02 -0.29221840727E+02  0.50528865100E+02  0.30000015959E+02 0.  0.
        -12    1    1    2    0    0  0.25712505098E+02 -0.11752291561E+02  0.29221840727E+02  0.40659134900E+02  0.00000000000E+00 0.  1.
         11    1    3    3    0    0 -0.14542646182E+02  0.94879665351E+01 -0.38491367316E+01  0.17785553710E+02  0.51100000000E-03 0. -1.
        -11    1    3    3    0    0  0.14984589856E+01 -0.12300126027E+00  0.19910749026E+01  0.24949725791E+01  0.51100000000E-03 0.  1.
         12    1    3    3    0    0 -0.12668317901E+02  0.23873262859E+01 -0.27363778898E+02  0.30248338811E+02  0.00000000000E+00 0. -1.
</event>
<event>
 7    1  0.3129575E-011  0.5052886E+02  0.7816164E-02  0.1300439E+00
        -11   -1    0    0    0    0  0.00000000000E+00  0.00000000000E+00  0.45593999997E+02  0.45594000000E+02  0.51100000000E-03 0. -1.
         11   -1    0    0    0    0 -0.00000000000E+00 -0.00000000000E+00 -0.45593999997E+02  0.45594000000E+02  0.51100000000E-03 0.  1.
    9900012    2    1    2    0    0  0.38472663709E+02  0.11461095174E+02 -0.64547230212E+01  0.50528855829E+02  0.29999987778E+02 0.  0.
        -12    1    1    2    0    0 -0.38472663709E+02 -0.11461095174E+02  0.64547230212E+01  0.40659144171E+02  0.00000000000E+00 0.  1.
         11    1    3    3    0    0  0.10107171508E+02  0.54411176381E+01  0.35093908030E+01  0.12003187123E+02  0.51100000000E-03 0. -1.
        -11    1    3    3    0    0  0.15758328182E+01 -0.37332714432E+01  0.49122634577E+01  0.63679586430E+01  0.51100000000E-03 0.  1.
         12    1    3    3    0    0  0.26789659383E+02  0.97532489788E+01 -0.14876377282E+02  0.32157710063E+02  0.00000000000E+00 0. -1.
</event>
<event>
 7    1  0.3129575E-011  0.5052886E+02  0.7816164E-02  0.1300439E+00
        -11   -1    0    0    0    0  0.00000000000E+00  0.00000000000E+00  0.45593999997E+02  0.45594000000E+02  0.51100000000E-03 0.  1.
         11   -1    0    0    0    0 -0.00000000000E+00 -0.00000000000E+00 -0.45593999997E+02  0.45594000000E+02  0.51100000000E-03 0. -1.
    9900012    2    1    2    0    0  0.18868121953E+02  0.14017534714E+02 -0.33176323529E+02  0.50528858981E+02  0.29999997360E+02 0.  0.
        -12    1    1    2    0    0 -0.18868121953E+02 -0.14017534714E+02  0.33176323529E+02  0.40659141019E+02  0.00000000000E+00 0.  1.
         11    1    3    3    0    0  0.65250414489E+01  0.13201383068E+02 -0.16102478735E+02  0.21820689781E+02  0.51100000000E-03 0. -1.
        -11    1    3    3    0    0  0.24221648667E+00  0.48955076372E+01  0.23711410823E+01  0.54449035019E+01  0.51100000000E-03 0.  1.
        -12    1    3    3    0    0  0.12100864017E+02 -0.40793559913E+01 -0.19444985876E+02  0.23263265699E+02  0.00000000000E+00 0.  1.
</event>
<event>
 7    1  0.3129575E-011  0.5052885E+02  0.7816164E-02  0.1300439E+00
        -11   -1    0    0    0    0  0.00000000000E+00  0.00000000000E+00  0.45593999997E+02  0.45594000000E+02  0.51100000000E-03 0.  1.
         11   -1    0    0    0    0 -0.00000000000E+00 -0.00000000000E+00 -0.45593999997E+02  0.45594000000E+02  0.51100000000E-03 0. -1.
    9900012    2    1    2    0    0 -0.69610009444E+01  0.16638060261E+02 -0.36440165061E+02  0.50528853267E+02  0.29999979991E+02 0.  0.
        -12    1    1    2    0    0  0.69610009444E+01 -0.16638060261E+02  0.36440165061E+02  0.40659146733E+02  0.00000000000E+00 0.  1.
         11    1    3    3    0    0  0.10366010902E+02  0.89599276536E+01 -0.95356858451E+01  0.16693225883E+02  0.51100000000E-03 0.  1.
        -11    1    3    3    0    0 -0.66825361659E+01 -0.35689503807E+00 -0.57243307819E+01  0.88063401501E+01  0.51100000000E-03 0. -1.
        -12    1    3    3    0    0 -0.10644475681E+02  0.80350276453E+01 -0.21180148434E+02  0.25029287234E+02  0.00000000000E+00 0.  1.
</event>
<event>
 7    1  0.3129575E-011  0.5052880E+02  0.7816164E-02  0.1300439E+00
        -11   -1    0    0    0    0  0.00000000000E+00  0.00000000000E+00  0.45593999997E+02  0.45594000000E+02  0.51100000000E-03 0.  1.
         11   -1    0    0    0    0 -0.00000000000E+00 -0.00000000000E+00 -0.45593999997E+02  0.45594000000E+02  0.51100000000E-03 0. -1.
    9900012    2    1    2    0    0  0.54736014739E+01 -0.29196330769E+02 -0.27763006783E+02  0.50528799453E+02  0.29999816418E+02 0.  0.
        -12    1    1    2    0    0 -0.54736014739E+01  0.29196330769E+02  0.27763006783E+02  0.40659200547E+02  0.00000000000E+00 0.  1.
         11    1    3    3    0    0  0.70527226189E+01  0.11514001003E+01 -0.52656525212E+01  0.88765824091E+01  0.51100000000E-03 0. -1.
        -11    1    3    3    0    0 -0.12709565848E+01 -0.16022308369E+02 -0.13790038825E+01  0.16131687701E+02  0.51100000000E-03 0.  1.
        -12    1    3    3    0    0 -0.30816456015E+00 -0.14325422500E+02 -0.21118350379E+02  0.25520529343E+02  0.00000000000E+00 0.  1.
</event>
<event>
 7    1  0.3129575E-011  0.5052885E+02  0.7816164E-02  0.1300439E+00
        -11   -1    0    0    0    0  0.00000000000E+00  0.00000000000E+00  0.45593999997E+02  0.45594000000E+02  0.51100000000E-03 0.  1.
         11   -1    0    0    0    0 -0.00000000000E+00 -0.00000000000E+00 -0.45593999997E+02  0.45594000000E+02  0.51100000000E-03 0. -1.
    9900012    2    1    2    0    0 -0.25403720895E+02 -0.93888256721E+01 -0.30326015576E+02  0.50528852155E+02  0.29999976609E+02 0.  0.
        -12    1    1    2    0    0  0.25403720895E+02  0.93888256721E+01  0.30326015576E+02  0.40659147845E+02  0.00000000000E+00 0.  1.
         11    1    3    3    0    0 -0.13648018995E+02  0.27640458197E+01 -0.77579836132E+01  0.15940347606E+02  0.51100000000E-03 0. -1.
        -11    1    3    3    0    0 -0.14467566357E+02 -0.12325571726E+02 -0.24677700008E+02  0.31148339805E+02  0.51100000000E-03 0.  1.
        -12    1    3    3    0    0  0.27118644567E+01  0.17270023400E+00  0.21096680457E+01  0.34401647439E+01  0.00000000000E+00 0.  1.
</event>
<event>
 7    1  0.3129575E-011  0.5052886E+02  0.7816164E-02  0.1300439E+00
        -11   -1    0    0    0    0  0.00000000000E+00  0.00000000000E+00  0.45593999997E+02  0.45594000000E+02  0.51100000000E-03 0.  1.
         11   -1    0    0    0    0 -0.00000000000E+00 -0.00000000000E+00 -0.45593999997E+02  0.45594000000E+02  0.51100000000E-03 0. -1.
    9900012    2    1    2    0    0  0.33751113380E+02 -0.21860172710E+02 -0.60133830349E+01  0.50528861042E+02  0.30000003623E+02 0.  0.
        -12    1    1    2    0    0 -0.33751113380E+02  0.21860172710E+02  0.60133830349E+01  0.40659138958E+02  0.00000000000E+00 0.  1.
         11    1    3    3    0    0  0.11120965424E+01 -0.88602373830E+01 -0.45725457199E+00  0.89414566603E+01  0.51100000000E-03 0. -1.
        -11    1    3    3    0    0  0.20666453975E+02 -0.13326674074E+02 -0.12663992314E+02  0.27660066221E+02  0.51100000000E-03 0.  1.
        -12    1    3    3    0    0  0.11972562863E+02  0.32673874736E+00  0.71078638513E+01  0.13927338161E+02  0.00000000000E+00 0.  1.
</event>
<event>
 7    1  0.3129575E-011  0.5052882E+02  0.7816164E-02  0.1300439E+00
        -11   -1    0    0    0    0  0.00000000000E+00  0.00000000000E+00  0.45593999997E+02  0.45594000000E+02  0.51100000000E-03 0.  1.
         11   -1    0    0    0    0 -0.00000000000E+00 -0.00000000000E+00 -0.45593999997E+02  0.45594000000E+02  0.51100000000E-03 0. -1.
    9900012    2    1    2    0    0  0.21683206422E+01  0.31935365836E+02 -0.25071896019E+02  0.50528816837E+02  0.29999869256E+02 0.  0.
        -12    1    1    2    0    0 -0.21683206422E+01 -0.31935365836E+02  0.25071896019E+02  0.40659183163E+02  0.00000000000E+00 0.  1.
         11    1    3    3    0    0 -0.53666239053E+00  0.23609173391E+02 -0.36052039070E+01  0.23888879635E+02  0.51100000000E-03 0.  1.
        -11    1    3    3    0    0  0.36762868984E+01  0.11693871454E+02 -0.16243957158E+02  0.20350131679E+02  0.51100000000E-03 0. -1.
        -12    1    3    3    0    0 -0.97130386567E+00 -0.33676790092E+01 -0.52227349547E+01  0.62898055229E+01  0.00000000000E+00 0.  1.
</event>
<event>
 7    1  0.3129575E-011  0.5052885E+02  0.7816164E-02  0.1300439E+00
        -11   -1    0    0    0    0  0.00000000000E+00  0.00000000000E+00  0.45593999997E+02  0.45594000000E+02  0.51100000000E-03 0. -1.
         11   -1    0    0    0    0 -0.00000000000E+00 -0.00000000000E+00 -0.45593999997E+02  0.45594000000E+02  0.51100000000E-03 0.  1.
    9900012    2    1    2    0    0 -0.11719358711E+02 -0.11730230616E+02  0.37124450106E+02  0.50528850051E+02  0.29999970214E+02 0.  0.
        -12    1    1    2    0    0  0.11719358711E+02  0.11730230616E+02 -0.37124450106E+02  0.40659149949E+02  0.00000000000E+00 0.  1.
         11    1    3    3    0    0 -0.14616050583E+02 -0.11704003981E+01  0.15662522553E+02  0.21454915165E+02  0.51100000000E-03 0. -1.
        -11    1    3    3    0    0 -0.28349751237E+01  0.15444703799E+01 -0.58207966972E+00  0.32804404749E+01  0.51100000000E-03 0.  1.
         12    1    3    3    0    0  0.57316669955E+01 -0.12104300598E+02  0.22044007223E+02  0.25793494411E+02  0.00000000000E+00 0. -1.
</event>
<event>
 7    1  0.3129575E-011  0.5052887E+02  0.7816164E-02  0.1300439E+00
        -11   -1    0    0    0    0  0.00000000000E+00  0.00000000000E+00  0.45593999997E+02  0.45594000000E+02  0.51100000000E-03 0.  1.
         11   -1    0    0    0    0 -0.00000000000E+00 -0.00000000000E+00 -0.45593999997E+02  0.45594000000E+02  0.51100000000E-03 0. -1.
    9900012    2    1    2    0    0  0.21238255528E+02  0.25830000634E+02 -0.23128172650E+02  0.50528870635E+02  0.30000032781E+02 0.  0.
        -12    1    1    2    0    0 -0.21238255528E+02 -0.25830000634E+02  0.23128172650E+02  0.40659129365E+02  0.00000000000E+00 0.  1.
         11    1    3    3    0    0  0.74652794559E+01  0.37091232145E+01 -0.36719648761E+00  0.83440293562E+01  0.51100000000E-03 0. -1.
        -11    1    3    3    0    0  0.94598347556E+01  0.40100572462E+01  0.27186640423E+01  0.10628272068E+02  0.51100000000E-03 0.  1.
         12    1    3    3    0    0  0.43131413168E+01  0.18110820173E+02 -0.25479640205E+02  0.31556569210E+02  0.00000000000E+00 0. -1.
</event>
<event>
 7    1  0.3129575E-011  0.5052886E+02  0.7816164E-02  0.1300439E+00
        -11   -1    0    0    0    0  0.00000000000E+00  0.00000000000E+00  0.45593999997E+02  0.45594000000E+02  0.51100000000E-03 0. -1.
         11   -1    0    0    0    0 -0.00000000000E+00 -0.00000000000E+00 -0.45593999997E+02  0.45594000000E+02  0.51100000000E-03 0.  1.
    9900012    2    1    2    0    0 -0.30304902720E+02 -0.19421993597E+02  0.18909372604E+02  0.50528864047E+02  0.30000012758E+02 0.  0.
        -12    1    1    2    0    0  0.30304902720E+02  0.19421993597E+02 -0.18909372604E+02  0.40659135953E+02  0.00000000000E+00 0.  1.
         11    1    3    3    0    0 -0.79141958807E+01  0.93567701615E+00 -0.54614940914E+00  0.79880077213E+01  0.51100000000E-03 0. -1.
        -11    1    3    3    0    0  0.31233489862E+01 -0.58897785657E+01 -0.10557990842E+01  0.67497786934E+01  0.51100000000E-03 0.  1.
         12    1    3    3    0    0 -0.25514055825E+02 -0.14467892048E+02  0.20511321097E+02  0.35791077633E+02  0.00000000000E+00 0. -1.
</event>
<event>
 7    1  0.3129575E-011  0.5052886E+02  0.7816164E-02  0.1300439E+00
        -11   -1    0    0    0    0  0.00000000000E+00  0.00000000000E+00  0.45593999997E+02  0.45594000000E+02  0.51100000000E-03 0. -1.
         11   -1    0    0    0    0 -0.00000000000E+00 -0.00000000000E+00 -0.45593999997E+02  0.45594000000E+02  0.51100000000E-03 0.  1.
    9900012    2    1    2    0    0  0.29467238165E+02 -0.13288186299E+02  0.24663171161E+02  0.50528855495E+02  0.29999986761E+02 0.  0.
        -12    1    1    2    0    0 -0.29467238165E+02  0.13288186299E+02 -0.24663171161E+02  0.40659144505E+02  0.00000000000E+00 0.  1.
         11    1    3    3    0    0  0.16851708025E+02  0.35625861741E+00  0.18152077827E+02  0.24771049902E+02  0.51100000000E-03 0. -1.
        -11    1    3    3    0    0  0.15803245453E+02 -0.12620480199E+02  0.84163022599E+01  0.21905552522E+02  0.51100000000E-03 0.  1.
        -12    1    3    3    0    0 -0.31877153137E+01 -0.10239647173E+01 -0.19052089258E+01  0.38522530699E+01  0.00000000000E+00 0.  1.
</event>
<event>
 7    1  0.3129575E-011  0.5052886E+02  0.7816164E-02  0.1300439E+00
        -11   -1    0    0    0    0  0.00000000000E+00  0.00000000000E+00  0.45593999997E+02  0.45594000000E+02  0.51100000000E-03 0. -1.
         11   -1    0    0    0    0 -0.00000000000E+00 -0.00000000000E+00 -0.45593999997E+02  0.45594000000E+02  0.51100000000E-03 0.  1.
    9900012    2    1    2    0    0 -0.21231626081E+02  0.19669597259E+02  0.28556798476E+02  0.50528859065E+02  0.29999997614E+02 0.  0.
        -12    1    1    2    0    0  0.21231626081E+02 -0.19669597259E+02 -0.28556798476E+02  0.40659140935E+02  0.00000000000E+00 0.  1.
         11    1    3    3    0    0 -0.18654042203E+02  0.14857693114E+02  0.29494524633E+02  0.37929557324E+02  0.51100000000E-03 0. -1.
        -11    1    3    3    0    0  0.97439766189E+00 -0.27286966021E+01  0.22569625625E+01  0.36727532206E+01  0.51100000000E-03 0.  1.
        -12    1    3    3    0    0 -0.35519815396E+01  0.75406007466E+01 -0.31946887195E+01  0.89265485207E+01  0.00000000000E+00 0.  1.
</event>
<event>
 7    1  0.3129575E-011  0.5052887E+02  0.7816164E-02  0.1300439E+00
        -11   -1    0    0    0    0  0.00000000000E+00  0.00000000000E+00  0.45593999997E+02  0.45594000000E+02  0.51100000000E-03 0. -1.
         11   -1    0    0    0    0 -0.00000000000E+00 -0.00000000000E+00 -0.45593999997E+02  0.45594000000E+02  0.51100000000E-03 0.  1.
    9900012    2    1    2    0    0  0.85742895316E+01 -0.36709922302E+02  0.15232460134E+02  0.50528872142E+02  0.30000037363E+02 0.  0.
        -12    1    1    2    0    0 -0.85742895316E+01  0.36709922302E+02 -0.15232460134E+02  0.40659127858E+02  0.00000000000E+00 0.  1.
         11    1    3    3    0    0  0.74649722256E+01 -0.64796934360E+01  0.12992746142E+02  0.16325553281E+02  0.51100000000E-03 0. -1.
        -11    1    3    3    0    0  0.20785697186E+01 -0.23156002558E+02  0.84530590839E+01  0.24738130784E+02  0.51100000000E-03 0.  1.
        -12    1    3    3    0    0 -0.96925241256E+00 -0.70742263080E+01 -0.62133450919E+01  0.94651880767E+01  0.00000000000E+00 0.  1.
</event>
<event>
 7    1  0.3129575E-011  0.5052886E+02  0.7816164E-02  0.1300439E+00
        -11   -1    0    0    0    0  0.00000000000E+00  0.00000000000E+00  0.45593999997E+02  0.45594000000E+02  0.51100000000E-03 0.  1.
         11   -1    0    0    0    0 -0.00000000000E+00 -0.00000000000E+00 -0.45593999997E+02  0.45594000000E+02  0.51100000000E-03 0. -1.
    9900012    2    1    2    0    0  0.20115474333E+02 -0.27050099240E+02 -0.22733792365E+02  0.50528862137E+02  0.30000006951E+02 0.  0.
        -12    1    1    2    0    0 -0.20115474333E+02  0.27050099240E+02  0.22733792365E+02  0.40659137863E+02  0.00000000000E+00 0.  1.
         11    1    3    3    0    0  0.55321441509E+01 -0.28067332918E+01 -0.40608097676E+01  0.74143473690E+01  0.51100000000E-03 0. -1.
        -11    1    3    3    0    0 -0.44720036539E+01  0.23787162729E+01  0.63685419888E+00  0.51051632021E+01  0.51100000000E-03 0.  1.
         12    1    3    3    0    0  0.19055333836E+02 -0.26622082221E+02 -0.19309836796E+02  0.38009351566E+02  0.00000000000E+00 0. -1.
</event>
<event>
 7    1  0.3129575E-011  0.5052887E+02  0.7816164E-02  0.1300439E+00
        -11   -1    0    0    0    0  0.00000000000E+00  0.00000000000E+00  0.45593999997E+02  0.45594000000E+02  0.51100000000E-03 0.  1.
         11   -1    0    0    0    0 -0.00000000000E+00 -0.00000000000E+00 -0.45593999997E+02  0.45594000000E+02  0.51100000000E-03 0. -1.
    9900012    2    1    2    0    0 -0.34901224252E+02  0.19386188175E+02 -0.76971020945E+01  0.50528866624E+02  0.30000020591E+02 0.  0.
        -12    1    1    2    0    0  0.34901224252E+02 -0.19386188175E+02  0.76971020945E+01  0.40659133376E+02  0.00000000000E+00 0.  1.
         11    1    3    3    0    0 -0.45889820622E+01  0.13312970713E+02 -0.11341050601E+01  0.14127283536E+02  0.51100000000E-03 0. -1.
        -11    1    3    3    0    0 -0.33100297515E+01 -0.10835262156E+01  0.50622128530E+01  0.61446175834E+01  0.51100000000E-03 0.  1.
         12    1    3    3    0    0 -0.27002212438E+02  0.71567436775E+01 -0.11625209887E+02  0.30256965505E+02  0.00000000000E+00 0. -1.
</event>
<event>
 7    1  0.3129575E-011  0.5052886E+02  0.7816164E-02  0.1300439E+00
        -11   -1    0    0    0    0  0.00000000000E+00  0.00000000000E+00  0.45593999997E+02  0.45594000000E+02  0.51100000000E-03 0. -1.
         11   -1    0    0    0    0 -0.00000000000E+00 -0.00000000000E+00 -0.45593999997E+02  0.45594000000E+02  0.51100000000E-03 0.  1.
    9900012    2    1    2    0    0 -0.34266386060E+01 -0.17508961899E+02  0.36535736163E+02  0.50528860611E+02  0.30000002313E+02 0.  0.
        -12    1    1    2    0    0  0.34266386060E+01  0.17508961899E+02 -0.36535736163E+02  0.40659139389E+02  0.00000000000E+00 0.  1.
         11    1    3    3    0    0 -0.29363606584E+01 -0.27088724459E+01 -0.25528112463E+01  0.47409966636E+01  0.51100000000E-03 0.  1.
        -11    1    3    3    0    0 -0.69286127224E+01 -0.76615708935E+01  0.74903085814E+01  0.12759704766E+02  0.51100000000E-03 0. -1.
        -12    1    3    3    0    0  0.64383347748E+01 -0.71385185592E+01  0.31598238828E+02  0.33028159181E+02  0.00000000000E+00 0.  1.
</event>
<event>
 7    1  0.3129575E-011  0.5052886E+02  0.7816164E-02  0.1300439E+00
        -11   -1    0    0    0    0  0.00000000000E+00  0.00000000000E+00  0.45593999997E+02  0.45594000000E+02  0.51100000000E-03 0. -1.
         11   -1    0    0    0    0 -0.00000000000E+00 -0.00000000000E+00 -0.45593999997E+02  0.45594000000E+02  0.51100000000E-03 0.  1.
    9900012    2    1    2    0    0 -0.33493046408E+02 -0.16900521560E+02  0.15676544649E+02  0.50528857869E+02  0.29999993978E+02 0.  0.
        -12    1    1    2    0    0  0.33493046408E+02  0.16900521560E+02 -0.15676544649E+02  0.40659142131E+02  0.00000000000E+00 0.  1.
         11    1    3    3    0    0 -0.13911959955E+02 -0.80185681410E+01 -0.87323359112E+00  0.16081125644E+02  0.51100000000E-03 0. -1.
        -11    1    3    3    0    0 -0.42574404333E+00  0.70457267684E+00 -0.44055752932E+01  0.44818271467E+01  0.51100000000E-03 0.  1.
         12    1    3    3    0    0 -0.19155342410E+02 -0.95865260955E+01  0.20955353534E+02  0.29965905078E+02  0.00000000000E+00 0. -1.
</event>
<event>
 7    1  0.3129575E-011  0.5052884E+02  0.7816164E-02  0.1300439E+00
        -11   -1    0    0    0    0  0.00000000000E+00  0.00000000000E+00  0.45593999997E+02  0.45594000000E+02  0.51100000000E-03 0.  1.
         11   -1    0    0    0    0 -0.00000000000E+00 -0.00000000000E+00 -0.45593999997E+02  0.45594000000E+02  0.51100000000E-03 0. -1.
    9900012    2    1    2    0    0 -0.39728412647E+02 -0.70298625241E+01  0.50399649075E+01  0.50528843776E+02  0.29999951143E+02 0.  0.
        -12    1    1    2    0    0  0.39728412647E+02  0.70298625241E+01 -0.50399649075E+01  0.40659156224E+02  0.00000000000E+00 0.  1.
         11    1    3    3    0    0 -0.19192618640E+02 -0.11838841898E+02 -0.63459926637E+01  0.23426190704E+02  0.51100000000E-03 0. -1.
        -11    1    3    3    0    0  0.14266593153E+01 -0.51588339989E+00  0.22793482476E+01  0.27380506166E+01  0.51100000000E-03 0.  1.
        -12    1    3    3    0    0 -0.21962453322E+02  0.53248627733E+01  0.91066093237E+01  0.24364602456E+02  0.00000000000E+00 0.  1.
</event>
<event>
 7    1  0.3129575E-011  0.5052885E+02  0.7816164E-02  0.1300439E+00
        -11   -1    0    0    0    0  0.00000000000E+00  0.00000000000E+00  0.45593999997E+02  0.45594000000E+02  0.51100000000E-03 0.  1.
         11   -1    0    0    0    0 -0.00000000000E+00 -0.00000000000E+00 -0.45593999997E+02  0.45594000000E+02  0.51100000000E-03 0. -1.
    9900012    2    1    2    0    0 -0.13704986311E+02  0.32116859438E+02 -0.20828989992E+02  0.50528854238E+02  0.29999982943E+02 0.  0.
        -12    1    1    2    0    0  0.13704986311E+02 -0.32116859438E+02  0.20828989992E+02  0.40659145762E+02  0.00000000000E+00 0.  1.
         11    1    3    3    0    0 -0.55609142717E+01  0.29433916983E+01  0.37852688393E+01  0.73427231102E+01  0.51100000000E-03 0. -1.
        -11    1    3    3    0    0  0.37544874316E+01  0.96414692229E+01 -0.11348584058E+01  0.10408746731E+02  0.51100000000E-03 0.  1.
        -12    1    3    3    0    0 -0.11898559471E+02  0.19531998517E+02 -0.23479400426E+02  0.32777384397E+02  0.00000000000E+00 0.  1.
</event>
<event>
 7    1  0.3129575E-011  0.5052886E+02  0.7816164E-02  0.1300439E+00
        -11   -1    0    0    0    0  0.00000000000E+00  0.00000000000E+00  0.45593999997E+02  0.45594000000E+02  0.51100000000E-03 0. -1.
         11   -1    0    0    0    0 -0.00000000000E+00 -0.00000000000E+00 -0.45593999997E+02  0.45594000000E+02  0.51100000000E-03 0.  1.
    9900012    2    1    2    0    0 -0.39175025648E+02 -0.22134497532E+01 -0.10657569799E+02  0.50528858489E+02  0.29999995864E+02 0.  0.
        -12    1    1    2    0    0  0.39175025648E+02  0.22134497532E+01  0.10657569799E+02  0.40659141511E+02  0.00000000000E+00 0.  1.
         11    1    3    3    0    0 -0.20907673781E+02  0.12796400236E+02 -0.35413278415E+01  0.24767310816E+02  0.51100000000E-03 0. -1.
        -11    1    3    3    0    0 -0.11149417009E+02 -0.71293965722E+01 -0.48678807253E+00  0.13242913502E+02  0.51100000000E-03 0.  1.
        -12    1    3    3    0    0 -0.71179348584E+01 -0.78804534170E+01 -0.66294538847E+01  0.12518634171E+02  0.00000000000E+00 0.  1.
</event>
<event>
 7    1  0.3129575E-011  0.5052886E+02  0.7816164E-02  0.1300439E+00
        -11   -1    0    0    0    0  0.00000000000E+00  0.00000000000E+00  0.45593999997E+02  0.45594000000E+02  0.51100000000E-03 0.  1.
         11   -1    0    0    0    0 -0.00000000000E+00 -0.00000000000E+00 -0.45593999997E+02  0.45594000000E+02  0.51100000000E-03 0. -1.
    9900012    2    1    2    0    0  0.31675690045E+02 -0.23062185373E+02 -0.10860580019E+02  0.50528856719E+02  0.29999990482E+02 0.  0.
        -12    1    1    2    0    0 -0.31675690045E+02  0.23062185373E+02  0.10860580019E+02  0.40659143281E+02  0.00000000000E+00 0.  1.
         11    1    3    3    0    0  0.37056075360E+01  0.76976484333E+00  0.49844787711E+01  0.62585217109E+01  0.51100000000E-03 0. -1.
        -11    1    3    3    0    0  0.10931990229E+02 -0.10510499639E+00  0.21755195794E+00  0.10934659873E+02  0.51100000000E-03 0.  1.
         12    1    3    3    0    0  0.17038092280E+02 -0.23726845220E+02 -0.16062610748E+02  0.33335675135E+02  0.00000000000E+00 0. -1.
</event>
<event>
 7    1  0.3129575E-011  0.5052885E+02  0.7816164E-02  0.1300439E+00
        -11   -1    0    0    0    0  0.00000000000E+00  0.00000000000E+00  0.45593999997E+02  0.45594000000E+02  0.51100000000E-03 0.  1.
         11   -1    0    0    0    0 -0.00000000000E+00 -0.00000000000E+00 -0.45593999997E+02  0.45594000000E+02  0.51100000000E-03 0. -1.
    9900012    2    1    2    0    0 -0.42654514684E+01  0.33650167209E+02 -0.22419596719E+02  0.50528854086E+02  0.29999982480E+02 0.  0.
        -12    1    1    2    0    0  0.42654514684E+01 -0.33650167209E+02  0.22419596719E+02  0.40659145914E+02  0.00000000000E+00 0.  1.
         11    1    3    3    0    0 -0.14619424844E+02  0.17222002373E+02 -0.85098684498E+01  0.24140066483E+02  0.51100000000E-03 0. -1.
        -11    1    3    3    0    0  0.18569244038E+01  0.48037873382E+01  0.14349116124E+01  0.53463550788E+01  0.51100000000E-03 0.  1.
        -12    1    3    3    0    0  0.84970489721E+01  0.11624377498E+02 -0.15344639882E+02  0.21042432524E+02  0.00000000000E+00 0.  1.
</event>
<event>
 7    1  0.3129575E-011  0.5052887E+02  0.7816164E-02  0.1300439E+00
        -11   -1    0    0    0    0  0.00000000000E+00  0.00000000000E+00  0.45593999997E+02  0.45594000000E+02  0.51100000000E-03 0.  1.
         11   -1    0    0    0    0 -0.00000000000E+00 -0.00000000000E+00 -0.45593999997E+02  0.45594000000E+02  0.51100000000E-03 0. -1.
    9900012    2    1    2    0    0  0.39088653521E+02 -0.99066171527E+01 -0.52058695169E+01  0.50528868493E+02  0.30000026271E+02 0.  0.
        -12    1    1    2    0    0 -0.39088653521E+02  0.99066171527E+01  0.52058695169E+01  0.40659131507E+02  0.00000000000E+00 0.  1.
         11    1    3    3    0    0  0.18538051007E+02 -0.12114907985E+02 -0.11257534577E+02  0.24842753785E+02  0.51100000000E-03 0. -1.
        -11    1    3    3    0    0  0.50680921392E+01 -0.41972679901E+01  0.60379751058E+01  0.89308319966E+01  0.51100000000E-03 0.  1.
        -12    1    3    3    0    0  0.15482510375E+02  0.64055588223E+01  0.13689953783E-01  0.16755282711E+02  0.00000000000E+00 0.  1.
</event>
<event>
 7    1  0.3129575E-011  0.5052886E+02  0.7816164E-02  0.1300439E+00
        -11   -1    0    0    0    0  0.00000000000E+00  0.00000000000E+00  0.45593999997E+02  0.45594000000E+02  0.51100000000E-03 0.  1.
         11   -1    0    0    0    0 -0.00000000000E+00 -0.00000000000E+00 -0.45593999997E+02  0.45594000000E+02  0.51100000000E-03 0. -1.
    9900012    2    1    2    0    0  0.53313961750E+01  0.45828923669E+01 -0.40046708970E+02  0.50528860966E+02  0.30000003393E+02 0.  0.
        -12    1    1    2    0    0 -0.53313961750E+01 -0.45828923669E+01  0.40046708970E+02  0.40659139034E+02  0.00000000000E+00 0.  1.
         11    1    3    3    0    0  0.12311745639E+02  0.47880877795E+01 -0.27082192013E+02  0.30132208512E+02  0.51100000000E-03 0. -1.
        -11    1    3    3    0    0 -0.31556019901E+01  0.46653045482E+01 -0.13038962045E+02  0.14203429935E+02  0.51100000000E-03 0.  1.
        -12    1    3    3    0    0 -0.38247474744E+01 -0.48704999608E+01  0.74445088111E-01  0.61932225200E+01  0.00000000000E+00 0.  1.
</event>
<event>
 7    1  0.3129575E-011  0.5052883E+02  0.7816164E-02  0.1300439E+00
        -11   -1    0    0    0    0  0.00000000000E+00  0.00000000000E+00  0.45593999997E+02  0.45594000000E+02  0.51100000000E-03 0.  1.
         11   -1    0    0    0    0 -0.00000000000E+00 -0.00000000000E+00 -0.45593999997E+02  0.45594000000E+02  0.51100000000E-03 0. -1.
    9900012    2    1    2    0    0 -0.14056583871E+02  0.11651762146E+02 -0.36329282079E+02  0.50528833167E+02  0.29999918893E+02 0.  0.
        -12    1    1    2    0    0  0.14056583871E+02 -0.11651762146E+02  0.36329282079E+02  0.40659166833E+02  0.00000000000E+00 0.  1.
         11    1    3    3    0    0 -0.14492051203E+02 -0.17018608123E+01 -0.26882226582E+02  0.30587088527E+02  0.51100000000E-03 0. -1.
        -11    1    3    3    0    0 -0.51905969631E+01  0.84106987258E+01 -0.68082872766E+01  0.12001455153E+02  0.51100000000E-03 0.  1.
        -12    1    3    3    0    0  0.56260642945E+01  0.49429242324E+01 -0.26387682201E+01  0.79402894867E+01  0.00000000000E+00 0.  1.
</event>
<event>
 7    1  0.3129575E-011  0.5052885E+02  0.7816164E-02  0.1300439E+00
        -11   -1    0    0    0    0  0.00000000000E+00  0.00000000000E+00  0.45593999997E+02  0.45594000000E+02  0.51100000000E-03 0. -1.
         11   -1    0    0    0    0 -0.00000000000E+00 -0.00000000000E+00 -0.45593999997E+02  0.45594000000E+02  0.51100000000E-03 0.  1.
    9900012    2    1    2    0    0  0.33486610627E+02  0.40380492739E+01  0.22704785943E+02  0.50528852961E+02  0.29999979060E+02 0.  0.
        -12    1    1    2    0    0 -0.33486610627E+02 -0.40380492739E+01 -0.22704785943E+02  0.40659147039E+02  0.00000000000E+00 0.  1.
         11    1    3    3    0    0  0.45447028914E+01 -0.66467040805E+01  0.29301550565E+01  0.85684776023E+01  0.51100000000E-03 0.  1.
        -11    1    3    3    0    0  0.20769911565E+02 -0.18392053328E+01  0.16649765591E+02  0.26683076981E+02  0.51100000000E-03 0. -1.
        -12    1    3    3    0    0  0.81719961704E+01  0.12523958687E+02  0.31248652957E+01  0.15277298378E+02  0.00000000000E+00 0.  1.
</event>
<event>
 7    1  0.3129575E-011  0.5052886E+02  0.7816164E-02  0.1300439E+00
        -11   -1    0    0    0    0  0.00000000000E+00  0.00000000000E+00  0.45593999997E+02  0.45594000000E+02  0.51100000000E-03 0. -1.
         11   -1    0    0    0    0 -0.00000000000E+00 -0.00000000000E+00 -0.45593999997E+02  0.45594000000E+02  0.51100000000E-03 0.  1.
    9900012    2    1    2    0    0  0.11355193972E+02  0.49088722818E-01  0.39041293374E+02  0.50528862919E+02  0.30000009328E+02 0.  0.
        -12    1    1    2    0    0 -0.11355193972E+02 -0.49088722818E-01 -0.39041293374E+02  0.40659137081E+02  0.00000000000E+00 0.  1.
         11    1    3    3    0    0 -0.23242125038E+01  0.68058485502E+01  0.72850879816E+00  0.72285727209E+01  0.51100000000E-03 0. -1.
        -11    1    3    3    0    0  0.25423639399E+01  0.15495770111E+01  0.20474345129E+02  0.20689698211E+02  0.51100000000E-03 0.  1.
        -12    1    3    3    0    0  0.11137042536E+02 -0.83063368385E+01  0.17838439447E+02  0.22610591987E+02  0.00000000000E+00 0.  1.
</event>
<event>
 7    1  0.3129575E-011  0.5052886E+02  0.7816164E-02  0.1300439E+00
        -11   -1    0    0    0    0  0.00000000000E+00  0.00000000000E+00  0.45593999997E+02  0.45594000000E+02  0.51100000000E-03 0. -1.
         11   -1    0    0    0    0 -0.00000000000E+00 -0.00000000000E+00 -0.45593999997E+02  0.45594000000E+02  0.51100000000E-03 0.  1.
    9900012    2    1    2    0    0  0.14849293363E+02 -0.37792035961E+02 -0.21038246765E+01  0.50528861129E+02  0.30000003887E+02 0.  0.
        -12    1    1    2    0    0 -0.14849293363E+02  0.37792035961E+02  0.21038246765E+01  0.40659138871E+02  0.00000000000E+00 0.  1.
         11    1    3    3    0    0  0.12631915251E+02 -0.54993520919E+01 -0.64849248265E+01  0.15227028817E+02  0.51100000000E-03 0. -1.
        -11    1    3    3    0    0  0.29177351756E+00 -0.13363834623E+02 -0.47653034468E+01  0.14191029731E+02  0.51100000000E-03 0.  1.
         12    1    3    3    0    0  0.19256045952E+01 -0.18928849246E+02  0.91464035968E+01  0.21110802581E+02  0.00000000000E+00 0. -1.
</event>
<event>
 7    1  0.3129575E-011  0.5052886E+02  0.7816164E-02  0.1300439E+00
        -11   -1    0    0    0    0  0.00000000000E+00  0.00000000000E+00  0.45593999997E+02  0.45594000000E+02  0.51100000000E-03 0.  1.
         11   -1    0    0    0    0 -0.00000000000E+00 -0.00000000000E+00 -0.45593999997E+02  0.45594000000E+02  0.51100000000E-03 0. -1.
    9900012    2    1    2    0    0 -0.37929391391E+02 -0.64247624081E+01 -0.13162428222E+02  0.50528858101E+02  0.29999994684E+02 0.  0.
        -12    1    1    2    0    0  0.37929391391E+02  0.64247624081E+01  0.13162428222E+02  0.40659141899E+02  0.00000000000E+00 0.  1.
         11    1    3    3    0    0 -0.14823220345E+02  0.20310064727E+01 -0.23373599963E+01  0.15143186610E+02  0.51100000000E-03 0. -1.
        -11    1    3    3    0    0  0.20719399186E+01  0.47881232143E+01 -0.12075796037E+01  0.53551197654E+01  0.51100000000E-03 0.  1.
        -12    1    3    3    0    0 -0.25178110964E+02 -0.13243892095E+02 -0.96174886219E+01  0.30030551726E+02  0.00000000000E+00 0.  1.
</event>
<event>
 7    1  0.3129575E-011  0.5052886E+02  0.7816164E-02  0.1300439E+00
        -11   -1    0    0    0    0  0.00000000000E+00  0.00000000000E+00  0.45593999997E+02  0.45594000000E+02  0.51100000000E-03 0. -1.
         11   -1    0    0    0    0 -0.00000000000E+00 -0.00000000000E+00 -0.45593999997E+02  0.45594000000E+02  0.51100000000E-03 0.  1.
    9900012    2    1    2    0    0  0.18839545960E+02 -0.18490664123E+02  0.30924622648E+02  0.50528862803E+02  0.30000008976E+02 0.  0.
        -12    1    1    2    0    0 -0.18839545960E+02  0.18490664123E+02 -0.30924622648E+02  0.40659137197E+02  0.00000000000E+00 0.  1.
         11    1    3    3    0    0  0.10340861679E+02  0.18388303049E+01 -0.45472131955E+00  0.10512920093E+02  0.51100000000E-03 0. -1.
        -11    1    3    3    0    0 -0.23331692630E+01 -0.31676485031E+01  0.23063039949E+01  0.45603414595E+01  0.51100000000E-03 0.  1.
        -12    1    3    3    0    0  0.10831853544E+02 -0.17161845925E+02  0.29073039973E+02  0.35455601250E+02  0.00000000000E+00 0.  1.
</event>
<event>
 7    1  0.3129575E-011  0.5052886E+02  0.7816164E-02  0.1300439E+00
        -11   -1    0    0    0    0  0.00000000000E+00  0.00000000000E+00  0.45593999997E+02  0.45594000000E+02  0.51100000000E-03 0.  1.
         11   -1    0    0    0    0 -0.00000000000E+00 -0.00000000000E+00 -0.45593999997E+02  0.45594000000E+02  0.51100000000E-03 0. -1.
    9900012    2    1    2    0    0 -0.26422118833E+02 -0.15755400424E+01 -0.30863487063E+02  0.50528861744E+02  0.30000005757E+02 0.  0.
        -12    1    1    2    0    0  0.26422118833E+02  0.15755400424E+01  0.30863487063E+02  0.40659138256E+02  0.00000000000E+00 0.  1.
         11    1    3    3    0    0 -0.57875128809E+01 -0.46930290022E+01 -0.62968066932E+00  0.74777218836E+01  0.51100000000E-03 0. -1.
        -11    1    3    3    0    0  0.25288489924E+01  0.40063987960E+01  0.26247405270E+00  0.47450185909E+01  0.51100000000E-03 0.  1.
         12    1    3    3    0    0 -0.23163454944E+02 -0.88890983617E+00 -0.30496280446E+02  0.38306121269E+02  0.00000000000E+00 0. -1.
</event>
<event>
 7    1  0.3129575E-011  0.5052886E+02  0.7816164E-02  0.1300439E+00
        -11   -1    0    0    0    0  0.00000000000E+00  0.00000000000E+00  0.45593999997E+02  0.45594000000E+02  0.51100000000E-03 0.  1.
         11   -1    0    0    0    0 -0.00000000000E+00 -0.00000000000E+00 -0.45593999997E+02  0.45594000000E+02  0.51100000000E-03 0. -1.
    9900012    2    1    2    0    0 -0.27127747685E+02  0.19980679794E+02 -0.22760133993E+02  0.50528856393E+02  0.29999989492E+02 0.  0.
        -12    1    1    2    0    0  0.27127747685E+02 -0.19980679794E+02  0.22760133993E+02  0.40659143607E+02  0.00000000000E+00 0.  1.
         11    1    3    3    0    0 -0.35592110686E+01  0.32241011174E+01 -0.11039328908E+02  0.12038670792E+02  0.51100000000E-03 0. -1.
        -11    1    3    3    0    0 -0.17014864118E+02 -0.15983914302E+01 -0.41896920611E+01  0.17595851100E+02  0.51100000000E-03 0.  1.
        -12    1    3    3    0    0 -0.65536724989E+01  0.18354970107E+02 -0.75311130237E+01  0.20894334501E+02  0.00000000000E+00 0.  1.
</event>
<event>
 7    1  0.3129575E-011  0.5052888E+02  0.7816164E-02  0.1300439E+00
        -11   -1    0    0    0    0  0.00000000000E+00  0.00000000000E+00  0.45593999997E+02  0.45594000000E+02  0.51100000000E-03 0.  1.
         11   -1    0    0    0    0 -0.00000000000E+00 -0.00000000000E+00 -0.45593999997E+02  0.45594000000E+02  0.51100000000E-03 0. -1.
    9900012    2    1    2    0    0  0.53061396249E+01 -0.17053945742E+02 -0.36526313042E+02  0.50528883833E+02  0.30000072898E+02 0.  0.
        -12    1    1    2    0    0 -0.53061396249E+01  0.17053945742E+02  0.36526313042E+02  0.40659116167E+02  0.00000000000E+00 0.  1.
         11    1    3    3    0    0  0.13267835025E+02 -0.12218079333E+02 -0.20350025862E+02  0.27192654554E+02  0.51100000000E-03 0. -1.
        -11    1    3    3    0    0 -0.26238018838E+01 -0.72244713718E+01 -0.19130094181E+01  0.79206646326E+01  0.51100000000E-03 0.  1.
        -12    1    3    3    0    0 -0.53378935159E+01  0.23886049631E+01 -0.14263277762E+02  0.15415564646E+02  0.00000000000E+00 0.  1.
</event>
<event>
 7    1  0.3129575E-011  0.5052886E+02  0.7816164E-02  0.1300439E+00
        -11   -1    0    0    0    0  0.00000000000E+00  0.00000000000E+00  0.45593999997E+02  0.45594000000E+02  0.51100000000E-03 0.  1.
         11   -1    0    0    0    0 -0.00000000000E+00 -0.00000000000E+00 -0.45593999997E+02  0.45594000000E+02  0.51100000000E-03 0. -1.
    9900012    2    1    2    0    0 -0.24511037018E+02 -0.19349044870E+02 -0.26038221529E+02  0.50528862608E+02  0.30000008384E+02 0.  0.
        -12    1    1    2    0    0  0.24511037018E+02  0.19349044870E+02  0.26038221529E+02  0.40659137392E+02  0.00000000000E+00 0.  1.
         11    1    3    3    0    0 -0.16199802140E+02 -0.12397826737E+02 -0.15143092681E+02  0.25405766144E+02  0.51100000000E-03 0. -1.
        -11    1    3    3    0    0 -0.10175278863E+02 -0.26456212481E+00 -0.14170672917E+02  0.17447471571E+02  0.51100000000E-03 0.  1.
        -12    1    3    3    0    0  0.18640439849E+01 -0.66866560079E+01  0.32755440686E+01  0.76756248926E+01  0.00000000000E+00 0.  1.
</event>
<event>
 7    1  0.3129575E-011  0.5052886E+02  0.7816164E-02  0.1300439E+00
        -11   -1    0    0    0    0  0.00000000000E+00  0.00000000000E+00  0.45593999997E+02  0.45594000000E+02  0.51100000000E-03 0.  1.
         11   -1    0    0    0    0 -0.00000000000E+00 -0.00000000000E+00 -0.45593999997E+02  0.45594000000E+02  0.51100000000E-03 0. -1.
    9900012    2    1    2    0    0  0.13970915352E+02  0.19684682137E+02 -0.32718381235E+02  0.50528860102E+02  0.30000000766E+02 0.  0.
        -12    1    1    2    0    0 -0.13970915352E+02 -0.19684682137E+02  0.32718381235E+02  0.40659139898E+02  0.00000000000E+00 0.  1.
         11    1    3    3    0    0  0.10449320489E+02  0.44696668742E+01 -0.12094802402E+02  0.16596700456E+02  0.51100000000E-03 0. -1.
        -11    1    3    3    0    0  0.60872208717E+01  0.14226201312E+02 -0.25886727297E+01  0.15688858737E+02  0.51100000000E-03 0.  1.
         12    1    3    3    0    0 -0.25656260085E+01  0.98881395011E+00 -0.18034906104E+02  0.18243300908E+02  0.00000000000E+00 0. -1.
</event>
<event>
 7    1  0.3129575E-011  0.5052886E+02  0.7816164E-02  0.1300439E+00
        -11   -1    0    0    0    0  0.00000000000E+00  0.00000000000E+00  0.45593999997E+02  0.45594000000E+02  0.51100000000E-03 0. -1.
         11   -1    0    0    0    0 -0.00000000000E+00 -0.00000000000E+00 -0.45593999997E+02  0.45594000000E+02  0.51100000000E-03 0.  1.
    9900012    2    1    2    0    0 -0.19992330106E+02 -0.75996107484E+01  0.34579158845E+02  0.50528861138E+02  0.30000003916E+02 0.  0.
        -12    1    1    2    0    0  0.19992330106E+02  0.75996107484E+01 -0.34579158845E+02  0.40659138862E+02  0.00000000000E+00 0.  1.
         11    1    3    3    0    0 -0.17074709991E+02 -0.16414357532E+01  0.19629561644E+02  0.26068366332E+02  0.51100000000E-03 0. -1.
        -11    1    3    3    0    0  0.10564887733E+01  0.39729843203E+01 -0.18789145697E+01  0.45200766762E+01  0.51100000000E-03 0.  1.
         12    1    3    3    0    0 -0.39741088880E+01 -0.99311593155E+01  0.16828511770E+02  0.19940418130E+02  0.00000000000E+00 0. -1.
</event>
<event>
 7    1  0.3129575E-011  0.5052886E+02  0.7816164E-02  0.1300439E+00
        -11   -1    0    0    0    0  0.00000000000E+00  0.00000000000E+00  0.45593999997E+02  0.45594000000E+02  0.51100000000E-03 0.  1.
         11   -1    0    0    0    0 -0.00000000000E+00 -0.00000000000E+00 -0.45593999997E+02  0.45594000000E+02  0.51100000000E-03 0. -1.
    9900012    2    1    2    0    0 -0.15843389132E+02 -0.37374618825E+02 -0.23000879154E+01  0.50528861840E+02  0.30000006050E+02 0.  0.
        -12    1    1    2    0    0  0.15843389132E+02  0.37374618825E+02  0.23000879154E+01  0.40659138160E+02  0.00000000000E+00 0.  1.
         11    1    3    3    0    0 -0.13057022823E+02 -0.24836540681E+02  0.14386515081E+01  0.28096428891E+02  0.51100000000E-03 0. -1.
        -11    1    3    3    0    0 -0.71986221124E+01  0.17124555214E+00 -0.52257392175E+01  0.88970689549E+01  0.51100000000E-03 0.  1.
         12    1    3    3    0    0  0.44122558036E+01 -0.12709323696E+02  0.14869997940E+01  0.13535363995E+02  0.00000000000E+00 0. -1.
</event>
<event>
 7    1  0.3129575E-011  0.5052886E+02  0.7816164E-02  0.1300439E+00
        -11   -1    0    0    0    0  0.00000000000E+00  0.00000000000E+00  0.45593999997E+02  0.45594000000E+02  0.51100000000E-03 0.  1.
         11   -1    0    0    0    0 -0.00000000000E+00 -0.00000000000E+00 -0.45593999997E+02  0.45594000000E+02  0.51100000000E-03 0. -1.
    9900012    2    1    2    0    0  0.12869217242E+01 -0.35096885793E+02 -0.20487029781E+02  0.50528856512E+02  0.29999989855E+02 0.  0.
        -12    1    1    2    0    0 -0.12869217242E+01  0.35096885793E+02  0.20487029781E+02  0.40659143488E+02  0.00000000000E+00 0.  1.
         11    1    3    3    0    0 -0.50250204792E+01 -0.17762621111E+02 -0.97643498784E+01  0.20883104854E+02  0.51100000000E-03 0. -1.
        -11    1    3    3    0    0  0.87939478844E+01 -0.14077594512E+02  0.15857178759E+01  0.16674132304E+02  0.51100000000E-03 0.  1.
         12    1    3    3    0    0 -0.24820056809E+01 -0.32566701699E+01 -0.12308397779E+02  0.12971619354E+02  0.00000000000E+00 0. -1.
</event>
<event>
 7    1  0.3129575E-011  0.5052881E+02  0.7816164E-02  0.1300439E+00
        -11   -1    0    0    0    0  0.00000000000E+00  0.00000000000E+00  0.45593999997E+02  0.45594000000E+02  0.51100000000E-03 0.  1.
         11   -1    0    0    0    0 -0.00000000000E+00 -0.00000000000E+00 -0.45593999997E+02  0.45594000000E+02  0.51100000000E-03 0. -1.
    9900012    2    1    2    0    0 -0.55805800113E+01  0.30741221232E+02 -0.26019306483E+02  0.50528808346E+02  0.29999843448E+02 0.  0.
        -12    1    1    2    0    0  0.55805800113E+01 -0.30741221232E+02  0.26019306483E+02  0.40659191654E+02  0.00000000000E+00 0.  1.
         11    1    3    3    0    0 -0.52423427547E+01  0.11255926879E+02 -0.17686308216E+02  0.21609802082E+02  0.51100000000E-03 0. -1.
        -11    1    3    3    0    0 -0.66634153748E+01 -0.25771703091E+00 -0.38787432388E+01  0.77144132569E+01  0.51100000000E-03 0.  1.
         12    1    3    3    0    0  0.63251781182E+01  0.19743011384E+02 -0.44542550285E+01  0.21204593007E+02  0.00000000000E+00 0. -1.
</event>
<event>
 7    1  0.3129575E-011  0.5052886E+02  0.7816164E-02  0.1300439E+00
        -11   -1    0    0    0    0  0.00000000000E+00  0.00000000000E+00  0.45593999997E+02  0.45594000000E+02  0.51100000000E-03 0.  1.
         11   -1    0    0    0    0 -0.00000000000E+00 -0.00000000000E+00 -0.45593999997E+02  0.45594000000E+02  0.51100000000E-03 0. -1.
    9900012    2    1    2    0    0  0.30853153502E+02 -0.49546362770E+01 -0.26013467064E+02  0.50528856252E+02  0.29999989062E+02 0.  0.
        -12    1    1    2    0    0 -0.30853153502E+02  0.49546362770E+01  0.26013467064E+02  0.40659143748E+02  0.00000000000E+00 0.  1.
         11    1    3    3    0    0 -0.76753601893E+00 -0.29259037702E+01 -0.13549778892E+02  0.13883318504E+02  0.51100000000E-03 0. -1.
        -11    1    3    3    0    0  0.68359675609E+01  0.52613385630E+01 -0.31088239800E+01  0.91693469107E+01  0.51100000000E-03 0.  1.
         12    1    3    3    0    0  0.24784721960E+02 -0.72900710699E+01 -0.93548641922E+01  0.27476190837E+02  0.00000000000E+00 0. -1.
</event>
<event>
 7    1  0.3129575E-011  0.5052887E+02  0.7816164E-02  0.1300439E+00
        -11   -1    0    0    0    0  0.00000000000E+00  0.00000000000E+00  0.45593999997E+02  0.45594000000E+02  0.51100000000E-03 0. -1.
         11   -1    0    0    0    0 -0.00000000000E+00 -0.00000000000E+00 -0.45593999997E+02  0.45594000000E+02  0.51100000000E-03 0.  1.
    9900012    2    1    2    0    0 -0.97388104293E+01 -0.36857599738E+02  0.14136393822E+02  0.50528871661E+02  0.30000035900E+02 0.  0.
        -12    1    1    2    0    0  0.97388104293E+01  0.36857599738E+02 -0.14136393822E+02  0.40659128339E+02  0.00000000000E+00 0.  1.
         11    1    3    3    0    0 -0.33699000208E+01 -0.17445650387E+01  0.19754621259E+01  0.42781052109E+01  0.51100000000E-03 0. -1.
        -11    1    3    3    0    0  0.72666669569E+01 -0.23593549182E+02  0.63225469501E-01  0.24687324873E+02  0.51100000000E-03 0.  1.
        -12    1    3    3    0    0 -0.13635577365E+02 -0.11519485517E+02  0.12097706227E+02  0.21563441576E+02  0.00000000000E+00 0.  1.
</event>
<event>
 7    1  0.3129575E-011  0.5052886E+02  0.7816164E-02  0.1300439E+00
        -11   -1    0    0    0    0  0.00000000000E+00  0.00000000000E+00  0.45593999997E+02  0.45594000000E+02  0.51100000000E-03 0. -1.
         11   -1    0    0    0    0 -0.00000000000E+00 -0.00000000000E+00 -0.45593999997E+02  0.45594000000E+02  0.51100000000E-03 0.  1.
    9900012    2    1    2    0    0  0.17419522422E+02  0.17330147460E+02 -0.32394314296E+02  0.50528863621E+02  0.30000011461E+02 0.  0.
        -12    1    1    2    0    0 -0.17419522422E+02 -0.17330147460E+02  0.32394314296E+02  0.40659136379E+02  0.00000000000E+00 0.  1.
         11    1    3    3    0    0  0.16746306219E+02  0.91138258422E+01 -0.27962304906E+02  0.33843627013E+02  0.51100000000E-03 0. -1.
        -11    1    3    3    0    0  0.42554627551E+01 -0.23937596413E+01 -0.15340662626E+01  0.51178518970E+01  0.51100000000E-03 0.  1.
         12    1    3    3    0    0 -0.35822465514E+01  0.10610081259E+02 -0.28979431274E+01  0.11567384711E+02  0.00000000000E+00 0. -1.
</event>
<event>
 7    1  0.3129575E-011  0.5052886E+02  0.7816164E-02  0.1300439E+00
        -11   -1    0    0    0    0  0.00000000000E+00  0.00000000000E+00  0.45593999997E+02  0.45594000000E+02  0.51100000000E-03 0.  1.
         11   -1    0    0    0    0 -0.00000000000E+00 -0.00000000000E+00 -0.45593999997E+02  0.45594000000E+02  0.51100000000E-03 0. -1.
    9900012    2    1    2    0    0  0.36098511301E+02  0.18700232155E+02  0.60357981621E+00  0.50528861920E+02  0.30000006291E+02 0.  0.
        -12    1    1    2    0    0 -0.36098511301E+02 -0.18700232155E+02 -0.60357981621E+00  0.40659138080E+02  0.00000000000E+00 0.  1.
         11    1    3    3    0    0  0.75266394216E+01 -0.68053417729E+01 -0.20819452770E+01  0.10358449403E+02  0.51100000000E-03 0. -1.
        -11    1    3    3    0    0  0.21923798255E+01  0.66072428371E+01  0.33227675490E+01  0.77138169316E+01  0.51100000000E-03 0.  1.
        -12    1    3    3    0    0  0.26379492054E+02  0.18898331091E+02 -0.63724245578E+00  0.32456595586E+02  0.00000000000E+00 0.  1.
</event>
<event>
 7    1  0.3129575E-011  0.5052887E+02  0.7816164E-02  0.1300439E+00
        -11   -1    0    0    0    0  0.00000000000E+00  0.00000000000E+00  0.45593999997E+02  0.45594000000E+02  0.51100000000E-03 0. -1.
         11   -1    0    0    0    0 -0.00000000000E+00 -0.00000000000E+00 -0.45593999997E+02  0.45594000000E+02  0.51100000000E-03 0.  1.
    9900012    2    1    2    0    0  0.11003351744E+02 -0.29959015150E+02  0.25190250968E+02  0.50528867174E+02  0.30000022262E+02 0.  0.
        -12    1    1    2    0    0 -0.11003351744E+02  0.29959015150E+02 -0.25190250968E+02  0.40659132826E+02  0.00000000000E+00 0.  1.
         11    1    3    3    0    0 -0.26061074438E+00 -0.18321502465E+02  0.21626098323E+02  0.28344902530E+02  0.51100000000E-03 0. -1.
        -11    1    3    3    0    0  0.59016404350E+01 -0.13620515864E+02  0.59456197032E+01  0.15990566161E+02  0.51100000000E-03 0.  1.
         12    1    3    3    0    0  0.53623220536E+01  0.19830031790E+01 -0.23814670586E+01  0.61933984827E+01  0.00000000000E+00 0. -1.
</event>
<event>
 7    1  0.3129575E-011  0.5052886E+02  0.7816164E-02  0.1300439E+00
        -11   -1    0    0    0    0  0.00000000000E+00  0.00000000000E+00  0.45593999997E+02  0.45594000000E+02  0.51100000000E-03 0.  1.
         11   -1    0    0    0    0 -0.00000000000E+00 -0.00000000000E+00 -0.45593999997E+02  0.45594000000E+02  0.51100000000E-03 0. -1.
    9900012    2    1    2    0    0 -0.88425368249E+01  0.12122756684E+01 -0.39667438218E+02  0.50528859274E+02  0.29999998250E+02 0.  0.
        -12    1    1    2    0    0  0.88425368249E+01 -0.12122756684E+01  0.39667438218E+02  0.40659140726E+02  0.00000000000E+00 0.  1.
         11    1    3    3    0    0 -0.10211507526E+02  0.18592536876E+01 -0.20152247142E+02  0.22668144506E+02  0.51100000000E-03 0. -1.
        -11    1    3    3    0    0 -0.84475902014E+00  0.17612652976E+01  0.38236705992E+01  0.42937315197E+01  0.51100000000E-03 0.  1.
         12    1    3    3    0    0  0.22137297208E+01 -0.24082433168E+01 -0.23338861675E+02  0.23566983249E+02  0.00000000000E+00 0. -1.
</event>
<event>
 7    1  0.3129575E-011  0.5052881E+02  0.7816164E-02  0.1300439E+00
        -11   -1    0    0    0    0  0.00000000000E+00  0.00000000000E+00  0.45593999997E+02  0.45594000000E+02  0.51100000000E-03 0. -1.
         11   -1    0    0    0    0 -0.00000000000E+00 -0.00000000000E+00 -0.45593999997E+02  0.45594000000E+02  0.51100000000E-03 0.  1.
    9900012    2    1    2    0    0 -0.22987536510E+02  0.31896633622E+02  0.10360875755E+02  0.50528808941E+02  0.29999845256E+02 0.  0.
        -12    1    1    2    0    0  0.22987536510E+02 -0.31896633622E+02 -0.10360875755E+02  0.40659191059E+02  0.00000000000E+00 0.  1.
         11    1    3    3    0    0 -0.13438091217E+02  0.23781056751E+02  0.15919156306E+02  0.31615510331E+02  0.51100000000E-03 0. -1.
        -11    1    3    3    0    0 -0.11737805607E+02  0.51821384589E+01 -0.72577070350E+00  0.12851357237E+02  0.51100000000E-03 0.  1.
         12    1    3    3    0    0  0.21883603143E+01  0.29334384117E+01 -0.48325098469E+01  0.60619413723E+01  0.00000000000E+00 0. -1.
</event>
<event>
 7    1  0.3129575E-011  0.5052885E+02  0.7816164E-02  0.1300439E+00
        -11   -1    0    0    0    0  0.00000000000E+00  0.00000000000E+00  0.45593999997E+02  0.45594000000E+02  0.51100000000E-03 0.  1.
         11   -1    0    0    0    0 -0.00000000000E+00 -0.00000000000E+00 -0.45593999997E+02  0.45594000000E+02  0.51100000000E-03 0. -1.
    9900012    2    1    2    0    0 -0.38672383844E+02 -0.18772555547E+01 -0.12413262877E+02  0.50528850281E+02  0.29999970915E+02 0.  0.
        -12    1    1    2    0    0  0.38672383844E+02  0.18772555547E+01  0.12413262877E+02  0.40659149719E+02  0.00000000000E+00 0.  1.
         11    1    3    3    0    0 -0.44283572616E+01 -0.18392789030E+01 -0.11601803487E+02  0.12553690267E+02  0.51100000000E-03 0. -1.
        -11    1    3    3    0    0 -0.55168129812E+01  0.63451924417E+01  0.11281088660E+01  0.84834734907E+01  0.51100000000E-03 0.  1.
        -12    1    3    3    0    0 -0.28727213601E+02 -0.63831690934E+01 -0.19395682561E+01  0.29491686523E+02  0.00000000000E+00 0.  1.
</event>
<event>
 7    1  0.3129575E-011  0.5052886E+02  0.7816164E-02  0.1300439E+00
        -11   -1    0    0    0    0  0.00000000000E+00  0.00000000000E+00  0.45593999997E+02  0.45594000000E+02  0.51100000000E-03 0.  1.
         11   -1    0    0    0    0 -0.00000000000E+00 -0.00000000000E+00 -0.45593999997E+02  0.45594000000E+02  0.51100000000E-03 0. -1.
    9900012    2    1    2    0    0  0.11679092397E+02 -0.38944475308E+02 -0.30408401958E+00  0.50528858060E+02  0.29999994559E+02 0.  0.
        -12    1    1    2    0    0 -0.11679092397E+02  0.38944475308E+02  0.30408401958E+00  0.40659141940E+02  0.00000000000E+00 0.  1.
         11    1    3    3    0    0  0.71981014747E+01 -0.61705674455E+01  0.25605963981E+01  0.98206528100E+01  0.51100000000E-03 0. -1.
        -11    1    3    3    0    0  0.35345701592E+01 -0.10453740739E+02 -0.12240404620E+02  0.16480333345E+02  0.51100000000E-03 0.  1.
         12    1    3    3    0    0  0.94642076268E+00 -0.22320167124E+02  0.93757242028E+01  0.24227871905E+02  0.00000000000E+00 0. -1.
</event>
<event>
 7    1  0.3129575E-011  0.5052886E+02  0.7816164E-02  0.1300439E+00
        -11   -1    0    0    0    0  0.00000000000E+00  0.00000000000E+00  0.45593999997E+02  0.45594000000E+02  0.51100000000E-03 0.  1.
         11   -1    0    0    0    0 -0.00000000000E+00 -0.00000000000E+00 -0.45593999997E+02  0.45594000000E+02  0.51100000000E-03 0. -1.
    9900012    2    1    2    0    0 -0.15821596324E+02 -0.15799195442E+02 -0.33959210986E+02  0.50528862065E+02  0.30000006733E+02 0.  0.
        -12    1    1    2    0    0  0.15821596324E+02  0.15799195442E+02  0.33959210986E+02  0.40659137935E+02  0.00000000000E+00 0.  1.
         11    1    3    3    0    0 -0.51998917544E+01 -0.98816197078E+01 -0.13281654251E+02  0.17351876619E+02  0.51100000000E-03 0. -1.
        -11    1    3    3    0    0 -0.10715149306E+02 -0.10665945364E+02 -0.37238279257E+01  0.15570604029E+02  0.51100000000E-03 0.  1.
         12    1    3    3    0    0  0.93444735822E-01  0.47483696298E+01 -0.16953728809E+02  0.17606381416E+02  0.00000000000E+00 0. -1.
</event>
<event>
 7    1  0.3129575E-011  0.5052886E+02  0.7816164E-02  0.1300439E+00
        -11   -1    0    0    0    0  0.00000000000E+00  0.00000000000E+00  0.45593999997E+02  0.45594000000E+02  0.51100000000E-03 0.  1.
         11   -1    0    0    0    0 -0.00000000000E+00 -0.00000000000E+00 -0.45593999997E+02  0.45594000000E+02  0.51100000000E-03 0. -1.
    9900012    2    1    2    0    0 -0.26963259614E+02  0.28950100756E+02  0.93829710217E+01  0.50528857757E+02  0.29999993637E+02 0.  0.
        -12    1    1    2    0    0  0.26963259614E+02 -0.28950100756E+02 -0.93829710217E+01  0.40659142243E+02  0.00000000000E+00 0.  1.
         11    1    3    3    0    0 -0.46864182909E+00  0.19765852177E+02  0.43200844854E+01  0.20237877055E+02  0.51100000000E-03 0. -1.
        -11    1    3    3    0    0 -0.24270498820E+01  0.22485631837E+00 -0.25278270433E+01  0.35115582461E+01  0.51100000000E-03 0.  1.
        -12    1    3    3    0    0 -0.24067567903E+02  0.89593922605E+01  0.75907135797E+01  0.26779422456E+02  0.00000000000E+00 0.  1.
</event>
<event>
 7    1  0.3129575E-011  0.5052886E+02  0.7816164E-02  0.1300439E+00
        -11   -1    0    0    0    0  0.00000000000E+00  0.00000000000E+00  0.45593999997E+02  0.45594000000E+02  0.51100000000E-03 0. -1.
         11   -1    0    0    0    0 -0.00000000000E+00 -0.00000000000E+00 -0.45593999997E+02  0.45594000000E+02  0.51100000000E-03 0.  1.
    9900012    2    1    2    0    0 -0.28714739427E+02  0.21825139511E+02  0.18769467191E+02  0.50528857440E+02  0.29999992675E+02 0.  0.
        -12    1    1    2    0    0  0.28714739427E+02 -0.21825139511E+02 -0.18769467191E+02  0.40659142560E+02  0.00000000000E+00 0.  1.
         11    1    3    3    0    0 -0.45621691209E+01  0.11573862501E+02  0.98792463548E+01  0.15886069025E+02  0.51100000000E-03 0.  1.
        -11    1    3    3    0    0 -0.32282978970E+01  0.74323202006E+01  0.10733958579E+02  0.13449132236E+02  0.51100000000E-03 0. -1.
        -12    1    3    3    0    0 -0.20924272410E+02  0.28189568092E+01 -0.18437377423E+01  0.21193656179E+02  0.00000000000E+00 0.  1.
</event>
<event>
 7    1  0.3129575E-011  0.5052887E+02  0.7816164E-02  0.1300439E+00
        -11   -1    0    0    0    0  0.00000000000E+00  0.00000000000E+00  0.45593999997E+02  0.45594000000E+02  0.51100000000E-03 0. -1.
         11   -1    0    0    0    0 -0.00000000000E+00 -0.00000000000E+00 -0.45593999997E+02  0.45594000000E+02  0.51100000000E-03 0.  1.
    9900012    2    1    2    0    0  0.33756464956E+02 -0.19620300806E+02  0.11345047523E+02  0.50528865315E+02  0.30000016611E+02 0.  0.
        -12    1    1    2    0    0 -0.33756464956E+02  0.19620300806E+02 -0.11345047523E+02  0.40659134685E+02  0.00000000000E+00 0.  1.
         11    1    3    3    0    0  0.49011674971E+00  0.25071834998E+01  0.83713202782E+01  0.87524389167E+01  0.51100000000E-03 0.  1.
        -11    1    3    3    0    0  0.11173474255E+02 -0.17455253698E+01  0.30676813803E+01  0.11717681300E+02  0.51100000000E-03 0. -1.
        -12    1    3    3    0    0  0.22092873952E+02 -0.20381958936E+02 -0.93954135786E-01  0.30058745098E+02  0.00000000000E+00 0.  1.
</event>
<event>
 7    1  0.3129575E-011  0.5052886E+02  0.7816164E-02  0.1300439E+00
        -11   -1    0    0    0    0  0.00000000000E+00  0.00000000000E+00  0.45593999997E+02  0.45594000000E+02  0.51100000000E-03 0. -1.
         11   -1    0    0    0    0 -0.00000000000E+00 -0.00000000000E+00 -0.45593999997E+02  0.45594000000E+02  0.51100000000E-03 0.  1.
    9900012    2    1    2    0    0 -0.12710864230E+02  0.20520826050E+02  0.32718423494E+02  0.50528860717E+02  0.30000002636E+02 0.  0.
        -12    1    1    2    0    0  0.12710864230E+02 -0.20520826050E+02 -0.32718423494E+02  0.40659139283E+02  0.00000000000E+00 0.  1.
         11    1    3    3    0    0 -0.10831932171E+00 -0.22813229111E+01 -0.39457109817E+00  0.23177260219E+01  0.51100000000E-03 0. -1.
        -11    1    3    3    0    0 -0.95743869517E+01  0.23870845142E+02  0.14913337691E+02  0.29730351068E+02  0.51100000000E-03 0.  1.
         12    1    3    3    0    0 -0.30281579565E+01 -0.10686961805E+01  0.18199656902E+02  0.18480783627E+02  0.00000000000E+00 0. -1.
</event>
<event>
 7    1  0.3129575E-011  0.5052884E+02  0.7816164E-02  0.1300439E+00
        -11   -1    0    0    0    0  0.00000000000E+00  0.00000000000E+00  0.45593999997E+02  0.45594000000E+02  0.51100000000E-03 0.  1.
         11   -1    0    0    0    0 -0.00000000000E+00 -0.00000000000E+00 -0.45593999997E+02  0.45594000000E+02  0.51100000000E-03 0. -1.
    9900012    2    1    2    0    0 -0.37223596003E+02 -0.56969239153E+01 -0.15333490163E+02  0.50528844056E+02  0.29999951992E+02 0.  0.
        -12    1    1    2    0    0  0.37223596003E+02  0.56969239153E+01  0.15333490163E+02  0.40659155944E+02  0.00000000000E+00 0.  1.
         11    1    3    3    0    0 -0.19622058021E+00 -0.10126791430E+01 -0.85119224600E+01  0.85741965098E+01  0.51100000000E-03 0. -1.
        -11    1    3    3    0    0 -0.83441134516E+01  0.65327598204E+01 -0.16490153616E+01  0.10724757903E+02  0.51100000000E-03 0.  1.
        -12    1    3    3    0    0 -0.28683261971E+02 -0.11217004593E+02 -0.51725523417E+01  0.31229889642E+02  0.00000000000E+00 0.  1.
</event>
<event>
 7    1  0.3129575E-011  0.5052886E+02  0.7816164E-02  0.1300439E+00
        -11   -1    0    0    0    0  0.00000000000E+00  0.00000000000E+00  0.45593999997E+02  0.45594000000E+02  0.51100000000E-03 0. -1.
         11   -1    0    0    0    0 -0.00000000000E+00 -0.00000000000E+00 -0.45593999997E+02  0.45594000000E+02  0.51100000000E-03 0.  1.
    9900012    2    1    2    0    0 -0.35293007218E+02 -0.12888120013E+02 -0.15539177488E+02  0.50528855482E+02  0.29999986722E+02 0.  0.
        -12    1    1    2    0    0  0.35293007218E+02  0.12888120013E+02  0.15539177488E+02  0.40659144518E+02  0.00000000000E+00 0.  1.
         11    1    3    3    0    0  0.45947001677E+00 -0.47420216144E+01  0.23072844678E+01  0.52935284607E+01  0.51100000000E-03 0. -1.
        -11    1    3    3    0    0 -0.14385808619E+02  0.45628769904E+01 -0.84213817671E+00  0.15115572533E+02  0.51100000000E-03 0.  1.
         12    1    3    3    0    0 -0.21366668616E+02 -0.12708975389E+02 -0.17004323779E+02  0.30119754488E+02  0.00000000000E+00 0. -1.
</event>
<event>
 7    1  0.3129575E-011  0.5052885E+02  0.7816164E-02  0.1300439E+00
        -11   -1    0    0    0    0  0.00000000000E+00  0.00000000000E+00  0.45593999997E+02  0.45594000000E+02  0.51100000000E-03 0.  1.
         11   -1    0    0    0    0 -0.00000000000E+00 -0.00000000000E+00 -0.45593999997E+02  0.45594000000E+02  0.51100000000E-03 0. -1.
    9900012    2    1    2    0    0 -0.14341383490E+02  0.22466383162E+02 -0.30704275069E+02  0.50528853916E+02  0.29999981962E+02 0.  0.
        -12    1    1    2    0    0  0.14341383490E+02 -0.22466383162E+02  0.30704275069E+02  0.40659146084E+02  0.00000000000E+00 0.  1.
         11    1    3    3    0    0 -0.93396295205E+01  0.69211145531E+01 -0.16331433489E+02  0.20046102522E+02  0.51100000000E-03 0. -1.
        -11    1    3    3    0    0 -0.10150805783E+02  0.15911785412E+01 -0.73162566045E+00  0.10300775872E+02  0.51100000000E-03 0.  1.
         12    1    3    3    0    0  0.51490518140E+01  0.13954090068E+02 -0.13641215919E+02  0.20181975522E+02  0.00000000000E+00 0. -1.
</event>
<event>
 7    1  0.3129575E-011  0.5052878E+02  0.7816164E-02  0.1300439E+00
        -11   -1    0    0    0    0  0.00000000000E+00  0.00000000000E+00  0.45593999997E+02  0.45594000000E+02  0.51100000000E-03 0.  1.
         11   -1    0    0    0    0 -0.00000000000E+00 -0.00000000000E+00 -0.45593999997E+02  0.45594000000E+02  0.51100000000E-03 0. -1.
    9900012    2    1    2    0    0  0.19334767307E+02 -0.98690255264E+01 -0.34379373558E+02  0.50528779423E+02  0.29999755534E+02 0.  0.
        -12    1    1    2    0    0 -0.19334767307E+02  0.98690255264E+01  0.34379373558E+02  0.40659220577E+02  0.00000000000E+00 0.  1.
         11    1    3    3    0    0  0.50615755471E+01  0.78439470273E+00 -0.89020873564E+01  0.10270442134E+02  0.51100000000E-03 0.  1.
        -11    1    3    3    0    0 -0.23633338238E+01 -0.75281852983E+01 -0.21454392951E+02  0.22859350336E+02  0.51100000000E-03 0. -1.
         12    1    3    3    0    0  0.16636525584E+02 -0.31252349309E+01 -0.40228932509E+01  0.17398986953E+02  0.00000000000E+00 0. -1.
</event>
<event>
 7    1  0.3129575E-011  0.5052886E+02  0.7816164E-02  0.1300439E+00
        -11   -1    0    0    0    0  0.00000000000E+00  0.00000000000E+00  0.45593999997E+02  0.45594000000E+02  0.51100000000E-03 0. -1.
         11   -1    0    0    0    0 -0.00000000000E+00 -0.00000000000E+00 -0.45593999997E+02  0.45594000000E+02  0.51100000000E-03 0.  1.
    9900012    2    1    2    0    0 -0.30651224889E+02 -0.18327459500E+02  0.19436356537E+02  0.50528864319E+02  0.30000013585E+02 0.  0.
        -12    1    1    2    0    0  0.30651224889E+02  0.18327459500E+02 -0.19436356537E+02  0.40659135681E+02  0.00000000000E+00 0.  1.
         11    1    3    3    0    0 -0.91402087290E+01 -0.63215068129E+01  0.37790258893E+01  0.11738223926E+02  0.51100000000E-03 0. -1.
        -11    1    3    3    0    0 -0.48186786413E+01 -0.17019129168E+02  0.10690785889E+02  0.20667929860E+02  0.51100000000E-03 0.  1.
        -12    1    3    3    0    0 -0.16692337518E+02  0.50131764814E+01  0.49665447583E+01  0.18122710534E+02  0.00000000000E+00 0.  1.
</event>
<event>
 7    1  0.3129575E-011  0.5052886E+02  0.7816164E-02  0.1300439E+00
        -11   -1    0    0    0    0  0.00000000000E+00  0.00000000000E+00  0.45593999997E+02  0.45594000000E+02  0.51100000000E-03 0. -1.
         11   -1    0    0    0    0 -0.00000000000E+00 -0.00000000000E+00 -0.45593999997E+02  0.45594000000E+02  0.51100000000E-03 0.  1.
    9900012    2    1    2    0    0 -0.25167228884E+02  0.27605728758E+01  0.31814386256E+02  0.50528863940E+02  0.30000012432E+02 0.  0.
        -12    1    1    2    0    0  0.25167228884E+02 -0.27605728758E+01 -0.31814386256E+02  0.40659136060E+02  0.00000000000E+00 0.  1.
         11    1    3    3    0    0 -0.21301393156E+02  0.11083257745E+02  0.14178360759E+02  0.27885728728E+02  0.51100000000E-03 0. -1.
        -11    1    3    3    0    0 -0.52139889757E+01 -0.62348062725E+00  0.11712655058E+02  0.12835914377E+02  0.51100000000E-03 0.  1.
        -12    1    3    3    0    0  0.13481532474E+01 -0.76992042421E+01  0.59233704398E+01  0.98072208350E+01  0.00000000000E+00 0.  1.
</event>
<event>
 7    1  0.3129575E-011  0.5052887E+02  0.7816164E-02  0.1300439E+00
        -11   -1    0    0    0    0  0.00000000000E+00  0.00000000000E+00  0.45593999997E+02  0.45594000000E+02  0.51100000000E-03 0. -1.
         11   -1    0    0    0    0 -0.00000000000E+00 -0.00000000000E+00 -0.45593999997E+02  0.45594000000E+02  0.51100000000E-03 0.  1.
    9900012    2    1    2    0    0 -0.21401788457E+02  0.25115741660E+02  0.23755588961E+02  0.50528867752E+02  0.30000024017E+02 0.  0.
        -12    1    1    2    0    0  0.21401788457E+02 -0.25115741660E+02 -0.23755588961E+02  0.40659132248E+02  0.00000000000E+00 0.  1.
         11    1    3    3    0    0 -0.10348468540E+02  0.55138937647E+01  0.18727091650E+02  0.22095198291E+02  0.51100000000E-03 0. -1.
        -11    1    3    3    0    0 -0.18374939057E+01  0.99067489561E+01  0.99691495461E+01  0.14174060874E+02  0.51100000000E-03 0.  1.
        -12    1    3    3    0    0 -0.92158260119E+01  0.96950989395E+01 -0.49406522355E+01  0.14259608587E+02  0.00000000000E+00 0.  1.
</event>
<event>
 7    1  0.3129575E-011  0.5052887E+02  0.7816164E-02  0.1300439E+00
        -11   -1    0    0    0    0  0.00000000000E+00  0.00000000000E+00  0.45593999997E+02  0.45594000000E+02  0.51100000000E-03 0.  1.
         11   -1    0    0    0    0 -0.00000000000E+00 -0.00000000000E+00 -0.45593999997E+02  0.45594000000E+02  0.51100000000E-03 0. -1.
    9900012    2    1    2    0    0 -0.52568824388E+01  0.13063319507E+02 -0.38142888552E+02  0.50528867242E+02  0.30000022469E+02 0.  0.
        -12    1    1    2    0    0  0.52568824388E+01 -0.13063319507E+02  0.38142888552E+02  0.40659132758E+02  0.00000000000E+00 0.  1.
         11    1    3    3    0    0 -0.65381414935E+01  0.61832813939E+01 -0.13891615081E+01  0.91054946566E+01  0.51100000000E-03 0. -1.
        -11    1    3    3    0    0  0.25661123295E+01  0.12178627736E+02 -0.17932685883E+02  0.21828539330E+02  0.51100000000E-03 0.  1.
        -12    1    3    3    0    0 -0.12848532748E+01 -0.52985896229E+01 -0.18821041161E+02  0.19594833256E+02  0.00000000000E+00 0.  1.
</event>
<event>
 7    1  0.3129575E-011  0.5052887E+02  0.7816164E-02  0.1300439E+00
        -11   -1    0    0    0    0  0.00000000000E+00  0.00000000000E+00  0.45593999997E+02  0.45594000000E+02  0.51100000000E-03 0.  1.
         11   -1    0    0    0    0 -0.00000000000E+00 -0.00000000000E+00 -0.45593999997E+02  0.45594000000E+02  0.51100000000E-03 0. -1.
    9900012    2    1    2    0    0  0.14143287660E+02 -0.12764202528E+02 -0.35919462172E+02  0.50528865544E+02  0.30000017307E+02 0.  0.
        -12    1    1    2    0    0 -0.14143287660E+02  0.12764202528E+02  0.35919462172E+02  0.40659134456E+02  0.00000000000E+00 0.  1.
         11    1    3    3    0    0  0.38722231222E+01 -0.49415543463E+01 -0.19643356078E+02  0.20622184887E+02  0.51100000000E-03 0. -1.
        -11    1    3    3    0    0  0.12959787066E+02 -0.12664843696E+02 -0.16292569836E+02  0.24368056524E+02  0.51100000000E-03 0.  1.
         12    1    3    3    0    0 -0.26887225283E+01  0.48421955142E+01  0.16463741514E-01  0.55386241330E+01  0.00000000000E+00 0. -1.
</event>
<event>
 7    1  0.3129575E-011  0.5052889E+02  0.7816164E-02  0.1300439E+00
        -11   -1    0    0    0    0  0.00000000000E+00  0.00000000000E+00  0.45593999997E+02  0.45594000000E+02  0.51100000000E-03 0.  1.
         11   -1    0    0    0    0 -0.00000000000E+00 -0.00000000000E+00 -0.45593999997E+02  0.45594000000E+02  0.51100000000E-03 0. -1.
    9900012    2    1    2    0    0  0.31357087090E+02 -0.81273716456E+01 -0.24573199796E+02  0.50528889965E+02  0.30000091536E+02 0.  0.
        -12    1    1    2    0    0 -0.31357087090E+02  0.81273716456E+01  0.24573199796E+02  0.40659110035E+02  0.00000000000E+00 0.  1.
         11    1    3    3    0    0  0.10027149520E+02  0.62404065765E+00  0.30706252217E+01  0.10505326922E+02  0.51100000000E-03 0. -1.
        -11    1    3    3    0    0  0.77215438044E+01  0.48898575719E+01 -0.12662191707E+02  0.15616146928E+02  0.51100000000E-03 0.  1.
         12    1    3    3    0    0  0.13608393766E+02 -0.13641269875E+02 -0.14981633311E+02  0.24407416114E+02  0.00000000000E+00 0. -1.
</event>
<event>
 7    1  0.3129575E-011  0.5052887E+02  0.7816164E-02  0.1300439E+00
        -11   -1    0    0    0    0  0.00000000000E+00  0.00000000000E+00  0.45593999997E+02  0.45594000000E+02  0.51100000000E-03 0.  1.
         11   -1    0    0    0    0 -0.00000000000E+00 -0.00000000000E+00 -0.45593999997E+02  0.45594000000E+02  0.51100000000E-03 0. -1.
    9900012    2    1    2    0    0 -0.19319094477E+02 -0.27221131368E+02 -0.23215233676E+02  0.50528874591E+02  0.30000044806E+02 0.  0.
        -12    1    1    2    0    0  0.19319094477E+02  0.27221131368E+02  0.23215233676E+02  0.40659125409E+02  0.00000000000E+00 0.  1.
         11    1    3    3    0    0 -0.13681182493E+02 -0.19424894752E+02 -0.17396632413E+02  0.29447310745E+02  0.51100000000E-03 0. -1.
        -11    1    3    3    0    0  0.75519315763E+00 -0.12367718376E+02 -0.31983688728E+01  0.12796887834E+02  0.51100000000E-03 0.  1.
        -12    1    3    3    0    0 -0.63931051412E+01  0.45714817600E+01 -0.26202323904E+01  0.82846760111E+01  0.00000000000E+00 0.  1.
</event>
<event>
 7    1  0.3129575E-011  0.5052886E+02  0.7816164E-02  0.1300439E+00
        -11   -1    0    0    0    0  0.00000000000E+00  0.00000000000E+00  0.45593999997E+02  0.45594000000E+02  0.51100000000E-03 0.  1.
         11   -1    0    0    0    0 -0.00000000000E+00 -0.00000000000E+00 -0.45593999997E+02  0.45594000000E+02  0.51100000000E-03 0. -1.
    9900012    2    1    2    0    0  0.22121733078E+02 -0.56382114743E+01 -0.33645279851E+02  0.50528863766E+02  0.30000011904E+02 0.  0.
        -12    1    1    2    0    0 -0.22121733078E+02  0.56382114743E+01  0.33645279851E+02  0.40659136234E+02  0.00000000000E+00 0.  1.
         11    1    3    3    0    0 -0.41308572628E+01 -0.39439110892E+01 -0.38639737429E+01  0.68955572474E+01  0.51100000000E-03 0. -1.
        -11    1    3    3    0    0  0.54890140055E+01  0.70451494715E+01 -0.53953794461E+01  0.10434247719E+02  0.51100000000E-03 0.  1.
        -12    1    3    3    0    0  0.20763576336E+02 -0.87394498565E+01 -0.24385926662E+02  0.33199058800E+02  0.00000000000E+00 0.  1.
</event>
<event>
 7    1  0.3129575E-011  0.5052886E+02  0.7816164E-02  0.1300439E+00
        -11   -1    0    0    0    0  0.00000000000E+00  0.00000000000E+00  0.45593999997E+02  0.45594000000E+02  0.51100000000E-03 0.  1.
         11   -1    0    0    0    0 -0.00000000000E+00 -0.00000000000E+00 -0.45593999997E+02  0.45594000000E+02  0.51100000000E-03 0. -1.
    9900012    2    1    2    0    0  0.22669882362E+01 -0.67558931776E+01 -0.40029796102E+02  0.50528857065E+02  0.29999991533E+02 0.  0.
        -12    1    1    2    0    0 -0.22669882362E+01  0.67558931776E+01  0.40029796102E+02  0.40659142935E+02  0.00000000000E+00 0.  1.
         11    1    3    3    0    0  0.74931596526E+01 -0.54855462443E+01 -0.27596616977E+02  0.29117210169E+02  0.51100000000E-03 0. -1.
        -11    1    3    3    0    0  0.55936659541E+01  0.19775069621E+00 -0.76794314887E+01  0.95027297339E+01  0.51100000000E-03 0.  1.
        -12    1    3    3    0    0 -0.10819837371E+02 -0.14680976295E+01 -0.47537476358E+01  0.11908917162E+02  0.00000000000E+00 0.  1.
</event>
<event>
 7    1  0.3129575E-011  0.5052886E+02  0.7816164E-02  0.1300439E+00
        -11   -1    0    0    0    0  0.00000000000E+00  0.00000000000E+00  0.45593999997E+02  0.45594000000E+02  0.51100000000E-03 0. -1.
         11   -1    0    0    0    0 -0.00000000000E+00 -0.00000000000E+00 -0.45593999997E+02  0.45594000000E+02  0.51100000000E-03 0.  1.
    9900012    2    1    2    0    0  0.25867038969E+02 -0.11931477663E+02  0.29012100371E+02  0.50528857951E+02  0.29999994227E+02 0.  0.
        -12    1    1    2    0    0 -0.25867038969E+02  0.11931477663E+02 -0.29012100371E+02  0.40659142049E+02  0.00000000000E+00 0.  1.
         11    1    3    3    0    0  0.23571617450E+02 -0.73398224577E+01  0.14290906567E+02  0.28525850622E+02  0.51100000000E-03 0. -1.
        -11    1    3    3    0    0  0.14100896469E+01 -0.95602157377E+00 -0.32376325222E+01  0.36584962310E+01  0.51100000000E-03 0.  1.
         12    1    3    3    0    0  0.88533187239E+00 -0.36356336316E+01  0.17958826326E+02  0.18344511098E+02  0.00000000000E+00 0. -1.
</event>
<event>
 7    1  0.3129575E-011  0.5052886E+02  0.7816164E-02  0.1300439E+00
        -11   -1    0    0    0    0  0.00000000000E+00  0.00000000000E+00  0.45593999997E+02  0.45594000000E+02  0.51100000000E-03 0.  1.
         11   -1    0    0    0    0 -0.00000000000E+00 -0.00000000000E+00 -0.45593999997E+02  0.45594000000E+02  0.51100000000E-03 0. -1.
    9900012    2    1    2    0    0  0.21727204822E+02  0.12200051018E+02 -0.32128688814E+02  0.50528864260E+02  0.30000013406E+02 0.  0.
        -12    1    1    2    0    0 -0.21727204822E+02 -0.12200051018E+02  0.32128688814E+02  0.40659135740E+02  0.00000000000E+00 0.  1.
         11    1    3    3    0    0  0.23539999753E+02  0.16961839905E+02 -0.18619123331E+02  0.34474735028E+02  0.51100000000E-03 0. -1.
        -11    1    3    3    0    0  0.81980163898E+00 -0.11732923108E+01  0.37006928242E+00  0.14783913923E+01  0.51100000000E-03 0.  1.
        -12    1    3    3    0    0 -0.26325965708E+01 -0.35884965765E+01 -0.13879634765E+02  0.14575737840E+02  0.00000000000E+00 0.  1.
</event>
<event>
 7    1  0.3129575E-011  0.5052886E+02  0.7816164E-02  0.1300439E+00
        -11   -1    0    0    0    0  0.00000000000E+00  0.00000000000E+00  0.45593999997E+02  0.45594000000E+02  0.51100000000E-03 0. -1.
         11   -1    0    0    0    0 -0.00000000000E+00 -0.00000000000E+00 -0.45593999997E+02  0.45594000000E+02  0.51100000000E-03 0.  1.
    9900012    2    1    2    0    0  0.70196211393E+01  0.32774474812E+02  0.23015741939E+02  0.50528860103E+02  0.30000000770E+02 0.  0.
        -12    1    1    2    0    0 -0.70196211393E+01 -0.32774474812E+02 -0.23015741939E+02  0.40659139897E+02  0.00000000000E+00 0.  1.
         11    1    3    3    0    0  0.71299552514E+01  0.13851333442E+02  0.14020761759E+02  0.20958947029E+02  0.51100000000E-03 0. -1.
        -11    1    3    3    0    0  0.47666662277E+01  0.17293148967E+02  0.13722383122E+02  0.22584904404E+02  0.51100000000E-03 0.  1.
        -12    1    3    3    0    0 -0.48770003398E+01  0.16299924032E+01 -0.47274029422E+01  0.69850086705E+01  0.00000000000E+00 0.  1.
</event>
<event>
 7    1  0.3129575E-011  0.5052890E+02  0.7816164E-02  0.1300439E+00
        -11   -1    0    0    0    0  0.00000000000E+00  0.00000000000E+00  0.45593999997E+02  0.45594000000E+02  0.51100000000E-03 0. -1.
         11   -1    0    0    0    0 -0.00000000000E+00 -0.00000000000E+00 -0.45593999997E+02  0.45594000000E+02  0.51100000000E-03 0.  1.
    9900012    2    1    2    0    0 -0.79553375468E+01 -0.11454836337E+02  0.38192427945E+02  0.50528902330E+02  0.30000129122E+02 0.  0.
        -12    1    1    2    0    0  0.79553375468E+01  0.11454836337E+02 -0.38192427945E+02  0.40659097670E+02  0.00000000000E+00 0.  1.
         11    1    3    3    0    0 -0.12271665316E+02 -0.10988895608E+02  0.25856918333E+02  0.30658274939E+02  0.51100000000E-03 0. -1.
        -11    1    3    3    0    0  0.55866006090E+01 -0.42118502764E+01  0.84516527317E-01  0.69969230680E+01  0.51100000000E-03 0.  1.
         12    1    3    3    0    0 -0.12702728401E+01  0.37459095477E+01  0.12250993085E+02  0.12873704323E+02  0.00000000000E+00 0. -1.
</event>
<event>
 7    1  0.3129575E-011  0.5052887E+02  0.7816164E-02  0.1300439E+00
        -11   -1    0    0    0    0  0.00000000000E+00  0.00000000000E+00  0.45593999997E+02  0.45594000000E+02  0.51100000000E-03 0.  1.
         11   -1    0    0    0    0 -0.00000000000E+00 -0.00000000000E+00 -0.45593999997E+02  0.45594000000E+02  0.51100000000E-03 0. -1.
    9900012    2    1    2    0    0 -0.16857490429E+02 -0.33694388922E+02  0.15286537640E+02  0.50528867429E+02  0.30000023037E+02 0.  0.
        -12    1    1    2    0    0  0.16857490429E+02  0.33694388922E+02 -0.15286537640E+02  0.40659132571E+02  0.00000000000E+00 0.  1.
         11    1    3    3    0    0  0.76871020190E+00  0.20315564003E+01  0.95078932303E+00  0.23711046751E+01  0.51100000000E-03 0. -1.
        -11    1    3    3    0    0 -0.90210745500E+01 -0.24985242521E+02  0.20024282048E+02  0.33265808297E+02  0.51100000000E-03 0.  1.
         12    1    3    3    0    0 -0.86051260805E+01 -0.10740702802E+02 -0.56885337309E+01  0.14891954457E+02  0.00000000000E+00 0. -1.
</event>
<event>
 7    1  0.3129575E-011  0.5052886E+02  0.7816164E-02  0.1300439E+00
        -11   -1    0    0    0    0  0.00000000000E+00  0.00000000000E+00  0.45593999997E+02  0.45594000000E+02  0.51100000000E-03 0.  1.
         11   -1    0    0    0    0 -0.00000000000E+00 -0.00000000000E+00 -0.45593999997E+02  0.45594000000E+02  0.51100000000E-03 0. -1.
    9900012    2    1    2    0    0 -0.29226738216E+02  0.17651424209E+02 -0.22076921470E+02  0.50528862467E+02  0.30000007953E+02 0.  0.
        -12    1    1    2    0    0  0.29226738216E+02 -0.17651424209E+02  0.22076921470E+02  0.40659137533E+02  0.00000000000E+00 0.  1.
         11    1    3    3    0    0 -0.10779447407E+02  0.53317652984E+01  0.52237754055E+01  0.13111523075E+02  0.51100000000E-03 0. -1.
        -11    1    3    3    0    0 -0.11039291992E+02  0.18231696484E+01 -0.64171954187E+01  0.12898461636E+02  0.51100000000E-03 0.  1.
         12    1    3    3    0    0 -0.74079988162E+01  0.10496489262E+02 -0.20883501457E+02  0.24518877756E+02  0.00000000000E+00 0. -1.
</event>
<event>
 7    1  0.3129575E-011  0.5052888E+02  0.7816164E-02  0.1300439E+00
        -11   -1    0    0    0    0  0.00000000000E+00  0.00000000000E+00  0.45593999997E+02  0.45594000000E+02  0.51100000000E-03 0. -1.
         11   -1    0    0    0    0 -0.00000000000E+00 -0.00000000000E+00 -0.45593999997E+02  0.45594000000E+02  0.51100000000E-03 0.  1.
    9900012    2    1    2    0    0 -0.25325020518E+02 -0.15162642678E+02  0.27962506003E+02  0.50528878770E+02  0.30000057510E+02 0.  0.
        -12    1    1    2    0    0  0.25325020518E+02  0.15162642678E+02 -0.27962506003E+02  0.40659121230E+02  0.00000000000E+00 0.  1.
         11    1    3    3    0    0 -0.88918025946E+01  0.21420438422E+01  0.49686520252E+01  0.10408650653E+02  0.51100000000E-03 0. -1.
        -11    1    3    3    0    0 -0.17088907542E+02 -0.16288484627E+01  0.11290550670E+02  0.20546543335E+02  0.51100000000E-03 0.  1.
        -12    1    3    3    0    0  0.65568961899E+00 -0.15675838058E+02  0.11703303307E+02  0.19573684783E+02  0.00000000000E+00 0.  1.
</event>
<event>
 7    1  0.3129575E-011  0.5052886E+02  0.7816164E-02  0.1300439E+00
        -11   -1    0    0    0    0  0.00000000000E+00  0.00000000000E+00  0.45593999997E+02  0.45594000000E+02  0.51100000000E-03 0. -1.
         11   -1    0    0    0    0 -0.00000000000E+00 -0.00000000000E+00 -0.45593999997E+02  0.45594000000E+02  0.51100000000E-03 0.  1.
    9900012    2    1    2    0    0 -0.24638124048E+02  0.31184629722E+02 -0.85817915767E+01  0.50528862846E+02  0.30000009105E+02 0.  0.
        -12    1    1    2    0    0  0.24638124048E+02 -0.31184629722E+02  0.85817915767E+01  0.40659137154E+02  0.00000000000E+00 0.  1.
         11    1    3    3    0    0 -0.16666034730E+02  0.79769871023E+01 -0.55704934241E+01  0.19298171781E+02  0.51100000000E-03 0. -1.
        -11    1    3    3    0    0 -0.81068858408E+01  0.21778402821E+02 -0.91138000727E+01  0.24961606108E+02  0.51100000000E-03 0.  1.
        -12    1    3    3    0    0  0.13479652315E+00  0.14292397989E+01  0.61025019201E+01  0.62690849564E+01  0.00000000000E+00 0.  1.
</event>
<event>
 7    1  0.3129575E-011  0.5052885E+02  0.7816164E-02  0.1300439E+00
        -11   -1    0    0    0    0  0.00000000000E+00  0.00000000000E+00  0.45593999997E+02  0.45594000000E+02  0.51100000000E-03 0.  1.
         11   -1    0    0    0    0 -0.00000000000E+00 -0.00000000000E+00 -0.45593999997E+02  0.45594000000E+02  0.51100000000E-03 0. -1.
    9900012    2    1    2    0    0 -0.13534947265E+02 -0.95800287433E+01 -0.37124041399E+02  0.50528853452E+02  0.29999980552E+02 0.  0.
        -12    1    1    2    0    0  0.13534947265E+02  0.95800287433E+01  0.37124041399E+02  0.40659146548E+02  0.00000000000E+00 0.  1.
         11    1    3    3    0    0  0.15732753958E+01  0.13826910824E+01 -0.13101674796E+02  0.13268041032E+02  0.51100000000E-03 0. -1.
        -11    1    3    3    0    0 -0.11780252849E+02 -0.31053114158E+01 -0.25811545922E+02  0.28542130603E+02  0.51100000000E-03 0.  1.
        -12    1    3    3    0    0 -0.33279698113E+01 -0.78574084099E+01  0.17891793194E+01  0.87186818168E+01  0.00000000000E+00 0.  1.
</event>
<event>
 7    1  0.3129575E-011  0.5052886E+02  0.7816164E-02  0.1300439E+00
        -11   -1    0    0    0    0  0.00000000000E+00  0.00000000000E+00  0.45593999997E+02  0.45594000000E+02  0.51100000000E-03 0.  1.
         11   -1    0    0    0    0 -0.00000000000E+00 -0.00000000000E+00 -0.45593999997E+02  0.45594000000E+02  0.51100000000E-03 0. -1.
    9900012    2    1    2    0    0 -0.21699204867E+01 -0.34576695903E+02 -0.21281661851E+02  0.50528860983E+02  0.30000003443E+02 0.  0.
        -12    1    1    2    0    0  0.21699204867E+01  0.34576695903E+02  0.21281661851E+02  0.40659139017E+02  0.00000000000E+00 0.  1.
         11    1    3    3    0    0 -0.15131071507E+01 -0.25824563918E+02 -0.16603415586E+02  0.30738754109E+02  0.51100000000E-03 0. -1.
        -11    1    3    3    0    0 -0.12009361020E+01 -0.13140529780E+02  0.21204924105E+00  0.13196997218E+02  0.51100000000E-03 0.  1.
        -12    1    3    3    0    0  0.54412276593E+00  0.43883977952E+01 -0.48902955062E+01  0.65931096556E+01  0.00000000000E+00 0.  1.
</event>
<event>
 7    1  0.3129575E-011  0.5052886E+02  0.7816164E-02  0.1300439E+00
        -11   -1    0    0    0    0  0.00000000000E+00  0.00000000000E+00  0.45593999997E+02  0.45594000000E+02  0.51100000000E-03 0. -1.
         11   -1    0    0    0    0 -0.00000000000E+00 -0.00000000000E+00 -0.45593999997E+02  0.45594000000E+02  0.51100000000E-03 0.  1.
    9900012    2    1    2    0    0 -0.39721438191E+02 -0.73475425758E+01  0.46245385279E+01  0.50528863383E+02  0.30000010739E+02 0.  0.
        -12    1    1    2    0    0  0.39721438191E+02  0.73475425758E+01 -0.46245385279E+01  0.40659136617E+02  0.00000000000E+00 0.  1.
         11    1    3    3    0    0 -0.19073390558E+02 -0.58558043549E+01  0.41193424650E+01  0.20372865646E+02  0.51100000000E-03 0. -1.
        -11    1    3    3    0    0 -0.28060422804E+01 -0.75079665770E+01  0.65811997625E+01  0.10370902853E+02  0.51100000000E-03 0.  1.
        -12    1    3    3    0    0 -0.17842005352E+02  0.60162283562E+01 -0.60760036996E+01  0.19785094884E+02  0.00000000000E+00 0.  1.
</event>
<event>
 7    1  0.3129575E-011  0.5052885E+02  0.7816164E-02  0.1300439E+00
        -11   -1    0    0    0    0  0.00000000000E+00  0.00000000000E+00  0.45593999997E+02  0.45594000000E+02  0.51100000000E-03 0.  1.
         11   -1    0    0    0    0 -0.00000000000E+00 -0.00000000000E+00 -0.45593999997E+02  0.45594000000E+02  0.51100000000E-03 0. -1.
    9900012    2    1    2    0    0  0.20219051859E+02  0.94538113436E+01 -0.33985019280E+02  0.50528854135E+02  0.29999982630E+02 0.  0.
        -12    1    1    2    0    0 -0.20219051859E+02 -0.94538113436E+01  0.33985019280E+02  0.40659145865E+02  0.00000000000E+00 0.  1.
         11    1    3    3    0    0  0.16411478865E+02  0.93825626247E+00 -0.17740304582E+02  0.24185437153E+02  0.51100000000E-03 0. -1.
        -11    1    3    3    0    0  0.37733105002E+01 -0.51773867480E+01 -0.23188373663E+01  0.68132380453E+01  0.51100000000E-03 0.  1.
         12    1    3    3    0    0  0.34262493092E-01  0.13692941829E+02 -0.13925877332E+02  0.19530178937E+02  0.00000000000E+00 0. -1.
</event>
<event>
 7    1  0.3129575E-011  0.5052885E+02  0.7816164E-02  0.1300439E+00
        -11   -1    0    0    0    0  0.00000000000E+00  0.00000000000E+00  0.45593999997E+02  0.45594000000E+02  0.51100000000E-03 0.  1.
         11   -1    0    0    0    0 -0.00000000000E+00 -0.00000000000E+00 -0.45593999997E+02  0.45594000000E+02  0.51100000000E-03 0. -1.
    9900012    2    1    2    0    0  0.23293160473E+02  0.29802778926E+02 -0.14912722021E+02  0.50528853002E+02  0.29999979185E+02 0.  0.
        -12    1    1    2    0    0 -0.23293160473E+02 -0.29802778926E+02  0.14912722021E+02  0.40659146998E+02  0.00000000000E+00 0.  1.
         11    1    3    3    0    0  0.38297289324E+01  0.10607051179E+02 -0.94937828535E+01  0.14741379567E+02  0.51100000000E-03 0. -1.
        -11    1    3    3    0    0  0.18641157945E+02  0.82598947128E+01 -0.11333634370E+02  0.23327449464E+02  0.51100000000E-03 0.  1.
        -12    1    3    3    0    0  0.82227359577E+00  0.10935833035E+02  0.59146952026E+01  0.12460023972E+02  0.00000000000E+00 0.  1.
</event>
<event>
 7    1  0.3129575E-011  0.5052888E+02  0.7816164E-02  0.1300439E+00
        -11   -1    0    0    0    0  0.00000000000E+00  0.00000000000E+00  0.45593999997E+02  0.45594000000E+02  0.51100000000E-03 0. -1.
         11   -1    0    0    0    0 -0.00000000000E+00 -0.00000000000E+00 -0.45593999997E+02  0.45594000000E+02  0.51100000000E-03 0.  1.
    9900012    2    1    2    0    0  0.21935328162E+02 -0.33826501638E+02 -0.52700229704E+01  0.50528880768E+02  0.30000063582E+02 0.  0.
        -12    1    1    2    0    0 -0.21935328162E+02  0.33826501638E+02  0.52700229704E+01  0.40659119232E+02  0.00000000000E+00 0.  1.
         11    1    3    3    0    0  0.10729524885E+01  0.10286661400E+01 -0.49986131918E-01  0.14872390341E+01  0.51100000000E-03 0.  1.
        -11    1    3    3    0    0  0.13773437480E+02 -0.38260334243E+02 -0.61351634248E+01  0.41124214119E+02  0.51100000000E-03 0. -1.
         12    1    3    3    0    0  0.70889381936E+01  0.34051664651E+01  0.91512658636E+00  0.79174276149E+01  0.00000000000E+00 0. -1.
</event>
<event>
 7    1  0.3129575E-011  0.5052887E+02  0.7816164E-02  0.1300439E+00
        -11   -1    0    0    0    0  0.00000000000E+00  0.00000000000E+00  0.45593999997E+02  0.45594000000E+02  0.51100000000E-03 0.  1.
         11   -1    0    0    0    0 -0.00000000000E+00 -0.00000000000E+00 -0.45593999997E+02  0.45594000000E+02  0.51100000000E-03 0. -1.
    9900012    2    1    2    0    0 -0.40449264963E+02  0.39193430584E+01  0.12886266071E+01  0.50528870096E+02  0.30000031143E+02 0.  0.
        -12    1    1    2    0    0  0.40449264963E+02 -0.39193430584E+01 -0.12886266071E+01  0.40659129904E+02  0.00000000000E+00 0.  1.
         11    1    3    3    0    0  0.10260105976E+01 -0.28542357855E+01  0.32969669586E+01  0.44798829285E+01  0.51100000000E-03 0. -1.
        -11    1    3    3    0    0 -0.74512365729E+01  0.82441482467E+01 -0.43017736737E+01  0.11916046483E+02  0.51100000000E-03 0.  1.
         12    1    3    3    0    0 -0.34024038987E+02 -0.14705694027E+01  0.22934333222E+01  0.34132940685E+02  0.00000000000E+00 0. -1.
</event>
<event>
 7    1  0.3129575E-011  0.5052885E+02  0.7816164E-02  0.1300439E+00
        -11   -1    0    0    0    0  0.00000000000E+00  0.00000000000E+00  0.45593999997E+02  0.45594000000E+02  0.51100000000E-03 0.  1.
         11   -1    0    0    0    0 -0.00000000000E+00 -0.00000000000E+00 -0.45593999997E+02  0.45594000000E+02  0.51100000000E-03 0. -1.
    9900012    2    1    2    0    0  0.17592032686E+02  0.18526476682E+02 -0.31629995831E+02  0.50528848650E+02  0.29999965955E+02 0.  0.
        -12    1    1    2    0    0 -0.17592032686E+02 -0.18526476682E+02  0.31629995831E+02  0.40659151350E+02  0.00000000000E+00 0.  1.
         11    1    3    3    0    0  0.24281405973E+01  0.23381894686E+01 -0.10185288466E+02  0.10728611194E+02  0.51100000000E-03 0.  1.
        -11    1    3    3    0    0  0.22252907568E+02  0.11753869018E+02 -0.15978742663E+02  0.29810493949E+02  0.51100000000E-03 0. -1.
         12    1    3    3    0    0 -0.70890154797E+01  0.44344181955E+01 -0.54659647017E+01  0.99897435065E+01  0.00000000000E+00 0. -1.
</event>
<event>
 7    1  0.3129575E-011  0.5052886E+02  0.7816164E-02  0.1300439E+00
        -11   -1    0    0    0    0  0.00000000000E+00  0.00000000000E+00  0.45593999997E+02  0.45594000000E+02  0.51100000000E-03 0. -1.
         11   -1    0    0    0    0 -0.00000000000E+00 -0.00000000000E+00 -0.45593999997E+02  0.45594000000E+02  0.51100000000E-03 0.  1.
    9900012    2    1    2    0    0 -0.13024898106E+01 -0.39420145030E+02  0.98752903060E+01  0.50528859914E+02  0.30000000196E+02 0.  0.
        -12    1    1    2    0    0  0.13024898106E+01  0.39420145030E+02 -0.98752903060E+01  0.40659140086E+02  0.00000000000E+00 0.  1.
         11    1    3    3    0    0  0.93886652545E+00  0.12117459542E+01 -0.35319604669E+01  0.38502653948E+01  0.51100000000E-03 0. -1.
        -11    1    3    3    0    0  0.58169905358E+00 -0.34007434062E+01  0.83055555298E+01  0.89936467811E+01  0.51100000000E-03 0.  1.
         12    1    3    3    0    0 -0.28230553896E+01 -0.37231147578E+02  0.51016952431E+01  0.37684947738E+02  0.00000000000E+00 0. -1.
</event>
<event>
 7    1  0.3129575E-011  0.5052885E+02  0.7816164E-02  0.1300439E+00
        -11   -1    0    0    0    0  0.00000000000E+00  0.00000000000E+00  0.45593999997E+02  0.45594000000E+02  0.51100000000E-03 0. -1.
         11   -1    0    0    0    0 -0.00000000000E+00 -0.00000000000E+00 -0.45593999997E+02  0.45594000000E+02  0.51100000000E-03 0.  1.
    9900012    2    1    2    0    0  0.11404836846E+00  0.40548802241E+02 -0.29913071543E+01  0.50528852336E+02  0.29999977161E+02 0.  0.
        -12    1    1    2    0    0 -0.11404836846E+00 -0.40548802241E+02  0.29913071543E+01  0.40659147664E+02  0.00000000000E+00 0.  1.
         11    1    3    3    0    0  0.62584558134E+01  0.29761061226E+02  0.23169904114E+01  0.30500122611E+02  0.51100000000E-03 0. -1.
        -11    1    3    3    0    0 -0.11487297995E+01  0.10656936501E+02 -0.88528690122E+01  0.13901912305E+02  0.51100000000E-03 0.  1.
        -12    1    3    3    0    0 -0.49956776455E+01  0.13080451473E+00  0.35445714465E+01  0.61268174200E+01  0.00000000000E+00 0.  1.
</event>
<event>
 7    1  0.3129575E-011  0.5052886E+02  0.7816164E-02  0.1300439E+00
        -11   -1    0    0    0    0  0.00000000000E+00  0.00000000000E+00  0.45593999997E+02  0.45594000000E+02  0.51100000000E-03 0.  1.
         11   -1    0    0    0    0 -0.00000000000E+00 -0.00000000000E+00 -0.45593999997E+02  0.45594000000E+02  0.51100000000E-03 0. -1.
    9900012    2    1    2    0    0  0.27477825037E+02 -0.25872307040E+01 -0.29857013203E+02  0.50528857499E+02  0.29999992854E+02 0.  0.
        -12    1    1    2    0    0 -0.27477825037E+02  0.25872307040E+01  0.29857013203E+02  0.40659142501E+02  0.00000000000E+00 0.  1.
         11    1    3    3    0    0 -0.17574006567E+01  0.33006775973E+01 -0.16839627011E+02  0.17249810660E+02  0.51100000000E-03 0. -1.
        -11    1    3    3    0    0  0.55857563656E+01 -0.33332985825E+01 -0.49046356706E+01  0.81465946836E+01  0.51100000000E-03 0.  1.
        -12    1    3    3    0    0  0.23649469328E+02 -0.25546097188E+01 -0.81127505216E+01  0.25132452156E+02  0.00000000000E+00 0.  1.
</event>
<event>
 7    1  0.3129575E-011  0.5052890E+02  0.7816164E-02  0.1300439E+00
        -11   -1    0    0    0    0  0.00000000000E+00  0.00000000000E+00  0.45593999997E+02  0.45594000000E+02  0.51100000000E-03 0.  1.
         11   -1    0    0    0    0 -0.00000000000E+00 -0.00000000000E+00 -0.45593999997E+02  0.45594000000E+02  0.51100000000E-03 0. -1.
    9900012    2    1    2    0    0 -0.55644430809E+01  0.27157146227E+02 -0.29743712451E+02  0.50528904482E+02  0.30000135662E+02 0.  0.
        -12    1    1    2    0    0  0.55644430809E+01 -0.27157146227E+02  0.29743712451E+02  0.40659095518E+02  0.00000000000E+00 0.  1.
         11    1    3    3    0    0  0.10336304956E+02  0.11403473696E+02 -0.83333878467E+01  0.17502107466E+02  0.51100000000E-03 0.  1.
        -11    1    3    3    0    0 -0.57461534892E+01  0.11711183862E+02 -0.16529241096E+02  0.21056730963E+02  0.51100000000E-03 0. -1.
        -12    1    3    3    0    0 -0.10154594548E+02  0.40424886687E+01 -0.48810835079E+01  0.11970066052E+02  0.00000000000E+00 0.  1.
</event>
<event>
 7    1  0.3129575E-011  0.5052885E+02  0.7816164E-02  0.1300439E+00
        -11   -1    0    0    0    0  0.00000000000E+00  0.00000000000E+00  0.45593999997E+02  0.45594000000E+02  0.51100000000E-03 0. -1.
         11   -1    0    0    0    0 -0.00000000000E+00 -0.00000000000E+00 -0.45593999997E+02  0.45594000000E+02  0.51100000000E-03 0.  1.
    9900012    2    1    2    0    0  0.37596478218E+02  0.14397984047E+02 -0.56893914339E+01  0.50528852273E+02  0.29999976968E+02 0.  0.
        -12    1    1    2    0    0 -0.37596478218E+02 -0.14397984047E+02  0.56893914339E+01  0.40659147727E+02  0.00000000000E+00 0.  1.
         11    1    3    3    0    0  0.23843436353E+02  0.10275943742E+02 -0.16306690685E+02  0.30659625541E+02  0.51100000000E-03 0. -1.
        -11    1    3    3    0    0  0.75996996458E+01 -0.18707466211E+01  0.29773536660E+01  0.83737543993E+01  0.51100000000E-03 0.  1.
        -12    1    3    3    0    0  0.61533422191E+01  0.59927869261E+01  0.76399455853E+01  0.11495472333E+02  0.00000000000E+00 0.  1.
</event>
<event>
 7    1  0.3129575E-011  0.5052887E+02  0.7816164E-02  0.1300439E+00
        -11   -1    0    0    0    0  0.00000000000E+00  0.00000000000E+00  0.45593999997E+02  0.45594000000E+02  0.51100000000E-03 0.  1.
         11   -1    0    0    0    0 -0.00000000000E+00 -0.00000000000E+00 -0.45593999997E+02  0.45594000000E+02  0.51100000000E-03 0. -1.
    9900012    2    1    2    0    0 -0.23762681341E+02 -0.16228660215E+02 -0.28725089828E+02  0.50528865449E+02  0.30000017017E+02 0.  0.
        -12    1    1    2    0    0  0.23762681341E+02  0.16228660215E+02  0.28725089828E+02  0.40659134551E+02  0.00000000000E+00 0.  1.
         11    1    3    3    0    0 -0.14424846758E+02 -0.27475097311E+01 -0.21445619528E+02  0.25991144856E+02  0.51100000000E-03 0. -1.
        -11    1    3    3    0    0 -0.13543711041E+02 -0.74600320231E+01 -0.22242035471E+01  0.15621500192E+02  0.51100000000E-03 0.  1.
        -12    1    3    3    0    0  0.42058764588E+01 -0.60211184605E+01 -0.50552667531E+01  0.89162204015E+01  0.00000000000E+00 0.  1.
</event>
<event>
 7    1  0.3129575E-011  0.5052885E+02  0.7816164E-02  0.1300439E+00
        -11   -1    0    0    0    0  0.00000000000E+00  0.00000000000E+00  0.45593999997E+02  0.45594000000E+02  0.51100000000E-03 0.  1.
         11   -1    0    0    0    0 -0.00000000000E+00 -0.00000000000E+00 -0.45593999997E+02  0.45594000000E+02  0.51100000000E-03 0. -1.
    9900012    2    1    2    0    0 -0.90546965379E+01 -0.22548546618E+02 -0.32599723063E+02  0.50528850627E+02  0.29999971965E+02 0.  0.
        -12    1    1    2    0    0  0.90546965379E+01  0.22548546618E+02  0.32599723063E+02  0.40659149373E+02  0.00000000000E+00 0.  1.
         11    1    3    3    0    0  0.16357830967E+01 -0.74710914046E+01 -0.34960370707E+01  0.84092370983E+01  0.51100000000E-03 0.  1.
        -11    1    3    3    0    0 -0.10438053159E+02  0.12590450256E+01 -0.21840803052E+02  0.24239612752E+02  0.51100000000E-03 0. -1.
         12    1    3    3    0    0 -0.25242647601E+00 -0.16336500239E+02 -0.72628829400E+01  0.17880000777E+02  0.00000000000E+00 0. -1.
</event>
<event>
 7    1  0.3129575E-011  0.5052886E+02  0.7816164E-02  0.1300439E+00
        -11   -1    0    0    0    0  0.00000000000E+00  0.00000000000E+00  0.45593999997E+02  0.45594000000E+02  0.51100000000E-03 0. -1.
         11   -1    0    0    0    0 -0.00000000000E+00 -0.00000000000E+00 -0.45593999997E+02  0.45594000000E+02  0.51100000000E-03 0.  1.
    9900012    2    1    2    0    0  0.97165208326E+01  0.39449703670E+02 -0.15735113137E+01  0.50528857921E+02  0.29999994137E+02 0.  0.
        -12    1    1    2    0    0 -0.97165208326E+01 -0.39449703670E+02  0.15735113137E+01  0.40659142079E+02  0.00000000000E+00 0.  1.
         11    1    3    3    0    0 -0.23891911480E+00  0.14268834182E+02 -0.52111902658E+01  0.15192538152E+02  0.51100000000E-03 0. -1.
        -11    1    3    3    0    0  0.13716716487E+02  0.56049467266E+01 -0.10624202043E+01  0.14855721994E+02  0.51100000000E-03 0.  1.
         12    1    3    3    0    0 -0.37612765398E+01  0.19575922761E+02  0.47000991563E+01  0.20480597776E+02  0.00000000000E+00 0. -1.
</event>
<event>
 7    1  0.3129575E-011  0.5052886E+02  0.7816164E-02  0.1300439E+00
        -11   -1    0    0    0    0  0.00000000000E+00  0.00000000000E+00  0.45593999997E+02  0.45594000000E+02  0.51100000000E-03 0.  1.
         11   -1    0    0    0    0 -0.00000000000E+00 -0.00000000000E+00 -0.45593999997E+02  0.45594000000E+02  0.51100000000E-03 0. -1.
    9900012    2    1    2    0    0 -0.30568326261E+02 -0.26427737748E+02  0.45075085120E+01  0.50528861718E+02  0.30000005678E+02 0.  0.
        -12    1    1    2    0    0  0.30568326261E+02  0.26427737748E+02 -0.45075085120E+01  0.40659138282E+02  0.00000000000E+00 0.  1.
         11    1    3    3    0    0 -0.18865800054E+02 -0.12089516840E+02  0.98570508969E+01  0.24479303130E+02  0.51100000000E-03 0. -1.
        -11    1    3    3    0    0  0.34024501110E+01 -0.11687663283E+01  0.26539826003E+01  0.44706045891E+01  0.51100000000E-03 0.  1.
        -12    1    3    3    0    0 -0.15104976318E+02 -0.13169454579E+02 -0.80035249852E+01  0.21578953999E+02  0.00000000000E+00 0.  1.
</event>
<event>
 7    1  0.3129575E-011  0.5052886E+02  0.7816164E-02  0.1300439E+00
        -11   -1    0    0    0    0  0.00000000000E+00  0.00000000000E+00  0.45593999997E+02  0.45594000000E+02  0.51100000000E-03 0.  1.
         11   -1    0    0    0    0 -0.00000000000E+00 -0.00000000000E+00 -0.45593999997E+02  0.45594000000E+02  0.51100000000E-03 0. -1.
    9900012    2    1    2    0    0 -0.25155727480E+02 -0.22284554990E+02 -0.22885671542E+02  0.50528856157E+02  0.29999988775E+02 0.  0.
        -12    1    1    2    0    0  0.25155727480E+02  0.22284554990E+02  0.22885671542E+02  0.40659143843E+02  0.00000000000E+00 0.  1.
         11    1    3    3    0    0 -0.38515959341E+01 -0.12251835818E+02 -0.15304008667E+02  0.19978862673E+02  0.51100000000E-03 0. -1.
        -11    1    3    3    0    0 -0.15274944254E+01 -0.90282609282E+01  0.48142432526E+00  0.91692150291E+01  0.51100000000E-03 0.  1.
        -12    1    3    3    0    0 -0.19776637120E+02 -0.10044582435E+01 -0.80630871999E+01  0.21380778455E+02  0.00000000000E+00 0.  1.
</event>
<event>
 7    1  0.3129575E-011  0.5052884E+02  0.7816164E-02  0.1300439E+00
        -11   -1    0    0    0    0  0.00000000000E+00  0.00000000000E+00  0.45593999997E+02  0.45594000000E+02  0.51100000000E-03 0.  1.
         11   -1    0    0    0    0 -0.00000000000E+00 -0.00000000000E+00 -0.45593999997E+02  0.45594000000E+02  0.51100000000E-03 0. -1.
    9900012    2    1    2    0    0 -0.10848345168E+02 -0.86599528412E+01 -0.38216308614E+02  0.50528835963E+02  0.29999927393E+02 0.  0.
        -12    1    1    2    0    0  0.10848345168E+02  0.86599528412E+01  0.38216308614E+02  0.40659164037E+02  0.00000000000E+00 0.  1.
         11    1    3    3    0    0 -0.56644237881E+01 -0.21124925057E-01 -0.15302077120E+01  0.58675104616E+01  0.51100000000E-03 0. -1.
        -11    1    3    3    0    0  0.49536370282E+01 -0.29612378756E+00  0.72334392438E+00  0.50149213154E+01  0.51100000000E-03 0.  1.
         12    1    3    3    0    0 -0.10137558408E+02 -0.83427041286E+01 -0.37409444827E+02  0.39646404186E+02  0.00000000000E+00 0. -1.
</event>
<event>
 7    1  0.3129575E-011  0.5052886E+02  0.7816164E-02  0.1300439E+00
        -11   -1    0    0    0    0  0.00000000000E+00  0.00000000000E+00  0.45593999997E+02  0.45594000000E+02  0.51100000000E-03 0.  1.
         11   -1    0    0    0    0 -0.00000000000E+00 -0.00000000000E+00 -0.45593999997E+02  0.45594000000E+02  0.51100000000E-03 0. -1.
    9900012    2    1    2    0    0  0.19217458659E+02 -0.22670164450E+02 -0.27747405546E+02  0.50528860953E+02  0.30000003353E+02 0.  0.
        -12    1    1    2    0    0 -0.19217458659E+02  0.22670164450E+02  0.27747405546E+02  0.40659139047E+02  0.00000000000E+00 0.  1.
         11    1    3    3    0    0 -0.27978746792E+01 -0.16119285192E+02 -0.14589050277E+02  0.21920306706E+02  0.51100000000E-03 0. -1.
        -11    1    3    3    0    0  0.20194102948E+01 -0.26619280094E+01  0.13456285858E+01  0.36020265432E+01  0.51100000000E-03 0.  1.
        -12    1    3    3    0    0  0.19995923043E+02 -0.38889512492E+01 -0.14503983854E+02  0.25006527704E+02  0.00000000000E+00 0.  1.
</event>
<event>
 7    1  0.3129575E-011  0.5052886E+02  0.7816164E-02  0.1300439E+00
        -11   -1    0    0    0    0  0.00000000000E+00  0.00000000000E+00  0.45593999997E+02  0.45594000000E+02  0.51100000000E-03 0.  1.
         11   -1    0    0    0    0 -0.00000000000E+00 -0.00000000000E+00 -0.45593999997E+02  0.45594000000E+02  0.51100000000E-03 0. -1.
    9900012    2    1    2    0    0  0.17175477477E+02  0.95700405294E+01 -0.35589089829E+02  0.50528855676E+02  0.29999987312E+02 0.  0.
        -12    1    1    2    0    0 -0.17175477477E+02 -0.95700405294E+01  0.35589089829E+02  0.40659144324E+02  0.00000000000E+00 0.  1.
         11    1    3    3    0    0  0.60560600780E+01  0.11507286999E+02 -0.17629009578E+02  0.21906060730E+02  0.51100000000E-03 0. -1.
        -11    1    3    3    0    0  0.76645576324E+01  0.65337440860E+01 -0.20620036358E+01  0.10280423860E+02  0.51100000000E-03 0.  1.
         12    1    3    3    0    0  0.34548597667E+01 -0.84709905551E+01 -0.15898076615E+02  0.18342371086E+02  0.00000000000E+00 0. -1.
</event>
<event>
 7    1  0.3129575E-011  0.5052885E+02  0.7816164E-02  0.1300439E+00
        -11   -1    0    0    0    0  0.00000000000E+00  0.00000000000E+00  0.45593999997E+02  0.45594000000E+02  0.51100000000E-03 0. -1.
         11   -1    0    0    0    0 -0.00000000000E+00 -0.00000000000E+00 -0.45593999997E+02  0.45594000000E+02  0.51100000000E-03 0.  1.
    9900012    2    1    2    0    0 -0.36018578889E+02  0.81482836014E+01 -0.17012758198E+02  0.50528849833E+02  0.29999969552E+02 0.  0.
        -12    1    1    2    0    0  0.36018578889E+02 -0.81482836014E+01  0.17012758198E+02  0.40659150167E+02  0.00000000000E+00 0.  1.
         11    1    3    3    0    0 -0.22934804871E+02  0.11543158496E+01 -0.11633707090E+02  0.25742588457E+02  0.51100000000E-03 0. -1.
        -11    1    3    3    0    0 -0.61279638582E+01 -0.65489202238E+01 -0.21459319136E+01  0.92220020161E+01  0.51100000000E-03 0.  1.
        -12    1    3    3    0    0 -0.69558101599E+01  0.13542887976E+02 -0.32331191948E+01  0.15564259360E+02  0.00000000000E+00 0.  1.
</event>
<event>
 7    1  0.3129575E-011  0.5052886E+02  0.7816164E-02  0.1300439E+00
        -11   -1    0    0    0    0  0.00000000000E+00  0.00000000000E+00  0.45593999997E+02  0.45594000000E+02  0.51100000000E-03 0.  1.
         11   -1    0    0    0    0 -0.00000000000E+00 -0.00000000000E+00 -0.45593999997E+02  0.45594000000E+02  0.51100000000E-03 0. -1.
    9900012    2    1    2    0    0 -0.14478709215E+01  0.33461609859E+02 -0.23051896377E+02  0.50528860915E+02  0.30000003238E+02 0.  0.
        -12    1    1    2    0    0  0.14478709215E+01 -0.33461609859E+02  0.23051896377E+02  0.40659139085E+02  0.00000000000E+00 0.  1.
         11    1    3    3    0    0 -0.12628659912E+01  0.18375461135E+02 -0.39283367625E+01  0.18833062215E+02  0.51100000000E-03 0. -1.
        -11    1    3    3    0    0 -0.83712141143E+01  0.28139837201E+01 -0.19280138300E+01  0.90395225380E+01  0.51100000000E-03 0.  1.
         12    1    3    3    0    0  0.81862091840E+01  0.12272165004E+02 -0.17195545785E+02  0.22656276162E+02  0.00000000000E+00 0. -1.
</event>
<event>
 7    1  0.3129575E-011  0.5052886E+02  0.7816164E-02  0.1300439E+00
        -11   -1    0    0    0    0  0.00000000000E+00  0.00000000000E+00  0.45593999997E+02  0.45594000000E+02  0.51100000000E-03 0. -1.
         11   -1    0    0    0    0 -0.00000000000E+00 -0.00000000000E+00 -0.45593999997E+02  0.45594000000E+02  0.51100000000E-03 0.  1.
    9900012    2    1    2    0    0 -0.25043971236E+01  0.12402183664E+02  0.38640381963E+02  0.50528864706E+02  0.30000014762E+02 0.  0.
        -12    1    1    2    0    0  0.25043971236E+01 -0.12402183664E+02 -0.38640381963E+02  0.40659135294E+02  0.00000000000E+00 0.  1.
         11    1    3    3    0    0 -0.96573309678E+01  0.60690778829E+01  0.26850910394E+02  0.29173089261E+02  0.51100000000E-03 0. -1.
        -11    1    3    3    0    0 -0.24739496633E+01  0.13515191438E+00  0.93190241634E+01  0.96427643649E+01  0.51100000000E-03 0.  1.
        -12    1    3    3    0    0  0.96268835075E+01  0.61979538666E+01  0.24704474056E+01  0.11713011081E+02  0.00000000000E+00 0.  1.
</event>
<event>
 7    1  0.3129575E-011  0.5052880E+02  0.7816164E-02  0.1300439E+00
        -11   -1    0    0    0    0  0.00000000000E+00  0.00000000000E+00  0.45593999997E+02  0.45594000000E+02  0.51100000000E-03 0. -1.
         11   -1    0    0    0    0 -0.00000000000E+00 -0.00000000000E+00 -0.45593999997E+02  0.45594000000E+02  0.51100000000E-03 0.  1.
    9900012    2    1    2    0    0  0.37949004082E+02 -0.65874230068E+01  0.13024947999E+02  0.50528802725E+02  0.29999826362E+02 0.  0.
        -12    1    1    2    0    0 -0.37949004082E+02  0.65874230068E+01 -0.13024947999E+02  0.40659197275E+02  0.00000000000E+00 0.  1.
         11    1    3    3    0    0 -0.36365004908E+00  0.79004142172E+00 -0.31528226741E+01  0.32705806643E+01  0.51100000000E-03 0. -1.
        -11    1    3    3    0    0  0.88883444135E+01 -0.65052818719E+01 -0.38341949891E+01  0.11662864576E+02  0.51100000000E-03 0.  1.
         12    1    3    3    0    0  0.29424309718E+02 -0.87218255664E+00  0.20011965662E+02  0.35595357484E+02  0.00000000000E+00 0. -1.
</event>
<event>
 7    1  0.3129575E-011  0.5052884E+02  0.7816164E-02  0.1300439E+00
        -11   -1    0    0    0    0  0.00000000000E+00  0.00000000000E+00  0.45593999997E+02  0.45594000000E+02  0.51100000000E-03 0.  1.
         11   -1    0    0    0    0 -0.00000000000E+00 -0.00000000000E+00 -0.45593999997E+02  0.45594000000E+02  0.51100000000E-03 0. -1.
    9900012    2    1    2    0    0 -0.13724104939E+02 -0.30904375114E+02 -0.22577326520E+02  0.50528841987E+02  0.29999945704E+02 0.  0.
        -12    1    1    2    0    0  0.13724104939E+02  0.30904375114E+02  0.22577326520E+02  0.40659158013E+02  0.00000000000E+00 0.  1.
         11    1    3    3    0    0 -0.46015774786E+01 -0.14039043966E+02 -0.69064593388E+01  0.16308539224E+02  0.51100000000E-03 0. -1.
        -11    1    3    3    0    0 -0.16689389548E+02 -0.12592887462E+02 -0.14519783544E+02  0.25454678401E+02  0.51100000000E-03 0.  1.
        -12    1    3    3    0    0  0.75668620878E+01 -0.42724436864E+01 -0.11510836372E+01  0.87656243616E+01  0.00000000000E+00 0.  1.
</event>
<event>
 7    1  0.3129575E-011  0.5052886E+02  0.7816164E-02  0.1300439E+00
        -11   -1    0    0    0    0  0.00000000000E+00  0.00000000000E+00  0.45593999997E+02  0.45594000000E+02  0.51100000000E-03 0.  1.
         11   -1    0    0    0    0 -0.00000000000E+00 -0.00000000000E+00 -0.45593999997E+02  0.45594000000E+02  0.51100000000E-03 0. -1.
    9900012    2    1    2    0    0  0.24993424717E+02 -0.30364898043E+02 -0.10318317240E+02  0.50528856097E+02  0.29999988593E+02 0.  0.
        -12    1    1    2    0    0 -0.24993424717E+02  0.30364898043E+02  0.10318317240E+02  0.40659143903E+02  0.00000000000E+00 0.  1.
         11    1    3    3    0    0 -0.33334890312E+00 -0.21414597190E+02 -0.37310034278E+01  0.21739744274E+02  0.51100000000E-03 0. -1.
        -11    1    3    3    0    0  0.12655917030E+02 -0.86343873710E+01 -0.42652076626E+01  0.15903360582E+02  0.51100000000E-03 0.  1.
        -12    1    3    3    0    0  0.12670856591E+02 -0.31591348245E+00 -0.23221061500E+01  0.12885751241E+02  0.00000000000E+00 0.  1.
</event>
<event>
 7    1  0.3129575E-011  0.5052886E+02  0.7816164E-02  0.1300439E+00
        -11   -1    0    0    0    0  0.00000000000E+00  0.00000000000E+00  0.45593999997E+02  0.45594000000E+02  0.51100000000E-03 0.  1.
         11   -1    0    0    0    0 -0.00000000000E+00 -0.00000000000E+00 -0.45593999997E+02  0.45594000000E+02  0.51100000000E-03 0. -1.
    9900012    2    1    2    0    0 -0.31305152613E+01  0.28330706789E+02 -0.28995460266E+02  0.50528858482E+02  0.29999995841E+02 0.  0.
        -12    1    1    2    0    0  0.31305152613E+01 -0.28330706789E+02  0.28995460266E+02  0.40659141518E+02  0.00000000000E+00 0.  1.
         11    1    3    3    0    0 -0.50214664017E+01 -0.17716106710E+01 -0.69456708040E+01  0.87519182110E+01  0.51100000000E-03 0. -1.
        -11    1    3    3    0    0 -0.40451938700E+01  0.19782533659E+02 -0.22013641635E+02  0.29871602731E+02  0.51100000000E-03 0.  1.
        -12    1    3    3    0    0  0.59361450104E+01  0.10319783801E+02 -0.36147827323E-01  0.11905337540E+02  0.00000000000E+00 0.  1.
</event>
<event>
 7    1  0.3129575E-011  0.5052888E+02  0.7816164E-02  0.1300439E+00
        -11   -1    0    0    0    0  0.00000000000E+00  0.00000000000E+00  0.45593999997E+02  0.45594000000E+02  0.51100000000E-03 0. -1.
         11   -1    0    0    0    0 -0.00000000000E+00 -0.00000000000E+00 -0.45593999997E+02  0.45594000000E+02  0.51100000000E-03 0.  1.
    9900012    2    1    2    0    0  0.33320714785E+02 -0.11185633894E+02  0.20439562634E+02  0.50528878513E+02  0.30000056730E+02 0.  0.
        -12    1    1    2    0    0 -0.33320714785E+02  0.11185633894E+02 -0.20439562634E+02  0.40659121487E+02  0.00000000000E+00 0.  1.
         11    1    3    3    0    0  0.60413975824E+01 -0.80071934963E+01 -0.17007372962E+01  0.10173796737E+02  0.51100000000E-03 0. -1.
        -11    1    3    3    0    0  0.24052547391E+01  0.55074751150E+01  0.10925381194E+00  0.60107794136E+01  0.51100000000E-03 0.  1.
         12    1    3    3    0    0  0.24874062463E+02 -0.86859155130E+01  0.22031046118E+02  0.34344302363E+02  0.00000000000E+00 0. -1.
</event>
<event>
 7    1  0.3129575E-011  0.5052885E+02  0.7816164E-02  0.1300439E+00
        -11   -1    0    0    0    0  0.00000000000E+00  0.00000000000E+00  0.45593999997E+02  0.45594000000E+02  0.51100000000E-03 0.  1.
         11   -1    0    0    0    0 -0.00000000000E+00 -0.00000000000E+00 -0.45593999997E+02  0.45594000000E+02  0.51100000000E-03 0. -1.
    9900012    2    1    2    0    0 -0.18495710222E+02  0.13497000705E+02 -0.33599199550E+02  0.50528849307E+02  0.29999967955E+02 0.  0.
        -12    1    1    2    0    0  0.18495710222E+02 -0.13497000705E+02  0.33599199550E+02  0.40659150693E+02  0.00000000000E+00 0.  1.
         11    1    3    3    0    0 -0.92483863834E+01  0.12240385807E+02 -0.10105809491E+02  0.18370821460E+02  0.51100000000E-03 0. -1.
        -11    1    3    3    0    0 -0.58186408876E+01  0.17631308469E+01 -0.26731889844E+02  0.27414579097E+02  0.51100000000E-03 0.  1.
         12    1    3    3    0    0 -0.34286829510E+01 -0.50651594909E+00  0.32384997851E+01  0.47434487499E+01  0.00000000000E+00 0. -1.
</event>
<event>
 7    1  0.3129575E-011  0.5052886E+02  0.7816164E-02  0.1300439E+00
        -11   -1    0    0    0    0  0.00000000000E+00  0.00000000000E+00  0.45593999997E+02  0.45594000000E+02  0.51100000000E-03 0. -1.
         11   -1    0    0    0    0 -0.00000000000E+00 -0.00000000000E+00 -0.45593999997E+02  0.45594000000E+02  0.51100000000E-03 0.  1.
    9900012    2    1    2    0    0 -0.31536680992E+01 -0.29069376234E+02  0.28252279840E+02  0.50528861135E+02  0.30000003905E+02 0.  0.
        -12    1    1    2    0    0  0.31536680992E+01  0.29069376234E+02 -0.28252279840E+02  0.40659138865E+02  0.00000000000E+00 0.  1.
         11    1    3    3    0    0 -0.69818864029E+01 -0.69529409631E+01  0.10928394925E+02  0.14714616600E+02  0.51100000000E-03 0. -1.
        -11    1    3    3    0    0  0.22636604731E+01 -0.26541259950E+02  0.14332346988E+02  0.30248616644E+02  0.51100000000E-03 0.  1.
         12    1    3    3    0    0  0.15645578306E+01  0.44248246789E+01  0.29915379267E+01  0.55656278901E+01  0.00000000000E+00 0. -1.
</event>
<event>
 7    1  0.3129575E-011  0.5052884E+02  0.7816164E-02  0.1300439E+00
        -11   -1    0    0    0    0  0.00000000000E+00  0.00000000000E+00  0.45593999997E+02  0.45594000000E+02  0.51100000000E-03 0.  1.
         11   -1    0    0    0    0 -0.00000000000E+00 -0.00000000000E+00 -0.45593999997E+02  0.45594000000E+02  0.51100000000E-03 0. -1.
    9900012    2    1    2    0    0  0.30918873015E+02 -0.25854783460E+02  0.53591841647E+01  0.50528838779E+02  0.29999935953E+02 0.  0.
        -12    1    1    2    0    0 -0.30918873015E+02  0.25854783460E+02 -0.53591841647E+01  0.40659161221E+02  0.00000000000E+00 0.  1.
         11    1    3    3    0    0  0.10134395264E+02 -0.11583890191E+02 -0.40542161144E+01  0.15916317033E+02  0.51100000000E-03 0. -1.
        -11    1    3    3    0    0 -0.32312678758E+01 -0.17487744549E+01  0.63754483661E+01  0.73583725313E+01  0.51100000000E-03 0.  1.
         12    1    3    3    0    0  0.24015745627E+02 -0.12522118814E+02  0.30379519130E+01  0.27254149215E+02  0.00000000000E+00 0. -1.
</event>
<event>
 7    1  0.3129575E-011  0.5052887E+02  0.7816164E-02  0.1300439E+00
        -11   -1    0    0    0    0  0.00000000000E+00  0.00000000000E+00  0.45593999997E+02  0.45594000000E+02  0.51100000000E-03 0.  1.
         11   -1    0    0    0    0 -0.00000000000E+00 -0.00000000000E+00 -0.45593999997E+02  0.45594000000E+02  0.51100000000E-03 0. -1.
    9900012    2    1    2    0    0  0.24905956348E+02 -0.30008784980E+02 -0.11503520718E+02  0.50528870318E+02  0.30000031818E+02 0.  0.
        -12    1    1    2    0    0 -0.24905956348E+02  0.30008784980E+02  0.11503520718E+02  0.40659129682E+02  0.00000000000E+00 0.  1.
         11    1    3    3    0    0  0.12852658287E+02 -0.12929984918E+02 -0.14110164210E+02  0.23053678000E+02  0.51100000000E-03 0. -1.
        -11    1    3    3    0    0 -0.42306958296E+01 -0.14006106879E+01 -0.10450368212E+01  0.45774009788E+01  0.51100000000E-03 0.  1.
        -12    1    3    3    0    0  0.16283993891E+02 -0.15678189374E+02  0.36516803139E+01  0.22897791339E+02  0.00000000000E+00 0.  1.
</event>
<event>
 7    1  0.3129575E-011  0.5052886E+02  0.7816164E-02  0.1300439E+00
        -11   -1    0    0    0    0  0.00000000000E+00  0.00000000000E+00  0.45593999997E+02  0.45594000000E+02  0.51100000000E-03 0. -1.
         11   -1    0    0    0    0 -0.00000000000E+00 -0.00000000000E+00 -0.45593999997E+02  0.45594000000E+02  0.51100000000E-03 0.  1.
    9900012    2    1    2    0    0  0.29908248881E+02  0.20916941101E+02 -0.17920488528E+02  0.50528859757E+02  0.29999999719E+02 0.  0.
        -12    1    1    2    0    0 -0.29908248881E+02 -0.20916941101E+02  0.17920488528E+02  0.40659140243E+02  0.00000000000E+00 0.  1.
         11    1    3    3    0    0  0.17462228233E+02  0.16762257663E+02 -0.80424814398E+01  0.25506552194E+02  0.51100000000E-03 0. -1.
        -11    1    3    3    0    0  0.75578358838E+01  0.85662574928E+01 -0.13356439136E+02  0.17575440744E+02  0.51100000000E-03 0.  1.
        -12    1    3    3    0    0  0.48881847638E+01 -0.44115740545E+01  0.34784320477E+01  0.74468668199E+01  0.00000000000E+00 0.  1.
</event>
<event>
 7    1  0.3129575E-011  0.5052888E+02  0.7816164E-02  0.1300439E+00
        -11   -1    0    0    0    0  0.00000000000E+00  0.00000000000E+00  0.45593999997E+02  0.45594000000E+02  0.51100000000E-03 0. -1.
         11   -1    0    0    0    0 -0.00000000000E+00 -0.00000000000E+00 -0.45593999997E+02  0.45594000000E+02  0.51100000000E-03 0.  1.
    9900012    2    1    2    0    0 -0.26421847285E+02 -0.19760927447E+02  0.23760374797E+02  0.50528884441E+02  0.30000074748E+02 0.  0.
        -12    1    1    2    0    0  0.26421847285E+02  0.19760927447E+02 -0.23760374797E+02  0.40659115559E+02  0.00000000000E+00 0.  1.
         11    1    3    3    0    0 -0.18548269637E+01  0.34233728502E+01 -0.13591834000E+01  0.41239840582E+01  0.51100000000E-03 0. -1.
        -11    1    3    3    0    0 -0.90478169464E+01 -0.18042644899E+02  0.56067035586E+01  0.20948392576E+02  0.51100000000E-03 0.  1.
         12    1    3    3    0    0 -0.15519203375E+02 -0.51416553984E+01  0.19512854638E+02  0.25456507808E+02  0.00000000000E+00 0. -1.
</event>
<event>
 7    1  0.3129575E-011  0.5052886E+02  0.7816164E-02  0.1300439E+00
        -11   -1    0    0    0    0  0.00000000000E+00  0.00000000000E+00  0.45593999997E+02  0.45594000000E+02  0.51100000000E-03 0.  1.
         11   -1    0    0    0    0 -0.00000000000E+00 -0.00000000000E+00 -0.45593999997E+02  0.45594000000E+02  0.51100000000E-03 0. -1.
    9900012    2    1    2    0    0  0.70991354679E+01 -0.47424910455E+01 -0.39752691685E+02  0.50528862750E+02  0.30000008815E+02 0.  0.
        -12    1    1    2    0    0 -0.70991354679E+01  0.47424910455E+01  0.39752691685E+02  0.40659137250E+02  0.00000000000E+00 0.  1.
         11    1    3    3    0    0  0.99429202990E+01 -0.38181158185E+01 -0.19054131713E+02  0.21828870976E+02  0.51100000000E-03 0. -1.
        -11    1    3    3    0    0  0.17348125975E+01 -0.83166561977E+01 -0.30516935740E+01  0.90271357024E+01  0.51100000000E-03 0.  1.
         12    1    3    3    0    0 -0.45785974286E+01  0.73922809706E+01 -0.17646866398E+02  0.19672856072E+02  0.00000000000E+00 0. -1.
</event>
<event>
 7    1  0.3129575E-011  0.5052887E+02  0.7816164E-02  0.1300439E+00
        -11   -1    0    0    0    0  0.00000000000E+00  0.00000000000E+00  0.45593999997E+02  0.45594000000E+02  0.51100000000E-03 0.  1.
         11   -1    0    0    0    0 -0.00000000000E+00 -0.00000000000E+00 -0.45593999997E+02  0.45594000000E+02  0.51100000000E-03 0. -1.
    9900012    2    1    2    0    0  0.33869421238E+02 -0.20382622775E+02  0.95171423749E+01  0.50528868121E+02  0.30000025140E+02 0.  0.
        -12    1    1    2    0    0 -0.33869421238E+02  0.20382622775E+02 -0.95171423749E+01  0.40659131879E+02  0.00000000000E+00 0.  1.
         11    1    3    3    0    0  0.16798596871E+02 -0.81049586415E+00  0.36024483522E+01  0.17199633565E+02  0.51100000000E-03 0. -1.
        -11    1    3    3    0    0 -0.34566878735E+01 -0.36851379914E+00 -0.21475889323E+01  0.40861512402E+01  0.51100000000E-03 0.  1.
         12    1    3    3    0    0  0.20527512240E+02 -0.19203613112E+02  0.80622829550E+01  0.29243083315E+02  0.00000000000E+00 0. -1.
</event>
<event>
 7    1  0.3129575E-011  0.5052886E+02  0.7816164E-02  0.1300439E+00
        -11   -1    0    0    0    0  0.00000000000E+00  0.00000000000E+00  0.45593999997E+02  0.45594000000E+02  0.51100000000E-03 0. -1.
         11   -1    0    0    0    0 -0.00000000000E+00 -0.00000000000E+00 -0.45593999997E+02  0.45594000000E+02  0.51100000000E-03 0.  1.
    9900012    2    1    2    0    0  0.39758380430E+02 -0.84951317844E+01  0.51909676948E+00  0.50528861545E+02  0.30000005152E+02 0.  0.
        -12    1    1    2    0    0 -0.39758380430E+02  0.84951317844E+01 -0.51909676948E+00  0.40659138455E+02  0.00000000000E+00 0.  1.
         11    1    3    3    0    0  0.22683145315E+02 -0.36015996980E+01  0.20908087669E+01  0.23062265356E+02  0.51100000000E-03 0. -1.
        -11    1    3    3    0    0  0.14507883118E+02  0.59717737253E+01  0.18302849030E+01  0.15795274518E+02  0.51100000000E-03 0.  1.
        -12    1    3    3    0    0  0.25673519967E+01 -0.10865305812E+02 -0.34019969004E+01  0.11671321672E+02  0.00000000000E+00 0.  1.
</event>
<event>
 7    1  0.3129575E-011  0.5052886E+02  0.7816164E-02  0.1300439E+00
        -11   -1    0    0    0    0  0.00000000000E+00  0.00000000000E+00  0.45593999997E+02  0.45594000000E+02  0.51100000000E-03 0.  1.
         11   -1    0    0    0    0 -0.00000000000E+00 -0.00000000000E+00 -0.45593999997E+02  0.45594000000E+02  0.51100000000E-03 0. -1.
    9900012    2    1    2    0    0 -0.29450538457E+02  0.22403963909E+02 -0.16849149978E+02  0.50528859954E+02  0.30000000317E+02 0.  0.
        -12    1    1    2    0    0  0.29450538457E+02 -0.22403963909E+02  0.16849149978E+02  0.40659140046E+02  0.00000000000E+00 0.  1.
         11    1    3    3    0    0 -0.45284993365E+01  0.14246042310E+02 -0.17222460431E+02  0.22805047057E+02  0.51100000000E-03 0. -1.
        -11    1    3    3    0    0 -0.18189743489E+02  0.96439967898E+01 -0.13003525221E+01  0.20629211309E+02  0.51100000000E-03 0.  1.
        -12    1    3    3    0    0 -0.67322956315E+01 -0.14860751905E+01  0.16736629746E+01  0.70946015882E+01  0.00000000000E+00 0.  1.
</event>
<event>
 7    1  0.3129575E-011  0.5052887E+02  0.7816164E-02  0.1300439E+00
        -11   -1    0    0    0    0  0.00000000000E+00  0.00000000000E+00  0.45593999997E+02  0.45594000000E+02  0.51100000000E-03 0.  1.
         11   -1    0    0    0    0 -0.00000000000E+00 -0.00000000000E+00 -0.45593999997E+02  0.45594000000E+02  0.51100000000E-03 0. -1.
    9900012    2    1    2    0    0 -0.33309590092E+02 -0.55685674632E+01 -0.22641266167E+02  0.50528872251E+02  0.30000037694E+02 0.  0.
        -12    1    1    2    0    0  0.33309590092E+02  0.55685674632E+01  0.22641266167E+02  0.40659127749E+02  0.00000000000E+00 0.  1.
         11    1    3    3    0    0 -0.30612834303E+01  0.22389869786E+01  0.49456901834E+01  0.62325252172E+01  0.51100000000E-03 0.  1.
        -11    1    3    3    0    0 -0.11304393663E+02  0.39274074185E+01 -0.12962317563E+02  0.17641868438E+02  0.51100000000E-03 0. -1.
        -12    1    3    3    0    0 -0.18943912999E+02 -0.11734961860E+02 -0.14624638787E+02  0.26654478596E+02  0.00000000000E+00 0.  1.
</event>
<event>
 7    1  0.3129575E-011  0.5052886E+02  0.7816164E-02  0.1300439E+00
        -11   -1    0    0    0    0  0.00000000000E+00  0.00000000000E+00  0.45593999997E+02  0.45594000000E+02  0.51100000000E-03 0.  1.
         11   -1    0    0    0    0 -0.00000000000E+00 -0.00000000000E+00 -0.45593999997E+02  0.45594000000E+02  0.51100000000E-03 0. -1.
    9900012    2    1    2    0    0  0.31615584447E+02 -0.23030181701E+02 -0.11100950046E+02  0.50528861531E+02  0.30000005110E+02 0.  0.
        -12    1    1    2    0    0 -0.31615584447E+02  0.23030181701E+02  0.11100950046E+02  0.40659138469E+02  0.00000000000E+00 0.  1.
         11    1    3    3    0    0  0.30447385333E+01  0.28653791674E+01 -0.46567259888E+01  0.62582687466E+01  0.51100000000E-03 0. -1.
        -11    1    3    3    0    0  0.82590765316E+01 -0.30616049172E+01 -0.10203520703E+02  0.13479525393E+02  0.51100000000E-03 0.  1.
        -12    1    3    3    0    0  0.20311769382E+02 -0.22833955951E+02  0.37592966463E+01  0.30791067391E+02  0.00000000000E+00 0.  1.
</event>
<event>
 7    1  0.3129575E-011  0.5052885E+02  0.7816164E-02  0.1300439E+00
        -11   -1    0    0    0    0  0.00000000000E+00  0.00000000000E+00  0.45593999997E+02  0.45594000000E+02  0.51100000000E-03 0.  1.
         11   -1    0    0    0    0 -0.00000000000E+00 -0.00000000000E+00 -0.45593999997E+02  0.45594000000E+02  0.51100000000E-03 0. -1.
    9900012    2    1    2    0    0  0.43754935932E+01 -0.18066828175E+01 -0.40382632939E+02  0.50528854779E+02  0.29999984588E+02 0.  0.
        -12    1    1    2    0    0 -0.43754935932E+01  0.18066828175E+01  0.40382632939E+02  0.40659145221E+02  0.00000000000E+00 0.  1.
         11    1    3    3    0    0 -0.33002730596E+01 -0.15737170996E+01 -0.30954870831E+02  0.31170056404E+02  0.51100000000E-03 0. -1.
        -11    1    3    3    0    0  0.72209147415E+01 -0.70208350270E+01 -0.62205677922E+01  0.11837617923E+02  0.51100000000E-03 0.  1.
        -12    1    3    3    0    0  0.45485191119E+00  0.67878693092E+01 -0.32071943154E+01  0.75211804523E+01  0.00000000000E+00 0.  1.
</event>
<event>
 7    1  0.3129575E-011  0.5052886E+02  0.7816164E-02  0.1300439E+00
        -11   -1    0    0    0    0  0.00000000000E+00  0.00000000000E+00  0.45593999997E+02  0.45594000000E+02  0.51100000000E-03 0.  1.
         11   -1    0    0    0    0 -0.00000000000E+00 -0.00000000000E+00 -0.45593999997E+02  0.45594000000E+02  0.51100000000E-03 0. -1.
    9900012    2    1    2    0    0  0.35807068105E+02  0.19237283267E+02 -0.97278998173E+00  0.50528861863E+02  0.30000006117E+02 0.  0.
        -12    1    1    2    0    0 -0.35807068105E+02 -0.19237283267E+02  0.97278998173E+00  0.40659138137E+02  0.00000000000E+00 0.  1.
         11    1    3    3    0    0  0.24873210255E+02  0.19763388150E+02  0.50364870989E+01  0.32165731798E+02  0.51100000000E-03 0. -1.
        -11    1    3    3    0    0 -0.12350436174E+01  0.32459189849E+01  0.12607173274E+01  0.36946895992E+01  0.51100000000E-03 0.  1.
        -12    1    3    3    0    0  0.12168901468E+02 -0.37720238685E+01 -0.72699944081E+01  0.14668440465E+02  0.00000000000E+00 0.  1.
</event>
<event>
 7    1  0.3129575E-011  0.5052886E+02  0.7816164E-02  0.1300439E+00
        -11   -1    0    0    0    0  0.00000000000E+00  0.00000000000E+00  0.45593999997E+02  0.45594000000E+02  0.51100000000E-03 0. -1.
         11   -1    0    0    0    0 -0.00000000000E+00 -0.00000000000E+00 -0.45593999997E+02  0.45594000000E+02  0.51100000000E-03 0.  1.
    9900012    2    1    2    0    0  0.13562836454E+02 -0.12015126166E+02  0.36398517198E+02  0.50528857810E+02  0.29999993798E+02 0.  0.
        -12    1    1    2    0    0 -0.13562836454E+02  0.12015126166E+02 -0.36398517198E+02  0.40659142190E+02  0.00000000000E+00 0.  1.
         11    1    3    3    0    0  0.12852835700E+02 -0.63099432375E+01  0.11534093762E+02  0.18386029706E+02  0.51100000000E-03 0. -1.
        -11    1    3    3    0    0  0.31201015571E+01 -0.63638686525E+00 -0.25998848271E+01  0.41108908213E+01  0.51100000000E-03 0.  1.
        -12    1    3    3    0    0 -0.24101008032E+01 -0.50687960634E+01  0.27464308263E+02  0.28031937282E+02  0.00000000000E+00 0.  1.
</event>
<event>
 7    1  0.3129575E-011  0.5052887E+02  0.7816164E-02  0.1300439E+00
        -11   -1    0    0    0    0  0.00000000000E+00  0.00000000000E+00  0.45593999997E+02  0.45594000000E+02  0.51100000000E-03 0.  1.
         11   -1    0    0    0    0 -0.00000000000E+00 -0.00000000000E+00 -0.45593999997E+02  0.45594000000E+02  0.51100000000E-03 0. -1.
    9900012    2    1    2    0    0  0.92544740284E+01  0.39572583368E+02  0.12371774347E+01  0.50528865086E+02  0.30000015915E+02 0.  0.
        -12    1    1    2    0    0 -0.92544740284E+01 -0.39572583368E+02 -0.12371774347E+01  0.40659134914E+02  0.00000000000E+00 0.  1.
         11    1    3    3    0    0  0.89092747820E+01  0.19680257687E+02 -0.52886566658E+01  0.22240899472E+02  0.51100000000E-03 0. -1.
        -11    1    3    3    0    0 -0.47271421961E+00  0.22982710142E+02  0.24643323644E+01  0.23119285423E+02  0.51100000000E-03 0.  1.
        -12    1    3    3    0    0  0.81791346594E+00 -0.30903844610E+01  0.40615017361E+01  0.51686801901E+01  0.00000000000E+00 0.  1.
</event>
<event>
 7    1  0.3129575E-011  0.5052887E+02  0.7816164E-02  0.1300439E+00
        -11   -1    0    0    0    0  0.00000000000E+00  0.00000000000E+00  0.45593999997E+02  0.45594000000E+02  0.51100000000E-03 0.  1.
         11   -1    0    0    0    0 -0.00000000000E+00 -0.00000000000E+00 -0.45593999997E+02  0.45594000000E+02  0.51100000000E-03 0. -1.
    9900012    2    1    2    0    0 -0.35931853430E+02 -0.18114497375E+02 -0.58251259534E+01  0.50528865744E+02  0.30000017916E+02 0.  0.
        -12    1    1    2    0    0  0.35931853430E+02  0.18114497375E+02  0.58251259534E+01  0.40659134256E+02  0.00000000000E+00 0.  1.
         11    1    3    3    0    0 -0.41150428286E+01 -0.85946016702E+01  0.41624915055E+01  0.10398417723E+02  0.51100000000E-03 0. -1.
        -11    1    3    3    0    0 -0.54182362686E+01  0.57850826308E+01  0.29070956993E+00  0.79315179898E+01  0.51100000000E-03 0.  1.
         12    1    3    3    0    0 -0.26398574333E+02 -0.15304978335E+02 -0.10278327029E+02  0.32198930031E+02  0.00000000000E+00 0. -1.
</event>
<event>
 7    1  0.3129575E-011  0.5052886E+02  0.7816164E-02  0.1300439E+00
        -11   -1    0    0    0    0  0.00000000000E+00  0.00000000000E+00  0.45593999997E+02  0.45594000000E+02  0.51100000000E-03 0. -1.
         11   -1    0    0    0    0 -0.00000000000E+00 -0.00000000000E+00 -0.45593999997E+02  0.45594000000E+02  0.51100000000E-03 0.  1.
    9900012    2    1    2    0    0  0.16423685464E+01  0.40148734039E+02 -0.62086748624E+01  0.50528857573E+02  0.29999993077E+02 0.  0.
        -12    1    1    2    0    0 -0.16423685464E+01 -0.40148734039E+02  0.62086748624E+01  0.40659142427E+02  0.00000000000E+00 0.  1.
         11    1    3    3    0    0  0.44610134087E+01  0.11325942248E+02  0.13802937102E+01  0.12250829337E+02  0.51100000000E-03 0. -1.
        -11    1    3    3    0    0 -0.22682867665E+01  0.41115711080E+01  0.78412412430E+01  0.91397596426E+01  0.51100000000E-03 0.  1.
        -12    1    3    3    0    0 -0.55035809579E+00  0.24711220683E+02 -0.15430209816E+02  0.29138268593E+02  0.00000000000E+00 0.  1.
</event>
<event>
 7    1  0.3129575E-011  0.5052885E+02  0.7816164E-02  0.1300439E+00
        -11   -1    0    0    0    0  0.00000000000E+00  0.00000000000E+00  0.45593999997E+02  0.45594000000E+02  0.51100000000E-03 0.  1.
         11   -1    0    0    0    0 -0.00000000000E+00 -0.00000000000E+00 -0.45593999997E+02  0.45594000000E+02  0.51100000000E-03 0. -1.
    9900012    2    1    2    0    0 -0.23826502905E+02 -0.58051659507E+01 -0.32430916921E+02  0.50528848942E+02  0.29999966844E+02 0.  0.
        -12    1    1    2    0    0  0.23826502905E+02  0.58051659507E+01  0.32430916921E+02  0.40659151058E+02  0.00000000000E+00 0.  1.
         11    1    3    3    0    0 -0.11199600941E+02 -0.32929859352E+01 -0.10643216614E+02  0.15797242727E+02  0.51100000000E-03 0. -1.
        -11    1    3    3    0    0 -0.10509876670E+01 -0.10364143092E+02 -0.17017650602E+02  0.19952956407E+02  0.51100000000E-03 0.  1.
        -12    1    3    3    0    0 -0.11575914297E+02  0.78519630766E+01 -0.47700497049E+01  0.14778649808E+02  0.00000000000E+00 0.  1.
</event>
<event>
 7    1  0.3129575E-011  0.5052887E+02  0.7816164E-02  0.1300439E+00
        -11   -1    0    0    0    0  0.00000000000E+00  0.00000000000E+00  0.45593999997E+02  0.45594000000E+02  0.51100000000E-03 0. -1.
         11   -1    0    0    0    0 -0.00000000000E+00 -0.00000000000E+00 -0.45593999997E+02  0.45594000000E+02  0.51100000000E-03 0.  1.
    9900012    2    1    2    0    0 -0.24458204809E+02  0.12329577578E+02  0.30049003559E+02  0.50528869652E+02  0.30000029795E+02 0.  0.
        -12    1    1    2    0    0  0.24458204809E+02 -0.12329577578E+02 -0.30049003559E+02  0.40659130348E+02  0.00000000000E+00 0.  1.
         11    1    3    3    0    0 -0.98519932397E+01  0.13534026698E+02  0.11091510187E+02  0.20081166499E+02  0.51100000000E-03 0. -1.
        -11    1    3    3    0    0 -0.41949399220E+01  0.35610261140E+01  0.18153836202E+02  0.18969454316E+02  0.51100000000E-03 0.  1.
        -12    1    3    3    0    0 -0.10411271647E+02 -0.47654752343E+01  0.80365717000E+00  0.11478248837E+02  0.00000000000E+00 0.  1.
</event>
<event>
 7    1  0.3129575E-011  0.5052886E+02  0.7816164E-02  0.1300439E+00
        -11   -1    0    0    0    0  0.00000000000E+00  0.00000000000E+00  0.45593999997E+02  0.45594000000E+02  0.51100000000E-03 0.  1.
         11   -1    0    0    0    0 -0.00000000000E+00 -0.00000000000E+00 -0.45593999997E+02  0.45594000000E+02  0.51100000000E-03 0. -1.
    9900012    2    1    2    0    0  0.23924933386E+02 -0.63342600595E+01 -0.32258963352E+02  0.50528855831E+02  0.29999987784E+02 0.  0.
        -12    1    1    2    0    0 -0.23924933386E+02  0.63342600595E+01  0.32258963352E+02  0.40659144169E+02  0.00000000000E+00 0.  1.
         11    1    3    3    0    0  0.15799878548E+01 -0.87720637252E+01 -0.90868204011E+01  0.12728541507E+02  0.51100000000E-03 0. -1.
        -11    1    3    3    0    0  0.95567522694E+01  0.10805596174E+02 -0.13189582421E+02  0.19546291396E+02  0.51100000000E-03 0.  1.
         12    1    3    3    0    0  0.12788193262E+02 -0.83677925085E+01 -0.99825605294E+01  0.18254022929E+02  0.00000000000E+00 0. -1.
</event>
<event>
 7    1  0.3129575E-011  0.5052886E+02  0.7816164E-02  0.1300439E+00
        -11   -1    0    0    0    0  0.00000000000E+00  0.00000000000E+00  0.45593999997E+02  0.45594000000E+02  0.51100000000E-03 0.  1.
         11   -1    0    0    0    0 -0.00000000000E+00 -0.00000000000E+00 -0.45593999997E+02  0.45594000000E+02  0.51100000000E-03 0. -1.
    9900012    2    1    2    0    0  0.35231938019E+01  0.26913734439E+02 -0.30272162226E+02  0.50528858323E+02  0.29999995360E+02 0.  0.
        -12    1    1    2    0    0 -0.35231938019E+01 -0.26913734439E+02  0.30272162226E+02  0.40659141677E+02  0.00000000000E+00 0.  1.
         11    1    3    3    0    0 -0.45732815888E+01  0.12390165512E+02 -0.52153392900E+01  0.14199678520E+02  0.51100000000E-03 0. -1.
        -11    1    3    3    0    0  0.28280506874E+01  0.18032969380E+02 -0.23596710186E+02  0.29832710021E+02  0.51100000000E-03 0.  1.
        -12    1    3    3    0    0  0.52684247034E+01 -0.35094004525E+01 -0.14601127507E+01  0.64964697826E+01  0.00000000000E+00 0.  1.
</event>
<event>
 7    1  0.3129575E-011  0.5052886E+02  0.7816164E-02  0.1300439E+00
        -11   -1    0    0    0    0  0.00000000000E+00  0.00000000000E+00  0.45593999997E+02  0.45594000000E+02  0.51100000000E-03 0.  1.
         11   -1    0    0    0    0 -0.00000000000E+00 -0.00000000000E+00 -0.45593999997E+02  0.45594000000E+02  0.51100000000E-03 0. -1.
    9900012    2    1    2    0    0  0.18293532635E+02  0.83435411389E+01 -0.35339742203E+02  0.50528863339E+02  0.30000010606E+02 0.  0.
        -12    1    1    2    0    0 -0.18293532635E+02 -0.83435411389E+01  0.35339742203E+02  0.40659136661E+02  0.00000000000E+00 0.  1.
         11    1    3    3    0    0  0.16269600136E+02  0.13409832059E+02 -0.12830309801E+02  0.24680768511E+02  0.51100000000E-03 0. -1.
        -11    1    3    3    0    0  0.39628047418E+01 -0.37562399145E+01 -0.30614436334E+01  0.62598400218E+01  0.51100000000E-03 0.  1.
         12    1    3    3    0    0 -0.19388722426E+01 -0.13100510061E+01 -0.19447988769E+02  0.19588254806E+02  0.00000000000E+00 0. -1.
</event>
<event>
 7    1  0.3129575E-011  0.5052887E+02  0.7816164E-02  0.1300439E+00
        -11   -1    0    0    0    0  0.00000000000E+00  0.00000000000E+00  0.45593999997E+02  0.45594000000E+02  0.51100000000E-03 0.  1.
         11   -1    0    0    0    0 -0.00000000000E+00 -0.00000000000E+00 -0.45593999997E+02  0.45594000000E+02  0.51100000000E-03 0. -1.
    9900012    2    1    2    0    0  0.36643054778E+01 -0.15838937245E+02 -0.37267493015E+02  0.50528866914E+02  0.30000021470E+02 0.  0.
        -12    1    1    2    0    0 -0.36643054778E+01  0.15838937245E+02  0.37267493015E+02  0.40659133086E+02  0.00000000000E+00 0.  1.
         11    1    3    3    0    0 -0.55301034531E+01 -0.93380318486E+01 -0.15792845646E+02  0.19162329109E+02  0.51100000000E-03 0. -1.
        -11    1    3    3    0    0  0.12022072909E+02 -0.11610302123E+02 -0.18038274508E+02  0.24590825523E+02  0.51100000000E-03 0.  1.
         12    1    3    3    0    0 -0.28276639783E+01  0.51093967264E+01 -0.34363728611E+01  0.67757122815E+01  0.00000000000E+00 0. -1.
</event>
<event>
 7    1  0.3129575E-011  0.5052887E+02  0.7816164E-02  0.1300439E+00
        -11   -1    0    0    0    0  0.00000000000E+00  0.00000000000E+00  0.45593999997E+02  0.45594000000E+02  0.51100000000E-03 0.  1.
         11   -1    0    0    0    0 -0.00000000000E+00 -0.00000000000E+00 -0.45593999997E+02  0.45594000000E+02  0.51100000000E-03 0. -1.
    9900012    2    1    2    0    0 -0.13096645507E+02 -0.21101983777E+02 -0.32192380791E+02  0.50528865432E+02  0.30000016968E+02 0.  0.
        -12    1    1    2    0    0  0.13096645507E+02  0.21101983777E+02  0.32192380791E+02  0.40659134568E+02  0.00000000000E+00 0.  1.
         11    1    3    3    0    0 -0.15028281301E+02 -0.10123985455E+02 -0.19511492424E+02  0.26627854913E+02  0.51100000000E-03 0. -1.
        -11    1    3    3    0    0  0.66055885255E+01 -0.53661118661E+01 -0.14092084748E+02  0.16462557795E+02  0.51100000000E-03 0.  1.
        -12    1    3    3    0    0 -0.46739527310E+01 -0.56118864551E+01  0.14111963815E+01  0.74384527251E+01  0.00000000000E+00 0.  1.
</event>
<event>
 7    1  0.3129575E-011  0.5052886E+02  0.7816164E-02  0.1300439E+00
        -11   -1    0    0    0    0  0.00000000000E+00  0.00000000000E+00  0.45593999997E+02  0.45594000000E+02  0.51100000000E-03 0. -1.
         11   -1    0    0    0    0 -0.00000000000E+00 -0.00000000000E+00 -0.45593999997E+02  0.45594000000E+02  0.51100000000E-03 0.  1.
    9900012    2    1    2    0    0  0.13766252888E+01 -0.34023733408E+02  0.22218375678E+02  0.50528858962E+02  0.29999997300E+02 0.  0.
        -12    1    1    2    0    0 -0.13766252888E+01  0.34023733408E+02 -0.22218375678E+02  0.40659141038E+02  0.00000000000E+00 0.  1.
         11    1    3    3    0    0 -0.10720757250E+02 -0.20563595760E+02  0.12346314049E+02  0.26272182579E+02  0.51100000000E-03 0. -1.
        -11    1    3    3    0    0  0.11626681375E+01  0.24836956312E+01  0.19416466503E+01  0.33601388605E+01  0.51100000000E-03 0.  1.
         12    1    3    3    0    0  0.10934714402E+02 -0.15943833279E+02  0.79304149788E+01  0.20896537522E+02  0.00000000000E+00 0. -1.
</event>
<event>
 7    1  0.3129575E-011  0.5052886E+02  0.7816164E-02  0.1300439E+00
        -11   -1    0    0    0    0  0.00000000000E+00  0.00000000000E+00  0.45593999997E+02  0.45594000000E+02  0.51100000000E-03 0. -1.
         11   -1    0    0    0    0 -0.00000000000E+00 -0.00000000000E+00 -0.45593999997E+02  0.45594000000E+02  0.51100000000E-03 0.  1.
    9900012    2    1    2    0    0 -0.58228338007E+01  0.22708863008E+02  0.33219990017E+02  0.50528860938E+02  0.30000003306E+02 0.  0.
        -12    1    1    2    0    0  0.58228338007E+01 -0.22708863008E+02 -0.33219990017E+02  0.40659139062E+02  0.00000000000E+00 0.  1.
         11    1    3    3    0    0  0.36143883098E+01  0.99014365384E+01  0.27180308077E+02  0.29152553847E+02  0.51100000000E-03 0. -1.
        -11    1    3    3    0    0 -0.15960559790E+01  0.92765559942E+01  0.82287680320E+01  0.12502580109E+02  0.51100000000E-03 0.  1.
        -12    1    3    3    0    0 -0.78411661315E+01  0.35308704752E+01 -0.21890860926E+01  0.88737269811E+01  0.00000000000E+00 0.  1.
</event>
<event>
 7    1  0.3129575E-011  0.5052887E+02  0.7816164E-02  0.1300439E+00
        -11   -1    0    0    0    0  0.00000000000E+00  0.00000000000E+00  0.45593999997E+02  0.45594000000E+02  0.51100000000E-03 0.  1.
         11   -1    0    0    0    0 -0.00000000000E+00 -0.00000000000E+00 -0.45593999997E+02  0.45594000000E+02  0.51100000000E-03 0. -1.
    9900012    2    1    2    0    0  0.21449978651E+02 -0.65999441499E+01 -0.33904341862E+02  0.50528865184E+02  0.30000016213E+02 0.  0.
        -12    1    1    2    0    0 -0.21449978651E+02  0.65999441499E+01  0.33904341862E+02  0.40659134816E+02  0.00000000000E+00 0.  1.
         11    1    3    3    0    0  0.32529910023E+00 -0.10205528468E+01 -0.30948743377E+00  0.11149575554E+01  0.51100000000E-03 0. -1.
        -11    1    3    3    0    0 -0.53729506006E+01 -0.66635419419E+01 -0.33581466165E+01  0.91950279134E+01  0.51100000000E-03 0.  1.
         12    1    3    3    0    0  0.26497630151E+02  0.10841506388E+01 -0.30236707812E+02  0.40218879715E+02  0.00000000000E+00 0. -1.
</event>
<event>
 7    1  0.3129575E-011  0.5052885E+02  0.7816164E-02  0.1300439E+00
        -11   -1    0    0    0    0  0.00000000000E+00  0.00000000000E+00  0.45593999997E+02  0.45594000000E+02  0.51100000000E-03 0.  1.
         11   -1    0    0    0    0 -0.00000000000E+00 -0.00000000000E+00 -0.45593999997E+02  0.45594000000E+02  0.51100000000E-03 0. -1.
    9900012    2    1    2    0    0  0.29352781344E+02  0.92402826340E+01 -0.26574379219E+02  0.50528853100E+02  0.29999979483E+02 0.  0.
        -12    1    1    2    0    0 -0.29352781344E+02 -0.92402826340E+01  0.26574379219E+02  0.40659146900E+02  0.00000000000E+00 0.  1.
         11    1    3    3    0    0  0.18166270292E+01  0.17875947427E+01  0.91306546448E+00  0.27072712333E+01  0.51100000000E-03 0.  1.
        -11    1    3    3    0    0  0.10773140316E+01 -0.45055133020E+01  0.31570647838E+01  0.56060069521E+01  0.51100000000E-03 0. -1.
         12    1    3    3    0    0  0.26458840283E+02  0.11958201193E+02 -0.30644509467E+02  0.42215574915E+02  0.00000000000E+00 0. -1.
</event>
<event>
 7    1  0.3129575E-011  0.5052887E+02  0.7816164E-02  0.1300439E+00
        -11   -1    0    0    0    0  0.00000000000E+00  0.00000000000E+00  0.45593999997E+02  0.45594000000E+02  0.51100000000E-03 0. -1.
         11   -1    0    0    0    0 -0.00000000000E+00 -0.00000000000E+00 -0.45593999997E+02  0.45594000000E+02  0.51100000000E-03 0.  1.
    9900012    2    1    2    0    0  0.31489414461E+02  0.50162122697E+01  0.25227358683E+02  0.50528865297E+02  0.30000016558E+02 0.  0.
        -12    1    1    2    0    0 -0.31489414461E+02 -0.50162122697E+01 -0.25227358683E+02  0.40659134703E+02  0.00000000000E+00 0.  1.
         11    1    3    3    0    0  0.12739305761E+02 -0.67601494188E+01  0.33627289513E+01  0.14808696016E+02  0.51100000000E-03 0. -1.
        -11    1    3    3    0    0  0.14227359715E+01 -0.34315353768E+01  0.79929335677E+01  0.88140002249E+01  0.51100000000E-03 0.  1.
        -12    1    3    3    0    0  0.17327372729E+02  0.15207897065E+02  0.13871696164E+02  0.26906169057E+02  0.00000000000E+00 0.  1.
</event>
<event>
 7    1  0.3129575E-011  0.5052886E+02  0.7816164E-02  0.1300439E+00
        -11   -1    0    0    0    0  0.00000000000E+00  0.00000000000E+00  0.45593999997E+02  0.45594000000E+02  0.51100000000E-03 0.  1.
         11   -1    0    0    0    0 -0.00000000000E+00 -0.00000000000E+00 -0.45593999997E+02  0.45594000000E+02  0.51100000000E-03 0. -1.
    9900012    2    1    2    0    0 -0.32106225448E+02 -0.59288053563E+01 -0.24232315774E+02  0.50528861135E+02  0.30000003906E+02 0.  0.
        -12    1    1    2    0    0  0.32106225448E+02  0.59288053563E+01  0.24232315774E+02  0.40659138865E+02  0.00000000000E+00 0.  1.
         11    1    3    3    0    0 -0.70692797087E+01 -0.37889704330E+00 -0.13236237529E+01  0.72021009900E+01  0.51100000000E-03 0. -1.
        -11    1    3    3    0    0 -0.27009818598E+02 -0.10467638039E+01 -0.88639035983E+01  0.28446349545E+02  0.51100000000E-03 0.  1.
         12    1    3    3    0    0  0.19728728588E+01 -0.45031445092E+01 -0.14044788423E+02  0.14880410600E+02  0.00000000000E+00 0. -1.
</event>
<event>
 7    1  0.3129575E-011  0.5052889E+02  0.7816164E-02  0.1300439E+00
        -11   -1    0    0    0    0  0.00000000000E+00  0.00000000000E+00  0.45593999997E+02  0.45594000000E+02  0.51100000000E-03 0. -1.
         11   -1    0    0    0    0 -0.00000000000E+00 -0.00000000000E+00 -0.45593999997E+02  0.45594000000E+02  0.51100000000E-03 0.  1.
    9900012    2    1    2    0    0  0.21271848634E+02 -0.32566908438E+02 -0.11835050525E+02  0.50528886748E+02  0.30000081758E+02 0.  0.
        -12    1    1    2    0    0 -0.21271848634E+02  0.32566908438E+02  0.11835050525E+02  0.40659113252E+02  0.00000000000E+00 0.  1.
         11    1    3    3    0    0  0.16096888227E+02 -0.81186831058E+01 -0.83255472890E+01  0.19857934533E+02  0.51100000000E-03 0. -1.
        -11    1    3    3    0    0  0.67683334527E+01 -0.44224064552E+01 -0.64826214453E+01  0.10363030331E+02  0.51100000000E-03 0.  1.
        -12    1    3    3    0    0 -0.15933730458E+01 -0.20025818877E+02  0.29731182092E+01  0.20307921884E+02  0.00000000000E+00 0.  1.
</event>
<event>
 7    1  0.3129575E-011  0.5052887E+02  0.7816164E-02  0.1300439E+00
        -11   -1    0    0    0    0  0.00000000000E+00  0.00000000000E+00  0.45593999997E+02  0.45594000000E+02  0.51100000000E-03 0. -1.
         11   -1    0    0    0    0 -0.00000000000E+00 -0.00000000000E+00 -0.45593999997E+02  0.45594000000E+02  0.51100000000E-03 0.  1.
    9900012    2    1    2    0    0 -0.12365509547E+02 -0.11949542245E+02  0.36843829870E+02  0.50528865901E+02  0.30000018392E+02 0.  0.
        -12    1    1    2    0    0  0.12365509547E+02  0.11949542245E+02 -0.36843829870E+02  0.40659134099E+02  0.00000000000E+00 0.  1.
         11    1    3    3    0    0 -0.27499658081E+01  0.40073310672E+01  0.23468525533E+01  0.53971039823E+01  0.51100000000E-03 0. -1.
        -11    1    3    3    0    0 -0.16747351131E+02 -0.12210400869E+02  0.21679087903E+02  0.29992507596E+02  0.51100000000E-03 0.  1.
         12    1    3    3    0    0  0.71318073923E+01 -0.37464724431E+01  0.12817889413E+02  0.15139254323E+02  0.00000000000E+00 0. -1.
</event>
<event>
 7    1  0.3129575E-011  0.5052886E+02  0.7816164E-02  0.1300439E+00
        -11   -1    0    0    0    0  0.00000000000E+00  0.00000000000E+00  0.45593999997E+02  0.45594000000E+02  0.51100000000E-03 0.  1.
         11   -1    0    0    0    0 -0.00000000000E+00 -0.00000000000E+00 -0.45593999997E+02  0.45594000000E+02  0.51100000000E-03 0. -1.
    9900012    2    1    2    0    0  0.13797306012E+02  0.32466782976E+02 -0.20216535775E+02  0.50528856271E+02  0.29999989122E+02 0.  0.
        -12    1    1    2    0    0 -0.13797306012E+02 -0.32466782976E+02  0.20216535775E+02  0.40659143729E+02  0.00000000000E+00 0.  1.
         11    1    3    3    0    0  0.58921485060E+01 -0.33978363990E+01 -0.76799778577E+01  0.10258887189E+02  0.51100000000E-03 0. -1.
        -11    1    3    3    0    0  0.83947704095E+01  0.15951736308E+02 -0.33489464591E+01  0.18334271300E+02  0.51100000000E-03 0.  1.
        -12    1    3    3    0    0 -0.48961290399E+00  0.19912883067E+02 -0.91876114587E+01  0.21935697782E+02  0.00000000000E+00 0.  1.
</event>
<event>
 7    1  0.3129575E-011  0.5052885E+02  0.7816164E-02  0.1300439E+00
        -11   -1    0    0    0    0  0.00000000000E+00  0.00000000000E+00  0.45593999997E+02  0.45594000000E+02  0.51100000000E-03 0. -1.
         11   -1    0    0    0    0 -0.00000000000E+00 -0.00000000000E+00 -0.45593999997E+02  0.45594000000E+02  0.51100000000E-03 0.  1.
    9900012    2    1    2    0    0 -0.13891919587E+02  0.37653360899E+02  0.65119252365E+01  0.50528853587E+02  0.29999980962E+02 0.  0.
        -12    1    1    2    0    0  0.13891919587E+02 -0.37653360899E+02 -0.65119252365E+01  0.40659146413E+02  0.00000000000E+00 0.  1.
         11    1    3    3    0    0 -0.94033831887E+01  0.31931008508E+02  0.19256912921E+01  0.33342483515E+02  0.51100000000E-03 0. -1.
        -11    1    3    3    0    0  0.39179228200E+01  0.58280679453E+01 -0.99871983114E+00  0.70932317571E+01  0.51100000000E-03 0.  1.
        -12    1    3    3    0    0 -0.84064592180E+01 -0.10571555411E+00  0.55849537756E+01  0.10093138315E+02  0.00000000000E+00 0.  1.
</event>
<event>
 7    1  0.3129575E-011  0.5052886E+02  0.7816164E-02  0.1300439E+00
        -11   -1    0    0    0    0  0.00000000000E+00  0.00000000000E+00  0.45593999997E+02  0.45594000000E+02  0.51100000000E-03 0.  1.
         11   -1    0    0    0    0 -0.00000000000E+00 -0.00000000000E+00 -0.45593999997E+02  0.45594000000E+02  0.51100000000E-03 0. -1.
    9900012    2    1    2    0    0  0.23932153720E+02  0.23153050544E+02 -0.23331389760E+02  0.50528862290E+02  0.30000007415E+02 0.  0.
        -12    1    1    2    0    0 -0.23932153720E+02 -0.23153050544E+02  0.23331389760E+02  0.40659137710E+02  0.00000000000E+00 0.  1.
         11    1    3    3    0    0  0.12760018333E+02  0.20209496784E+02 -0.74521590722E+01  0.25035504853E+02  0.51100000000E-03 0. -1.
        -11    1    3    3    0    0  0.54507097207E+01  0.96282056002E+01 -0.76967280628E+01  0.13477841173E+02  0.51100000000E-03 0.  1.
         12    1    3    3    0    0  0.57214256673E+01 -0.66846518401E+01 -0.81825026251E+01  0.12015516264E+02  0.00000000000E+00 0. -1.
</event>
<event>
 7    1  0.3129575E-011  0.5052886E+02  0.7816164E-02  0.1300439E+00
        -11   -1    0    0    0    0  0.00000000000E+00  0.00000000000E+00  0.45593999997E+02  0.45594000000E+02  0.51100000000E-03 0.  1.
         11   -1    0    0    0    0 -0.00000000000E+00 -0.00000000000E+00 -0.45593999997E+02  0.45594000000E+02  0.51100000000E-03 0. -1.
    9900012    2    1    2    0    0 -0.34354169248E+02 -0.20593042634E+02 -0.69916778524E+01  0.50528857008E+02  0.29999991361E+02 0.  0.
        -12    1    1    2    0    0  0.34354169248E+02  0.20593042634E+02  0.69916778524E+01  0.40659142992E+02  0.00000000000E+00 0.  1.
         11    1    3    3    0    0 -0.19762546156E+02 -0.16874877497E+02 -0.26654231763E+01  0.26123250221E+02  0.51100000000E-03 0. -1.
        -11    1    3    3    0    0 -0.17781443056E+02 -0.31200425402E+01  0.10959671289E+01  0.18086335362E+02  0.51100000000E-03 0.  1.
        -12    1    3    3    0    0  0.31898199640E+01 -0.59812259636E+00 -0.54222218050E+01  0.63192714252E+01  0.00000000000E+00 0.  1.
</event>
<event>
 7    1  0.3129575E-011  0.5052885E+02  0.7816164E-02  0.1300439E+00
        -11   -1    0    0    0    0  0.00000000000E+00  0.00000000000E+00  0.45593999997E+02  0.45594000000E+02  0.51100000000E-03 0.  1.
         11   -1    0    0    0    0 -0.00000000000E+00 -0.00000000000E+00 -0.45593999997E+02  0.45594000000E+02  0.51100000000E-03 0. -1.
    9900012    2    1    2    0    0 -0.31808822960E+02  0.21935810524E+02 -0.12656446891E+02  0.50528847901E+02  0.29999963681E+02 0.  0.
        -12    1    1    2    0    0  0.31808822960E+02 -0.21935810524E+02  0.12656446891E+02  0.40659152099E+02  0.00000000000E+00 0.  1.
         11    1    3    3    0    0 -0.11000198933E+02  0.58853655023E+01 -0.12620397052E+02  0.17745881935E+02  0.51100000000E-03 0. -1.
        -11    1    3    3    0    0 -0.23300005699E+02  0.11939819433E+02 -0.40854272643E+01  0.26497929539E+02  0.51100000000E-03 0.  1.
        -12    1    3    3    0    0  0.24913816712E+01  0.41106255887E+01  0.40493774248E+01  0.62850364271E+01  0.00000000000E+00 0.  1.
</event>
<event>
 7    1  0.3129575E-011  0.5052889E+02  0.7816164E-02  0.1300439E+00
        -11   -1    0    0    0    0  0.00000000000E+00  0.00000000000E+00  0.45593999997E+02  0.45594000000E+02  0.51100000000E-03 0. -1.
         11   -1    0    0    0    0 -0.00000000000E+00 -0.00000000000E+00 -0.45593999997E+02  0.45594000000E+02  0.51100000000E-03 0.  1.
    9900012    2    1    2    0    0 -0.26567539276E+02  0.23984579341E+02  0.19289093546E+02  0.50528888854E+02  0.30000088161E+02 0.  0.
        -12    1    1    2    0    0  0.26567539276E+02 -0.23984579341E+02 -0.19289093546E+02  0.40659111146E+02  0.00000000000E+00 0.  1.
         11    1    3    3    0    0 -0.13156986462E+02  0.16041189948E+02  0.12084041145E+02  0.24009375634E+02  0.51100000000E-03 0. -1.
        -11    1    3    3    0    0 -0.18473856930E+02  0.49123260335E+01  0.76762887047E+01  0.20599508379E+02  0.51100000000E-03 0.  1.
        -12    1    3    3    0    0  0.50633041158E+01  0.30310633593E+01 -0.47123630351E+00  0.59200048404E+01  0.00000000000E+00 0.  1.
</event>
<event>
 7    1  0.3129575E-011  0.5052886E+02  0.7816164E-02  0.1300439E+00
        -11   -1    0    0    0    0  0.00000000000E+00  0.00000000000E+00  0.45593999997E+02  0.45594000000E+02  0.51100000000E-03 0.  1.
         11   -1    0    0    0    0 -0.00000000000E+00 -0.00000000000E+00 -0.45593999997E+02  0.45594000000E+02  0.51100000000E-03 0. -1.
    9900012    2    1    2    0    0 -0.12256257735E+02 -0.17562309179E+02 -0.34561757399E+02  0.50528860414E+02  0.30000001716E+02 0.  0.
        -12    1    1    2    0    0  0.12256257735E+02  0.17562309179E+02  0.34561757399E+02  0.40659139586E+02  0.00000000000E+00 0.  1.
         11    1    3    3    0    0  0.39212439957E+01  0.46421932872E-01 -0.75463044794E+01  0.85044118566E+01  0.51100000000E-03 0. -1.
        -11    1    3    3    0    0  0.52713122158E+01 -0.18974538802E+01 -0.47849781447E+01  0.73677051930E+01  0.51100000000E-03 0.  1.
        -12    1    3    3    0    0 -0.21448813946E+02 -0.15711277231E+02 -0.22230474775E+02  0.34656743365E+02  0.00000000000E+00 0.  1.
</event>
<event>
 7    1  0.3129575E-011  0.5052888E+02  0.7816164E-02  0.1300439E+00
        -11   -1    0    0    0    0  0.00000000000E+00  0.00000000000E+00  0.45593999997E+02  0.45594000000E+02  0.51100000000E-03 0. -1.
         11   -1    0    0    0    0 -0.00000000000E+00 -0.00000000000E+00 -0.45593999997E+02  0.45594000000E+02  0.51100000000E-03 0.  1.
    9900012    2    1    2    0    0 -0.32372056687E+02 -0.17605352321E+02  0.17183286295E+02  0.50528882789E+02  0.30000069726E+02 0.  0.
        -12    1    1    2    0    0  0.32372056687E+02  0.17605352321E+02 -0.17183286295E+02  0.40659117211E+02  0.00000000000E+00 0.  1.
         11    1    3    3    0    0 -0.21055013528E+01  0.28147271116E+01  0.28065671271E+00  0.35262718430E+01  0.51100000000E-03 0.  1.
        -11    1    3    3    0    0 -0.48881439613E+00  0.17004119140E+01 -0.40355773416E+01  0.44063845647E+01  0.51100000000E-03 0. -1.
         12    1    3    3    0    0 -0.29777740938E+02 -0.22120491346E+02  0.20938206924E+02  0.42596226382E+02  0.00000000000E+00 0. -1.
</event>
<event>
 7    1  0.3129575E-011  0.5052886E+02  0.7816164E-02  0.1300439E+00
        -11   -1    0    0    0    0  0.00000000000E+00  0.00000000000E+00  0.45593999997E+02  0.45594000000E+02  0.51100000000E-03 0.  1.
         11   -1    0    0    0    0 -0.00000000000E+00 -0.00000000000E+00 -0.45593999997E+02  0.45594000000E+02  0.51100000000E-03 0. -1.
    9900012    2    1    2    0    0  0.23843139550E+02 -0.32812288674E+02 -0.28326842085E+01  0.50528859681E+02  0.29999999487E+02 0.  0.
        -12    1    1    2    0    0 -0.23843139550E+02  0.32812288674E+02  0.28326842085E+01  0.40659140319E+02  0.00000000000E+00 0.  1.
         11    1    3    3    0    0 -0.42485082883E+01 -0.56711957296E+01  0.39452224083E+01  0.81103060233E+01  0.51100000000E-03 0. -1.
        -11    1    3    3    0    0  0.50157795625E+01 -0.11558603398E+02 -0.73141384900E+01  0.14569007490E+02  0.51100000000E-03 0.  1.
         12    1    3    3    0    0  0.23075868275E+02 -0.15582489546E+02  0.53623187311E+00  0.27849546168E+02  0.00000000000E+00 0. -1.
</event>
<event>
 7    1  0.3129575E-011  0.5052886E+02  0.7816164E-02  0.1300439E+00
        -11   -1    0    0    0    0  0.00000000000E+00  0.00000000000E+00  0.45593999997E+02  0.45594000000E+02  0.51100000000E-03 0.  1.
         11   -1    0    0    0    0 -0.00000000000E+00 -0.00000000000E+00 -0.45593999997E+02  0.45594000000E+02  0.51100000000E-03 0. -1.
    9900012    2    1    2    0    0 -0.23235359847E+02  0.50023569194E+01 -0.32988783351E+02  0.50528863893E+02  0.30000012290E+02 0.  0.
        -12    1    1    2    0    0  0.23235359847E+02 -0.50023569194E+01  0.32988783351E+02  0.40659136107E+02  0.00000000000E+00 0.  1.
         11    1    3    3    0    0 -0.18860074831E+00  0.25100701200E+01 -0.35619004136E+01  0.43615544324E+01  0.51100000000E-03 0. -1.
        -11    1    3    3    0    0 -0.21824363983E+02  0.41099890701E+01 -0.64842630437E+01  0.23135266173E+02  0.51100000000E-03 0.  1.
         12    1    3    3    0    0 -0.12223951161E+01 -0.16177022707E+01 -0.22942619894E+02  0.23032043288E+02  0.00000000000E+00 0. -1.
</event>
<event>
 7    1  0.3129575E-011  0.5052885E+02  0.7816164E-02  0.1300439E+00
        -11   -1    0    0    0    0  0.00000000000E+00  0.00000000000E+00  0.45593999997E+02  0.45594000000E+02  0.51100000000E-03 0. -1.
         11   -1    0    0    0    0 -0.00000000000E+00 -0.00000000000E+00 -0.45593999997E+02  0.45594000000E+02  0.51100000000E-03 0.  1.
    9900012    2    1    2    0    0 -0.20971778973E+02 -0.34157348963E+02  0.68283610717E+01  0.50528849537E+02  0.29999968651E+02 0.  0.
        -12    1    1    2    0    0  0.20971778973E+02  0.34157348963E+02 -0.68283610717E+01  0.40659150463E+02  0.00000000000E+00 0.  1.
         11    1    3    3    0    0 -0.49276601701E+01 -0.10857416403E+02  0.90280046596E+01  0.14955607447E+02  0.51100000000E-03 0. -1.
        -11    1    3    3    0    0 -0.20195861422E+02 -0.18431949172E+02  0.27552911921E+01  0.27480924269E+02  0.51100000000E-03 0.  1.
        -12    1    3    3    0    0  0.41517426193E+01 -0.48679833881E+01 -0.49549347800E+01  0.80923178211E+01  0.00000000000E+00 0.  1.
</event>
<event>
 7    1  0.3129575E-011  0.5052886E+02  0.7816164E-02  0.1300439E+00
        -11   -1    0    0    0    0  0.00000000000E+00  0.00000000000E+00  0.45593999997E+02  0.45594000000E+02  0.51100000000E-03 0.  1.
         11   -1    0    0    0    0 -0.00000000000E+00 -0.00000000000E+00 -0.45593999997E+02  0.45594000000E+02  0.51100000000E-03 0. -1.
    9900012    2    1    2    0    0 -0.29644070288E+02  0.22544952502E+02 -0.16313181274E+02  0.50528859947E+02  0.30000000294E+02 0.  0.
        -12    1    1    2    0    0  0.29644070288E+02 -0.22544952502E+02  0.16313181274E+02  0.40659140053E+02  0.00000000000E+00 0.  1.
         11    1    3    3    0    0 -0.10479247905E+02  0.14149774562E+02  0.14959513439E+01  0.17671124116E+02  0.51100000000E-03 0. -1.
        -11    1    3    3    0    0 -0.91655585872E+01 -0.46079622408E+01 -0.28243411339E+01  0.10640379849E+02  0.51100000000E-03 0.  1.
         12    1    3    3    0    0 -0.99992637956E+01  0.13003140181E+02 -0.14984791484E+02  0.22217355982E+02  0.00000000000E+00 0. -1.
</event>
<event>
 7    1  0.3129575E-011  0.5052884E+02  0.7816164E-02  0.1300439E+00
        -11   -1    0    0    0    0  0.00000000000E+00  0.00000000000E+00  0.45593999997E+02  0.45594000000E+02  0.51100000000E-03 0.  1.
         11   -1    0    0    0    0 -0.00000000000E+00 -0.00000000000E+00 -0.45593999997E+02  0.45594000000E+02  0.51100000000E-03 0. -1.
    9900012    2    1    2    0    0  0.79909771874E+01 -0.24593421921E+02 -0.31376352176E+02  0.50528836284E+02  0.29999928369E+02 0.  0.
        -12    1    1    2    0    0 -0.79909771874E+01  0.24593421921E+02  0.31376352176E+02  0.40659163716E+02  0.00000000000E+00 0.  1.
         11    1    3    3    0    0 -0.48686780930E+01 -0.52696706538E+01 -0.71665339458E+00  0.72102044023E+01  0.51100000000E-03 0. -1.
        -11    1    3    3    0    0  0.73272627556E+01 -0.16316918371E+02 -0.76341587123E+01  0.19447647265E+02  0.51100000000E-03 0.  1.
         12    1    3    3    0    0  0.55323925248E+01 -0.30068328960E+01 -0.23025540069E+02  0.23870984617E+02  0.00000000000E+00 0. -1.
</event>
<event>
 7    1  0.3129575E-011  0.5052886E+02  0.7816164E-02  0.1300439E+00
        -11   -1    0    0    0    0  0.00000000000E+00  0.00000000000E+00  0.45593999997E+02  0.45594000000E+02  0.51100000000E-03 0. -1.
         11   -1    0    0    0    0 -0.00000000000E+00 -0.00000000000E+00 -0.45593999997E+02  0.45594000000E+02  0.51100000000E-03 0.  1.
    9900012    2    1    2    0    0  0.21984366073E+02 -0.31398959099E+02 -0.13563146666E+02  0.50528856728E+02  0.29999990511E+02 0.  0.
        -12    1    1    2    0    0 -0.21984366073E+02  0.31398959099E+02  0.13563146666E+02  0.40659143272E+02  0.00000000000E+00 0.  1.
         11    1    3    3    0    0  0.20356780307E+01 -0.19953050871E+02 -0.36793146258E+01  0.20391311397E+02  0.51100000000E-03 0. -1.
        -11    1    3    3    0    0  0.13920644030E+02 -0.15780662166E+02 -0.74908807672E+01  0.22336672168E+02  0.51100000000E-03 0.  1.
        -12    1    3    3    0    0  0.60280440116E+01  0.43347539383E+01 -0.23929512734E+01  0.78008731632E+01  0.00000000000E+00 0.  1.
</event>
<event>
 7    1  0.3129575E-011  0.5052889E+02  0.7816164E-02  0.1300439E+00
        -11   -1    0    0    0    0  0.00000000000E+00  0.00000000000E+00  0.45593999997E+02  0.45594000000E+02  0.51100000000E-03 0.  1.
         11   -1    0    0    0    0 -0.00000000000E+00 -0.00000000000E+00 -0.45593999997E+02  0.45594000000E+02  0.51100000000E-03 0. -1.
    9900012    2    1    2    0    0 -0.22168552255E+02 -0.28039301966E+02 -0.19378230775E+02  0.50528892880E+02  0.30000100398E+02 0.  0.
        -12    1    1    2    0    0  0.22168552255E+02  0.28039301966E+02  0.19378230775E+02  0.40659107120E+02  0.00000000000E+00 0.  1.
         11    1    3    3    0    0 -0.10169336489E+02 -0.24344346189E+01 -0.11992625620E+02  0.15911157911E+02  0.51100000000E-03 0. -1.
        -11    1    3    3    0    0 -0.92198560480E+01 -0.17648077791E+02 -0.13628902816E+02  0.24128974025E+02  0.51100000000E-03 0.  1.
        -12    1    3    3    0    0 -0.27793597179E+01 -0.79567895554E+01  0.62432976604E+01  0.10488760944E+02  0.00000000000E+00 0.  1.
</event>
<event>
 7    1  0.3129575E-011  0.5052886E+02  0.7816164E-02  0.1300439E+00
        -11   -1    0    0    0    0  0.00000000000E+00  0.00000000000E+00  0.45593999997E+02  0.45594000000E+02  0.51100000000E-03 0.  1.
         11   -1    0    0    0    0 -0.00000000000E+00 -0.00000000000E+00 -0.45593999997E+02  0.45594000000E+02  0.51100000000E-03 0. -1.
    9900012    2    1    2    0    0 -0.67628609520E+01 -0.10260553463E+02 -0.38757587781E+02  0.50528857655E+02  0.29999993329E+02 0.  0.
        -12    1    1    2    0    0  0.67628609520E+01  0.10260553463E+02  0.38757587781E+02  0.40659142345E+02  0.00000000000E+00 0.  1.
         11    1    3    3    0    0 -0.11318456198E+01 -0.14263954350E+02 -0.31127429815E+02  0.34258697514E+02  0.51100000000E-03 0. -1.
        -11    1    3    3    0    0  0.17174670212E+01 -0.33184962234E+01 -0.71874598577E+00  0.38050895136E+01  0.51100000000E-03 0.  1.
         12    1    3    3    0    0 -0.73484823534E+01  0.73218971104E+01 -0.69114119802E+01  0.12465070628E+02  0.00000000000E+00 0. -1.
</event>
<event>
 7    1  0.3129575E-011  0.5052887E+02  0.7816164E-02  0.1300439E+00
        -11   -1    0    0    0    0  0.00000000000E+00  0.00000000000E+00  0.45593999997E+02  0.45594000000E+02  0.51100000000E-03 0.  1.
         11   -1    0    0    0    0 -0.00000000000E+00 -0.00000000000E+00 -0.45593999997E+02  0.45594000000E+02  0.51100000000E-03 0. -1.
    9900012    2    1    2    0    0 -0.23006145686E+02  0.29134991383E+02 -0.16584172066E+02  0.50528865413E+02  0.30000016909E+02 0.  0.
        -12    1    1    2    0    0  0.23006145686E+02 -0.29134991383E+02  0.16584172066E+02  0.40659134587E+02  0.00000000000E+00 0.  1.
         11    1    3    3    0    0 -0.17208271763E+02  0.21357839322E+02 -0.71536872396E+01  0.28345319877E+02  0.51100000000E-03 0. -1.
        -11    1    3    3    0    0 -0.10633015421E+02  0.47905751800E+00 -0.79952736262E+01  0.13312209196E+02  0.51100000000E-03 0.  1.
         12    1    3    3    0    0  0.48351414976E+01  0.72980945433E+01 -0.14352112002E+01  0.88713363398E+01  0.00000000000E+00 0. -1.
</event>
<event>
 7    1  0.3129575E-011  0.5052886E+02  0.7816164E-02  0.1300439E+00
        -11   -1    0    0    0    0  0.00000000000E+00  0.00000000000E+00  0.45593999997E+02  0.45594000000E+02  0.51100000000E-03 0.  1.
         11   -1    0    0    0    0 -0.00000000000E+00 -0.00000000000E+00 -0.45593999997E+02  0.45594000000E+02  0.51100000000E-03 0. -1.
    9900012    2    1    2    0    0 -0.28428023893E+02  0.21805270874E+02 -0.19223506790E+02  0.50528860884E+02  0.30000003142E+02 0.  0.
        -12    1    1    2    0    0  0.28428023893E+02 -0.21805270874E+02  0.19223506790E+02  0.40659139116E+02  0.00000000000E+00 0.  1.
         11    1    3    3    0    0 -0.16493068109E+02  0.39901183866E+01 -0.22467208497E+01  0.17116953445E+02  0.51100000000E-03 0. -1.
        -11    1    3    3    0    0 -0.16618800481E+02  0.16092732070E+02 -0.10970726990E+02  0.25603074149E+02  0.51100000000E-03 0.  1.
        -12    1    3    3    0    0  0.46838446970E+01  0.17224204174E+01 -0.60060589504E+01  0.78088332903E+01  0.00000000000E+00 0.  1.
</event>
<event>
 7    1  0.3129575E-011  0.5052885E+02  0.7816164E-02  0.1300439E+00
        -11   -1    0    0    0    0  0.00000000000E+00  0.00000000000E+00  0.45593999997E+02  0.45594000000E+02  0.51100000000E-03 0. -1.
         11   -1    0    0    0    0 -0.00000000000E+00 -0.00000000000E+00 -0.45593999997E+02  0.45594000000E+02  0.51100000000E-03 0.  1.
    9900012    2    1    2    0    0 -0.10636676581E+01 -0.34517887120E+02  0.21460439176E+02  0.50528851341E+02  0.29999974135E+02 0.  0.
        -12    1    1    2    0    0  0.10636676581E+01  0.34517887120E+02 -0.21460439176E+02  0.40659148659E+02  0.00000000000E+00 0.  1.
         11    1    3    3    0    0 -0.15048086834E+02 -0.20311364520E+02  0.10336514577E+02  0.27310071035E+02  0.51100000000E-03 0. -1.
        -11    1    3    3    0    0  0.78031977627E+01 -0.54982040999E+01  0.38241223226E+01  0.10283192862E+02  0.51100000000E-03 0.  1.
        -12    1    3    3    0    0  0.61812214131E+01 -0.87083184992E+01  0.72998022759E+01  0.12935587443E+02  0.00000000000E+00 0.  1.
</event>
<event>
 7    1  0.3129575E-011  0.5052890E+02  0.7816164E-02  0.1300439E+00
        -11   -1    0    0    0    0  0.00000000000E+00  0.00000000000E+00  0.45593999997E+02  0.45594000000E+02  0.51100000000E-03 0.  1.
         11   -1    0    0    0    0 -0.00000000000E+00 -0.00000000000E+00 -0.45593999997E+02  0.45594000000E+02  0.51100000000E-03 0. -1.
    9900012    2    1    2    0    0 -0.18141635925E+01 -0.39432449830E+02 -0.97444085815E+01  0.50528895389E+02  0.30000108024E+02 0.  0.
        -12    1    1    2    0    0  0.18141635925E+01  0.39432449830E+02  0.97444085815E+01  0.40659104611E+02  0.00000000000E+00 0.  1.
         11    1    3    3    0    0  0.73801568431E+01 -0.31874193252E+01 -0.22243406938E+01  0.83411059679E+01  0.51100000000E-03 0. -1.
        -11    1    3    3    0    0 -0.73698658157E+01 -0.31389138380E+01 -0.36616564308E+01  0.88076915422E+01  0.51100000000E-03 0.  1.
        -12    1    3    3    0    0 -0.18244546200E+01 -0.33106116667E+02 -0.38584114570E+01  0.33380097879E+02  0.00000000000E+00 0.  1.
</event>
<event>
 7    1  0.3129575E-011  0.5052886E+02  0.7816164E-02  0.1300439E+00
        -11   -1    0    0    0    0  0.00000000000E+00  0.00000000000E+00  0.45593999997E+02  0.45594000000E+02  0.51100000000E-03 0.  1.
         11   -1    0    0    0    0 -0.00000000000E+00 -0.00000000000E+00 -0.45593999997E+02  0.45594000000E+02  0.51100000000E-03 0. -1.
    9900012    2    1    2    0    0  0.32942585174E+02  0.14873289354E+02 -0.18620870186E+02  0.50528862520E+02  0.30000008115E+02 0.  0.
        -12    1    1    2    0    0 -0.32942585174E+02 -0.14873289354E+02  0.18620870186E+02  0.40659137480E+02  0.00000000000E+00 0.  1.
         11    1    3    3    0    0  0.87279739602E+01  0.13234844546E+02 -0.52522181721E+00  0.15862361042E+02  0.51100000000E-03 0.  1.
        -11    1    3    3    0    0  0.20352975985E+02  0.41294905441E+01 -0.58333044718E+01  0.21571364466E+02  0.51100000000E-03 0. -1.
         12    1    3    3    0    0  0.38616352287E+01 -0.24910457362E+01 -0.12262343897E+02  0.13095137011E+02  0.00000000000E+00 0. -1.
</event>
<event>
 7    1  0.3129575E-011  0.5052885E+02  0.7816164E-02  0.1300439E+00
        -11   -1    0    0    0    0  0.00000000000E+00  0.00000000000E+00  0.45593999997E+02  0.45594000000E+02  0.51100000000E-03 0.  1.
         11   -1    0    0    0    0 -0.00000000000E+00 -0.00000000000E+00 -0.45593999997E+02  0.45594000000E+02  0.51100000000E-03 0. -1.
    9900012    2    1    2    0    0  0.57312724915E+01 -0.36475621962E+02 -0.17024930620E+02  0.50528846731E+02  0.29999960125E+02 0.  0.
        -12    1    1    2    0    0 -0.57312724915E+01  0.36475621962E+02  0.17024930620E+02  0.40659153269E+02  0.00000000000E+00 0.  1.
         11    1    3    3    0    0  0.15721717579E+01 -0.21615412916E+02 -0.64221160331E+01  0.22604012347E+02  0.51100000000E-03 0. -1.
        -11    1    3    3    0    0 -0.26641457050E+01 -0.92920183431E+01  0.43272859772E+01  0.10590782852E+02  0.51100000000E-03 0.  1.
        -12    1    3    3    0    0  0.68232464386E+01 -0.55681907026E+01 -0.14930100565E+02  0.17334051532E+02  0.00000000000E+00 0.  1.
</event>
<event>
 7    1  0.3129575E-011  0.5052886E+02  0.7816164E-02  0.1300439E+00
        -11   -1    0    0    0    0  0.00000000000E+00  0.00000000000E+00  0.45593999997E+02  0.45594000000E+02  0.51100000000E-03 0.  1.
         11   -1    0    0    0    0 -0.00000000000E+00 -0.00000000000E+00 -0.45593999997E+02  0.45594000000E+02  0.51100000000E-03 0. -1.
    9900012    2    1    2    0    0 -0.28561195823E+02  0.72882752904E+01 -0.28005438524E+02  0.50528862645E+02  0.30000008496E+02 0.  0.
        -12    1    1    2    0    0  0.28561195823E+02 -0.72882752904E+01  0.28005438524E+02  0.40659137355E+02  0.00000000000E+00 0.  1.
         11    1    3    3    0    0 -0.69745522639E+01 -0.38390493485E+01  0.48830355316E+01  0.93395243694E+01  0.51100000000E-03 0.  1.
        -11    1    3    3    0    0 -0.12137163365E+01  0.20246802600E+01 -0.44930985227E+01  0.50754676727E+01  0.51100000000E-03 0. -1.
        -12    1    3    3    0    0 -0.20372927222E+02  0.91026443789E+01 -0.28395375532E+02  0.36113870603E+02  0.00000000000E+00 0.  1.
</event>
<event>
 7    1  0.3129575E-011  0.5052885E+02  0.7816164E-02  0.1300439E+00
        -11   -1    0    0    0    0  0.00000000000E+00  0.00000000000E+00  0.45593999997E+02  0.45594000000E+02  0.51100000000E-03 0.  1.
         11   -1    0    0    0    0 -0.00000000000E+00 -0.00000000000E+00 -0.45593999997E+02  0.45594000000E+02  0.51100000000E-03 0. -1.
    9900012    2    1    2    0    0 -0.27043447946E+02  0.15781772653E+02 -0.25937495329E+02  0.50528854794E+02  0.29999984633E+02 0.  0.
        -12    1    1    2    0    0  0.27043447946E+02 -0.15781772653E+02  0.25937495329E+02  0.40659145206E+02  0.00000000000E+00 0.  1.
         11    1    3    3    0    0 -0.20175979838E+02  0.60099061459E+01 -0.66128527397E+01  0.22066240185E+02  0.51100000000E-03 0. -1.
        -11    1    3    3    0    0 -0.71059292449E+01 -0.28514088569E+01 -0.10760349855E+02  0.13206433742E+02  0.51100000000E-03 0.  1.
         12    1    3    3    0    0  0.23846113628E+00  0.12623275364E+02 -0.85642927342E+01  0.15256180867E+02  0.00000000000E+00 0. -1.
</event>
<event>
 7    1  0.3129575E-011  0.5052887E+02  0.7816164E-02  0.1300439E+00
        -11   -1    0    0    0    0  0.00000000000E+00  0.00000000000E+00  0.45593999997E+02  0.45594000000E+02  0.51100000000E-03 0. -1.
         11   -1    0    0    0    0 -0.00000000000E+00 -0.00000000000E+00 -0.45593999997E+02  0.45594000000E+02  0.51100000000E-03 0.  1.
    9900012    2    1    2    0    0 -0.32845561982E+02  0.23427216487E+02  0.50497169844E+01  0.50528867497E+02  0.30000023245E+02 0.  0.
        -12    1    1    2    0    0  0.32845561982E+02 -0.23427216487E+02 -0.50497169844E+01  0.40659132503E+02  0.00000000000E+00 0.  1.
         11    1    3    3    0    0 -0.22391793031E+02  0.13817346345E+01 -0.34957412635E+01  0.22705104998E+02  0.51100000000E-03 0. -1.
        -11    1    3    3    0    0  0.15365509085E+01  0.13883310936E+01 -0.73770367029E+00  0.21983309319E+01  0.51100000000E-03 0.  1.
        -12    1    3    3    0    0 -0.11990319860E+02  0.20657150759E+02  0.92831619182E+01  0.25625431567E+02  0.00000000000E+00 0.  1.
</event>
<event>
 7    1  0.3129575E-011  0.5052888E+02  0.7816164E-02  0.1300439E+00
        -11   -1    0    0    0    0  0.00000000000E+00  0.00000000000E+00  0.45593999997E+02  0.45594000000E+02  0.51100000000E-03 0.  1.
         11   -1    0    0    0    0 -0.00000000000E+00 -0.00000000000E+00 -0.45593999997E+02  0.45594000000E+02  0.51100000000E-03 0. -1.
    9900012    2    1    2    0    0 -0.90291833489E+01  0.39516899293E+02 -0.31706197057E+01  0.50528876657E+02  0.30000051086E+02 0.  0.
        -12    1    1    2    0    0  0.90291833489E+01 -0.39516899293E+02  0.31706197057E+01  0.40659123343E+02  0.00000000000E+00 0.  1.
         11    1    3    3    0    0 -0.97992316301E+01  0.15683646481E+02 -0.61340432038E+01  0.19484049727E+02  0.51100000000E-03 0. -1.
        -11    1    3    3    0    0 -0.58676664862E+01  0.18791907660E+02  0.80625243143E+01  0.21273683322E+02  0.51100000000E-03 0.  1.
         12    1    3    3    0    0  0.66377147673E+01  0.50413451525E+01 -0.50991008163E+01  0.97711436082E+01  0.00000000000E+00 0. -1.
</event>
<event>
 7    1  0.3129575E-011  0.5052887E+02  0.7816164E-02  0.1300439E+00
        -11   -1    0    0    0    0  0.00000000000E+00  0.00000000000E+00  0.45593999997E+02  0.45594000000E+02  0.51100000000E-03 0.  1.
         11   -1    0    0    0    0 -0.00000000000E+00 -0.00000000000E+00 -0.45593999997E+02  0.45594000000E+02  0.51100000000E-03 0. -1.
    9900012    2    1    2    0    0  0.38819054528E+02 -0.15866965462E+01  0.11988681839E+02  0.50528867045E+02  0.30000021870E+02 0.  0.
        -12    1    1    2    0    0 -0.38819054528E+02  0.15866965462E+01 -0.11988681839E+02  0.40659132955E+02  0.00000000000E+00 0.  1.
         11    1    3    3    0    0  0.11151840713E+02  0.52765305703E+01 -0.34079665764E+01  0.12799201639E+02  0.51100000000E-03 0.  1.
        -11    1    3    3    0    0  0.25489460777E+02 -0.62307456094E+01  0.45289938020E+01  0.26627928697E+02  0.51100000000E-03 0. -1.
        -12    1    3    3    0    0  0.21777530377E+01 -0.63248150711E+00  0.10867654614E+02  0.11101736709E+02  0.00000000000E+00 0.  1.
</event>
<event>
 7    1  0.3129575E-011  0.5052887E+02  0.7816164E-02  0.1300439E+00
        -11   -1    0    0    0    0  0.00000000000E+00  0.00000000000E+00  0.45593999997E+02  0.45594000000E+02  0.51100000000E-03 0.  1.
         11   -1    0    0    0    0 -0.00000000000E+00 -0.00000000000E+00 -0.45593999997E+02  0.45594000000E+02  0.51100000000E-03 0. -1.
    9900012    2    1    2    0    0 -0.82144389319E+01  0.83791342918E+01 -0.38929137449E+02  0.50528872599E+02  0.30000038753E+02 0.  0.
        -12    1    1    2    0    0  0.82144389319E+01 -0.83791342918E+01  0.38929137449E+02  0.40659127401E+02  0.00000000000E+00 0.  1.
         11    1    3    3    0    0 -0.83364015974E+01  0.73074605293E+00 -0.50850907574E+01  0.97922280233E+01  0.51100000000E-03 0. -1.
        -11    1    3    3    0    0  0.10356868148E+02  0.20221270407E+01 -0.12104642513E+02  0.16058520674E+02  0.51100000000E-03 0.  1.
         12    1    3    3    0    0 -0.10234905482E+02  0.56262611982E+01 -0.21739404179E+02  0.24678123903E+02  0.00000000000E+00 0. -1.
</event>
<event>
 7    1  0.3129575E-011  0.5052886E+02  0.7816164E-02  0.1300439E+00
        -11   -1    0    0    0    0  0.00000000000E+00  0.00000000000E+00  0.45593999997E+02  0.45594000000E+02  0.51100000000E-03 0. -1.
         11   -1    0    0    0    0 -0.00000000000E+00 -0.00000000000E+00 -0.45593999997E+02  0.45594000000E+02  0.51100000000E-03 0.  1.
    9900012    2    1    2    0    0  0.29556275353E+02  0.20016369566E+01  0.27849343464E+02  0.50528857183E+02  0.29999991892E+02 0.  0.
        -12    1    1    2    0    0 -0.29556275353E+02 -0.20016369566E+01 -0.27849343464E+02  0.40659142817E+02  0.00000000000E+00 0.  1.
         11    1    3    3    0    0  0.22559396956E+01  0.44878096321E+00 -0.27510105381E+01  0.35859067897E+01  0.51100000000E-03 0. -1.
        -11    1    3    3    0    0  0.82120451970E+01  0.11416444735E+02  0.10906675220E+02  0.17796866615E+02  0.51100000000E-03 0.  1.
         12    1    3    3    0    0  0.19088290460E+02 -0.98635887421E+01  0.19693678782E+02  0.29146083777E+02  0.00000000000E+00 0. -1.
</event>
<event>
 7    1  0.5745367E-011  0.5052886E+02  0.7816164E-02  0.1300439E+00
        -11   -1    0    0    0    0  0.00000000000E+00  0.00000000000E+00  0.45593999997E+02  0.45594000000E+02  0.51100000000E-03 0.  1.
         11   -1    0    0    0    0 -0.00000000000E+00 -0.00000000000E+00 -0.45593999997E+02  0.45594000000E+02  0.51100000000E-03 0. -1.
    9900012    2    1    2    0    0  0.87211034932E+01  0.33065512205E+02 -0.21995000982E+02  0.50528858202E+02  0.29999994992E+02 0.  0.
        -12    1    1    2    0    0 -0.87211034932E+01 -0.33065512205E+02  0.21995000982E+02  0.40659141798E+02  0.00000000000E+00 0.  1.
         11    1    3    3    0    0  0.10966250867E+02  0.80733976467E+01 -0.31228275667E+01  0.13971057938E+02  0.51100000000E-03 0. -1.
        -11    1    3    3    0    0 -0.12070500241E+01 -0.24270889289E+01 -0.52839742791E+01  0.59386963951E+01  0.51100000000E-03 0.  1.
         12    1    3    3    0    0 -0.10380973495E+01  0.27419203487E+02 -0.13588199136E+02  0.30619103869E+02  0.00000000000E+00 0. -1.
</event>
<event>
 7    1  0.3129575E-011  0.5052886E+02  0.7816164E-02  0.1300439E+00
        -11   -1    0    0    0    0  0.00000000000E+00  0.00000000000E+00  0.45593999997E+02  0.45594000000E+02  0.51100000000E-03 0.  1.
         11   -1    0    0    0    0 -0.00000000000E+00 -0.00000000000E+00 -0.45593999997E+02  0.45594000000E+02  0.51100000000E-03 0. -1.
    9900012    2    1    2    0    0  0.13152975684E+02  0.18916173457E+02 -0.33501387769E+02  0.50528863634E+02  0.30000011502E+02 0.  0.
        -12    1    1    2    0    0 -0.13152975684E+02 -0.18916173457E+02  0.33501387769E+02  0.40659136366E+02  0.00000000000E+00 0.  1.
         11    1    3    3    0    0  0.64695717834E+01 -0.49361066806E+01 -0.74995693698E+01  0.11066347601E+02  0.51100000000E-03 0. -1.
        -11    1    3    3    0    0  0.10863888834E+02  0.91088201587E+01 -0.10315616284E+02  0.17533015282E+02  0.51100000000E-03 0.  1.
        -12    1    3    3    0    0 -0.41804849339E+01  0.14743459979E+02 -0.15686202115E+02  0.21929500752E+02  0.00000000000E+00 0.  1.
</event>
<event>
 7    1  0.3129575E-011  0.5052886E+02  0.7816164E-02  0.1300439E+00
        -11   -1    0    0    0    0  0.00000000000E+00  0.00000000000E+00  0.45593999997E+02  0.45594000000E+02  0.51100000000E-03 0.  1.
         11   -1    0    0    0    0 -0.00000000000E+00 -0.00000000000E+00 -0.45593999997E+02  0.45594000000E+02  0.51100000000E-03 0. -1.
    9900012    2    1    2    0    0  0.26953043337E+02 -0.21141659748E+02 -0.21902718700E+02  0.50528863161E+02  0.30000010066E+02 0.  0.
        -12    1    1    2    0    0 -0.26953043337E+02  0.21141659748E+02  0.21902718700E+02  0.40659136839E+02  0.00000000000E+00 0.  1.
         11    1    3    3    0    0  0.13375018922E+02 -0.11806254868E+02 -0.12350280383E+01  0.17883066842E+02  0.51100000000E-03 0. -1.
        -11    1    3    3    0    0  0.58776498952E+01 -0.14367859294E+02 -0.95912940567E+01  0.18247604526E+02  0.51100000000E-03 0.  1.
        -12    1    3    3    0    0  0.77003745199E+01  0.50324544142E+01 -0.11076396605E+02  0.14398191794E+02  0.00000000000E+00 0.  1.
</event>
<event>
 7    1  0.3129575E-011  0.5052886E+02  0.7816164E-02  0.1300439E+00
        -11   -1    0    0    0    0  0.00000000000E+00  0.00000000000E+00  0.45593999997E+02  0.45594000000E+02  0.51100000000E-03 0.  1.
         11   -1    0    0    0    0 -0.00000000000E+00 -0.00000000000E+00 -0.45593999997E+02  0.45594000000E+02  0.51100000000E-03 0. -1.
    9900012    2    1    2    0    0 -0.39909685043E+01  0.12008610015E+02 -0.38639758316E+02  0.50528862444E+02  0.30000007885E+02 0.  0.
        -12    1    1    2    0    0  0.39909685043E+01 -0.12008610015E+02  0.38639758316E+02  0.40659137556E+02  0.00000000000E+00 0.  1.
         11    1    3    3    0    0 -0.30510942197E+01 -0.51297451177E+01 -0.71952686300E+01  0.93485481134E+01  0.51100000000E-03 0. -1.
        -11    1    3    3    0    0 -0.90198801754E+01  0.15959709185E+02 -0.23301479743E+02  0.29648431900E+02  0.51100000000E-03 0.  1.
         12    1    3    3    0    0  0.80800058908E+01  0.11786459477E+01 -0.81430099432E+01  0.11531882431E+02  0.00000000000E+00 0. -1.
</event>
<event>
 7    1  0.3129575E-011  0.5052886E+02  0.7816164E-02  0.1300439E+00
        -11   -1    0    0    0    0  0.00000000000E+00  0.00000000000E+00  0.45593999997E+02  0.45594000000E+02  0.51100000000E-03 0. -1.
         11   -1    0    0    0    0 -0.00000000000E+00 -0.00000000000E+00 -0.45593999997E+02  0.45594000000E+02  0.51100000000E-03 0.  1.
    9900012    2    1    2    0    0 -0.24562341045E+02  0.27189576997E+02  0.17623399972E+02  0.50528856853E+02  0.29999990891E+02 0.  0.
        -12    1    1    2    0    0  0.24562341045E+02 -0.27189576997E+02 -0.17623399972E+02  0.40659143147E+02  0.00000000000E+00 0.  1.
         11    1    3    3    0    0  0.15793570344E+01  0.54013430275E+01  0.20775147811E+01  0.59987451246E+01  0.51100000000E-03 0. -1.
        -11    1    3    3    0    0 -0.18689507383E+02  0.26406518109E+02  0.89727967621E+01  0.33572503136E+02  0.51100000000E-03 0.  1.
         12    1    3    3    0    0 -0.74521906963E+01 -0.46182841393E+01  0.65730884288E+01  0.10957608592E+02  0.00000000000E+00 0. -1.
</event>
<event>
 7    1  0.3129575E-011  0.5052886E+02  0.7816164E-02  0.1300439E+00
        -11   -1    0    0    0    0  0.00000000000E+00  0.00000000000E+00  0.45593999997E+02  0.45594000000E+02  0.51100000000E-03 0. -1.
         11   -1    0    0    0    0 -0.00000000000E+00 -0.00000000000E+00 -0.45593999997E+02  0.45594000000E+02  0.51100000000E-03 0.  1.
    9900012    2    1    2    0    0  0.15699580231E+02 -0.37190377447E+02  0.48543687308E+01  0.50528857241E+02  0.29999992071E+02 0.  0.
        -12    1    1    2    0    0 -0.15699580231E+02  0.37190377447E+02 -0.48543687308E+01  0.40659142759E+02  0.00000000000E+00 0.  1.
         11    1    3    3    0    0  0.12376137198E+02 -0.66400323387E+01  0.36522781496E+01  0.14511992880E+02  0.51100000000E-03 0. -1.
        -11    1    3    3    0    0  0.79592001308E+01 -0.89139920630E+01  0.60050708282E+01  0.13374191457E+02  0.51100000000E-03 0.  1.
         12    1    3    3    0    0 -0.46357570983E+01 -0.21636353046E+02 -0.48029802469E+01  0.22642672904E+02  0.00000000000E+00 0. -1.
</event>
<event>
 7    1  0.3129575E-011  0.5052877E+02  0.7816164E-02  0.1300439E+00
        -11   -1    0    0    0    0  0.00000000000E+00  0.00000000000E+00  0.45593999997E+02  0.45594000000E+02  0.51100000000E-03 0. -1.
         11   -1    0    0    0    0 -0.00000000000E+00 -0.00000000000E+00 -0.45593999997E+02  0.45594000000E+02  0.51100000000E-03 0.  1.
    9900012    2    1    2    0    0  0.10977895540E+02 -0.36828540434E+02  0.13278460539E+02  0.50528768634E+02  0.29999722739E+02 0.  0.
        -12    1    1    2    0    0 -0.10977895540E+02  0.36828540434E+02 -0.13278460539E+02  0.40659231366E+02  0.00000000000E+00 0.  1.
         11    1    3    3    0    0  0.18845429940E+01 -0.64763170165E+01  0.15785177561E+02  0.17165838613E+02  0.51100000000E-03 0. -1.
        -11    1    3    3    0    0 -0.94789573900E-01 -0.94428363231E+00 -0.23697762298E+01  0.25527428938E+01  0.51100000000E-03 0.  1.
        -12    1    3    3    0    0  0.91881421195E+01 -0.29407939785E+02 -0.13694079256E+00  0.30810187127E+02  0.00000000000E+00 0.  1.
</event>
<event>
 7    1  0.3129575E-011  0.5052886E+02  0.7816164E-02  0.1300439E+00
        -11   -1    0    0    0    0  0.00000000000E+00  0.00000000000E+00  0.45593999997E+02  0.45594000000E+02  0.51100000000E-03 0.  1.
         11   -1    0    0    0    0 -0.00000000000E+00 -0.00000000000E+00 -0.45593999997E+02  0.45594000000E+02  0.51100000000E-03 0. -1.
    9900012    2    1    2    0    0 -0.16886136755E+02 -0.22019229844E+01 -0.36921206527E+02  0.50528861166E+02  0.30000003999E+02 0.  0.
        -12    1    1    2    0    0  0.16886136755E+02  0.22019229844E+01  0.36921206527E+02  0.40659138834E+02  0.00000000000E+00 0.  1.
         11    1    3    3    0    0 -0.57881127030E+01  0.39696403189E+01 -0.12625432410E+02  0.14445131939E+02  0.51100000000E-03 0. -1.
        -11    1    3    3    0    0 -0.15298284286E+02  0.17701652991E+00 -0.63027647063E+01  0.16546712065E+02  0.51100000000E-03 0.  1.
        -12    1    3    3    0    0  0.42002602340E+01 -0.63485798332E+01 -0.17993009411E+02  0.19537017162E+02  0.00000000000E+00 0.  1.
</event>
<event>
 7    1  0.3129575E-011  0.5052877E+02  0.7816164E-02  0.1300439E+00
        -11   -1    0    0    0    0  0.00000000000E+00  0.00000000000E+00  0.45593999997E+02  0.45594000000E+02  0.51100000000E-03 0. -1.
         11   -1    0    0    0    0 -0.00000000000E+00 -0.00000000000E+00 -0.45593999997E+02  0.45594000000E+02  0.51100000000E-03 0.  1.
    9900012    2    1    2    0    0 -0.27193496254E+02 -0.30048606742E+02 -0.32814660453E+01  0.50528769498E+02  0.29999725364E+02 0.  0.
        -12    1    1    2    0    0  0.27193496254E+02  0.30048606742E+02  0.32814660453E+01  0.40659230502E+02  0.00000000000E+00 0.  1.
         11    1    3    3    0    0  0.23087454447E+01  0.19469198990E+01  0.28254678844E+01  0.41357069104E+01  0.51100000000E-03 0.  1.
        -11    1    3    3    0    0 -0.89014914778E+00 -0.88683559533E+01  0.84116923165E+00  0.89525230386E+01  0.51100000000E-03 0. -1.
        -12    1    3    3    0    0 -0.28612092551E+02 -0.23127170687E+02 -0.69481031613E+01  0.37440539549E+02  0.00000000000E+00 0.  1.
</event>
<event>
 7    1  0.3129575E-011  0.5052886E+02  0.7816164E-02  0.1300439E+00
        -11   -1    0    0    0    0  0.00000000000E+00  0.00000000000E+00  0.45593999997E+02  0.45594000000E+02  0.51100000000E-03 0.  1.
         11   -1    0    0    0    0 -0.00000000000E+00 -0.00000000000E+00 -0.45593999997E+02  0.45594000000E+02  0.51100000000E-03 0. -1.
    9900012    2    1    2    0    0  0.12466448696E+02 -0.11336720336E+02 -0.37003133567E+02  0.50528862468E+02  0.30000007958E+02 0.  0.
        -12    1    1    2    0    0 -0.12466448696E+02  0.11336720336E+02  0.37003133567E+02  0.40659137532E+02  0.00000000000E+00 0.  1.
         11    1    3    3    0    0 -0.29265959617E+01  0.26518469586E+01 -0.22342634504E+02  0.22688996740E+02  0.51100000000E-03 0. -1.
        -11    1    3    3    0    0  0.51528151247E+01 -0.40937605748E+01  0.10187974512E+01  0.66594540212E+01  0.51100000000E-03 0.  1.
        -12    1    3    3    0    0  0.10240229533E+02 -0.98948067197E+01 -0.15679296514E+02  0.21180411707E+02  0.00000000000E+00 0.  1.
</event>
<event>
 7    1  0.3129575E-011  0.5052899E+02  0.7816164E-02  0.1300438E+00
        -11   -1    0    0    0    0  0.00000000000E+00  0.00000000000E+00  0.45593999997E+02  0.45594000000E+02  0.51100000000E-03 0. -1.
         11   -1    0    0    0    0 -0.00000000000E+00 -0.00000000000E+00 -0.45593999997E+02  0.45594000000E+02  0.51100000000E-03 0.  1.
    9900012    2    1    2    0    0  0.25844920496E+02 -0.15519168267E+02  0.27282794414E+02  0.50528986606E+02  0.30000385286E+02 0.  0.
        -12    1    1    2    0    0 -0.25844920496E+02  0.15519168267E+02 -0.27282794414E+02  0.40659013394E+02  0.00000000000E+00 0.  1.
         11    1    3    3    0    0  0.19281951168E+02 -0.52477401527E+01  0.22715672272E+02  0.30254490321E+02  0.51100000000E-03 0. -1.
        -11    1    3    3    0    0  0.11587067964E+02 -0.77750465433E+01  0.45081297320E+01  0.14664062421E+02  0.51100000000E-03 0.  1.
        -12    1    3    3    0    0 -0.50240986356E+01 -0.24963815706E+01  0.58992409846E-01  0.56104338647E+01  0.00000000000E+00 0.  1.
</event>
<event>
 7    1  0.3129575E-011  0.5052886E+02  0.7816164E-02  0.1300439E+00
        -11   -1    0    0    0    0  0.00000000000E+00  0.00000000000E+00  0.45593999997E+02  0.45594000000E+02  0.51100000000E-03 0.  1.
         11   -1    0    0    0    0 -0.00000000000E+00 -0.00000000000E+00 -0.45593999997E+02  0.45594000000E+02  0.51100000000E-03 0. -1.
    9900012    2    1    2    0    0 -0.17664396929E+02  0.11534799629E+02 -0.34757484803E+02  0.50528864850E+02  0.30000015197E+02 0.  0.
        -12    1    1    2    0    0  0.17664396929E+02 -0.11534799629E+02  0.34757484803E+02  0.40659135150E+02  0.00000000000E+00 0.  1.
         11    1    3    3    0    0 -0.13915305367E+01  0.65793784841E+01 -0.40747496636E+01  0.78630886778E+01  0.51100000000E-03 0. -1.
        -11    1    3    3    0    0 -0.19628410502E+02  0.64396889163E+01 -0.12562275030E+02  0.24177569075E+02  0.51100000000E-03 0.  1.
         12    1    3    3    0    0  0.33555441101E+01 -0.14842677713E+01 -0.18120460109E+02  0.18488207097E+02  0.00000000000E+00 0. -1.
</event>
<event>
 7    1  0.3129575E-011  0.5052886E+02  0.7816164E-02  0.1300439E+00
        -11   -1    0    0    0    0  0.00000000000E+00  0.00000000000E+00  0.45593999997E+02  0.45594000000E+02  0.51100000000E-03 0. -1.
         11   -1    0    0    0    0 -0.00000000000E+00 -0.00000000000E+00 -0.45593999997E+02  0.45594000000E+02  0.51100000000E-03 0.  1.
    9900012    2    1    2    0    0  0.11562833552E+02 -0.27737471652E+02 -0.27387944133E+02  0.50528856660E+02  0.29999990303E+02 0.  0.
        -12    1    1    2    0    0 -0.11562833552E+02  0.27737471652E+02  0.27387944133E+02  0.40659143340E+02  0.00000000000E+00 0.  1.
         11    1    3    3    0    0  0.46283036822E+01  0.28625377073E+01  0.32006790518E+01  0.63134510178E+01  0.51100000000E-03 0.  1.
        -11    1    3    3    0    0  0.11401690763E+01 -0.32128831161E+01 -0.62572683164E+01  0.71257287687E+01  0.51100000000E-03 0. -1.
         12    1    3    3    0    0  0.57943607932E+01 -0.27387126243E+02 -0.24331354868E+02  0.37089676873E+02  0.00000000000E+00 0. -1.
</event>
<event>
 7    1  0.3129575E-011  0.5052886E+02  0.7816164E-02  0.1300439E+00
        -11   -1    0    0    0    0  0.00000000000E+00  0.00000000000E+00  0.45593999997E+02  0.45594000000E+02  0.51100000000E-03 0. -1.
         11   -1    0    0    0    0 -0.00000000000E+00 -0.00000000000E+00 -0.45593999997E+02  0.45594000000E+02  0.51100000000E-03 0.  1.
    9900012    2    1    2    0    0  0.36229993273E+01 -0.17589481923E+02  0.36478075564E+02  0.50528855945E+02  0.29999988131E+02 0.  0.
        -12    1    1    2    0    0 -0.36229993273E+01  0.17589481923E+02 -0.36478075564E+02  0.40659144055E+02  0.00000000000E+00 0.  1.
         11    1    3    3    0    0 -0.47223114387E+01  0.30879818507E+01  0.11592183899E+02  0.12892423552E+02  0.51100000000E-03 0. -1.
        -11    1    3    3    0    0 -0.42251023880E+01 -0.68370068012E+01  0.23897343202E+01  0.83849259132E+01  0.51100000000E-03 0.  1.
         12    1    3    3    0    0  0.12570413154E+02 -0.13840456973E+02  0.22496157344E+02  0.29251506480E+02  0.00000000000E+00 0. -1.
</event>
<event>
 7    1  0.3129575E-011  0.5052885E+02  0.7816164E-02  0.1300439E+00
        -11   -1    0    0    0    0  0.00000000000E+00  0.00000000000E+00  0.45593999997E+02  0.45594000000E+02  0.51100000000E-03 0. -1.
         11   -1    0    0    0    0 -0.00000000000E+00 -0.00000000000E+00 -0.45593999997E+02  0.45594000000E+02  0.51100000000E-03 0.  1.
    9900012    2    1    2    0    0  0.15166443975E+02  0.16682361818E+02  0.33835544603E+02  0.50528852232E+02  0.29999976843E+02 0.  0.
        -12    1    1    2    0    0 -0.15166443975E+02 -0.16682361818E+02 -0.33835544603E+02  0.40659147768E+02  0.00000000000E+00 0.  1.
         11    1    3    3    0    0  0.94866481032E+00  0.49545170283E+01  0.12178280297E+02  0.13181718976E+02  0.51100000000E-03 0. -1.
        -11    1    3    3    0    0 -0.45758022046E+01 -0.32526623854E+01  0.77823037241E+01  0.95959381993E+01  0.51100000000E-03 0.  1.
        -12    1    3    3    0    0  0.18793581369E+02  0.14980507175E+02  0.13874960581E+02  0.27751195056E+02  0.00000000000E+00 0.  1.
</event>
<event>
 7    1  0.3129575E-011  0.5052887E+02  0.7816164E-02  0.1300439E+00
        -11   -1    0    0    0    0  0.00000000000E+00  0.00000000000E+00  0.45593999997E+02  0.45594000000E+02  0.51100000000E-03 0.  1.
         11   -1    0    0    0    0 -0.00000000000E+00 -0.00000000000E+00 -0.45593999997E+02  0.45594000000E+02  0.51100000000E-03 0. -1.
    9900012    2    1    2    0    0 -0.13232562489E+02  0.51614870990E+01 -0.38097546134E+02  0.50528872113E+02  0.30000037274E+02 0.  0.
        -12    1    1    2    0    0  0.13232562489E+02 -0.51614870990E+01  0.38097546134E+02  0.40659127887E+02  0.00000000000E+00 0.  1.
         11    1    3    3    0    0 -0.84787379148E+01  0.70057836584E+01 -0.55667812051E+01  0.12327167337E+02  0.51100000000E-03 0. -1.
        -11    1    3    3    0    0 -0.41034977097E-01  0.82963796353E+01 -0.18381995995E+02  0.20167532719E+02  0.51100000000E-03 0.  1.
         12    1    3    3    0    0 -0.47127895972E+01 -0.10140676195E+02 -0.14148768934E+02  0.18034172058E+02  0.00000000000E+00 0. -1.
</event>
<event>
 7    1  0.3129575E-011  0.5052886E+02  0.7816164E-02  0.1300439E+00
        -11   -1    0    0    0    0  0.00000000000E+00  0.00000000000E+00  0.45593999997E+02  0.45594000000E+02  0.51100000000E-03 0. -1.
         11   -1    0    0    0    0 -0.00000000000E+00 -0.00000000000E+00 -0.45593999997E+02  0.45594000000E+02  0.51100000000E-03 0.  1.
    9900012    2    1    2    0    0  0.14798919489E+02 -0.26587282024E+01  0.37776828219E+02  0.50528860757E+02  0.30000002756E+02 0.  0.
        -12    1    1    2    0    0 -0.14798919489E+02  0.26587282024E+01 -0.37776828219E+02  0.40659139243E+02  0.00000000000E+00 0.  1.
         11    1    3    3    0    0  0.93395527827E+01  0.14994339395E+01  0.46594032017E+01  0.10544457633E+02  0.51100000000E-03 0. -1.
        -11    1    3    3    0    0 -0.26781842993E+01  0.52167482136E+01  0.15525192427E+01  0.60660901184E+01  0.51100000000E-03 0.  1.
         12    1    3    3    0    0  0.81375510051E+01 -0.93749103555E+01  0.31564905775E+02  0.33918313005E+02  0.00000000000E+00 0. -1.
</event>
<event>
 7    1  0.3129575E-011  0.5052886E+02  0.7816164E-02  0.1300439E+00
        -11   -1    0    0    0    0  0.00000000000E+00  0.00000000000E+00  0.45593999997E+02  0.45594000000E+02  0.51100000000E-03 0.  1.
         11   -1    0    0    0    0 -0.00000000000E+00 -0.00000000000E+00 -0.45593999997E+02  0.45594000000E+02  0.51100000000E-03 0. -1.
    9900012    2    1    2    0    0  0.25929469641E+02  0.29292716410E+02  0.11079949218E+02  0.50528857053E+02  0.29999991498E+02 0.  0.
        -12    1    1    2    0    0 -0.25929469641E+02 -0.29292716410E+02 -0.11079949218E+02  0.40659142947E+02  0.00000000000E+00 0.  1.
         11    1    3    3    0    0  0.20741126462E+02  0.13036275150E+02  0.35949821010E+01  0.24760102853E+02  0.51100000000E-03 0. -1.
        -11    1    3    3    0    0 -0.20035011665E+01  0.21146601526E+01  0.93507266444E+01  0.97939723057E+01  0.51100000000E-03 0.  1.
         12    1    3    3    0    0  0.71918443450E+01  0.14141781107E+02 -0.18657595271E+01  0.15974781894E+02  0.00000000000E+00 0. -1.
</event>
<event>
 7    1  0.3129575E-011  0.5052879E+02  0.7816164E-02  0.1300439E+00
        -11   -1    0    0    0    0  0.00000000000E+00  0.00000000000E+00  0.45593999997E+02  0.45594000000E+02  0.51100000000E-03 0. -1.
         11   -1    0    0    0    0 -0.00000000000E+00 -0.00000000000E+00 -0.45593999997E+02  0.45594000000E+02  0.51100000000E-03 0.  1.
    9900012    2    1    2    0    0 -0.22157005600E+02 -0.80443349887E+01  0.33128948969E+02  0.50528788468E+02  0.29999783028E+02 0.  0.
        -12    1    1    2    0    0  0.22157005600E+02  0.80443349887E+01 -0.33128948969E+02  0.40659211532E+02  0.00000000000E+00 0.  1.
         11    1    3    3    0    0 -0.19442312098E+02 -0.74623996401E+01  0.11593563052E+02  0.23834882266E+02  0.51100000000E-03 0. -1.
        -11    1    3    3    0    0 -0.57872355095E+00  0.58223597895E+01  0.22632731424E+01  0.62735317043E+01  0.51100000000E-03 0.  1.
         12    1    3    3    0    0 -0.21359699505E+01 -0.64042951380E+01  0.19272112775E+02  0.20420374498E+02  0.00000000000E+00 0. -1.
</event>
<event>
 7    1  0.3129575E-011  0.5052885E+02  0.7816164E-02  0.1300439E+00
        -11   -1    0    0    0    0  0.00000000000E+00  0.00000000000E+00  0.45593999997E+02  0.45594000000E+02  0.51100000000E-03 0.  1.
         11   -1    0    0    0    0 -0.00000000000E+00 -0.00000000000E+00 -0.45593999997E+02  0.45594000000E+02  0.51100000000E-03 0. -1.
    9900012    2    1    2    0    0  0.23734238300E+02 -0.32618570211E+02  0.50873381420E+01  0.50528853432E+02  0.29999980492E+02 0.  0.
        -12    1    1    2    0    0 -0.23734238300E+02  0.32618570211E+02 -0.50873381420E+01  0.40659146568E+02  0.00000000000E+00 0.  1.
         11    1    3    3    0    0  0.96061083593E+01 -0.18933907528E+02 -0.25492392683E+01  0.21383844210E+02  0.51100000000E-03 0. -1.
        -11    1    3    3    0    0  0.11694365757E+02 -0.88660411924E+01  0.14353424346E+02  0.20527680522E+02  0.51100000000E-03 0.  1.
         12    1    3    3    0    0  0.24337641843E+01 -0.48186214905E+01 -0.67168469359E+01  0.86173287006E+01  0.00000000000E+00 0. -1.
</event>
<event>
 7    1  0.3129575E-011  0.5052886E+02  0.7816164E-02  0.1300439E+00
        -11   -1    0    0    0    0  0.00000000000E+00  0.00000000000E+00  0.45593999997E+02  0.45594000000E+02  0.51100000000E-03 0.  1.
         11   -1    0    0    0    0 -0.00000000000E+00 -0.00000000000E+00 -0.45593999997E+02  0.45594000000E+02  0.51100000000E-03 0. -1.
    9900012    2    1    2    0    0 -0.28752349157E+01  0.33508560884E+02 -0.22848958921E+02  0.50528861395E+02  0.30000004696E+02 0.  0.
        -12    1    1    2    0    0  0.28752349157E+01 -0.33508560884E+02  0.22848958921E+02  0.40659138605E+02  0.00000000000E+00 0.  1.
         11    1    3    3    0    0 -0.49194305734E+01  0.17605168407E+02 -0.91343025871E+01  0.20434731117E+02  0.51100000000E-03 0. -1.
        -11    1    3    3    0    0 -0.14795233088E+01  0.85388135371E+01  0.47662216991E+01  0.98902575997E+01  0.51100000000E-03 0.  1.
         12    1    3    3    0    0  0.35237189665E+01  0.73645789399E+01 -0.18480878033E+02  0.20203872678E+02  0.00000000000E+00 0. -1.
</event>
<event>
 7    1  0.3129575E-011  0.5052886E+02  0.7816164E-02  0.1300439E+00
        -11   -1    0    0    0    0  0.00000000000E+00  0.00000000000E+00  0.45593999997E+02  0.45594000000E+02  0.51100000000E-03 0.  1.
         11   -1    0    0    0    0 -0.00000000000E+00 -0.00000000000E+00 -0.45593999997E+02  0.45594000000E+02  0.51100000000E-03 0. -1.
    9900012    2    1    2    0    0 -0.35782414315E+02  0.36609109689E+01  0.18957380713E+02  0.50528859246E+02  0.29999998165E+02 0.  0.
        -12    1    1    2    0    0  0.35782414315E+02 -0.36609109689E+01 -0.18957380713E+02  0.40659140754E+02  0.00000000000E+00 0.  1.
         11    1    3    3    0    0 -0.20541417922E+02  0.17733030178E+01  0.16958501487E+00  0.20618516270E+02  0.51100000000E-03 0. -1.
        -11    1    3    3    0    0 -0.13442004619E+02  0.87837271939E+01  0.14191196136E+02  0.21429685010E+02  0.51100000000E-03 0.  1.
         12    1    3    3    0    0 -0.17989917746E+01 -0.68961192428E+01  0.45965995621E+01  0.84806579668E+01  0.00000000000E+00 0. -1.
</event>
<event>
 7    1  0.3129575E-011  0.5052875E+02  0.7816164E-02  0.1300439E+00
        -11   -1    0    0    0    0  0.00000000000E+00  0.00000000000E+00  0.45593999997E+02  0.45594000000E+02  0.51100000000E-03 0.  1.
         11   -1    0    0    0    0 -0.00000000000E+00 -0.00000000000E+00 -0.45593999997E+02  0.45594000000E+02  0.51100000000E-03 0. -1.
    9900012    2    1    2    0    0  0.18861780674E+02  0.81942967151E+00 -0.36010223381E+02  0.50528752305E+02  0.29999673105E+02 0.  0.
        -12    1    1    2    0    0 -0.18861780674E+02 -0.81942967151E+00  0.36010223381E+02  0.40659247695E+02  0.00000000000E+00 0.  1.
         11    1    3    3    0    0  0.13761963242E+02  0.57408574102E+01 -0.14444713151E+02  0.20760510936E+02  0.51100000000E-03 0. -1.
        -11    1    3    3    0    0  0.11536826334E+02 -0.57208338541E+01 -0.18632652813E+02  0.22649548626E+02  0.51100000000E-03 0.  1.
        -12    1    3    3    0    0 -0.64370089016E+01  0.79940611539E+00 -0.29328574163E+01  0.71186927424E+01  0.00000000000E+00 0.  1.
</event>
<event>
 7    1  0.3129575E-011  0.5052885E+02  0.7816164E-02  0.1300439E+00
        -11   -1    0    0    0    0  0.00000000000E+00  0.00000000000E+00  0.45593999997E+02  0.45594000000E+02  0.51100000000E-03 0.  1.
         11   -1    0    0    0    0 -0.00000000000E+00 -0.00000000000E+00 -0.45593999997E+02  0.45594000000E+02  0.51100000000E-03 0. -1.
    9900012    2    1    2    0    0  0.37729852981E+02 -0.24661454357E+01  0.14951345250E+02  0.50528850918E+02  0.29999972851E+02 0.  0.
        -12    1    1    2    0    0 -0.37729852981E+02  0.24661454357E+01 -0.14951345250E+02  0.40659149082E+02  0.00000000000E+00 0.  1.
         11    1    3    3    0    0  0.53156098515E+00 -0.69132084933E+01  0.31385814511E+00  0.69407143688E+01  0.51100000000E-03 0. -1.
        -11    1    3    3    0    0  0.62391297828E+01  0.87744056215E+00  0.10368682233E+02  0.12132856791E+02  0.51100000000E-03 0.  1.
         12    1    3    3    0    0  0.30959162213E+02  0.35696224955E+01  0.42688048721E+01  0.31455279759E+02  0.00000000000E+00 0. -1.
</event>
<event>
 7    1  0.3129575E-011  0.5052874E+02  0.7816164E-02  0.1300439E+00
        -11   -1    0    0    0    0  0.00000000000E+00  0.00000000000E+00  0.45593999997E+02  0.45594000000E+02  0.51100000000E-03 0.  1.
         11   -1    0    0    0    0 -0.00000000000E+00 -0.00000000000E+00 -0.45593999997E+02  0.45594000000E+02  0.51100000000E-03 0. -1.
    9900012    2    1    2    0    0 -0.72137616576E+01 -0.14774372789E+02 -0.37186761303E+02  0.50528737037E+02  0.29999626694E+02 0.  0.
        -12    1    1    2    0    0  0.72137616576E+01  0.14774372789E+02  0.37186761303E+02  0.40659262963E+02  0.00000000000E+00 0.  1.
         11    1    3    3    0    0 -0.13213649766E+02  0.94829508754E+00 -0.13108928948E+02  0.18637162395E+02  0.51100000000E-03 0. -1.
        -11    1    3    3    0    0  0.28991591514E+01 -0.97592451480E-01  0.14016148461E+00  0.29041855269E+01  0.51100000000E-03 0.  1.
        -12    1    3    3    0    0  0.31007289569E+01 -0.15625075425E+02 -0.24217993840E+02  0.28987389115E+02  0.00000000000E+00 0.  1.
</event>
<event>
 7    1  0.3129575E-011  0.5052886E+02  0.7816164E-02  0.1300439E+00
        -11   -1    0    0    0    0  0.00000000000E+00  0.00000000000E+00  0.45593999997E+02  0.45594000000E+02  0.51100000000E-03 0.  1.
         11   -1    0    0    0    0 -0.00000000000E+00 -0.00000000000E+00 -0.45593999997E+02  0.45594000000E+02  0.51100000000E-03 0. -1.
    9900012    2    1    2    0    0  0.17549810188E+02  0.25901132012E+02 -0.25967310596E+02  0.50528859617E+02  0.29999999291E+02 0.  0.
        -12    1    1    2    0    0 -0.17549810188E+02 -0.25901132012E+02  0.25967310596E+02  0.40659140383E+02  0.00000000000E+00 0.  1.
         11    1    3    3    0    0  0.92842374907E+01  0.14259543650E+02 -0.12755347399E+02  0.21265712741E+02  0.51100000000E-03 0. -1.
        -11    1    3    3    0    0 -0.11531727253E+01  0.15709913620E+02 -0.92336477393E+01  0.18259009943E+02  0.51100000000E-03 0.  1.
         12    1    3    3    0    0  0.94187454224E+01 -0.40683252575E+01 -0.39783154583E+01  0.11004136932E+02  0.00000000000E+00 0. -1.
</event>
<event>
 7    1  0.3129575E-011  0.5052887E+02  0.7816164E-02  0.1300439E+00
        -11   -1    0    0    0    0  0.00000000000E+00  0.00000000000E+00  0.45593999997E+02  0.45594000000E+02  0.51100000000E-03 0.  1.
         11   -1    0    0    0    0 -0.00000000000E+00 -0.00000000000E+00 -0.45593999997E+02  0.45594000000E+02  0.51100000000E-03 0. -1.
    9900012    2    1    2    0    0 -0.29977550281E+02 -0.17331781620E+02 -0.21310116817E+02  0.50528865064E+02  0.30000015848E+02 0.  0.
        -12    1    1    2    0    0  0.29977550281E+02  0.17331781620E+02  0.21310116817E+02  0.40659134936E+02  0.00000000000E+00 0.  1.
         11    1    3    3    0    0 -0.82642325405E+01 -0.13177779213E+01 -0.68336318104E+01  0.10804286284E+02  0.51100000000E-03 0. -1.
        -11    1    3    3    0    0 -0.18960946968E+02 -0.22508843700E+02 -0.89437062729E+01  0.30759639738E+02  0.51100000000E-03 0.  1.
         12    1    3    3    0    0 -0.27523707730E+01  0.64948400009E+01 -0.55327787334E+01  0.89649390417E+01  0.00000000000E+00 0. -1.
</event>
<event>
 7    1  0.3129575E-011  0.5052886E+02  0.7816164E-02  0.1300439E+00
        -11   -1    0    0    0    0  0.00000000000E+00  0.00000000000E+00  0.45593999997E+02  0.45594000000E+02  0.51100000000E-03 0.  1.
         11   -1    0    0    0    0 -0.00000000000E+00 -0.00000000000E+00 -0.45593999997E+02  0.45594000000E+02  0.51100000000E-03 0. -1.
    9900012    2    1    2    0    0  0.18281158990E+02 -0.35968245287E+02 -0.50249401881E+01  0.50528862442E+02  0.30000007878E+02 0.  0.
        -12    1    1    2    0    0 -0.18281158990E+02  0.35968245287E+02  0.50249401881E+01  0.40659137558E+02  0.00000000000E+00 0.  1.
         11    1    3    3    0    0  0.14581313762E+02 -0.21820311992E+02 -0.90704778925E+01  0.27767144180E+02  0.51100000000E-03 0. -1.
        -11    1    3    3    0    0 -0.43520567371E+01 -0.11069410546E+02 -0.22268720358E+01  0.12100876291E+02  0.51100000000E-03 0.  1.
        -12    1    3    3    0    0  0.80519019654E+01 -0.30785227496E+01  0.62724097402E+01  0.10660841971E+02  0.00000000000E+00 0.  1.
</event>
<event>
 7    1  0.3129575E-011  0.5052888E+02  0.7816164E-02  0.1300439E+00
        -11   -1    0    0    0    0  0.00000000000E+00  0.00000000000E+00  0.45593999997E+02  0.45594000000E+02  0.51100000000E-03 0.  1.
         11   -1    0    0    0    0 -0.00000000000E+00 -0.00000000000E+00 -0.45593999997E+02  0.45594000000E+02  0.51100000000E-03 0. -1.
    9900012    2    1    2    0    0 -0.12338803148E+02 -0.36387962837E+02 -0.13297892657E+02  0.50528882306E+02  0.30000068258E+02 0.  0.
        -12    1    1    2    0    0  0.12338803148E+02  0.36387962837E+02  0.13297892657E+02  0.40659117694E+02  0.00000000000E+00 0.  1.
         11    1    3    3    0    0 -0.12420030023E+02 -0.11003852945E+02 -0.73922610531E+01  0.18165556670E+02  0.51100000000E-03 0. -1.
        -11    1    3    3    0    0 -0.91137755576E+01 -0.11549509532E+02  0.61740579949E-01  0.14712439890E+02  0.51100000000E-03 0.  1.
        -12    1    3    3    0    0  0.91950024324E+01 -0.13834600359E+02 -0.59673721839E+01  0.17650885746E+02  0.00000000000E+00 0.  1.
</event>
<event>
 7    1  0.3129575E-011  0.5052886E+02  0.7816164E-02  0.1300439E+00
        -11   -1    0    0    0    0  0.00000000000E+00  0.00000000000E+00  0.45593999997E+02  0.45594000000E+02  0.51100000000E-03 0.  1.
         11   -1    0    0    0    0 -0.00000000000E+00 -0.00000000000E+00 -0.45593999997E+02  0.45594000000E+02  0.51100000000E-03 0. -1.
    9900012    2    1    2    0    0  0.13472486268E+01 -0.18466592257E+02 -0.36198558460E+02  0.50528859047E+02  0.29999997560E+02 0.  0.
        -12    1    1    2    0    0 -0.13472486268E+01  0.18466592257E+02  0.36198558460E+02  0.40659140953E+02  0.00000000000E+00 0.  1.
         11    1    3    3    0    0  0.61511525667E+01 -0.14894772481E+01 -0.22381609746E+02  0.23259227748E+02  0.51100000000E-03 0. -1.
        -11    1    3    3    0    0 -0.56280227244E+01 -0.37439370896E+00 -0.77256313485E+01  0.95655731887E+01  0.51100000000E-03 0.  1.
        -12    1    3    3    0    0  0.82411878451E+00 -0.16602721299E+02 -0.60913173659E+01  0.17704058110E+02  0.00000000000E+00 0.  1.
</event>
<event>
 7    1  0.3129575E-011  0.5052886E+02  0.7816164E-02  0.1300439E+00
        -11   -1    0    0    0    0  0.00000000000E+00  0.00000000000E+00  0.45593999997E+02  0.45594000000E+02  0.51100000000E-03 0.  1.
         11   -1    0    0    0    0 -0.00000000000E+00 -0.00000000000E+00 -0.45593999997E+02  0.45594000000E+02  0.51100000000E-03 0. -1.
    9900012    2    1    2    0    0  0.98087372464E+01 -0.96407728833E+01 -0.38262379513E+02  0.50528861861E+02  0.30000006114E+02 0.  0.
        -12    1    1    2    0    0 -0.98087372464E+01  0.96407728833E+01  0.38262379513E+02  0.40659138139E+02  0.00000000000E+00 0.  1.
         11    1    3    3    0    0  0.14282241206E+01  0.17266539075E+01 -0.94412918233E+01  0.97035637479E+01  0.51100000000E-03 0. -1.
        -11    1    3    3    0    0  0.13111149782E+02 -0.52776018737E+00 -0.25274961973E+02  0.28478140431E+02  0.51100000000E-03 0.  1.
        -12    1    3    3    0    0 -0.47306366560E+01 -0.10839666603E+02 -0.35461257173E+01  0.12347157683E+02  0.00000000000E+00 0.  1.
</event>
<event>
 7    1  0.3129575E-011  0.5052886E+02  0.7816164E-02  0.1300439E+00
        -11   -1    0    0    0    0  0.00000000000E+00  0.00000000000E+00  0.45593999997E+02  0.45594000000E+02  0.51100000000E-03 0.  1.
         11   -1    0    0    0    0 -0.00000000000E+00 -0.00000000000E+00 -0.45593999997E+02  0.45594000000E+02  0.51100000000E-03 0. -1.
    9900012    2    1    2    0    0  0.10450580914E+02  0.12179523608E+02 -0.37357866080E+02  0.50528860870E+02  0.30000003100E+02 0.  0.
        -12    1    1    2    0    0 -0.10450580914E+02 -0.12179523608E+02  0.37357866080E+02  0.40659139130E+02  0.00000000000E+00 0.  1.
         11    1    3    3    0    0 -0.22029335339E+01 -0.11000098096E+01 -0.55486178384E+01  0.60704281492E+01  0.51100000000E-03 0. -1.
        -11    1    3    3    0    0 -0.13388779043E+01 -0.57257836030E+01 -0.13039180432E+02  0.14303755399E+02  0.51100000000E-03 0.  1.
        -12    1    3    3    0    0  0.13992392352E+02  0.19005317021E+02 -0.18770067809E+02  0.30154677321E+02  0.00000000000E+00 0.  1.
</event>
<event>
 7    1  0.3129575E-011  0.5052885E+02  0.7816164E-02  0.1300439E+00
        -11   -1    0    0    0    0  0.00000000000E+00  0.00000000000E+00  0.45593999997E+02  0.45594000000E+02  0.51100000000E-03 0.  1.
         11   -1    0    0    0    0 -0.00000000000E+00 -0.00000000000E+00 -0.45593999997E+02  0.45594000000E+02  0.51100000000E-03 0. -1.
    9900012    2    1    2    0    0 -0.41331824122E+01 -0.38624905790E+02  0.12008325139E+02  0.50528850761E+02  0.29999972374E+02 0.  0.
        -12    1    1    2    0    0  0.41331824122E+01  0.38624905790E+02 -0.12008325139E+02  0.40659149239E+02  0.00000000000E+00 0.  1.
         11    1    3    3    0    0  0.16093201369E+01 -0.66146153786E+01  0.60966560507E+00  0.68348182361E+01  0.51100000000E-03 0. -1.
        -11    1    3    3    0    0  0.12154868803E+01 -0.72665437493E+01  0.15969753650E+02  0.17587299347E+02  0.51100000000E-03 0.  1.
         12    1    3    3    0    0 -0.69579894294E+01 -0.24743746663E+02 -0.45710941164E+01  0.26106733178E+02  0.00000000000E+00 0. -1.
</event>
<event>
 7    1  0.3129575E-011  0.5052890E+02  0.7816164E-02  0.1300439E+00
        -11   -1    0    0    0    0  0.00000000000E+00  0.00000000000E+00  0.45593999997E+02  0.45594000000E+02  0.51100000000E-03 0. -1.
         11   -1    0    0    0    0 -0.00000000000E+00 -0.00000000000E+00 -0.45593999997E+02  0.45594000000E+02  0.51100000000E-03 0.  1.
    9900012    2    1    2    0    0 -0.23250410246E+02  0.24597462631E+02  0.22528774170E+02  0.50528900034E+02  0.30000122142E+02 0.  0.
        -12    1    1    2    0    0  0.23250410246E+02 -0.24597462631E+02 -0.22528774170E+02  0.40659099966E+02  0.00000000000E+00 0.  1.
         11    1    3    3    0    0 -0.52906537437E+01  0.47716845041E+01  0.22258398668E+02  0.23370842980E+02  0.51100000000E-03 0. -1.
        -11    1    3    3    0    0 -0.81226859757E+01  0.10257034699E+02 -0.20393701422E+01  0.13241745320E+02  0.51100000000E-03 0.  1.
        -12    1    3    3    0    0 -0.98370705263E+01  0.95687434281E+01  0.23097456434E+01  0.13916311734E+02  0.00000000000E+00 0.  1.
</event>
<event>
 7    1  0.3129575E-011  0.5052886E+02  0.7816164E-02  0.1300439E+00
        -11   -1    0    0    0    0  0.00000000000E+00  0.00000000000E+00  0.45593999997E+02  0.45594000000E+02  0.51100000000E-03 0.  1.
         11   -1    0    0    0    0 -0.00000000000E+00 -0.00000000000E+00 -0.45593999997E+02  0.45594000000E+02  0.51100000000E-03 0. -1.
    9900012    2    1    2    0    0 -0.24201139709E+02  0.19541367041E+02 -0.26184066463E+02  0.50528861722E+02  0.30000005689E+02 0.  0.
        -12    1    1    2    0    0  0.24201139709E+02 -0.19541367041E+02  0.26184066463E+02  0.40659138278E+02  0.00000000000E+00 0.  1.
         11    1    3    3    0    0  0.26285143835E+01  0.37834993739E+01 -0.11147129495E+02  0.12061610656E+02  0.51100000000E-03 0. -1.
        -11    1    3    3    0    0 -0.10741977845E+01  0.64430638000E+01  0.11804727534E+01  0.66378074839E+01  0.51100000000E-03 0.  1.
         12    1    3    3    0    0 -0.25755456308E+02  0.93148038666E+01 -0.16217409721E+02  0.31829443582E+02  0.00000000000E+00 0. -1.
</event>
<event>
 7    1  0.3129575E-011  0.5052886E+02  0.7816164E-02  0.1300439E+00
        -11   -1    0    0    0    0  0.00000000000E+00  0.00000000000E+00  0.45593999997E+02  0.45594000000E+02  0.51100000000E-03 0.  1.
         11   -1    0    0    0    0 -0.00000000000E+00 -0.00000000000E+00 -0.45593999997E+02  0.45594000000E+02  0.51100000000E-03 0. -1.
    9900012    2    1    2    0    0  0.29102561234E+02  0.22671326189E+02 -0.17094368280E+02  0.50528861686E+02  0.30000005580E+02 0.  0.
        -12    1    1    2    0    0 -0.29102561234E+02 -0.22671326189E+02  0.17094368280E+02  0.40659138314E+02  0.00000000000E+00 0.  1.
         11    1    3    3    0    0  0.81477785253E+01  0.40982375375E+01 -0.77428429412E+01  0.11963839805E+02  0.51100000000E-03 0.  1.
        -11    1    3    3    0    0  0.26216449525E+02  0.16487772083E+02 -0.48806075231E+01  0.31352339371E+02  0.51100000000E-03 0. -1.
         12    1    3    3    0    0 -0.52616668161E+01  0.20853165681E+01 -0.44709178156E+01  0.72126825098E+01  0.00000000000E+00 0. -1.
</event>
<event>
 7    1  0.3129575E-011  0.5052884E+02  0.7816164E-02  0.1300439E+00
        -11   -1    0    0    0    0  0.00000000000E+00  0.00000000000E+00  0.45593999997E+02  0.45594000000E+02  0.51100000000E-03 0.  1.
         11   -1    0    0    0    0 -0.00000000000E+00 -0.00000000000E+00 -0.45593999997E+02  0.45594000000E+02  0.51100000000E-03 0. -1.
    9900012    2    1    2    0    0  0.11042622418E+02 -0.33547987085E+02 -0.20143483932E+02  0.50528844915E+02  0.29999954603E+02 0.  0.
        -12    1    1    2    0    0 -0.11042622418E+02  0.33547987085E+02  0.20143483932E+02  0.40659155085E+02  0.00000000000E+00 0.  1.
         11    1    3    3    0    0 -0.76249812805E+01 -0.64101886384E+01 -0.84075095124E+01  0.13035224370E+02  0.51100000000E-03 0. -1.
        -11    1    3    3    0    0  0.80925794218E+01 -0.20382618045E+02 -0.11885951979E+02  0.24944274189E+02  0.51100000000E-03 0.  1.
        -12    1    3    3    0    0  0.10575024277E+02 -0.67551804014E+01  0.14997755957E+00  0.12549346357E+02  0.00000000000E+00 0.  1.
</event>
<event>
 7    1  0.3129575E-011  0.5052879E+02  0.7816164E-02  0.1300439E+00
        -11   -1    0    0    0    0  0.00000000000E+00  0.00000000000E+00  0.45593999997E+02  0.45594000000E+02  0.51100000000E-03 0. -1.
         11   -1    0    0    0    0 -0.00000000000E+00 -0.00000000000E+00 -0.45593999997E+02  0.45594000000E+02  0.51100000000E-03 0.  1.
    9900012    2    1    2    0    0 -0.28904080584E+01 -0.39597951359E+02  0.87646313858E+01  0.50528794721E+02  0.29999802034E+02 0.  0.
        -12    1    1    2    0    0  0.28904080584E+01  0.39597951359E+02 -0.87646313858E+01  0.40659205279E+02  0.00000000000E+00 0.  1.
         11    1    3    3    0    0 -0.71003025291E+01 -0.10510161758E+02  0.10465143311E+02  0.16443753251E+02  0.51100000000E-03 0. -1.
        -11    1    3    3    0    0  0.41742790228E+01 -0.14532325601E+01  0.38930772806E+01  0.58900374538E+01  0.51100000000E-03 0.  1.
         12    1    3    3    0    0  0.35615447887E-01 -0.27634557041E+02 -0.55935892058E+01  0.28195004017E+02  0.00000000000E+00 0. -1.
</event>
<event>
 7    1  0.3129575E-011  0.5052888E+02  0.7816164E-02  0.1300439E+00
        -11   -1    0    0    0    0  0.00000000000E+00  0.00000000000E+00  0.45593999997E+02  0.45594000000E+02  0.51100000000E-03 0. -1.
         11   -1    0    0    0    0 -0.00000000000E+00 -0.00000000000E+00 -0.45593999997E+02  0.45594000000E+02  0.51100000000E-03 0.  1.
    9900012    2    1    2    0    0  0.21998975577E+02  0.33692189889E+02 -0.58348599347E+01  0.50528878312E+02  0.30000056118E+02 0.  0.
        -12    1    1    2    0    0 -0.21998975577E+02 -0.33692189889E+02  0.58348599347E+01  0.40659121688E+02  0.00000000000E+00 0.  1.
         11    1    3    3    0    0  0.25350102886E+02  0.33224264012E+02 -0.83624433688E+01  0.42619360564E+02  0.51100000000E-03 0. -1.
        -11    1    3    3    0    0 -0.93967256247E+00  0.34283346587E+01  0.51061395387E+00  0.35912657835E+01  0.51100000000E-03 0.  1.
        -12    1    3    3    0    0 -0.24114547464E+01 -0.29604087818E+01  0.20169694802E+01  0.43182519651E+01  0.00000000000E+00 0.  1.
</event>
<event>
 7    1  0.3129575E-011  0.5052887E+02  0.7816164E-02  0.1300439E+00
        -11   -1    0    0    0    0  0.00000000000E+00  0.00000000000E+00  0.45593999997E+02  0.45594000000E+02  0.51100000000E-03 0.  1.
         11   -1    0    0    0    0 -0.00000000000E+00 -0.00000000000E+00 -0.45593999997E+02  0.45594000000E+02  0.51100000000E-03 0. -1.
    9900012    2    1    2    0    0  0.28033159468E+02  0.19640287081E+02 -0.21944614276E+02  0.50528868159E+02  0.30000025256E+02 0.  0.
        -12    1    1    2    0    0 -0.28033159468E+02 -0.19640287081E+02  0.21944614276E+02  0.40659131841E+02  0.00000000000E+00 0.  1.
         11    1    3    3    0    0  0.25130152924E+02  0.38823122603E+01 -0.14542843541E+02  0.29293194312E+02  0.51100000000E-03 0. -1.
        -11    1    3    3    0    0  0.25708148074E+01  0.13745949345E+02 -0.10527214923E+02  0.17503784347E+02  0.51100000000E-03 0.  1.
        -12    1    3    3    0    0  0.33219173594E+00  0.20120254755E+01  0.31254441883E+01  0.37318894996E+01  0.00000000000E+00 0.  1.
</event>
<event>
 7    1  0.3129575E-011  0.5052887E+02  0.7816164E-02  0.1300439E+00
        -11   -1    0    0    0    0  0.00000000000E+00  0.00000000000E+00  0.45593999997E+02  0.45594000000E+02  0.51100000000E-03 0.  1.
         11   -1    0    0    0    0 -0.00000000000E+00 -0.00000000000E+00 -0.45593999997E+02  0.45594000000E+02  0.51100000000E-03 0. -1.
    9900012    2    1    2    0    0 -0.37839134613E+02  0.31248466889E+01 -0.14546489352E+02  0.50528866615E+02  0.30000020564E+02 0.  0.
        -12    1    1    2    0    0  0.37839134613E+02 -0.31248466889E+01  0.14546489352E+02  0.40659133385E+02  0.00000000000E+00 0.  1.
         11    1    3    3    0    0 -0.10777367172E+02  0.42831837291E+01 -0.34738583608E+01  0.12106403190E+02  0.51100000000E-03 0. -1.
        -11    1    3    3    0    0 -0.13559850469E+02  0.28861724265E+01  0.69781028273E+01  0.15520742745E+02  0.51100000000E-03 0.  1.
        -12    1    3    3    0    0 -0.13501916972E+02 -0.40445094667E+01 -0.18050733819E+02  0.22901720681E+02  0.00000000000E+00 0.  1.
</event>
<event>
 7    1  0.3129575E-011  0.5052886E+02  0.7816164E-02  0.1300439E+00
        -11   -1    0    0    0    0  0.00000000000E+00  0.00000000000E+00  0.45593999997E+02  0.45594000000E+02  0.51100000000E-03 0.  1.
         11   -1    0    0    0    0 -0.00000000000E+00 -0.00000000000E+00 -0.45593999997E+02  0.45594000000E+02  0.51100000000E-03 0. -1.
    9900012    2    1    2    0    0  0.14313163708E+02  0.25371861098E+02 -0.28364895093E+02  0.50528864931E+02  0.30000015445E+02 0.  0.
        -12    1    1    2    0    0 -0.14313163708E+02 -0.25371861098E+02  0.28364895093E+02  0.40659135069E+02  0.00000000000E+00 0.  1.
         11    1    3    3    0    0  0.14403173942E+01  0.19123988958E+01  0.14462565060E+01  0.27970416292E+01  0.51100000000E-03 0. -1.
        -11    1    3    3    0    0 -0.54611877775E+01  0.14443061000E+02 -0.19418464698E+02  0.24809340066E+02  0.51100000000E-03 0.  1.
         12    1    3    3    0    0  0.18334034092E+02  0.90164012019E+01 -0.10392686901E+02  0.22922483237E+02  0.00000000000E+00 0. -1.
</event>
<event>
 7    1  0.3129575E-011  0.5052882E+02  0.7816164E-02  0.1300439E+00
        -11   -1    0    0    0    0  0.00000000000E+00  0.00000000000E+00  0.45593999997E+02  0.45594000000E+02  0.51100000000E-03 0. -1.
         11   -1    0    0    0    0 -0.00000000000E+00 -0.00000000000E+00 -0.45593999997E+02  0.45594000000E+02  0.51100000000E-03 0.  1.
    9900012    2    1    2    0    0 -0.16327913049E+02  0.36650984071E+02 -0.65782375252E+01  0.50528824076E+02  0.29999891261E+02 0.  0.
        -12    1    1    2    0    0  0.16327913049E+02 -0.36650984071E+02  0.65782375252E+01  0.40659175924E+02  0.00000000000E+00 0.  1.
         11    1    3    3    0    0 -0.10355375516E+02  0.14704571411E+02 -0.55392981742E+01  0.18818662200E+02  0.51100000000E-03 0. -1.
        -11    1    3    3    0    0 -0.46009943295E+01  0.20740378119E+01 -0.89517635163E+01  0.10276422139E+02  0.51100000000E-03 0.  1.
         12    1    3    3    0    0 -0.13715432036E+01  0.19872374847E+02  0.79128241653E+01  0.21433739737E+02  0.00000000000E+00 0. -1.
</event>
<event>
 7    1  0.3129575E-011  0.5052885E+02  0.7816164E-02  0.1300439E+00
        -11   -1    0    0    0    0  0.00000000000E+00  0.00000000000E+00  0.45593999997E+02  0.45594000000E+02  0.51100000000E-03 0.  1.
         11   -1    0    0    0    0 -0.00000000000E+00 -0.00000000000E+00 -0.45593999997E+02  0.45594000000E+02  0.51100000000E-03 0. -1.
    9900012    2    1    2    0    0 -0.23984856641E+02  0.31018382290E+02 -0.10758862439E+02  0.50528849628E+02  0.29999968930E+02 0.  0.
        -12    1    1    2    0    0  0.23984856641E+02 -0.31018382290E+02  0.10758862439E+02  0.40659150372E+02  0.00000000000E+00 0.  1.
         11    1    3    3    0    0 -0.15535355568E+02  0.20111498249E+02 -0.17404478897E+02  0.30801550617E+02  0.51100000000E-03 0. -1.
        -11    1    3    3    0    0 -0.11942744320E+01 -0.27850093895E+01  0.16273377907E+01  0.34395926015E+01  0.51100000000E-03 0.  1.
        -12    1    3    3    0    0 -0.72552266410E+01  0.13691893430E+02  0.50182786676E+01  0.16287706410E+02  0.00000000000E+00 0.  1.
</event>
<event>
 7    1  0.3129575E-011  0.5052886E+02  0.7816164E-02  0.1300439E+00
        -11   -1    0    0    0    0  0.00000000000E+00  0.00000000000E+00  0.45593999997E+02  0.45594000000E+02  0.51100000000E-03 0.  1.
         11   -1    0    0    0    0 -0.00000000000E+00 -0.00000000000E+00 -0.45593999997E+02  0.45594000000E+02  0.51100000000E-03 0. -1.
    9900012    2    1    2    0    0  0.59443853528E+01 -0.16520272925E+02 -0.36673021717E+02  0.50528860110E+02  0.30000000790E+02 0.  0.
        -12    1    1    2    0    0 -0.59443853528E+01  0.16520272925E+02  0.36673021717E+02  0.40659139890E+02  0.00000000000E+00 0.  1.
         11    1    3    3    0    0 -0.90290296631E+00  0.17277988521E+01  0.37602140329E+01  0.42355321359E+01  0.51100000000E-03 0.  1.
        -11    1    3    3    0    0  0.46080720442E+01 -0.60829290968E+00 -0.10392439998E+02  0.11384513938E+02  0.51100000000E-03 0. -1.
         12    1    3    3    0    0  0.22392162750E+01 -0.17639778867E+02 -0.30040795752E+02  0.34908814037E+02  0.00000000000E+00 0. -1.
</event>
<event>
 7    1  0.3129575E-011  0.5052886E+02  0.7816164E-02  0.1300439E+00
        -11   -1    0    0    0    0  0.00000000000E+00  0.00000000000E+00  0.45593999997E+02  0.45594000000E+02  0.51100000000E-03 0. -1.
         11   -1    0    0    0    0 -0.00000000000E+00 -0.00000000000E+00 -0.45593999997E+02  0.45594000000E+02  0.51100000000E-03 0.  1.
    9900012    2    1    2    0    0  0.18403345743E+02  0.18161580203E+02  0.31378970770E+02  0.50528856667E+02  0.29999990324E+02 0.  0.
        -12    1    1    2    0    0 -0.18403345743E+02 -0.18161580203E+02 -0.31378970770E+02  0.40659143333E+02  0.00000000000E+00 0.  1.
         11    1    3    3    0    0 -0.32815908321E+01  0.45508806734E+01  0.87853825575E+01  0.10424121077E+02  0.51100000000E-03 0. -1.
        -11    1    3    3    0    0  0.80522571952E+01  0.15193551648E+02  0.19570194646E+02  0.26051398741E+02  0.51100000000E-03 0.  1.
        -12    1    3    3    0    0  0.13632679380E+02 -0.15828521183E+01  0.30233935665E+01  0.14053336848E+02  0.00000000000E+00 0.  1.
</event>
<event>
 7    1  0.3129575E-011  0.5052885E+02  0.7816164E-02  0.1300439E+00
        -11   -1    0    0    0    0  0.00000000000E+00  0.00000000000E+00  0.45593999997E+02  0.45594000000E+02  0.51100000000E-03 0.  1.
         11   -1    0    0    0    0 -0.00000000000E+00 -0.00000000000E+00 -0.45593999997E+02  0.45594000000E+02  0.51100000000E-03 0. -1.
    9900012    2    1    2    0    0 -0.36794359366E+02  0.11554328798E+02 -0.12877837712E+02  0.50528854666E+02  0.29999984243E+02 0.  0.
        -12    1    1    2    0    0  0.36794359366E+02 -0.11554328798E+02  0.12877837712E+02  0.40659145334E+02  0.00000000000E+00 0.  1.
         11    1    3    3    0    0 -0.59094968564E+01  0.11651883389E+02 -0.13199724530E+01  0.13131293430E+02  0.51100000000E-03 0. -1.
        -11    1    3    3    0    0 -0.31801904399E+02 -0.32045858161E+01 -0.11972333652E+02  0.34131616823E+02  0.51100000000E-03 0.  1.
         12    1    3    3    0    0  0.91704188864E+00  0.31070312255E+01  0.41446839303E+00  0.32659444133E+01  0.00000000000E+00 0. -1.
</event>
<event>
 7    1  0.3129575E-011  0.5052888E+02  0.7816164E-02  0.1300439E+00
        -11   -1    0    0    0    0  0.00000000000E+00  0.00000000000E+00  0.45593999997E+02  0.45594000000E+02  0.51100000000E-03 0.  1.
         11   -1    0    0    0    0 -0.00000000000E+00 -0.00000000000E+00 -0.45593999997E+02  0.45594000000E+02  0.51100000000E-03 0. -1.
    9900012    2    1    2    0    0  0.11534077749E+02  0.11973354049E+02 -0.37104817928E+02  0.50528884538E+02  0.30000075041E+02 0.  0.
        -12    1    1    2    0    0 -0.11534077749E+02 -0.11973354049E+02  0.37104817928E+02  0.40659115462E+02  0.00000000000E+00 0.  1.
         11    1    3    3    0    0 -0.30824297517E+01 -0.70765562746E+01 -0.60896143190E+01  0.98317050758E+01  0.51100000000E-03 0. -1.
        -11    1    3    3    0    0  0.56106311683E+01  0.57269612030E+00 -0.85979498605E+01  0.10282602055E+02  0.51100000000E-03 0.  1.
         12    1    3    3    0    0  0.90058763319E+01  0.18477214203E+02 -0.22417253749E+02  0.30414577407E+02  0.00000000000E+00 0. -1.
</event>
<event>
 7    1  0.3129575E-011  0.5052887E+02  0.7816164E-02  0.1300439E+00
        -11   -1    0    0    0    0  0.00000000000E+00  0.00000000000E+00  0.45593999997E+02  0.45594000000E+02  0.51100000000E-03 0.  1.
         11   -1    0    0    0    0 -0.00000000000E+00 -0.00000000000E+00 -0.45593999997E+02  0.45594000000E+02  0.51100000000E-03 0. -1.
    9900012    2    1    2    0    0 -0.11159587938E+02 -0.24093586148E+02 -0.30791685972E+02  0.50528865461E+02  0.30000017055E+02 0.  0.
        -12    1    1    2    0    0  0.11159587938E+02  0.24093586148E+02  0.30791685972E+02  0.40659134539E+02  0.00000000000E+00 0.  1.
         11    1    3    3    0    0  0.11144235816E+01 -0.13604188030E+02 -0.13737585416E+02  0.19365875276E+02  0.51100000000E-03 0. -1.
        -11    1    3    3    0    0 -0.81403776051E+00 -0.13999922482E+02 -0.80285811658E+01  0.16159164668E+02  0.51100000000E-03 0.  1.
         12    1    3    3    0    0 -0.11459973759E+02  0.35105243638E+01 -0.90255193901E+01  0.15003825517E+02  0.00000000000E+00 0. -1.
</event>
<event>
 7    1  0.3129575E-011  0.5052886E+02  0.7816164E-02  0.1300439E+00
        -11   -1    0    0    0    0  0.00000000000E+00  0.00000000000E+00  0.45593999997E+02  0.45594000000E+02  0.51100000000E-03 0.  1.
         11   -1    0    0    0    0 -0.00000000000E+00 -0.00000000000E+00 -0.45593999997E+02  0.45594000000E+02  0.51100000000E-03 0. -1.
    9900012    2    1    2    0    0 -0.15431073460E+02  0.26901434943E+02 -0.26293733894E+02  0.50528859918E+02  0.30000000207E+02 0.  0.
        -12    1    1    2    0    0  0.15431073460E+02 -0.26901434943E+02  0.26293733894E+02  0.40659140082E+02  0.00000000000E+00 0.  1.
         11    1    3    3    0    0  0.17054954740E+01  0.19697158698E+01 -0.32722737122E+01  0.41828543997E+01  0.51100000000E-03 0. -1.
        -11    1    3    3    0    0  0.49401699556E+01  0.80814810911E+01 -0.14455872355E+02  0.17282588395E+02  0.51100000000E-03 0.  1.
         12    1    3    3    0    0 -0.22076738890E+02  0.16850237982E+02 -0.85655878262E+01  0.29063417123E+02  0.00000000000E+00 0. -1.
</event>
<event>
 7    1  0.3129575E-011  0.5052886E+02  0.7816164E-02  0.1300439E+00
        -11   -1    0    0    0    0  0.00000000000E+00  0.00000000000E+00  0.45593999997E+02  0.45594000000E+02  0.51100000000E-03 0.  1.
         11   -1    0    0    0    0 -0.00000000000E+00 -0.00000000000E+00 -0.45593999997E+02  0.45594000000E+02  0.51100000000E-03 0. -1.
    9900012    2    1    2    0    0 -0.20794881522E+02  0.32963254378E+02  0.11582837482E+02  0.50528863747E+02  0.30000011844E+02 0.  0.
        -12    1    1    2    0    0  0.20794881522E+02 -0.32963254378E+02 -0.11582837482E+02  0.40659136253E+02  0.00000000000E+00 0.  1.
         11    1    3    3    0    0 -0.16214866705E+02  0.17887660544E+02  0.42772988424E+01  0.24519086191E+02  0.51100000000E-03 0. -1.
        -11    1    3    3    0    0 -0.90397647895E+01 -0.15092052842E+00  0.18225237376E+01  0.92228909508E+01  0.51100000000E-03 0.  1.
        -12    1    3    3    0    0  0.44597499724E+01  0.15226514363E+02  0.54830149017E+01  0.16786886605E+02  0.00000000000E+00 0.  1.
</event>
<event>
 7    1  0.3129575E-011  0.5052885E+02  0.7816164E-02  0.1300439E+00
        -11   -1    0    0    0    0  0.00000000000E+00  0.00000000000E+00  0.45593999997E+02  0.45594000000E+02  0.51100000000E-03 0.  1.
         11   -1    0    0    0    0 -0.00000000000E+00 -0.00000000000E+00 -0.45593999997E+02  0.45594000000E+02  0.51100000000E-03 0. -1.
    9900012    2    1    2    0    0 -0.17865559542E+02 -0.33678535057E+02 -0.14133089773E+02  0.50528853823E+02  0.29999981679E+02 0.  0.
        -12    1    1    2    0    0  0.17865559542E+02  0.33678535057E+02  0.14133089773E+02  0.40659146177E+02  0.00000000000E+00 0.  1.
         11    1    3    3    0    0 -0.94239880158E+01 -0.78425227964E+01 -0.14651598379E+02  0.19104608063E+02  0.51100000000E-03 0.  1.
        -11    1    3    3    0    0 -0.95728894605E+01 -0.18192069367E+02 -0.58913045581E+01  0.21384552137E+02  0.51100000000E-03 0. -1.
        -12    1    3    3    0    0  0.11313179344E+01 -0.76439428941E+01  0.64098131635E+01  0.10039693622E+02  0.00000000000E+00 0.  1.
</event>
<event>
 7    1  0.3129575E-011  0.5052886E+02  0.7816164E-02  0.1300439E+00
        -11   -1    0    0    0    0  0.00000000000E+00  0.00000000000E+00  0.45593999997E+02  0.45594000000E+02  0.51100000000E-03 0.  1.
         11   -1    0    0    0    0 -0.00000000000E+00 -0.00000000000E+00 -0.45593999997E+02  0.45594000000E+02  0.51100000000E-03 0. -1.
    9900012    2    1    2    0    0 -0.92912458922E+01  0.36410514819E+02 -0.15527797197E+02  0.50528864182E+02  0.30000013169E+02 0.  0.
        -12    1    1    2    0    0  0.92912458922E+01 -0.36410514819E+02  0.15527797197E+02  0.40659135818E+02  0.00000000000E+00 0.  1.
         11    1    3    3    0    0 -0.15458738377E+02  0.81860399057E+01 -0.76963205559E+01  0.19110656501E+02  0.51100000000E-03 0. -1.
        -11    1    3    3    0    0 -0.27479927628E+00  0.82481530709E+01 -0.62820119656E+01  0.10371654560E+02  0.51100000000E-03 0.  1.
        -12    1    3    3    0    0  0.64422917607E+01  0.19976321843E+02 -0.15494646755E+01  0.21046553121E+02  0.00000000000E+00 0.  1.
</event>
<event>
 7    1  0.3129575E-011  0.5052879E+02  0.7816164E-02  0.1300439E+00
        -11   -1    0    0    0    0  0.00000000000E+00  0.00000000000E+00  0.45593999997E+02  0.45594000000E+02  0.51100000000E-03 0. -1.
         11   -1    0    0    0    0 -0.00000000000E+00 -0.00000000000E+00 -0.45593999997E+02  0.45594000000E+02  0.51100000000E-03 0.  1.
    9900012    2    1    2    0    0 -0.22819065484E+02  0.21191441828E+02  0.26141620654E+02  0.50528790875E+02  0.29999790341E+02 0.  0.
        -12    1    1    2    0    0  0.22819065484E+02 -0.21191441828E+02 -0.26141620654E+02  0.40659209125E+02  0.00000000000E+00 0.  1.
         11    1    3    3    0    0 -0.85930527805E+01  0.16008211239E+02  0.16833792928E+02  0.24768527768E+02  0.51100000000E-03 0. -1.
        -11    1    3    3    0    0 -0.90239609460E-01  0.87283030946E+01  0.52441856693E+00  0.87445087451E+01  0.51100000000E-03 0.  1.
        -12    1    3    3    0    0 -0.14135773094E+02 -0.35450725064E+01  0.87834091586E+01  0.17015754362E+02  0.00000000000E+00 0.  1.
</event>
<event>
 7    1  0.3129575E-011  0.5052888E+02  0.7816164E-02  0.1300439E+00
        -11   -1    0    0    0    0  0.00000000000E+00  0.00000000000E+00  0.45593999997E+02  0.45594000000E+02  0.51100000000E-03 0.  1.
         11   -1    0    0    0    0 -0.00000000000E+00 -0.00000000000E+00 -0.45593999997E+02  0.45594000000E+02  0.51100000000E-03 0. -1.
    9900012    2    1    2    0    0 -0.17939015156E+02 -0.37627012497E+01 -0.36293218368E+02  0.50528881896E+02  0.30000067011E+02 0.  0.
        -12    1    1    2    0    0  0.17939015156E+02  0.37627012497E+01  0.36293218368E+02  0.40659118104E+02  0.00000000000E+00 0.  1.
         11    1    3    3    0    0  0.77320515910E+00 -0.63728356880E+01 -0.21443044729E+02  0.22383365440E+02  0.51100000000E-03 0. -1.
        -11    1    3    3    0    0  0.12850649314E+01  0.38293119418E-01  0.16505124156E+01  0.20921399896E+01  0.51100000000E-03 0.  1.
         12    1    3    3    0    0 -0.19997285247E+02  0.25718413189E+01 -0.16500686055E+02  0.26053376466E+02  0.00000000000E+00 0. -1.
</event>
<event>
 7    1  0.3129575E-011  0.5052885E+02  0.7816164E-02  0.1300439E+00
        -11   -1    0    0    0    0  0.00000000000E+00  0.00000000000E+00  0.45593999997E+02  0.45594000000E+02  0.51100000000E-03 0. -1.
         11   -1    0    0    0    0 -0.00000000000E+00 -0.00000000000E+00 -0.45593999997E+02  0.45594000000E+02  0.51100000000E-03 0.  1.
    9900012    2    1    2    0    0  0.27502286377E+02 -0.26026480876E+02  0.14812605249E+02  0.50528846824E+02  0.29999960406E+02 0.  0.
        -12    1    1    2    0    0 -0.27502286377E+02  0.26026480876E+02 -0.14812605249E+02  0.40659153176E+02  0.00000000000E+00 0.  1.
         11    1    3    3    0    0  0.42385193297E+01 -0.77202816935E+01  0.25304659445E+01  0.91635721033E+01  0.51100000000E-03 0. -1.
        -11    1    3    3    0    0 -0.34271636302E+01 -0.22782201346E+01  0.92012189852E+01  0.10079591688E+02  0.51100000000E-03 0.  1.
         12    1    3    3    0    0  0.26690930677E+02 -0.16027979048E+02  0.30809203194E+01  0.31285683032E+02  0.00000000000E+00 0. -1.
</event>
<event>
 7    1  0.3129575E-011  0.5052886E+02  0.7816164E-02  0.1300439E+00
        -11   -1    0    0    0    0  0.00000000000E+00  0.00000000000E+00  0.45593999997E+02  0.45594000000E+02  0.51100000000E-03 0.  1.
         11   -1    0    0    0    0 -0.00000000000E+00 -0.00000000000E+00 -0.45593999997E+02  0.45594000000E+02  0.51100000000E-03 0. -1.
    9900012    2    1    2    0    0  0.15628272476E+02  0.18271292860E+02 -0.32788455239E+02  0.50528857850E+02  0.29999993921E+02 0.  0.
        -12    1    1    2    0    0 -0.15628272476E+02 -0.18271292860E+02  0.32788455239E+02  0.40659142150E+02  0.00000000000E+00 0.  1.
         11    1    3    3    0    0  0.60105483280E+01  0.83528425139E+01 -0.17276847049E+02  0.20109353880E+02  0.51100000000E-03 0. -1.
        -11    1    3    3    0    0  0.16721629260E+02  0.47997632285E+01 -0.98347632436E+01  0.19984323368E+02  0.51100000000E-03 0.  1.
         12    1    3    3    0    0 -0.71039051116E+01  0.51186871178E+01 -0.56768449473E+01  0.10435180602E+02  0.00000000000E+00 0. -1.
</event>
<event>
 7    1  0.3129575E-011  0.5052885E+02  0.7816164E-02  0.1300439E+00
        -11   -1    0    0    0    0  0.00000000000E+00  0.00000000000E+00  0.45593999997E+02  0.45594000000E+02  0.51100000000E-03 0.  1.
         11   -1    0    0    0    0 -0.00000000000E+00 -0.00000000000E+00 -0.45593999997E+02  0.45594000000E+02  0.51100000000E-03 0. -1.
    9900012    2    1    2    0    0  0.22933824041E+02 -0.55796639137E+00 -0.33569255382E+02  0.50528849510E+02  0.29999968572E+02 0.  0.
        -12    1    1    2    0    0 -0.22933824041E+02  0.55796639137E+00  0.33569255382E+02  0.40659150490E+02  0.00000000000E+00 0.  1.
         11    1    3    3    0    0  0.14531176122E+01  0.12157711488E+00 -0.19897933992E+02  0.19951293422E+02  0.51100000000E-03 0. -1.
        -11    1    3    3    0    0  0.29558472561E+01 -0.13580642732E+01 -0.11455402940E+02  0.11908300817E+02  0.51100000000E-03 0.  1.
        -12    1    3    3    0    0  0.18524859173E+02  0.67852076696E+00 -0.22159184494E+01  0.18669255271E+02  0.00000000000E+00 0.  1.
</event>
<event>
 7    1  0.3129575E-011  0.5052888E+02  0.7816164E-02  0.1300439E+00
        -11   -1    0    0    0    0  0.00000000000E+00  0.00000000000E+00  0.45593999997E+02  0.45594000000E+02  0.51100000000E-03 0.  1.
         11   -1    0    0    0    0 -0.00000000000E+00 -0.00000000000E+00 -0.45593999997E+02  0.45594000000E+02  0.51100000000E-03 0. -1.
    9900012    2    1    2    0    0  0.16639088405E+01 -0.23912121086E+02 -0.32842138371E+02  0.50528878265E+02  0.30000055974E+02 0.  0.
        -12    1    1    2    0    0 -0.16639088405E+01  0.23912121086E+02  0.32842138371E+02  0.40659121735E+02  0.00000000000E+00 0.  1.
         11    1    3    3    0    0  0.53221443981E+01  0.21655584133E+01 -0.23014286359E+01  0.61896234347E+01  0.51100000000E-03 0. -1.
        -11    1    3    3    0    0  0.33028631483E+01 -0.14796921365E+02 -0.57266821347E+01  0.16206562726E+02  0.51100000000E-03 0.  1.
         12    1    3    3    0    0 -0.69610987059E+01 -0.11280758135E+02 -0.24814027600E+02  0.28132692104E+02  0.00000000000E+00 0. -1.
</event>
<event>
 7    1  0.3129575E-011  0.5052886E+02  0.7816164E-02  0.1300439E+00
        -11   -1    0    0    0    0  0.00000000000E+00  0.00000000000E+00  0.45593999997E+02  0.45594000000E+02  0.51100000000E-03 0. -1.
         11   -1    0    0    0    0 -0.00000000000E+00 -0.00000000000E+00 -0.45593999997E+02  0.45594000000E+02  0.51100000000E-03 0.  1.
    9900012    2    1    2    0    0 -0.28201862153E+02 -0.17934806948E+01  0.29233608675E+02  0.50528862306E+02  0.30000007465E+02 0.  0.
        -12    1    1    2    0    0  0.28201862153E+02  0.17934806948E+01 -0.29233608675E+02  0.40659137694E+02  0.00000000000E+00 0.  1.
         11    1    3    3    0    0 -0.20787921667E+02 -0.62389746116E+01  0.14309283200E+02  0.25996501253E+02  0.51100000000E-03 0. -1.
        -11    1    3    3    0    0 -0.12220155598E+02  0.59169518870E+01  0.13844923593E+02  0.19391349413E+02  0.51100000000E-03 0.  1.
        -12    1    3    3    0    0  0.48062151125E+01 -0.14714579702E+01  0.10794018819E+01  0.51410116405E+01  0.00000000000E+00 0.  1.
</event>
<event>
 7    1  0.3129575E-011  0.5052882E+02  0.7816164E-02  0.1300439E+00
        -11   -1    0    0    0    0  0.00000000000E+00  0.00000000000E+00  0.45593999997E+02  0.45594000000E+02  0.51100000000E-03 0.  1.
         11   -1    0    0    0    0 -0.00000000000E+00 -0.00000000000E+00 -0.45593999997E+02  0.45594000000E+02  0.51100000000E-03 0. -1.
    9900012    2    1    2    0    0  0.16873910388E+02  0.16465441269E+02 -0.33125967195E+02  0.50528815176E+02  0.29999864209E+02 0.  0.
        -12    1    1    2    0    0 -0.16873910388E+02 -0.16465441269E+02  0.33125967195E+02  0.40659184824E+02  0.00000000000E+00 0.  1.
         11    1    3    3    0    0  0.46316205872E+01 -0.19058918242E+01 -0.10950377647E+01  0.51267378397E+01  0.51100000000E-03 0. -1.
        -11    1    3    3    0    0  0.79981738772E+01  0.12775346348E+02 -0.27887868176E+01  0.15328326453E+02  0.51100000000E-03 0.  1.
         12    1    3    3    0    0  0.42441159232E+01  0.55959867457E+01 -0.29242142612E+02  0.30073750883E+02  0.00000000000E+00 0. -1.
</event>
<event>
 7    1  0.3129575E-011  0.5052886E+02  0.7816164E-02  0.1300439E+00
        -11   -1    0    0    0    0  0.00000000000E+00  0.00000000000E+00  0.45593999997E+02  0.45594000000E+02  0.51100000000E-03 0.  1.
         11   -1    0    0    0    0 -0.00000000000E+00 -0.00000000000E+00 -0.45593999997E+02  0.45594000000E+02  0.51100000000E-03 0. -1.
    9900012    2    1    2    0    0 -0.19520376043E+02 -0.13958706775E+02 -0.32821872508E+02  0.50528857232E+02  0.29999992041E+02 0.  0.
        -12    1    1    2    0    0  0.19520376043E+02  0.13958706775E+02  0.32821872508E+02  0.40659142768E+02  0.00000000000E+00 0.  1.
         11    1    3    3    0    0  0.31282806024E-02 -0.21920658628E+01 -0.11443610883E+01  0.24727970185E+01  0.51100000000E-03 0. -1.
        -11    1    3    3    0    0 -0.19387114457E+02 -0.17744373613E+02 -0.14825664365E+02  0.30174879055E+02  0.51100000000E-03 0.  1.
         12    1    3    3    0    0 -0.13638986684E+00  0.59777327003E+01 -0.16851847055E+02  0.17881181158E+02  0.00000000000E+00 0. -1.
</event>
<event>
 7    1  0.3129575E-011  0.5052887E+02  0.7816164E-02  0.1300439E+00
        -11   -1    0    0    0    0  0.00000000000E+00  0.00000000000E+00  0.45593999997E+02  0.45594000000E+02  0.51100000000E-03 0.  1.
         11   -1    0    0    0    0 -0.00000000000E+00 -0.00000000000E+00 -0.45593999997E+02  0.45594000000E+02  0.51100000000E-03 0. -1.
    9900012    2    1    2    0    0  0.58696639384E+01 -0.38782821498E+02 -0.10705369341E+02  0.50528866576E+02  0.30000020444E+02 0.  0.
        -12    1    1    2    0    0 -0.58696639384E+01  0.38782821498E+02  0.10705369341E+02  0.40659133424E+02  0.00000000000E+00 0.  1.
         11    1    3    3    0    0  0.44691445282E+01 -0.96850924683E+01 -0.65607373962E+01  0.12522681198E+02  0.51100000000E-03 0. -1.
        -11    1    3    3    0    0 -0.31245373115E+01  0.14863114796E+01 -0.61154852470E+01  0.70264511165E+01  0.51100000000E-03 0.  1.
        -12    1    3    3    0    0  0.45250567216E+01 -0.30584040509E+02  0.19708533018E+01  0.30979734262E+02  0.00000000000E+00 0.  1.
</event>
<event>
 7    1  0.3129575E-011  0.5052886E+02  0.7816164E-02  0.1300439E+00
        -11   -1    0    0    0    0  0.00000000000E+00  0.00000000000E+00  0.45593999997E+02  0.45594000000E+02  0.51100000000E-03 0.  1.
         11   -1    0    0    0    0 -0.00000000000E+00 -0.00000000000E+00 -0.45593999997E+02  0.45594000000E+02  0.51100000000E-03 0. -1.
    9900012    2    1    2    0    0 -0.17326453234E+02  0.17926484671E+02 -0.32118547773E+02  0.50528856559E+02  0.29999989997E+02 0.  0.
        -12    1    1    2    0    0  0.17326453234E+02 -0.17926484671E+02  0.32118547773E+02  0.40659143441E+02  0.00000000000E+00 0.  1.
         11    1    3    3    0    0 -0.21975818290E+02  0.16491850389E+02 -0.16703755823E+02  0.32154831327E+02  0.51100000000E-03 0. -1.
        -11    1    3    3    0    0  0.13096507841E+00 -0.31729932188E+01 -0.29342526790E+01  0.43237572623E+01  0.51100000000E-03 0.  1.
        -12    1    3    3    0    0  0.45183999780E+01  0.46076275010E+01 -0.12480539270E+02  0.14050267970E+02  0.00000000000E+00 0.  1.
</event>
<event>
 7    1  0.3129575E-011  0.5052886E+02  0.7816164E-02  0.1300439E+00
        -11   -1    0    0    0    0  0.00000000000E+00  0.00000000000E+00  0.45593999997E+02  0.45594000000E+02  0.51100000000E-03 0.  1.
         11   -1    0    0    0    0 -0.00000000000E+00 -0.00000000000E+00 -0.45593999997E+02  0.45594000000E+02  0.51100000000E-03 0. -1.
    9900012    2    1    2    0    0 -0.10858339843E+01 -0.29447273219E+02 -0.28015081266E+02  0.50528859406E+02  0.29999998651E+02 0.  0.
        -12    1    1    2    0    0  0.10858339843E+01  0.29447273219E+02  0.28015081266E+02  0.40659140594E+02  0.00000000000E+00 0.  1.
         11    1    3    3    0    0  0.49299287731E+01 -0.75431516847E+01 -0.14463819156E+02  0.17041285160E+02  0.51100000000E-03 0. -1.
        -11    1    3    3    0    0  0.50833563722E+01 -0.62976160083E+01  0.25309539480E+01  0.84797527996E+01  0.51100000000E-03 0.  1.
        -12    1    3    3    0    0 -0.11099119130E+02 -0.15606505526E+02 -0.16082216058E+02  0.25007821447E+02  0.00000000000E+00 0.  1.
</event>
<event>
 7    1  0.3129575E-011  0.5052886E+02  0.7816164E-02  0.1300439E+00
        -11   -1    0    0    0    0  0.00000000000E+00  0.00000000000E+00  0.45593999997E+02  0.45594000000E+02  0.51100000000E-03 0.  1.
         11   -1    0    0    0    0 -0.00000000000E+00 -0.00000000000E+00 -0.45593999997E+02  0.45594000000E+02  0.51100000000E-03 0. -1.
    9900012    2    1    2    0    0  0.32203806165E+02 -0.46389194853E+01 -0.24383628799E+02  0.50528855162E+02  0.29999985752E+02 0.  0.
        -12    1    1    2    0    0 -0.32203806165E+02  0.46389194853E+01  0.24383628799E+02  0.40659144838E+02  0.00000000000E+00 0.  1.
         11    1    3    3    0    0  0.35090694202E+01  0.12179500485E-01 -0.59792037419E+01  0.69328633467E+01  0.51100000000E-03 0. -1.
        -11    1    3    3    0    0  0.32757609819E+02 -0.14873198742E+01 -0.11020239549E+02  0.34593623711E+02  0.51100000000E-03 0.  1.
        -12    1    3    3    0    0 -0.40628730740E+01 -0.31637791115E+01 -0.73841855079E+01  0.90023681050E+01  0.00000000000E+00 0.  1.
</event>
<event>
 7    1  0.3129575E-011  0.5052886E+02  0.7816164E-02  0.1300439E+00
        -11   -1    0    0    0    0  0.00000000000E+00  0.00000000000E+00  0.45593999997E+02  0.45594000000E+02  0.51100000000E-03 0. -1.
         11   -1    0    0    0    0 -0.00000000000E+00 -0.00000000000E+00 -0.45593999997E+02  0.45594000000E+02  0.51100000000E-03 0.  1.
    9900012    2    1    2    0    0  0.33595383284E+02  0.21986998619E+02 -0.64100010592E+01  0.50528855889E+02  0.29999987961E+02 0.  0.
        -12    1    1    2    0    0 -0.33595383284E+02 -0.21986998619E+02  0.64100010592E+01  0.40659144111E+02  0.00000000000E+00 0.  1.
         11    1    3    3    0    0  0.29140043717E+02  0.21399906288E+02 -0.45565044211E+01  0.36439811604E+02  0.51100000000E-03 0. -1.
        -11    1    3    3    0    0  0.87698928541E+01 -0.14010100487E+01 -0.26591355463E+01  0.92706446347E+01  0.51100000000E-03 0.  1.
         12    1    3    3    0    0 -0.43145532871E+01  0.19881023790E+01  0.80563890812E+00  0.48183996500E+01  0.00000000000E+00 0. -1.
</event>
<event>
 7    1  0.3129575E-011  0.5052886E+02  0.7816164E-02  0.1300439E+00
        -11   -1    0    0    0    0  0.00000000000E+00  0.00000000000E+00  0.45593999997E+02  0.45594000000E+02  0.51100000000E-03 0.  1.
         11   -1    0    0    0    0 -0.00000000000E+00 -0.00000000000E+00 -0.45593999997E+02  0.45594000000E+02  0.51100000000E-03 0. -1.
    9900012    2    1    2    0    0 -0.22672880652E+02  0.27883799511E+02  0.19015778241E+02  0.50528860630E+02  0.30000002370E+02 0.  0.
        -12    1    1    2    0    0  0.22672880652E+02 -0.27883799511E+02 -0.19015778241E+02  0.40659139370E+02  0.00000000000E+00 0.  1.
         11    1    3    3    0    0 -0.12939292635E+02  0.36859654662E+01 -0.12146949229E+00  0.13454604804E+02  0.51100000000E-03 0. -1.
        -11    1    3    3    0    0 -0.51307213700E+01  0.21451786564E+02  0.59587795072E+01  0.22847549147E+02  0.51100000000E-03 0.  1.
        -12    1    3    3    0    0 -0.46028666461E+01  0.27460474813E+01  0.13178468226E+02  0.14226706679E+02  0.00000000000E+00 0.  1.
</event>
<event>
 7    1  0.3280216E-011  0.5052898E+02  0.7816164E-02  0.1300438E+00
        -11   -1    0    0    0    0  0.00000000000E+00  0.00000000000E+00  0.45593999997E+02  0.45594000000E+02  0.51100000000E-03 0.  1.
         11   -1    0    0    0    0 -0.00000000000E+00 -0.00000000000E+00 -0.45593999997E+02  0.45594000000E+02  0.51100000000E-03 0. -1.
    9900012    2    1    2    0    0 -0.36676978120E+02 -0.16752970586E+02  0.52242753767E+01  0.50528981312E+02  0.30000369195E+02 0.  0.
        -12    1    1    2    0    0  0.36676978120E+02  0.16752970586E+02 -0.52242753767E+01  0.40659018688E+02  0.00000000000E+00 0.  1.
         11    1    3    3    0    0 -0.11023890852E+02  0.45345739840E+01  0.59637741655E+01  0.13328733372E+02  0.51100000000E-03 0. -1.
        -11    1    3    3    0    0 -0.57853482075E+01 -0.50159549634E+01 -0.74227310948E+01  0.10664285970E+02  0.51100000000E-03 0.  1.
         12    1    3    3    0    0 -0.19867739060E+02 -0.16271589606E+02  0.66832323060E+01  0.26535961971E+02  0.00000000000E+00 0. -1.
</event>
<event>
 7    1  0.3129575E-011  0.5052885E+02  0.7816164E-02  0.1300439E+00
        -11   -1    0    0    0    0  0.00000000000E+00  0.00000000000E+00  0.45593999997E+02  0.45594000000E+02  0.51100000000E-03 0. -1.
         11   -1    0    0    0    0 -0.00000000000E+00 -0.00000000000E+00 -0.45593999997E+02  0.45594000000E+02  0.51100000000E-03 0.  1.
    9900012    2    1    2    0    0  0.24132896909E+02 -0.16500660429E+02  0.28257703626E+02  0.50528851927E+02  0.29999975919E+02 0.  0.
        -12    1    1    2    0    0 -0.24132896909E+02  0.16500660429E+02 -0.28257703626E+02  0.40659148073E+02  0.00000000000E+00 0.  1.
         11    1    3    3    0    0 -0.33244840824E-01 -0.14196968726E+01  0.87923147515E+01  0.89062586634E+01  0.51100000000E-03 0. -1.
        -11    1    3    3    0    0  0.31401018821E+01  0.27998983940E+01 -0.36891498270E+01  0.55954890362E+01  0.51100000000E-03 0.  1.
         12    1    3    3    0    0  0.21026039867E+02 -0.17880861950E+02  0.23154538701E+02  0.36027104228E+02  0.00000000000E+00 0. -1.
</event>
<event>
 7    1  0.3129575E-011  0.5052886E+02  0.7816164E-02  0.1300439E+00
        -11   -1    0    0    0    0  0.00000000000E+00  0.00000000000E+00  0.45593999997E+02  0.45594000000E+02  0.51100000000E-03 0.  1.
         11   -1    0    0    0    0 -0.00000000000E+00 -0.00000000000E+00 -0.45593999997E+02  0.45594000000E+02  0.51100000000E-03 0. -1.
    9900012    2    1    2    0    0  0.38618693104E+02 -0.24126400520E+01 -0.12487642882E+02  0.50528861866E+02  0.30000006126E+02 0.  0.
        -12    1    1    2    0    0 -0.38618693104E+02  0.24126400520E+01  0.12487642882E+02  0.40659138134E+02  0.00000000000E+00 0.  1.
         11    1    3    3    0    0  0.66963701851E+01  0.51107750946E+01 -0.32824252173E+01  0.90407804581E+01  0.51100000000E-03 0. -1.
        -11    1    3    3    0    0  0.22770399637E+02 -0.15884395175E+02 -0.86494495752E+01  0.29079513199E+02  0.51100000000E-03 0.  1.
         12    1    3    3    0    0  0.91519232822E+01  0.83609800286E+01 -0.55576808927E+00  0.12408568208E+02  0.00000000000E+00 0. -1.
</event>
<event>
 7    1  0.3129575E-011  0.5052886E+02  0.7816164E-02  0.1300439E+00
        -11   -1    0    0    0    0  0.00000000000E+00  0.00000000000E+00  0.45593999997E+02  0.45594000000E+02  0.51100000000E-03 0. -1.
         11   -1    0    0    0    0 -0.00000000000E+00 -0.00000000000E+00 -0.45593999997E+02  0.45594000000E+02  0.51100000000E-03 0.  1.
    9900012    2    1    2    0    0  0.25242926151E+02  0.36359570041E+00  0.31872057610E+02  0.50528861067E+02  0.30000003699E+02 0.  0.
        -12    1    1    2    0    0 -0.25242926151E+02 -0.36359570041E+00 -0.31872057610E+02  0.40659138933E+02  0.00000000000E+00 0.  1.
         11    1    3    3    0    0  0.11481823852E+02  0.65979611890E+01  0.97521103010E+01  0.16445942551E+02  0.51100000000E-03 0. -1.
        -11    1    3    3    0    0 -0.11072110224E+01  0.48016902287E+01 -0.38132302589E+00  0.49424237790E+01  0.51100000000E-03 0.  1.
        -12    1    3    3    0    0  0.14868313322E+02 -0.11036055717E+02  0.22501270335E+02  0.29140494737E+02  0.00000000000E+00 0.  1.
</event>
<event>
 7    1  0.3129575E-011  0.5052885E+02  0.7816164E-02  0.1300439E+00
        -11   -1    0    0    0    0  0.00000000000E+00  0.00000000000E+00  0.45593999997E+02  0.45594000000E+02  0.51100000000E-03 0. -1.
         11   -1    0    0    0    0 -0.00000000000E+00 -0.00000000000E+00 -0.45593999997E+02  0.45594000000E+02  0.51100000000E-03 0.  1.
    9900012    2    1    2    0    0 -0.28380574434E+02  0.28134442640E+02 -0.74941852316E+01  0.50528847523E+02  0.29999962531E+02 0.  0.
        -12    1    1    2    0    0  0.28380574434E+02 -0.28134442640E+02  0.74941852316E+01  0.40659152477E+02  0.00000000000E+00 0.  1.
         11    1    3    3    0    0 -0.39339145438E+01  0.98477223503E+01  0.74464974531E+01  0.12957763839E+02  0.51100000000E-03 0. -1.
        -11    1    3    3    0    0 -0.18363963188E+02  0.91764599653E+01 -0.20146320069E+01  0.20627682949E+02  0.51100000000E-03 0.  1.
        -12    1    3    3    0    0 -0.60826967017E+01  0.91102603244E+01 -0.12926050678E+02  0.16943400735E+02  0.00000000000E+00 0.  1.
</event>
<event>
 7    1  0.3129575E-011  0.5052885E+02  0.7816164E-02  0.1300439E+00
        -11   -1    0    0    0    0  0.00000000000E+00  0.00000000000E+00  0.45593999997E+02  0.45594000000E+02  0.51100000000E-03 0.  1.
         11   -1    0    0    0    0 -0.00000000000E+00 -0.00000000000E+00 -0.45593999997E+02  0.45594000000E+02  0.51100000000E-03 0. -1.
    9900012    2    1    2    0    0  0.35903099140E+02  0.17317138945E+02  0.80156266172E+01  0.50528854667E+02  0.29999984246E+02 0.  0.
        -12    1    1    2    0    0 -0.35903099140E+02 -0.17317138945E+02 -0.80156266172E+01  0.40659145333E+02  0.00000000000E+00 0.  1.
         11    1    3    3    0    0  0.17826290185E+02  0.15159349578E+02  0.66336077415E+01  0.24322566750E+02  0.51100000000E-03 0. -1.
        -11    1    3    3    0    0  0.60677224475E+00  0.22914228005E+01  0.73670469421E+01  0.77390032896E+01  0.51100000000E-03 0.  1.
        -12    1    3    3    0    0  0.17470036710E+02 -0.13363343292E+00 -0.59850280665E+01  0.18467284628E+02  0.00000000000E+00 0.  1.
</event>
<event>
 7    1  0.3129575E-011  0.5052886E+02  0.7816164E-02  0.1300439E+00
        -11   -1    0    0    0    0  0.00000000000E+00  0.00000000000E+00  0.45593999997E+02  0.45594000000E+02  0.51100000000E-03 0.  1.
         11   -1    0    0    0    0 -0.00000000000E+00 -0.00000000000E+00 -0.45593999997E+02  0.45594000000E+02  0.51100000000E-03 0. -1.
    9900012    2    1    2    0    0  0.63154560939E+01  0.21806982499E+02 -0.33730349947E+02  0.50528856146E+02  0.29999988741E+02 0.  0.
        -12    1    1    2    0    0 -0.63154560939E+01 -0.21806982499E+02  0.33730349947E+02  0.40659143854E+02  0.00000000000E+00 0.  1.
         11    1    3    3    0    0 -0.34028594235E+01  0.14353968169E+02 -0.18068615096E+02  0.23325751997E+02  0.51100000000E-03 0. -1.
        -11    1    3    3    0    0 -0.26067299898E+01  0.66799561668E+01  0.11053628277E+00  0.71714067073E+01  0.51100000000E-03 0.  1.
         12    1    3    3    0    0  0.12325045507E+02  0.77305816310E+00 -0.15772271134E+02  0.20031697442E+02  0.00000000000E+00 0. -1.
</event>
<event>
 7    1  0.3129575E-011  0.5052886E+02  0.7816164E-02  0.1300439E+00
        -11   -1    0    0    0    0  0.00000000000E+00  0.00000000000E+00  0.45593999997E+02  0.45594000000E+02  0.51100000000E-03 0. -1.
         11   -1    0    0    0    0 -0.00000000000E+00 -0.00000000000E+00 -0.45593999997E+02  0.45594000000E+02  0.51100000000E-03 0.  1.
    9900012    2    1    2    0    0  0.10463997055E+02  0.10595213368E+02  0.37834008176E+02  0.50528856436E+02  0.29999989623E+02 0.  0.
        -12    1    1    2    0    0 -0.10463997055E+02 -0.10595213368E+02 -0.37834008176E+02  0.40659143564E+02  0.00000000000E+00 0.  1.
         11    1    3    3    0    0 -0.67914391355E+01  0.11891914677E+02  0.12870449942E+02  0.18793343561E+02  0.51100000000E-03 0. -1.
        -11    1    3    3    0    0  0.13001091570E+01 -0.25595597597E+01  0.12618759866E+01  0.31359147390E+01  0.51100000000E-03 0.  1.
        -12    1    3    3    0    0  0.15955327034E+02  0.12628584515E+01  0.23701682247E+02  0.28599598136E+02  0.00000000000E+00 0.  1.
</event>
<event>
 7    1  0.3129575E-011  0.5052886E+02  0.7816164E-02  0.1300439E+00
        -11   -1    0    0    0    0  0.00000000000E+00  0.00000000000E+00  0.45593999997E+02  0.45594000000E+02  0.51100000000E-03 0.  1.
         11   -1    0    0    0    0 -0.00000000000E+00 -0.00000000000E+00 -0.45593999997E+02  0.45594000000E+02  0.51100000000E-03 0. -1.
    9900012    2    1    2    0    0  0.87199436138E+01 -0.38445258276E+02 -0.99544066572E+01  0.50528861883E+02  0.30000006180E+02 0.  0.
        -12    1    1    2    0    0 -0.87199436138E+01  0.38445258276E+02  0.99544066572E+01  0.40659138117E+02  0.00000000000E+00 0.  1.
         11    1    3    3    0    0  0.45203166344E+01 -0.20841504193E+01 -0.14063778706E+01  0.51725085231E+01  0.51100000000E-03 0. -1.
        -11    1    3    3    0    0 -0.89163161139E+01 -0.46676081521E+01 -0.36628601854E+01  0.10709986177E+02  0.51100000000E-03 0.  1.
         12    1    3    3    0    0  0.13115943093E+02 -0.31693499704E+02 -0.48851686012E+01  0.34646367183E+02  0.00000000000E+00 0. -1.
</event>
<event>
 7    1  0.3129575E-011  0.5052887E+02  0.7816164E-02  0.1300439E+00
        -11   -1    0    0    0    0  0.00000000000E+00  0.00000000000E+00  0.45593999997E+02  0.45594000000E+02  0.51100000000E-03 0.  1.
         11   -1    0    0    0    0 -0.00000000000E+00 -0.00000000000E+00 -0.45593999997E+02  0.45594000000E+02  0.51100000000E-03 0. -1.
    9900012    2    1    2    0    0  0.26328214277E+02  0.21641242043E+02 -0.22173102049E+02  0.50528872136E+02  0.30000037344E+02 0.  0.
        -12    1    1    2    0    0 -0.26328214277E+02 -0.21641242043E+02  0.22173102049E+02  0.40659127864E+02  0.00000000000E+00 0.  1.
         11    1    3    3    0    0  0.13630922646E+02 -0.39373348593E+01 -0.25876858723E+01  0.14422232019E+02  0.51100000000E-03 0. -1.
        -11    1    3    3    0    0  0.53651019882E+01  0.70667000652E+01 -0.11716849816E+02  0.14697181330E+02  0.51100000000E-03 0.  1.
        -12    1    3    3    0    0  0.73321896431E+01  0.18511876837E+02 -0.78685663608E+01  0.21409458787E+02  0.00000000000E+00 0.  1.
</event>
<event>
 7    1  0.3129575E-011  0.5052886E+02  0.7816164E-02  0.1300439E+00
        -11   -1    0    0    0    0  0.00000000000E+00  0.00000000000E+00  0.45593999997E+02  0.45594000000E+02  0.51100000000E-03 0.  1.
         11   -1    0    0    0    0 -0.00000000000E+00 -0.00000000000E+00 -0.45593999997E+02  0.45594000000E+02  0.51100000000E-03 0. -1.
    9900012    2    1    2    0    0  0.41227608150E+01  0.12966425394E+02 -0.38315010891E+02  0.50528863218E+02  0.30000010239E+02 0.  0.
        -12    1    1    2    0    0 -0.41227608150E+01 -0.12966425394E+02  0.38315010891E+02  0.40659136782E+02  0.00000000000E+00 0.  1.
         11    1    3    3    0    0  0.10768008030E+02  0.77925015931E+01 -0.17712666311E+02  0.22145239355E+02  0.51100000000E-03 0. -1.
        -11    1    3    3    0    0  0.79656023647E+00 -0.11691405509E+01  0.27357204728E+01  0.30798643809E+01  0.51100000000E-03 0.  1.
        -12    1    3    3    0    0 -0.74418074510E+01  0.63430643515E+01 -0.23338065054E+02  0.25303759482E+02  0.00000000000E+00 0.  1.
</event>
<event>
 7    1  0.3129575E-011  0.5052886E+02  0.7816164E-02  0.1300439E+00
        -11   -1    0    0    0    0  0.00000000000E+00  0.00000000000E+00  0.45593999997E+02  0.45594000000E+02  0.51100000000E-03 0.  1.
         11   -1    0    0    0    0 -0.00000000000E+00 -0.00000000000E+00 -0.45593999997E+02  0.45594000000E+02  0.51100000000E-03 0. -1.
    9900012    2    1    2    0    0 -0.11301430750E+02 -0.38194104679E+02 -0.81641909867E+01  0.50528856087E+02  0.29999988562E+02 0.  0.
        -12    1    1    2    0    0  0.11301430750E+02  0.38194104679E+02  0.81641909867E+01  0.40659143913E+02  0.00000000000E+00 0.  1.
         11    1    3    3    0    0  0.27067557602E+00 -0.14581908425E+01  0.54141705643E+01  0.56136288585E+01  0.51100000000E-03 0. -1.
        -11    1    3    3    0    0 -0.75917845671E+01 -0.10101370567E+02 -0.12781239502E+02  0.17973117808E+02  0.51100000000E-03 0.  1.
         12    1    3    3    0    0 -0.39803217591E+01 -0.26634543270E+02 -0.79712204880E+00  0.26942109421E+02  0.00000000000E+00 0. -1.
</event>
<event>
 7    1  0.3129575E-011  0.5052886E+02  0.7816164E-02  0.1300439E+00
        -11   -1    0    0    0    0  0.00000000000E+00  0.00000000000E+00  0.45593999997E+02  0.45594000000E+02  0.51100000000E-03 0. -1.
         11   -1    0    0    0    0 -0.00000000000E+00 -0.00000000000E+00 -0.45593999997E+02  0.45594000000E+02  0.51100000000E-03 0.  1.
    9900012    2    1    2    0    0 -0.34927252363E+02 -0.17817341378E+02  0.10760805140E+02  0.50528861560E+02  0.30000005198E+02 0.  0.
        -12    1    1    2    0    0  0.34927252363E+02  0.17817341378E+02 -0.10760805140E+02  0.40659138440E+02  0.00000000000E+00 0.  1.
         11    1    3    3    0    0 -0.24324299367E+02 -0.19973757118E+02  0.16634049064E+01  0.31518080989E+02  0.51100000000E-03 0. -1.
        -11    1    3    3    0    0  0.13826127379E+01 -0.31367343907E+01  0.86003929452E+00  0.35341743689E+01  0.51100000000E-03 0.  1.
         12    1    3    3    0    0 -0.11985565735E+02  0.52931501312E+01  0.82373609387E+01  0.15476606202E+02  0.00000000000E+00 0. -1.
</event>
<event>
 7    1  0.3129575E-011  0.5052887E+02  0.7816164E-02  0.1300439E+00
        -11   -1    0    0    0    0  0.00000000000E+00  0.00000000000E+00  0.45593999997E+02  0.45594000000E+02  0.51100000000E-03 0.  1.
         11   -1    0    0    0    0 -0.00000000000E+00 -0.00000000000E+00 -0.45593999997E+02  0.45594000000E+02  0.51100000000E-03 0. -1.
    9900012    2    1    2    0    0  0.51748689781E+01  0.18656386555E+01 -0.40285294594E+02  0.50528870188E+02  0.30000031424E+02 0.  0.
        -12    1    1    2    0    0 -0.51748689781E+01 -0.18656386555E+01  0.40285294594E+02  0.40659129812E+02  0.00000000000E+00 0.  1.
         11    1    3    3    0    0 -0.32624095986E+01  0.28770616184E+01 -0.19684931474E+02  0.20159794824E+02  0.51100000000E-03 0. -1.
        -11    1    3    3    0    0 -0.45855845906E+01 -0.56102107716E+01 -0.26383207325E+01  0.77112118042E+01  0.51100000000E-03 0.  1.
         12    1    3    3    0    0  0.13022863167E+02  0.45987878087E+01 -0.17962042387E+02  0.22657863560E+02  0.00000000000E+00 0. -1.
</event>
<event>
 7    1  0.3129575E-011  0.5052886E+02  0.7816164E-02  0.1300439E+00
        -11   -1    0    0    0    0  0.00000000000E+00  0.00000000000E+00  0.45593999997E+02  0.45594000000E+02  0.51100000000E-03 0.  1.
         11   -1    0    0    0    0 -0.00000000000E+00 -0.00000000000E+00 -0.45593999997E+02  0.45594000000E+02  0.51100000000E-03 0. -1.
    9900012    2    1    2    0    0  0.19485441242E+02  0.19992590134E+02 -0.29559764058E+02  0.50528859185E+02  0.29999997980E+02 0.  0.
        -12    1    1    2    0    0 -0.19485441242E+02 -0.19992590134E+02  0.29559764058E+02  0.40659140815E+02  0.00000000000E+00 0.  1.
         11    1    3    3    0    0  0.64668803022E+01  0.70544699099E+01 -0.38096401455E+00  0.95776416927E+01  0.51100000000E-03 0. -1.
        -11    1    3    3    0    0 -0.26253016921E+01 -0.23551032126E+01  0.10101831981E+01  0.36686769375E+01  0.51100000000E-03 0.  1.
         12    1    3    3    0    0  0.15643862632E+02  0.15293223436E+02 -0.30188983241E+02  0.37282540555E+02  0.00000000000E+00 0. -1.
</event>
<event>
 7    1  0.3129575E-011  0.5052885E+02  0.7816164E-02  0.1300439E+00
        -11   -1    0    0    0    0  0.00000000000E+00  0.00000000000E+00  0.45593999997E+02  0.45594000000E+02  0.51100000000E-03 0.  1.
         11   -1    0    0    0    0 -0.00000000000E+00 -0.00000000000E+00 -0.45593999997E+02  0.45594000000E+02  0.51100000000E-03 0. -1.
    9900012    2    1    2    0    0  0.40310912920E+02 -0.44520854344E+01 -0.28940452243E+01  0.50528852654E+02  0.29999978127E+02 0.  0.
        -12    1    1    2    0    0 -0.40310912920E+02  0.44520854344E+01  0.28940452243E+01  0.40659147346E+02  0.00000000000E+00 0.  1.
         11    1    3    3    0    0  0.16470288026E+02 -0.13544451150E+01 -0.29051981277E+01  0.16779305279E+02  0.51100000000E-03 0. -1.
        -11    1    3    3    0    0  0.23067736061E+02 -0.36562241504E+01  0.87632883285E+01  0.24945613734E+02  0.51100000000E-03 0.  1.
        -12    1    3    3    0    0  0.77288883350E+00  0.55858383096E+00 -0.87521354251E+01  0.88039336404E+01  0.00000000000E+00 0.  1.
</event>
<event>
 7    1  0.3129575E-011  0.5052886E+02  0.7816164E-02  0.1300439E+00
        -11   -1    0    0    0    0  0.00000000000E+00  0.00000000000E+00  0.45593999997E+02  0.45594000000E+02  0.51100000000E-03 0.  1.
         11   -1    0    0    0    0 -0.00000000000E+00 -0.00000000000E+00 -0.45593999997E+02  0.45594000000E+02  0.51100000000E-03 0. -1.
    9900012    2    1    2    0    0 -0.38362222558E+02 -0.10319841423E+02 -0.86606337397E+01  0.50528858059E+02  0.29999994557E+02 0.  0.
        -12    1    1    2    0    0  0.38362222558E+02  0.10319841423E+02  0.86606337397E+01  0.40659141941E+02  0.00000000000E+00 0.  1.
         11    1    3    3    0    0 -0.26800913191E+02 -0.42376372022E+01 -0.55989677488E+01  0.27705504093E+02  0.51100000000E-03 0. -1.
        -11    1    3    3    0    0 -0.26747400193E+01  0.64322143294E+01  0.75583742529E+00  0.70070611403E+01  0.51100000000E-03 0.  1.
        -12    1    3    3    0    0 -0.88865693477E+01 -0.12514418551E+02 -0.38175034162E+01  0.15816292826E+02  0.00000000000E+00 0.  1.
</event>
<event>
 7    1  0.3675865E-011  0.5052884E+02  0.7816164E-02  0.1300439E+00
        -11   -1    0    0    0    0  0.00000000000E+00  0.00000000000E+00  0.45593999997E+02  0.45594000000E+02  0.51100000000E-03 0. -1.
         11   -1    0    0    0    0 -0.00000000000E+00 -0.00000000000E+00 -0.45593999997E+02  0.45594000000E+02  0.51100000000E-03 0.  1.
    9900012    2    1    2    0    0 -0.71097561429E+01 -0.39110824823E+02  0.85418050019E+01  0.50528835185E+02  0.29999925028E+02 0.  0.
        -12    1    1    2    0    0  0.71097561429E+01  0.39110824823E+02 -0.85418050019E+01  0.40659164815E+02  0.00000000000E+00 0.  1.
         11    1    3    3    0    0 -0.25895994930E+01 -0.21138872700E+01  0.81628409723E+01  0.88208002996E+01  0.51100000000E-03 0. -1.
        -11    1    3    3    0    0  0.11354589868E+01 -0.17623396161E+01 -0.51835929408E+01  0.55914885380E+01  0.51100000000E-03 0.  1.
         12    1    3    3    0    0 -0.56556156366E+01 -0.35234597937E+02  0.55625569704E+01  0.36116546347E+02  0.00000000000E+00 0. -1.
</event>
<event>
 7    1  0.3129575E-011  0.5052886E+02  0.7816164E-02  0.1300439E+00
        -11   -1    0    0    0    0  0.00000000000E+00  0.00000000000E+00  0.45593999997E+02  0.45594000000E+02  0.51100000000E-03 0.  1.
         11   -1    0    0    0    0 -0.00000000000E+00 -0.00000000000E+00 -0.45593999997E+02  0.45594000000E+02  0.51100000000E-03 0. -1.
    9900012    2    1    2    0    0 -0.23194166525E+02  0.28212533779E+02 -0.17867536595E+02  0.50528864655E+02  0.30000014606E+02 0.  0.
        -12    1    1    2    0    0  0.23194166525E+02 -0.28212533779E+02  0.17867536595E+02  0.40659135345E+02  0.00000000000E+00 0.  1.
         11    1    3    3    0    0 -0.43037007029E+01  0.17360797445E+01 -0.44946666047E+01  0.64604830136E+01  0.51100000000E-03 0. -1.
        -11    1    3    3    0    0 -0.16197987314E+02  0.21978744065E+01 -0.10603812545E+02  0.19484513996E+02  0.51100000000E-03 0.  1.
         12    1    3    3    0    0 -0.26924785085E+01  0.24278579628E+02 -0.27690574453E+01  0.24583867645E+02  0.00000000000E+00 0. -1.
</event>
<event>
 7    1  0.3129575E-011  0.5052886E+02  0.7816164E-02  0.1300439E+00
        -11   -1    0    0    0    0  0.00000000000E+00  0.00000000000E+00  0.45593999997E+02  0.45594000000E+02  0.51100000000E-03 0.  1.
         11   -1    0    0    0    0 -0.00000000000E+00 -0.00000000000E+00 -0.45593999997E+02  0.45594000000E+02  0.51100000000E-03 0. -1.
    9900012    2    1    2    0    0 -0.49928061675E+01  0.31486285642E+02 -0.25235908300E+02  0.50528863700E+02  0.30000011702E+02 0.  0.
        -12    1    1    2    0    0  0.49928061675E+01 -0.31486285642E+02  0.25235908300E+02  0.40659136300E+02  0.00000000000E+00 0.  1.
         11    1    3    3    0    0  0.15486392501E-01  0.15817836899E+02 -0.57371209329E+01  0.16826133271E+02  0.51100000000E-03 0. -1.
        -11    1    3    3    0    0  0.84071028829E+01  0.41003276889E+01 -0.40292773846E+01  0.10184652304E+02  0.51100000000E-03 0.  1.
         12    1    3    3    0    0 -0.13415395443E+02  0.11568121054E+02 -0.15469509983E+02  0.23518078126E+02  0.00000000000E+00 0. -1.
</event>
<event>
 7    1  0.3129575E-011  0.5052888E+02  0.7816164E-02  0.1300439E+00
        -11   -1    0    0    0    0  0.00000000000E+00  0.00000000000E+00  0.45593999997E+02  0.45594000000E+02  0.51100000000E-03 0.  1.
         11   -1    0    0    0    0 -0.00000000000E+00 -0.00000000000E+00 -0.45593999997E+02  0.45594000000E+02  0.51100000000E-03 0. -1.
    9900012    2    1    2    0    0  0.27471843492E+02 -0.57369424789E+01 -0.29420224263E+02  0.50528876921E+02  0.30000051889E+02 0.  0.
        -12    1    1    2    0    0 -0.27471843492E+02  0.57369424789E+01  0.29420224263E+02  0.40659123079E+02  0.00000000000E+00 0.  1.
         11    1    3    3    0    0 -0.72508097287E+00  0.37469310446E+01 -0.77912470172E+01  0.86757573165E+01  0.51100000000E-03 0. -1.
        -11    1    3    3    0    0  0.42697436246E+01  0.54488284954E+01 -0.78386247965E+01  0.10457747442E+02  0.51100000000E-03 0.  1.
        -12    1    3    3    0    0  0.23927180840E+02 -0.14932702019E+02 -0.13790352449E+02  0.31395372163E+02  0.00000000000E+00 0.  1.
</event>
<event>
 7    1  0.3129575E-011  0.5052886E+02  0.7816164E-02  0.1300439E+00
        -11   -1    0    0    0    0  0.00000000000E+00  0.00000000000E+00  0.45593999997E+02  0.45594000000E+02  0.51100000000E-03 0.  1.
         11   -1    0    0    0    0 -0.00000000000E+00 -0.00000000000E+00 -0.45593999997E+02  0.45594000000E+02  0.51100000000E-03 0. -1.
    9900012    2    1    2    0    0 -0.12663415306E+02 -0.92571597518E+01 -0.37511450266E+02  0.50528855949E+02  0.29999988143E+02 0.  0.
        -12    1    1    2    0    0  0.12663415306E+02  0.92571597518E+01  0.37511450266E+02  0.40659144051E+02  0.00000000000E+00 0.  1.
         11    1    3    3    0    0 -0.10333592502E+02 -0.24980075900E+01 -0.15087532772E+02  0.18456890889E+02  0.51100000000E-03 0. -1.
        -11    1    3    3    0    0 -0.35519887903E+01  0.75220256336E+01 -0.59042705429E+01  0.10200877654E+02  0.51100000000E-03 0.  1.
        -12    1    3    3    0    0  0.12221659864E+01 -0.14281177795E+02 -0.16519646952E+02  0.21871087406E+02  0.00000000000E+00 0.  1.
</event>
<event>
 7    1  0.3129575E-011  0.5052888E+02  0.7816164E-02  0.1300439E+00
        -11   -1    0    0    0    0  0.00000000000E+00  0.00000000000E+00  0.45593999997E+02  0.45594000000E+02  0.51100000000E-03 0.  1.
         11   -1    0    0    0    0 -0.00000000000E+00 -0.00000000000E+00 -0.45593999997E+02  0.45594000000E+02  0.51100000000E-03 0. -1.
    9900012    2    1    2    0    0 -0.30770518580E+02  0.13298105596E+02 -0.23010864250E+02  0.50528876797E+02  0.30000051513E+02 0.  0.
        -12    1    1    2    0    0  0.30770518580E+02 -0.13298105596E+02  0.23010864250E+02  0.40659123203E+02  0.00000000000E+00 0.  1.
         11    1    3    3    0    0 -0.20952408455E+02  0.18538190725E+02 -0.11613562442E+02  0.30290968427E+02  0.51100000000E-03 0. -1.
        -11    1    3    3    0    0 -0.71853536267E+01  0.14423316435E+01 -0.10771659211E+02  0.13028364046E+02  0.51100000000E-03 0.  1.
        -12    1    3    3    0    0 -0.26327564981E+01 -0.66824167725E+01 -0.62564259750E+00  0.72095443240E+01  0.00000000000E+00 0.  1.
</event>
<event>
 7    1  0.3129575E-011  0.5052885E+02  0.7816164E-02  0.1300439E+00
        -11   -1    0    0    0    0  0.00000000000E+00  0.00000000000E+00  0.45593999997E+02  0.45594000000E+02  0.51100000000E-03 0.  1.
         11   -1    0    0    0    0 -0.00000000000E+00 -0.00000000000E+00 -0.45593999997E+02  0.45594000000E+02  0.51100000000E-03 0. -1.
    9900012    2    1    2    0    0 -0.33236698845E+02  0.87181196639E+01 -0.21736661757E+02  0.50528853121E+02  0.29999979546E+02 0.  0.
        -12    1    1    2    0    0  0.33236698845E+02 -0.87181196639E+01  0.21736661757E+02  0.40659146879E+02  0.00000000000E+00 0.  1.
         11    1    3    3    0    0 -0.17343785586E+02 -0.87992881401E+01 -0.76456749159E+01  0.20897146107E+02  0.51100000000E-03 0. -1.
        -11    1    3    3    0    0 -0.44811401099E+01 -0.28383722045E+00 -0.46841573079E+01  0.64886447120E+01  0.51100000000E-03 0.  1.
        -12    1    3    3    0    0 -0.11411773149E+02  0.17801245024E+02 -0.94068295336E+01  0.23143062302E+02  0.00000000000E+00 0.  1.
</event>
<event>
 7    1  0.3129575E-011  0.5052887E+02  0.7816164E-02  0.1300439E+00
        -11   -1    0    0    0    0  0.00000000000E+00  0.00000000000E+00  0.45593999997E+02  0.45594000000E+02  0.51100000000E-03 0. -1.
         11   -1    0    0    0    0 -0.00000000000E+00 -0.00000000000E+00 -0.45593999997E+02  0.45594000000E+02  0.51100000000E-03 0.  1.
    9900012    2    1    2    0    0  0.86359405163E+01  0.23788108679E+02  0.31823129152E+02  0.50528866559E+02  0.30000020393E+02 0.  0.
        -12    1    1    2    0    0 -0.86359405163E+01 -0.23788108679E+02 -0.31823129152E+02  0.40659133441E+02  0.00000000000E+00 0.  1.
         11    1    3    3    0    0  0.14778379798E+02  0.13718618895E+02  0.11658518835E+02  0.23292103286E+02  0.51100000000E-03 0. -1.
        -11    1    3    3    0    0 -0.45075943830E+01  0.32811504102E+01 -0.33026491660E+00  0.55851079052E+01  0.51100000000E-03 0.  1.
        -12    1    3    3    0    0 -0.16348448985E+01  0.67883393741E+01  0.20494875234E+02  0.21651655368E+02  0.00000000000E+00 0.  1.
</event>
<event>
 7    1  0.3129575E-011  0.5052887E+02  0.7816164E-02  0.1300439E+00
        -11   -1    0    0    0    0  0.00000000000E+00  0.00000000000E+00  0.45593999997E+02  0.45594000000E+02  0.51100000000E-03 0.  1.
         11   -1    0    0    0    0 -0.00000000000E+00 -0.00000000000E+00 -0.45593999997E+02  0.45594000000E+02  0.51100000000E-03 0. -1.
    9900012    2    1    2    0    0  0.17200430954E+02  0.34493883451E+02 -0.12941493303E+02  0.50528867330E+02  0.30000022737E+02 0.  0.
        -12    1    1    2    0    0 -0.17200430954E+02 -0.34493883451E+02  0.12941493303E+02  0.40659132670E+02  0.00000000000E+00 0.  1.
         11    1    3    3    0    0  0.55515484749E+01  0.10694325892E+02 -0.99571515619E+01  0.15631160041E+02  0.51100000000E-03 0. -1.
        -11    1    3    3    0    0 -0.46980432847E+01  0.15848698014E+02 -0.38499475114E+00  0.16534843836E+02  0.51100000000E-03 0.  1.
        -12    1    3    3    0    0  0.16346925763E+02  0.79508595449E+01 -0.25993469901E+01  0.18362863453E+02  0.00000000000E+00 0.  1.
</event>
