<event>
 7    1  0.2895479E-015  0.9000773E+02  0.7816164E-02  0.1186339E+00
        -11   -1    0    0    0    0  0.00000000000E+00  0.00000000000E+00  0.45593999997E+02  0.45594000000E+02  0.51100000000E-03 0.  1.
         11   -1    0    0    0    0 -0.00000000000E+00 -0.00000000000E+00 -0.45593999997E+02  0.45594000000E+02  0.51100000000E-03 0. -1.
    9900012    2    1    2    0    0 -0.19668199150E+00  0.68932057542E+00 -0.93765139682E+00  0.90007730199E+02  0.89999991438E+02 0.  0.
        -12    1    1    2    0    0  0.19668199150E+00 -0.68932057542E+00  0.93765139682E+00  0.11802698011E+01  0.00000000000E+00 0.  1.
         11    1    3    3    0    0 -0.45722767673E+01 -0.56532834627E+01 -0.47190174741E+01  0.86680133208E+01  0.51100000000E-03 0. -1.
        -11    1    3    3    0    0 -0.40667310709E+01 -0.17930658892E+02  0.35822538407E+02  0.40265383247E+02  0.51100000000E-03 0.  1.
         12    1    3    3    0    0  0.84423258467E+01  0.24273262930E+02 -0.32041172330E+02  0.41074333631E+02  0.00000000000E+00 0. -1.
</event>
<event>
 7    1  0.2895479E-015  0.9000772E+02  0.7816164E-02  0.1186339E+00
        -11   -1    0    0    0    0  0.00000000000E+00  0.00000000000E+00  0.45593999997E+02  0.45594000000E+02  0.51100000000E-03 0.  1.
         11   -1    0    0    0    0 -0.00000000000E+00 -0.00000000000E+00 -0.45593999997E+02  0.45594000000E+02  0.51100000000E-03 0. -1.
    9900012    2    1    2    0    0 -0.87695713634E+00 -0.28357546705E+00 -0.73727951768E+00  0.90007724629E+02  0.89999985794E+02 0.  0.
        -12    1    1    2    0    0  0.87695713634E+00  0.28357546705E+00  0.73727951768E+00  0.11802753711E+01  0.00000000000E+00 0.  1.
         11    1    3    3    0    0  0.17325987616E+02 -0.64066782822E+01 -0.54341967064E+01  0.19255281551E+02  0.51100000000E-03 0. -1.
        -11    1    3    3    0    0  0.23959246853E+02  0.83993634543E+01 -0.80706090323E+01  0.26640749738E+02  0.51100000000E-03 0.  1.
        -12    1    3    3    0    0 -0.42162191606E+02 -0.22762606392E+01  0.12767526221E+02  0.44111693340E+02  0.00000000000E+00 0.  1.
</event>
<event>
 7    1  0.2895479E-015  0.9000773E+02  0.7816164E-02  0.1186339E+00
        -11   -1    0    0    0    0  0.00000000000E+00  0.00000000000E+00  0.45593999997E+02  0.45594000000E+02  0.51100000000E-03 0.  1.
         11   -1    0    0    0    0 -0.00000000000E+00 -0.00000000000E+00 -0.45593999997E+02  0.45594000000E+02  0.51100000000E-03 0. -1.
    9900012    2    1    2    0    0  0.14163784503E+00  0.25642386587E+00 -0.11433347308E+01  0.90007733596E+02  0.89999994879E+02 0.  0.
        -12    1    1    2    0    0 -0.14163784503E+00 -0.25642386587E+00  0.11433347308E+01  0.11802664042E+01  0.00000000000E+00 0.  1.
         11    1    3    3    0    0  0.52065674501E+01  0.25862389143E+01  0.83243367554E+01  0.10153401352E+02  0.51100000000E-03 0. -1.
        -11    1    3    3    0    0 -0.19919141432E+02  0.26983299532E+02  0.17053274798E+02  0.37625587446E+02  0.51100000000E-03 0.  1.
         12    1    3    3    0    0  0.14854211827E+02 -0.29313114580E+02 -0.26520946284E+02  0.42228744798E+02  0.00000000000E+00 0. -1.
</event>
<event>
 7    1  0.2895479E-015  0.9000769E+02  0.7816164E-02  0.1186339E+00
        -11   -1    0    0    0    0  0.00000000000E+00  0.00000000000E+00  0.45593999997E+02  0.45594000000E+02  0.51100000000E-03 0.  1.
         11   -1    0    0    0    0 -0.00000000000E+00 -0.00000000000E+00 -0.45593999997E+02  0.45594000000E+02  0.51100000000E-03 0. -1.
    9900012    2    1    2    0    0  0.84198861668E+00  0.69630957078E+00 -0.44646407932E+00  0.90007694098E+02  0.89999954860E+02 0.  0.
        -12    1    1    2    0    0 -0.84198861668E+00 -0.69630957078E+00  0.44646407932E+00  0.11803059023E+01  0.00000000000E+00 0.  1.
         11    1    3    3    0    0 -0.35461522360E+01  0.20432491007E+02 -0.31576121150E+02  0.37777153301E+02  0.51100000000E-03 0. -1.
        -11    1    3    3    0    0 -0.10495677941E+01 -0.28286153306E+01 -0.83832304905E+01  0.89096134013E+01  0.51100000000E-03 0.  1.
        -12    1    3    3    0    0  0.54377086468E+01 -0.16907566106E+02  0.39512887561E+02  0.43320927395E+02  0.00000000000E+00 0.  1.
</event>
<event>
 7    1  0.2895479E-015  0.9000765E+02  0.7816164E-02  0.1186339E+00
        -11   -1    0    0    0    0  0.00000000000E+00  0.00000000000E+00  0.45593999997E+02  0.45594000000E+02  0.51100000000E-03 0. -1.
         11   -1    0    0    0    0 -0.00000000000E+00 -0.00000000000E+00 -0.45593999997E+02  0.45594000000E+02  0.51100000000E-03 0.  1.
    9900012    2    1    2    0    0  0.44453932175E+00 -0.10624048700E+01 -0.25867706304E+00  0.90007647028E+02  0.89999907168E+02 0.  0.
        -12    1    1    2    0    0 -0.44453932175E+00  0.10624048700E+01  0.25867706304E+00  0.11803529723E+01  0.00000000000E+00 0.  1.
         11    1    3    3    0    0 -0.43324381960E+01 -0.17629504991E+02 -0.15274368551E+02  0.23725003727E+02  0.51100000000E-03 0. -1.
        -11    1    3    3    0    0 -0.27693526655E+02  0.78997444116E+01 -0.14981639326E+01  0.28837161369E+02  0.51100000000E-03 0.  1.
         12    1    3    3    0    0  0.32470504173E+02  0.86673557099E+01  0.16513855420E+02  0.37445481932E+02  0.00000000000E+00 0. -1.
</event>
<event>
 7    1  0.2895479E-015  0.9000808E+02  0.7816164E-02  0.1186338E+00
        -11   -1    0    0    0    0  0.00000000000E+00  0.00000000000E+00  0.45593999997E+02  0.45594000000E+02  0.51100000000E-03 0. -1.
         11   -1    0    0    0    0 -0.00000000000E+00 -0.00000000000E+00 -0.45593999997E+02  0.45594000000E+02  0.51100000000E-03 0.  1.
    9900012    2    1    2    0    0  0.20136390047E+00  0.90746565380E+00  0.72675141932E+00  0.90008080952E+02  0.90000346820E+02 0.  0.
        -12    1    1    2    0    0 -0.20136390047E+00 -0.90746565380E+00 -0.72675141932E+00  0.11799190475E+01  0.00000000000E+00 0.  1.
         11    1    3    3    0    0 -0.69068050204E+01 -0.42817205119E+01 -0.71836524710E+01  0.10846287347E+02  0.51100000000E-03 0. -1.
        -11    1    3    3    0    0  0.73160102172E+00  0.34653750010E+02 -0.18316458344E+02  0.39203447251E+02  0.51100000000E-03 0.  1.
         12    1    3    3    0    0  0.63765678991E+01 -0.29464563844E+02  0.26226862235E+02  0.39958346354E+02  0.00000000000E+00 0. -1.
</event>
<event>
 7    1  0.2895479E-015  0.9000762E+02  0.7816164E-02  0.1186339E+00
        -11   -1    0    0    0    0  0.00000000000E+00  0.00000000000E+00  0.45593999997E+02  0.45594000000E+02  0.51100000000E-03 0.  1.
         11   -1    0    0    0    0 -0.00000000000E+00 -0.00000000000E+00 -0.45593999997E+02  0.45594000000E+02  0.51100000000E-03 0. -1.
    9900012    2    1    2    0    0  0.21593360456E+00  0.83537888710E+00 -0.80548164475E+00  0.90007624684E+02  0.89999884530E+02 0.  0.
        -12    1    1    2    0    0 -0.21593360456E+00 -0.83537888710E+00  0.80548164475E+00  0.11803753160E+01  0.00000000000E+00 0.  1.
         11    1    3    3    0    0 -0.64653776743E+01  0.18526081637E+02 -0.33285737804E+02  0.38638803692E+02  0.51100000000E-03 0. -1.
        -11    1    3    3    0    0  0.30131311810E+01 -0.80814354006E+01 -0.66616966119E+01  0.10898016318E+02  0.51100000000E-03 0.  1.
        -12    1    3    3    0    0  0.36681800979E+01 -0.96092673497E+01  0.39141952772E+02  0.40470804674E+02  0.00000000000E+00 0.  1.
</event>
<event>
 7    1  0.2895479E-015  0.9000773E+02  0.7816164E-02  0.1186339E+00
        -11   -1    0    0    0    0  0.00000000000E+00  0.00000000000E+00  0.45593999997E+02  0.45594000000E+02  0.51100000000E-03 0.  1.
         11   -1    0    0    0    0 -0.00000000000E+00 -0.00000000000E+00 -0.45593999997E+02  0.45594000000E+02  0.51100000000E-03 0. -1.
    9900012    2    1    2    0    0  0.71410353685E+00 -0.42473812909E+00 -0.83826394727E+00  0.90007731901E+02  0.89999993162E+02 0.  0.
        -12    1    1    2    0    0 -0.71410353685E+00  0.42473812909E+00  0.83826394727E+00  0.11802680988E+01  0.00000000000E+00 0.  1.
         11    1    3    3    0    0  0.29597866800E+02 -0.10610350312E+02 -0.22117244043E+02  0.38441978840E+02  0.51100000000E-03 0. -1.
        -11    1    3    3    0    0  0.52259566917E+01  0.80562455967E+01 -0.25099297213E+01  0.99253949002E+01  0.51100000000E-03 0.  1.
        -12    1    3    3    0    0 -0.34109719955E+02  0.21293665864E+01  0.23788909817E+02  0.41640358161E+02  0.00000000000E+00 0.  1.
</event>
<event>
 7    1  0.2895479E-015  0.9000777E+02  0.7816164E-02  0.1186339E+00
        -11   -1    0    0    0    0  0.00000000000E+00  0.00000000000E+00  0.45593999997E+02  0.45594000000E+02  0.51100000000E-03 0. -1.
         11   -1    0    0    0    0 -0.00000000000E+00 -0.00000000000E+00 -0.45593999997E+02  0.45594000000E+02  0.51100000000E-03 0.  1.
    9900012    2    1    2    0    0 -0.13794103078E+00 -0.10004112937E+01 -0.61081509606E+00  0.90007768851E+02  0.90000030599E+02 0.  0.
        -12    1    1    2    0    0  0.13794103078E+00  0.10004112937E+01  0.61081509606E+00  0.11802311495E+01  0.00000000000E+00 0.  1.
         11    1    3    3    0    0  0.40198314646E+01 -0.93416733978E+01  0.12670384852E+01  0.10248477626E+02  0.51100000000E-03 0. -1.
        -11    1    3    3    0    0 -0.19109647623E+01 -0.34757540764E+02 -0.91524968212E+01  0.35993146912E+02  0.51100000000E-03 0.  1.
         12    1    3    3    0    0 -0.22468077331E+01  0.43098802868E+02  0.72746432400E+01  0.43766144312E+02  0.00000000000E+00 0. -1.
</event>
<event>
 7    1  0.2895479E-015  0.9000776E+02  0.7816164E-02  0.1186339E+00
        -11   -1    0    0    0    0  0.00000000000E+00  0.00000000000E+00  0.45593999997E+02  0.45594000000E+02  0.51100000000E-03 0. -1.
         11   -1    0    0    0    0 -0.00000000000E+00 -0.00000000000E+00 -0.45593999997E+02  0.45594000000E+02  0.51100000000E-03 0.  1.
    9900012    2    1    2    0    0  0.87756060384E+00  0.29726400861E+00  0.73109343062E+00  0.90007755911E+02  0.90000017489E+02 0.  0.
        -12    1    1    2    0    0 -0.87756060384E+00 -0.29726400861E+00 -0.73109343062E+00  0.11802440885E+01  0.00000000000E+00 0.  1.
         11    1    3    3    0    0 -0.10216320364E+02  0.25779555648E+01 -0.20149618310E+01  0.10727494028E+02  0.51100000000E-03 0. -1.
        -11    1    3    3    0    0  0.25387483920E+02  0.12852532956E+02 -0.29443278222E+02  0.40946533137E+02  0.51100000000E-03 0.  1.
         12    1    3    3    0    0 -0.14293602952E+02 -0.15133224513E+02  0.32189333484E+02  0.38333728747E+02  0.00000000000E+00 0. -1.
</event>
<event>
 7    1  0.2895479E-015  0.9000770E+02  0.7816164E-02  0.1186339E+00
        -11   -1    0    0    0    0  0.00000000000E+00  0.00000000000E+00  0.45593999997E+02  0.45594000000E+02  0.51100000000E-03 0. -1.
         11   -1    0    0    0    0 -0.00000000000E+00 -0.00000000000E+00 -0.45593999997E+02  0.45594000000E+02  0.51100000000E-03 0.  1.
    9900012    2    1    2    0    0  0.27039269935E+00  0.87102567118E+00  0.74920983830E+00  0.90007697787E+02  0.89999958598E+02 0.  0.
        -12    1    1    2    0    0 -0.27039269935E+00 -0.87102567118E+00 -0.74920983830E+00  0.11803022128E+01  0.00000000000E+00 0.  1.
         11    1    3    3    0    0  0.15066380898E+02  0.35270386509E+01 -0.33999330601E+02  0.37354923592E+02  0.51100000000E-03 0. -1.
        -11    1    3    3    0    0  0.94634268156E+01  0.14935218497E+01 -0.57817605480E+00  0.95979863733E+01  0.51100000000E-03 0.  1.
        -12    1    3    3    0    0 -0.24259415014E+02 -0.41495348294E+01  0.35326716494E+02  0.43054787822E+02  0.00000000000E+00 0.  1.
</event>
<event>
 7    1  0.2895479E-015  0.9000778E+02  0.7816164E-02  0.1186339E+00
        -11   -1    0    0    0    0  0.00000000000E+00  0.00000000000E+00  0.45593999997E+02  0.45594000000E+02  0.51100000000E-03 0. -1.
         11   -1    0    0    0    0 -0.00000000000E+00 -0.00000000000E+00 -0.45593999997E+02  0.45594000000E+02  0.51100000000E-03 0.  1.
    9900012    2    1    2    0    0  0.43436228032E-01 -0.14647718606E-01  0.11793284236E+01  0.90007781041E+02  0.90000042950E+02 0.  0.
        -12    1    1    2    0    0 -0.43436228032E-01  0.14647718606E-01 -0.11793284236E+01  0.11802189594E+01  0.00000000000E+00 0.  1.
         11    1    3    3    0    0 -0.85115356401E+01 -0.71869727209E+01 -0.12425391138E+01  0.11209046327E+02  0.51100000000E-03 0. -1.
        -11    1    3    3    0    0 -0.15540563369E+01 -0.35027306609E+02 -0.23678642090E+01  0.35141628883E+02  0.51100000000E-03 0.  1.
         12    1    3    3    0    0  0.10109028205E+02  0.42199631611E+02  0.47897317464E+01  0.43657105831E+02  0.00000000000E+00 0. -1.
</event>
<event>
 7    1  0.2895479E-015  0.9000770E+02  0.7816164E-02  0.1186339E+00
        -11   -1    0    0    0    0  0.00000000000E+00  0.00000000000E+00  0.45593999997E+02  0.45594000000E+02  0.51100000000E-03 0. -1.
         11   -1    0    0    0    0 -0.00000000000E+00 -0.00000000000E+00 -0.45593999997E+02  0.45594000000E+02  0.51100000000E-03 0.  1.
    9900012    2    1    2    0    0 -0.11609428658E+01  0.48336917436E-01 -0.20733285198E+00  0.90007698468E+02  0.89999959288E+02 0.  0.
        -12    1    1    2    0    0  0.11609428658E+01 -0.48336917436E-01  0.20733285198E+00  0.11803015321E+01  0.00000000000E+00 0.  1.
         11    1    3    3    0    0 -0.40294046889E+01 -0.33430776921E+01 -0.87512430100E+01  0.10197868654E+02  0.51100000000E-03 0. -1.
        -11    1    3    3    0    0 -0.16409708243E+02  0.37072335607E+02  0.41194075582E+01  0.40750535099E+02  0.51100000000E-03 0.  1.
         12    1    3    3    0    0  0.19278170066E+02 -0.33680920998E+02  0.44245025999E+01  0.39059294715E+02  0.00000000000E+00 0. -1.
</event>
<event>
 7    1  0.2895479E-015  0.9000790E+02  0.7816164E-02  0.1186339E+00
        -11   -1    0    0    0    0  0.00000000000E+00  0.00000000000E+00  0.45593999997E+02  0.45594000000E+02  0.51100000000E-03 0.  1.
         11   -1    0    0    0    0 -0.00000000000E+00 -0.00000000000E+00 -0.45593999997E+02  0.45594000000E+02  0.51100000000E-03 0. -1.
    9900012    2    1    2    0    0  0.11168260682E+00 -0.22312617319E+00 -0.11534186657E+01  0.90007901313E+02  0.90000164810E+02 0.  0.
        -12    1    1    2    0    0 -0.11168260682E+00  0.22312617319E+00  0.11534186657E+01  0.11800986875E+01  0.00000000000E+00 0.  1.
         11    1    3    3    0    0 -0.43325780900E+01  0.44625283957E+01  0.58941476505E+01  0.85689187985E+01  0.51100000000E-03 0. -1.
        -11    1    3    3    0    0 -0.35661029566E+02 -0.33154580664E+01  0.10961135015E+02  0.37454609503E+02  0.51100000000E-03 0.  1.
         12    1    3    3    0    0  0.40105290263E+02 -0.13701965025E+01 -0.18008701331E+02  0.43984373011E+02  0.00000000000E+00 0. -1.
</event>
<event>
 7    1  0.2895479E-015  0.9000771E+02  0.7816164E-02  0.1186339E+00
        -11   -1    0    0    0    0  0.00000000000E+00  0.00000000000E+00  0.45593999997E+02  0.45594000000E+02  0.51100000000E-03 0. -1.
         11   -1    0    0    0    0 -0.00000000000E+00 -0.00000000000E+00 -0.45593999997E+02  0.45594000000E+02  0.51100000000E-03 0.  1.
    9900012    2    1    2    0    0 -0.29816063290E+00  0.86074512910E+00  0.75053664680E+00  0.90007708850E+02  0.89999969807E+02 0.  0.
        -12    1    1    2    0    0  0.29816063290E+00 -0.86074512910E+00 -0.75053664680E+00  0.11802911499E+01  0.00000000000E+00 0.  1.
         11    1    3    3    0    0  0.27660809370E+02  0.28934685713E+02 -0.10688802106E+02  0.41431713735E+02  0.51100000000E-03 0. -1.
        -11    1    3    3    0    0  0.32679683021E+01 -0.11136855612E+02  0.16161405588E+01  0.11718407755E+02  0.51100000000E-03 0.  1.
        -12    1    3    3    0    0 -0.31226938305E+02 -0.16937084973E+02  0.98231981935E+01  0.36857587360E+02  0.00000000000E+00 0.  1.
</event>
<event>
 7    1  0.2895479E-015  0.9000778E+02  0.7816164E-02  0.1186339E+00
        -11   -1    0    0    0    0  0.00000000000E+00  0.00000000000E+00  0.45593999997E+02  0.45594000000E+02  0.51100000000E-03 0.  1.
         11   -1    0    0    0    0 -0.00000000000E+00 -0.00000000000E+00 -0.45593999997E+02  0.45594000000E+02  0.51100000000E-03 0. -1.
    9900012    2    1    2    0    0  0.14913020012E+00  0.38189415818E+00 -0.11067225925E+01  0.90007780588E+02  0.90000042491E+02 0.  0.
        -12    1    1    2    0    0 -0.14913020012E+00 -0.38189415818E+00  0.11067225925E+01  0.11802194124E+01  0.00000000000E+00 0.  1.
         11    1    3    3    0    0  0.90461713601E+01 -0.46988206508E+01 -0.35004883958E+00  0.10199738538E+02  0.51100000000E-03 0. -1.
        -11    1    3    3    0    0  0.28460558854E+02 -0.86472051200E+01  0.19079799057E+02  0.35338595034E+02  0.51100000000E-03 0.  1.
         12    1    3    3    0    0 -0.37357600014E+02  0.13727919929E+02 -0.19836472810E+02  0.44469447016E+02  0.00000000000E+00 0. -1.
</event>
<event>
 7    1  0.2895479E-015  0.9000770E+02  0.7816164E-02  0.1186339E+00
        -11   -1    0    0    0    0  0.00000000000E+00  0.00000000000E+00  0.45593999997E+02  0.45594000000E+02  0.51100000000E-03 0. -1.
         11   -1    0    0    0    0 -0.00000000000E+00 -0.00000000000E+00 -0.45593999997E+02  0.45594000000E+02  0.51100000000E-03 0.  1.
    9900012    2    1    2    0    0 -0.19983664074E+00 -0.11628460645E+01  0.30960854793E-01  0.90007701636E+02  0.89999962498E+02 0.  0.
        -12    1    1    2    0    0  0.19983664074E+00  0.11628460645E+01 -0.30960854793E-01  0.11802983636E+01  0.00000000000E+00 0.  1.
         11    1    3    3    0    0 -0.21374370551E+02  0.93099303850E+01  0.12019805886E+02  0.26230025811E+02  0.51100000000E-03 0. -1.
        -11    1    3    3    0    0 -0.85273112559E+01  0.18054525464E+02 -0.10520177453E+02  0.22568895872E+02  0.51100000000E-03 0.  1.
        -12    1    3    3    0    0  0.29701845167E+02 -0.28527301914E+02 -0.14686675788E+01  0.41208779953E+02  0.00000000000E+00 0.  1.
</event>
<event>
 7    1  0.2895479E-015  0.9000775E+02  0.7816164E-02  0.1186339E+00
        -11   -1    0    0    0    0  0.00000000000E+00  0.00000000000E+00  0.45593999997E+02  0.45594000000E+02  0.51100000000E-03 0.  1.
         11   -1    0    0    0    0 -0.00000000000E+00 -0.00000000000E+00 -0.45593999997E+02  0.45594000000E+02  0.51100000000E-03 0. -1.
    9900012    2    1    2    0    0  0.68995832801E+00 -0.74121951002E+00 -0.60625880350E+00  0.90007746386E+02  0.90000007838E+02 0.  0.
        -12    1    1    2    0    0 -0.68995832801E+00  0.74121951002E+00  0.60625880350E+00  0.11802536139E+01  0.00000000000E+00 0.  1.
         11    1    3    3    0    0 -0.56473580033E+01  0.32296332935E+01  0.72286226996E+01  0.97250280216E+01  0.51100000000E-03 0. -1.
        -11    1    3    3    0    0  0.44519951680E+01 -0.17821098538E+02  0.32644646589E+02  0.37457773095E+02  0.51100000000E-03 0.  1.
         12    1    3    3    0    0  0.18853211633E+01  0.13850245734E+02 -0.40479528092E+02  0.42824945269E+02  0.00000000000E+00 0. -1.
</event>
<event>
 7    1  0.2895479E-015  0.9000769E+02  0.7816164E-02  0.1186339E+00
        -11   -1    0    0    0    0  0.00000000000E+00  0.00000000000E+00  0.45593999997E+02  0.45594000000E+02  0.51100000000E-03 0.  1.
         11   -1    0    0    0    0 -0.00000000000E+00 -0.00000000000E+00 -0.45593999997E+02  0.45594000000E+02  0.51100000000E-03 0. -1.
    9900012    2    1    2    0    0 -0.98874087911E+00 -0.55745138230E+00 -0.32366579749E+00  0.90007694905E+02  0.89999955677E+02 0.  0.
        -12    1    1    2    0    0  0.98874087911E+00  0.55745138230E+00  0.32366579749E+00  0.11803050954E+01  0.00000000000E+00 0.  1.
         11    1    3    3    0    0 -0.17195008408E+02  0.16708595925E+02 -0.32755267188E+02  0.40592524198E+02  0.51100000000E-03 0. -1.
        -11    1    3    3    0    0 -0.20107846303E+01  0.66952953592E+01  0.42479887522E+01  0.81801982541E+01  0.51100000000E-03 0.  1.
        -12    1    3    3    0    0  0.18217052159E+02 -0.23961342667E+02  0.28183612639E+02  0.41234972452E+02  0.00000000000E+00 0.  1.
</event>
<event>
 7    1  0.2895479E-015  0.9000774E+02  0.7816164E-02  0.1186339E+00
        -11   -1    0    0    0    0  0.00000000000E+00  0.00000000000E+00  0.45593999997E+02  0.45594000000E+02  0.51100000000E-03 0.  1.
         11   -1    0    0    0    0 -0.00000000000E+00 -0.00000000000E+00 -0.45593999997E+02  0.45594000000E+02  0.51100000000E-03 0. -1.
    9900012    2    1    2    0    0 -0.11625499911E+01 -0.15083186316E+00  0.13692152926E+00  0.90007737217E+02  0.89999998548E+02 0.  0.
        -12    1    1    2    0    0  0.11625499911E+01  0.15083186316E+00 -0.13692152926E+00  0.11802627835E+01  0.00000000000E+00 0.  1.
         11    1    3    3    0    0 -0.10282634030E+02  0.74312605952E+00 -0.66155919610E+01  0.12249524733E+02  0.51100000000E-03 0. -1.
        -11    1    3    3    0    0 -0.18819391976E+02  0.68129698529E+01  0.33040199752E+02  0.38629533682E+02  0.51100000000E-03 0.  1.
         12    1    3    3    0    0  0.27939476015E+02 -0.77069277756E+01 -0.26287686262E+02  0.39128678801E+02  0.00000000000E+00 0. -1.
</event>
<event>
 7    1  0.2895479E-015  0.9000781E+02  0.7816164E-02  0.1186339E+00
        -11   -1    0    0    0    0  0.00000000000E+00  0.00000000000E+00  0.45593999997E+02  0.45594000000E+02  0.51100000000E-03 0. -1.
         11   -1    0    0    0    0 -0.00000000000E+00 -0.00000000000E+00 -0.45593999997E+02  0.45594000000E+02  0.51100000000E-03 0.  1.
    9900012    2    1    2    0    0 -0.42087025879E+00 -0.80194498572E+00  0.75670935770E+00  0.90007806547E+02  0.90000068793E+02 0.  0.
        -12    1    1    2    0    0  0.42087025879E+00  0.80194498572E+00 -0.75670935770E+00  0.11801934532E+01  0.00000000000E+00 0.  1.
         11    1    3    3    0    0  0.17308079199E+02 -0.22293446353E+02  0.32495062139E+02  0.43040636839E+02  0.51100000000E-03 0. -1.
        -11    1    3    3    0    0 -0.78827423887E+01  0.93123455974E+00 -0.58367285848E-01  0.79377725070E+01  0.51100000000E-03 0.  1.
        -12    1    3    3    0    0 -0.98462070692E+01  0.20560266808E+02 -0.31679985495E+02  0.39029397201E+02  0.00000000000E+00 0.  1.
</event>
<event>
 7    1  0.2895479E-015  0.9000800E+02  0.7816164E-02  0.1186339E+00
        -11   -1    0    0    0    0  0.00000000000E+00  0.00000000000E+00  0.45593999997E+02  0.45594000000E+02  0.51100000000E-03 0. -1.
         11   -1    0    0    0    0 -0.00000000000E+00 -0.00000000000E+00 -0.45593999997E+02  0.45594000000E+02  0.51100000000E-03 0.  1.
    9900012    2    1    2    0    0 -0.61578182015E+00 -0.14425523344E+00 -0.99618949706E+00  0.90008004095E+02  0.90000268948E+02 0.  0.
        -12    1    1    2    0    0  0.61578182015E+00  0.14425523344E+00  0.99618949706E+00  0.11799959053E+01  0.00000000000E+00 0.  1.
         11    1    3    3    0    0  0.82959081309E+00 -0.47348052877E+01 -0.10130309936E+02  0.11212929220E+02  0.51100000000E-03 0. -1.
        -11    1    3    3    0    0 -0.29985350355E+02 -0.21812108261E+02  0.13953032154E+02  0.39617879919E+02  0.51100000000E-03 0.  1.
         12    1    3    3    0    0  0.28539977722E+02  0.26402658316E+02 -0.48189117158E+01  0.39177194956E+02  0.00000000000E+00 0. -1.
</event>
<event>
 7    1  0.2895479E-015  0.9000775E+02  0.7816164E-02  0.1186339E+00
        -11   -1    0    0    0    0  0.00000000000E+00  0.00000000000E+00  0.45593999997E+02  0.45594000000E+02  0.51100000000E-03 0. -1.
         11   -1    0    0    0    0 -0.00000000000E+00 -0.00000000000E+00 -0.45593999997E+02  0.45594000000E+02  0.51100000000E-03 0.  1.
    9900012    2    1    2    0    0 -0.84616736496E+00 -0.47973277003E+00 -0.66846922098E+00  0.90007748400E+02  0.90000009879E+02 0.  0.
        -12    1    1    2    0    0  0.84616736496E+00  0.47973277003E+00  0.66846922098E+00  0.11802516001E+01  0.00000000000E+00 0.  1.
         11    1    3    3    0    0 -0.80564211380E+01 -0.32197424533E+01  0.45456752779E+01  0.97946836096E+01  0.51100000000E-03 0. -1.
        -11    1    3    3    0    0 -0.35686972032E+02  0.10691986188E+01 -0.98417384113E+01  0.37034618584E+02  0.51100000000E-03 0.  1.
         12    1    3    3    0    0  0.42897225805E+02  0.16708110644E+01  0.46275939125E+01  0.43178446206E+02  0.00000000000E+00 0. -1.
</event>
<event>
 7    1  0.2895479E-015  0.9000784E+02  0.7816164E-02  0.1186339E+00
        -11   -1    0    0    0    0  0.00000000000E+00  0.00000000000E+00  0.45593999997E+02  0.45594000000E+02  0.51100000000E-03 0.  1.
         11   -1    0    0    0    0 -0.00000000000E+00 -0.00000000000E+00 -0.45593999997E+02  0.45594000000E+02  0.51100000000E-03 0. -1.
    9900012    2    1    2    0    0 -0.11366144635E+00  0.50041194009E+00 -0.10627522349E+01  0.90007841813E+02  0.90000104525E+02 0.  0.
        -12    1    1    2    0    0  0.11366144635E+00 -0.50041194009E+00  0.10627522349E+01  0.11801581873E+01  0.00000000000E+00 0.  1.
         11    1    3    3    0    0  0.49372483293E+01 -0.29446528240E+00 -0.19297426501E+02  0.19921189740E+02  0.51100000000E-03 0. -1.
        -11    1    3    3    0    0 -0.56446194377E+01  0.32567514464E+02 -0.76477005717E+00  0.33061905578E+02  0.51100000000E-03 0.  1.
         12    1    3    3    0    0  0.59370966204E+00 -0.31772637241E+02  0.18999444323E+02  0.37024746495E+02  0.00000000000E+00 0. -1.
</event>
<event>
 7    1  0.2895479E-015  0.9000769E+02  0.7816164E-02  0.1186339E+00
        -11   -1    0    0    0    0  0.00000000000E+00  0.00000000000E+00  0.45593999997E+02  0.45594000000E+02  0.51100000000E-03 0. -1.
         11   -1    0    0    0    0 -0.00000000000E+00 -0.00000000000E+00 -0.45593999997E+02  0.45594000000E+02  0.51100000000E-03 0.  1.
    9900012    2    1    2    0    0  0.10096131950E+01  0.58698413806E+00 -0.17105497285E+00  0.90007691148E+02  0.89999951871E+02 0.  0.
        -12    1    1    2    0    0 -0.10096131950E+01 -0.58698413806E+00  0.17105497285E+00  0.11803088518E+01  0.00000000000E+00 0.  1.
         11    1    3    3    0    0  0.27005100356E+02  0.78341039659E+01 -0.28850304735E+02  0.40286334082E+02  0.51100000000E-03 0. -1.
        -11    1    3    3    0    0 -0.78331537806E+00 -0.10583911044E+02 -0.97227102865E+00  0.10657301121E+02  0.51100000000E-03 0.  1.
        -12    1    3    3    0    0 -0.25212171783E+02  0.33367912159E+01  0.29651520791E+02  0.39064055945E+02  0.00000000000E+00 0.  1.
</event>
<event>
 7    1  0.2895479E-015  0.9000771E+02  0.7816164E-02  0.1186339E+00
        -11   -1    0    0    0    0  0.00000000000E+00  0.00000000000E+00  0.45593999997E+02  0.45594000000E+02  0.51100000000E-03 0.  1.
         11   -1    0    0    0    0 -0.00000000000E+00 -0.00000000000E+00 -0.45593999997E+02  0.45594000000E+02  0.51100000000E-03 0. -1.
    9900012    2    1    2    0    0  0.13720128949E+00 -0.11448740070E+01 -0.25205932343E+00  0.90007705720E+02  0.89999966635E+02 0.  0.
        -12    1    1    2    0    0 -0.13720128949E+00  0.11448740070E+01  0.25205932343E+00  0.11802942804E+01  0.00000000000E+00 0.  1.
         11    1    3    3    0    0 -0.90088599319E+01 -0.75254570124E+01  0.24189644439E+01  0.11985134532E+02  0.51100000000E-03 0. -1.
        -11    1    3    3    0    0  0.18938297142E+02 -0.27946974305E+02  0.16420550935E+02  0.37541003779E+02  0.51100000000E-03 0.  1.
         12    1    3    3    0    0 -0.97922359210E+01  0.34327557310E+02 -0.19091574702E+02  0.40481567408E+02  0.00000000000E+00 0. -1.
</event>
<event>
 7    1  0.2895479E-015  0.9000772E+02  0.7816164E-02  0.1186339E+00
        -11   -1    0    0    0    0  0.00000000000E+00  0.00000000000E+00  0.45593999997E+02  0.45594000000E+02  0.51100000000E-03 0.  1.
         11   -1    0    0    0    0 -0.00000000000E+00 -0.00000000000E+00 -0.45593999997E+02  0.45594000000E+02  0.51100000000E-03 0. -1.
    9900012    2    1    2    0    0  0.11358047896E+01 -0.31915186621E+00 -0.34055254831E-01  0.90007716054E+02  0.89999977105E+02 0.  0.
        -12    1    1    2    0    0 -0.11358047896E+01  0.31915186621E+00  0.34055254831E-01  0.11802839464E+01  0.00000000000E+00 0.  1.
         11    1    3    3    0    0  0.91277284757E+01  0.24556022673E+02 -0.25689993707E+02  0.36691817256E+02  0.51100000000E-03 0. -1.
        -11    1    3    3    0    0  0.70519575619E+01  0.22387903576E+00 -0.66723641056E+01  0.97108532218E+01  0.51100000000E-03 0.  1.
        -12    1    3    3    0    0 -0.15043881248E+02 -0.25099053575E+02  0.32328302557E+02  0.43605045575E+02  0.00000000000E+00 0.  1.
</event>
<event>
 7    1  0.2895479E-015  0.9000804E+02  0.7816164E-02  0.1186338E+00
        -11   -1    0    0    0    0  0.00000000000E+00  0.00000000000E+00  0.45593999997E+02  0.45594000000E+02  0.51100000000E-03 0.  1.
         11   -1    0    0    0    0 -0.00000000000E+00 -0.00000000000E+00 -0.45593999997E+02  0.45594000000E+02  0.51100000000E-03 0. -1.
    9900012    2    1    2    0    0  0.11233014844E+01  0.32130728408E+00 -0.16507937598E+00  0.90008044155E+02  0.90000309537E+02 0.  0.
        -12    1    1    2    0    0 -0.11233014844E+01 -0.32130728408E+00  0.16507937598E+00  0.11799558450E+01  0.00000000000E+00 0.  1.
         11    1    3    3    0    0  0.88105479253E+01  0.18610290583E+00  0.22535698133E+00  0.88153942094E+01  0.51100000000E-03 0. -1.
        -11    1    3    3    0    0  0.28063091370E+02  0.16486360378E+02  0.18650035668E+02  0.37512144786E+02  0.51100000000E-03 0.  1.
         12    1    3    3    0    0 -0.35750337811E+02 -0.16351156000E+02 -0.19040472025E+02  0.43680505160E+02  0.00000000000E+00 0. -1.
</event>
<event>
 7    1  0.2895479E-015  0.9000773E+02  0.7816164E-02  0.1186339E+00
        -11   -1    0    0    0    0  0.00000000000E+00  0.00000000000E+00  0.45593999997E+02  0.45594000000E+02  0.51100000000E-03 0.  1.
         11   -1    0    0    0    0 -0.00000000000E+00 -0.00000000000E+00 -0.45593999997E+02  0.45594000000E+02  0.51100000000E-03 0. -1.
    9900012    2    1    2    0    0 -0.17101547865E+00 -0.55517196022E+00 -0.10274078305E+01  0.90007733484E+02  0.89999994766E+02 0.  0.
        -12    1    1    2    0    0  0.17101547865E+00  0.55517196022E+00  0.10274078305E+01  0.11802665163E+01  0.00000000000E+00 0.  1.
         11    1    3    3    0    0 -0.14106821862E+02  0.12736593114E+01  0.19329856236E+02  0.23963888947E+02  0.51100000000E-03 0. -1.
        -11    1    3    3    0    0 -0.25908729874E+01  0.22726556788E-01  0.21160903063E+02  0.21318934261E+02  0.51100000000E-03 0.  1.
        -12    1    3    3    0    0  0.16526679371E+02 -0.18515578284E+01 -0.41518167129E+02  0.44724910276E+02  0.00000000000E+00 0.  1.
</event>
<event>
 7    1  0.2895479E-015  0.9000773E+02  0.7816164E-02  0.1186339E+00
        -11   -1    0    0    0    0  0.00000000000E+00  0.00000000000E+00  0.45593999997E+02  0.45594000000E+02  0.51100000000E-03 0. -1.
         11   -1    0    0    0    0 -0.00000000000E+00 -0.00000000000E+00 -0.45593999997E+02  0.45594000000E+02  0.51100000000E-03 0.  1.
    9900012    2    1    2    0    0 -0.96721809209E+00  0.66627758275E+00 -0.11658548066E+00  0.90007733577E+02  0.89999994860E+02 0.  0.
        -12    1    1    2    0    0  0.96721809209E+00 -0.66627758275E+00  0.11658548066E+00  0.11802664230E+01  0.00000000000E+00 0.  1.
         11    1    3    3    0    0 -0.77432565538E+01 -0.38457647801E+01  0.21417073105E+00  0.86483407752E+01  0.51100000000E-03 0. -1.
        -11    1    3    3    0    0 -0.87566280132E+01 -0.12832392949E+02 -0.35746153640E+02  0.38976099642E+02  0.51100000000E-03 0.  1.
         12    1    3    3    0    0  0.15532666475E+02  0.17344435312E+02  0.35415397428E+02  0.42383293160E+02  0.00000000000E+00 0. -1.
</event>
<event>
 7    1  0.2895479E-015  0.9000770E+02  0.7816164E-02  0.1186339E+00
        -11   -1    0    0    0    0  0.00000000000E+00  0.00000000000E+00  0.45593999997E+02  0.45594000000E+02  0.51100000000E-03 0.  1.
         11   -1    0    0    0    0 -0.00000000000E+00 -0.00000000000E+00 -0.45593999997E+02  0.45594000000E+02  0.51100000000E-03 0. -1.
    9900012    2    1    2    0    0 -0.25739722835E+00  0.36213087868E+00 -0.10934848560E+01  0.90007702903E+02  0.89999963781E+02 0.  0.
        -12    1    1    2    0    0  0.25739722835E+00 -0.36213087868E+00  0.10934848560E+01  0.11802970968E+01  0.00000000000E+00 0.  1.
         11    1    3    3    0    0  0.10949420599E+02  0.86607783899E+01 -0.27543200615E+01  0.14229728494E+02  0.51100000000E-03 0. -1.
        -11    1    3    3    0    0 -0.14612196719E+02  0.14266053235E+02  0.31910738091E+02  0.37885772707E+02  0.51100000000E-03 0.  1.
         12    1    3    3    0    0  0.34053788917E+01 -0.22564700746E+02 -0.30249902886E+02  0.37892201701E+02  0.00000000000E+00 0. -1.
</event>
<event>
 7    1  0.2895479E-015  0.9000775E+02  0.7816164E-02  0.1186339E+00
        -11   -1    0    0    0    0  0.00000000000E+00  0.00000000000E+00  0.45593999997E+02  0.45594000000E+02  0.51100000000E-03 0.  1.
         11   -1    0    0    0    0 -0.00000000000E+00 -0.00000000000E+00 -0.45593999997E+02  0.45594000000E+02  0.51100000000E-03 0. -1.
    9900012    2    1    2    0    0 -0.17818201028E+00 -0.10865339646E+01 -0.42506013710E+00  0.90007753837E+02  0.90000015388E+02 0.  0.
        -12    1    1    2    0    0  0.17818201028E+00  0.10865339646E+01  0.42506013710E+00  0.11802461629E+01  0.00000000000E+00 0.  1.
         11    1    3    3    0    0  0.71078088375E+01 -0.32788543625E+00 -0.69286157677E+01  0.99314738104E+01  0.51100000000E-03 0. -1.
        -11    1    3    3    0    0  0.33027277774E+02 -0.15953808237E+02  0.44195351984E+01  0.36943976046E+02  0.51100000000E-03 0.  1.
         12    1    3    3    0    0 -0.40313268622E+02  0.15195159709E+02  0.20840204322E+01  0.43132303981E+02  0.00000000000E+00 0. -1.
</event>
<event>
 7    1  0.3761386E-015  0.9000771E+02  0.7816164E-02  0.1186339E+00
        -11   -1    0    0    0    0  0.00000000000E+00  0.00000000000E+00  0.45593999997E+02  0.45594000000E+02  0.51100000000E-03 0. -1.
         11   -1    0    0    0    0 -0.00000000000E+00 -0.00000000000E+00 -0.45593999997E+02  0.45594000000E+02  0.51100000000E-03 0.  1.
    9900012    2    1    2    0    0 -0.79612560398E+00  0.84177515771E+00  0.22513701001E+00  0.90007708482E+02  0.89999969434E+02 0.  0.
        -12    1    1    2    0    0  0.79612560398E+00 -0.84177515771E+00 -0.22513701001E+00  0.11802915177E+01  0.00000000000E+00 0.  1.
         11    1    3    3    0    0  0.60143584877E+01  0.15136197491E+01 -0.70749487398E+01  0.94084245597E+01  0.51100000000E-03 0. -1.
        -11    1    3    3    0    0  0.34567145429E+02 -0.22127030869E+01 -0.94961169083E+01  0.35916010840E+02  0.51100000000E-03 0.  1.
         12    1    3    3    0    0 -0.41377629521E+02  0.15408584955E+01  0.16796202658E+02  0.44683273083E+02  0.00000000000E+00 0. -1.
</event>
<event>
 7    1  0.2895479E-015  0.9000772E+02  0.7816164E-02  0.1186339E+00
        -11   -1    0    0    0    0  0.00000000000E+00  0.00000000000E+00  0.45593999997E+02  0.45594000000E+02  0.51100000000E-03 0. -1.
         11   -1    0    0    0    0 -0.00000000000E+00 -0.00000000000E+00 -0.45593999997E+02  0.45594000000E+02  0.51100000000E-03 0.  1.
    9900012    2    1    2    0    0  0.46926980961E+00 -0.14861773932E+00  0.10727329439E+01  0.90007721492E+02  0.89999982616E+02 0.  0.
        -12    1    1    2    0    0 -0.46926980961E+00  0.14861773932E+00 -0.10727329439E+01  0.11802785076E+01  0.00000000000E+00 0.  1.
         11    1    3    3    0    0 -0.35528776960E+02 -0.15313853161E+02  0.14406987681E+01  0.38715419461E+02  0.51100000000E-03 0. -1.
        -11    1    3    3    0    0 -0.39611183321E+01  0.53954820756E+01 -0.69315915478E+01  0.96358002737E+01  0.51100000000E-03 0.  1.
        -12    1    3    3    0    0  0.39959165101E+02  0.97697533458E+01  0.65636257235E+01  0.41656501757E+02  0.00000000000E+00 0.  1.
</event>
<event>
 7    1  0.2895479E-015  0.9000780E+02  0.7816164E-02  0.1186339E+00
        -11   -1    0    0    0    0  0.00000000000E+00  0.00000000000E+00  0.45593999997E+02  0.45594000000E+02  0.51100000000E-03 0.  1.
         11   -1    0    0    0    0 -0.00000000000E+00 -0.00000000000E+00 -0.45593999997E+02  0.45594000000E+02  0.51100000000E-03 0. -1.
    9900012    2    1    2    0    0  0.29079102145E+00 -0.27601363260E-02 -0.11438096403E+01  0.90007801911E+02  0.90000064096E+02 0.  0.
        -12    1    1    2    0    0 -0.29079102145E+00  0.27601363261E-02  0.11438096403E+01  0.11801980892E+01  0.00000000000E+00 0.  1.
         11    1    3    3    0    0  0.27973358082E+02 -0.16488223671E+02 -0.26045811759E+02  0.41626368959E+02  0.51100000000E-03 0. -1.
        -11    1    3    3    0    0 -0.63254077406E+01 -0.48518998165E+01 -0.16913564365E+01  0.81493804532E+01  0.51100000000E-03 0.  1.
        -12    1    3    3    0    0 -0.21357159320E+02  0.21337363351E+02  0.26593358555E+02  0.40232052499E+02  0.00000000000E+00 0.  1.
</event>
<event>
 7    1  0.2895479E-015  0.9000767E+02  0.7816164E-02  0.1186339E+00
        -11   -1    0    0    0    0  0.00000000000E+00  0.00000000000E+00  0.45593999997E+02  0.45594000000E+02  0.51100000000E-03 0.  1.
         11   -1    0    0    0    0 -0.00000000000E+00 -0.00000000000E+00 -0.45593999997E+02  0.45594000000E+02  0.51100000000E-03 0. -1.
    9900012    2    1    2    0    0  0.29220016431E+00 -0.11435826717E+01  0.36977967076E-02  0.90007671259E+02  0.89999931720E+02 0.  0.
        -12    1    1    2    0    0 -0.29220016431E+00  0.11435826717E+01 -0.36977967076E-02  0.11803287409E+01  0.00000000000E+00 0.  1.
         11    1    3    3    0    0 -0.64611753838E+00 -0.54361437712E+01 -0.84008146746E+01  0.10027103990E+02  0.51100000000E-03 0. -1.
        -11    1    3    3    0    0 -0.39235646306E+02  0.24490664745E+01  0.35359822842E+01  0.39470711149E+02  0.51100000000E-03 0.  1.
         12    1    3    3    0    0  0.40173964009E+02  0.18434946250E+01  0.48685301871E+01  0.40509856119E+02  0.00000000000E+00 0. -1.
</event>
<event>
 7    1  0.2895479E-015  0.9000769E+02  0.7816164E-02  0.1186339E+00
        -11   -1    0    0    0    0  0.00000000000E+00  0.00000000000E+00  0.45593999997E+02  0.45594000000E+02  0.51100000000E-03 0. -1.
         11   -1    0    0    0    0 -0.00000000000E+00 -0.00000000000E+00 -0.45593999997E+02  0.45594000000E+02  0.51100000000E-03 0.  1.
    9900012    2    1    2    0    0  0.11256134045E+00 -0.10804795081E+01  0.46153856767E+00  0.90007693314E+02  0.89999954066E+02 0.  0.
        -12    1    1    2    0    0 -0.11256134045E+00  0.10804795081E+01 -0.46153856767E+00  0.11803066856E+01  0.00000000000E+00 0.  1.
         11    1    3    3    0    0  0.46374094420E+01 -0.45025002232E+01  0.35460226579E+02  0.36044496721E+02  0.51100000000E-03 0. -1.
        -11    1    3    3    0    0  0.23051832688E+01  0.23798227139E+01  0.89142473395E+01  0.95100595131E+01  0.51100000000E-03 0.  1.
        -12    1    3    3    0    0 -0.68300313704E+01  0.10421980013E+01 -0.43912935350E+02  0.44453137080E+02  0.00000000000E+00 0.  1.
</event>
<event>
 7    1  0.2895479E-015  0.9000782E+02  0.7816164E-02  0.1186339E+00
        -11   -1    0    0    0    0  0.00000000000E+00  0.00000000000E+00  0.45593999997E+02  0.45594000000E+02  0.51100000000E-03 0.  1.
         11   -1    0    0    0    0 -0.00000000000E+00 -0.00000000000E+00 -0.45593999997E+02  0.45594000000E+02  0.51100000000E-03 0. -1.
    9900012    2    1    2    0    0 -0.12296478435E+00  0.11724200161E+01 -0.56083397982E-01  0.90007815955E+02  0.90000078326E+02 0.  0.
        -12    1    1    2    0    0  0.12296478435E+00 -0.11724200161E+01  0.56083397982E-01  0.11801840449E+01  0.00000000000E+00 0.  1.
         11    1    3    3    0    0  0.33751117522E+01  0.71003079117E+01  0.56914298683E+01  0.97055719042E+01  0.51100000000E-03 0. -1.
        -11    1    3    3    0    0  0.11866665083E+02  0.31972542771E+02 -0.16687942628E+02  0.37967731837E+02  0.51100000000E-03 0.  1.
         12    1    3    3    0    0 -0.15364741620E+02 -0.37900430666E+02  0.10940429362E+02  0.42334512214E+02  0.00000000000E+00 0. -1.
</event>
<event>
 7    1  0.2895479E-015  0.9000777E+02  0.7816164E-02  0.1186339E+00
        -11   -1    0    0    0    0  0.00000000000E+00  0.00000000000E+00  0.45593999997E+02  0.45594000000E+02  0.51100000000E-03 0. -1.
         11   -1    0    0    0    0 -0.00000000000E+00 -0.00000000000E+00 -0.45593999997E+02  0.45594000000E+02  0.51100000000E-03 0.  1.
    9900012    2    1    2    0    0 -0.98457976827E+00 -0.28445046131E+00  0.58535512814E+00  0.90007766967E+02  0.90000028691E+02 0.  0.
        -12    1    1    2    0    0  0.98457976827E+00  0.28445046131E+00 -0.58535512814E+00  0.11802330325E+01  0.00000000000E+00 0.  1.
         11    1    3    3    0    0 -0.11852831565E+02  0.64970010825E+01 -0.32965821620E+01  0.13912875094E+02  0.51100000000E-03 0. -1.
        -11    1    3    3    0    0 -0.33540428108E+01  0.28540140372E+02 -0.16260573921E+02  0.33018108367E+02  0.51100000000E-03 0.  1.
         12    1    3    3    0    0  0.14222294607E+02 -0.35321591916E+02  0.20142511212E+02  0.43076783506E+02  0.00000000000E+00 0. -1.
</event>
<event>
 7    1  0.2895479E-015  0.9000778E+02  0.7816164E-02  0.1186339E+00
        -11   -1    0    0    0    0  0.00000000000E+00  0.00000000000E+00  0.45593999997E+02  0.45594000000E+02  0.51100000000E-03 0. -1.
         11   -1    0    0    0    0 -0.00000000000E+00 -0.00000000000E+00 -0.45593999997E+02  0.45594000000E+02  0.51100000000E-03 0.  1.
    9900012    2    1    2    0    0 -0.90525007810E+00 -0.52032171696E+00  0.55019248600E+00  0.90007777917E+02  0.90000039786E+02 0.  0.
        -12    1    1    2    0    0  0.90525007810E+00  0.52032171696E+00 -0.55019248600E+00  0.11802220828E+01  0.00000000000E+00 0.  1.
         11    1    3    3    0    0 -0.18138814910E+02 -0.13298952087E+02  0.32476807961E+02  0.39504705904E+02  0.51100000000E-03 0. -1.
        -11    1    3    3    0    0 -0.49340433430E+01 -0.73945259068E+01 -0.49314887049E+01  0.10165794519E+02  0.51100000000E-03 0.  1.
        -12    1    3    3    0    0  0.22167608175E+02  0.20173156277E+02 -0.26995126770E+02  0.40337277495E+02  0.00000000000E+00 0.  1.
</event>
<event>
 7    1  0.2895479E-015  0.9000772E+02  0.7816164E-02  0.1186339E+00
        -11   -1    0    0    0    0  0.00000000000E+00  0.00000000000E+00  0.45593999997E+02  0.45594000000E+02  0.51100000000E-03 0.  1.
         11   -1    0    0    0    0 -0.00000000000E+00 -0.00000000000E+00 -0.45593999997E+02  0.45594000000E+02  0.51100000000E-03 0. -1.
    9900012    2    1    2    0    0 -0.12402420951E+00  0.10390045717E+01 -0.54602664868E+00  0.90007721386E+02  0.89999982509E+02 0.  0.
        -12    1    1    2    0    0  0.12402420951E+00 -0.10390045717E+01  0.54602664868E+00  0.11802786136E+01  0.00000000000E+00 0.  1.
         11    1    3    3    0    0  0.10240627597E+02  0.37462326383E+01  0.42706307631E+01  0.11710806972E+02  0.51100000000E-03 0. -1.
        -11    1    3    3    0    0  0.21211911052E+02  0.14080094318E+02  0.21959724276E+02  0.33621774448E+02  0.51100000000E-03 0.  1.
         12    1    3    3    0    0 -0.31576562858E+02 -0.16787322385E+02 -0.26776381687E+02  0.44675139967E+02  0.00000000000E+00 0. -1.
</event>
<event>
 7    1  0.2895479E-015  0.9000753E+02  0.7816164E-02  0.1186339E+00
        -11   -1    0    0    0    0  0.00000000000E+00  0.00000000000E+00  0.45593999997E+02  0.45594000000E+02  0.51100000000E-03 0.  1.
         11   -1    0    0    0    0 -0.00000000000E+00 -0.00000000000E+00 -0.45593999997E+02  0.45594000000E+02  0.51100000000E-03 0. -1.
    9900012    2    1    2    0    0 -0.10457205980E+01  0.52831866928E+00  0.14443490444E+00  0.90007528218E+02  0.89999786791E+02 0.  0.
        -12    1    1    2    0    0  0.10457205980E+01 -0.52831866928E+00 -0.14443490444E+00  0.11804717816E+01  0.00000000000E+00 0.  1.
         11    1    3    3    0    0 -0.35153675253E+02  0.14751124210E+02 -0.12240803602E+02  0.40040152627E+02  0.51100000000E-03 0. -1.
        -11    1    3    3    0    0  0.30822007590E+01 -0.30160714077E+01 -0.94638676528E+01  0.10400069205E+02  0.51100000000E-03 0.  1.
        -12    1    3    3    0    0  0.31025753896E+02 -0.11206734133E+02  0.21849106160E+02  0.39567306387E+02  0.00000000000E+00 0.  1.
</event>
<event>
 7    1  0.2895479E-015  0.9000760E+02  0.7816164E-02  0.1186339E+00
        -11   -1    0    0    0    0  0.00000000000E+00  0.00000000000E+00  0.45593999997E+02  0.45594000000E+02  0.51100000000E-03 0.  1.
         11   -1    0    0    0    0 -0.00000000000E+00 -0.00000000000E+00 -0.45593999997E+02  0.45594000000E+02  0.51100000000E-03 0. -1.
    9900012    2    1    2    0    0 -0.97191449179E+00 -0.32026765395E+00  0.58835760850E+00  0.90007595906E+02  0.89999855372E+02 0.  0.
        -12    1    1    2    0    0  0.97191449179E+00  0.32026765395E+00 -0.58835760850E+00  0.11804040939E+01  0.00000000000E+00 0.  1.
         11    1    3    3    0    0 -0.46156283651E+01 -0.12285383193E+01 -0.79279209026E+01  0.92555530200E+01  0.51100000000E-03 0. -1.
        -11    1    3    3    0    0 -0.14713481099E+02  0.40277103865E+01  0.40758268962E+02  0.43519483752E+02  0.51100000000E-03 0.  1.
         12    1    3    3    0    0  0.18357194973E+02 -0.31194397211E+01 -0.32241990451E+02  0.37232559134E+02  0.00000000000E+00 0. -1.
</event>
<event>
 7    1  0.2895479E-015  0.9000797E+02  0.7816164E-02  0.1186339E+00
        -11   -1    0    0    0    0  0.00000000000E+00  0.00000000000E+00  0.45593999997E+02  0.45594000000E+02  0.51100000000E-03 0. -1.
         11   -1    0    0    0    0 -0.00000000000E+00 -0.00000000000E+00 -0.45593999997E+02  0.45594000000E+02  0.51100000000E-03 0.  1.
    9900012    2    1    2    0    0 -0.19439013506E+00 -0.11584311354E+01  0.11274883400E+00  0.90007973509E+02  0.90000237959E+02 0.  0.
        -12    1    1    2    0    0  0.19439013506E+00  0.11584311354E+01 -0.11274883400E+00  0.11800264910E+01  0.00000000000E+00 0.  1.
         11    1    3    3    0    0 -0.11953308925E+02  0.95686991103E+00  0.39110631934E+01  0.12613231539E+02  0.51100000000E-03 0. -1.
        -11    1    3    3    0    0 -0.27390611374E-01 -0.16135643809E+02 -0.36503021736E+02  0.39910278720E+02  0.51100000000E-03 0.  1.
         12    1    3    3    0    0  0.11786309402E+02  0.14020342763E+02  0.32704707377E+02  0.37484463250E+02  0.00000000000E+00 0. -1.
</event>
<event>
 7    1  0.2895479E-015  0.9000776E+02  0.7816164E-02  0.1186339E+00
        -11   -1    0    0    0    0  0.00000000000E+00  0.00000000000E+00  0.45593999997E+02  0.45594000000E+02  0.51100000000E-03 0.  1.
         11   -1    0    0    0    0 -0.00000000000E+00 -0.00000000000E+00 -0.45593999997E+02  0.45594000000E+02  0.51100000000E-03 0. -1.
    9900012    2    1    2    0    0  0.59951126775E+00  0.85611994348E+00 -0.54828316058E+00  0.90007758693E+02  0.90000020308E+02 0.  0.
        -12    1    1    2    0    0 -0.59951126775E+00 -0.85611994348E+00  0.54828316058E+00  0.11802413067E+01  0.00000000000E+00 0.  1.
         11    1    3    3    0    0 -0.29780635842E+02  0.10804211115E+02 -0.11182097263E+02  0.33595484049E+02  0.51100000000E-03 0. -1.
        -11    1    3    3    0    0 -0.62146232021E+01  0.97344804359E+01 -0.42038907934E+01  0.12290416957E+02  0.51100000000E-03 0.  1.
        -12    1    3    3    0    0  0.36594770312E+02 -0.19682571607E+02  0.14837704896E+02  0.44121857688E+02  0.00000000000E+00 0.  1.
</event>
<event>
 7    1  0.2895479E-015  0.9000805E+02  0.7816164E-02  0.1186338E+00
        -11   -1    0    0    0    0  0.00000000000E+00  0.00000000000E+00  0.45593999997E+02  0.45594000000E+02  0.51100000000E-03 0. -1.
         11   -1    0    0    0    0 -0.00000000000E+00 -0.00000000000E+00 -0.45593999997E+02  0.45594000000E+02  0.51100000000E-03 0.  1.
    9900012    2    1    2    0    0  0.24256421598E+00  0.95845631271E+00 -0.64405207204E+00  0.90008051283E+02  0.90000316760E+02 0.  0.
        -12    1    1    2    0    0 -0.24256421598E+00 -0.95845631271E+00  0.64405207204E+00  0.11799487166E+01  0.00000000000E+00 0.  1.
         11    1    3    3    0    0  0.49877770543E+01  0.92368643424E+00  0.76032257963E+01  0.91400305986E+01  0.51100000000E-03 0. -1.
        -11    1    3    3    0    0  0.28472538681E+02 -0.24523608947E+02 -0.11847531140E+02  0.39401229030E+02  0.51100000000E-03 0.  1.
         12    1    3    3    0    0 -0.33217751519E+02  0.24558378825E+02  0.36002532714E+01  0.41466791655E+02  0.00000000000E+00 0. -1.
</event>
<event>
 7    1  0.2895479E-015  0.9000768E+02  0.7816164E-02  0.1186339E+00
        -11   -1    0    0    0    0  0.00000000000E+00  0.00000000000E+00  0.45593999997E+02  0.45594000000E+02  0.51100000000E-03 0.  1.
         11   -1    0    0    0    0 -0.00000000000E+00 -0.00000000000E+00 -0.45593999997E+02  0.45594000000E+02  0.51100000000E-03 0. -1.
    9900012    2    1    2    0    0  0.10163659019E+01 -0.37204070635E+00  0.47089900135E+00  0.90007678093E+02  0.89999938644E+02 0.  0.
        -12    1    1    2    0    0 -0.10163659019E+01  0.37204070635E+00 -0.47089900135E+00  0.11803219066E+01  0.00000000000E+00 0.  1.
         11    1    3    3    0    0  0.10362194848E+02  0.19698403085E+02 -0.26448800587E+02  0.34567921820E+02  0.51100000000E-03 0. -1.
        -11    1    3    3    0    0  0.83180547845E+01  0.29111823464E+01 -0.66849673419E+01  0.11061365498E+02  0.51100000000E-03 0.  1.
        -12    1    3    3    0    0 -0.17663883731E+02 -0.22981626138E+02  0.33604666930E+02  0.44378390776E+02  0.00000000000E+00 0.  1.
</event>
<event>
 7    1  0.2895479E-015  0.9000753E+02  0.7816164E-02  0.1186339E+00
        -11   -1    0    0    0    0  0.00000000000E+00  0.00000000000E+00  0.45593999997E+02  0.45594000000E+02  0.51100000000E-03 0. -1.
         11   -1    0    0    0    0 -0.00000000000E+00 -0.00000000000E+00 -0.45593999997E+02  0.45594000000E+02  0.51100000000E-03 0.  1.
    9900012    2    1    2    0    0 -0.11377969342E+01 -0.26789847412E+00  0.16481427668E+00  0.90007527551E+02  0.89999786115E+02 0.  0.
        -12    1    1    2    0    0  0.11377969342E+01  0.26789847412E+00 -0.16481427668E+00  0.11804724485E+01  0.00000000000E+00 0.  1.
         11    1    3    3    0    0  0.93033428142E+01 -0.15299642182E+02  0.82882788764E+01  0.19731366030E+02  0.51100000000E-03 0. -1.
        -11    1    3    3    0    0  0.16432437277E+02 -0.85789805029E+01  0.18110415164E+02  0.25915459460E+02  0.51100000000E-03 0.  1.
        -12    1    3    3    0    0 -0.26873577026E+02  0.23610724211E+02 -0.26233879764E+02  0.44360702061E+02  0.00000000000E+00 0.  1.
</event>
<event>
 7    1  0.2895479E-015  0.9000759E+02  0.7816164E-02  0.1186339E+00
        -11   -1    0    0    0    0  0.00000000000E+00  0.00000000000E+00  0.45593999997E+02  0.45594000000E+02  0.51100000000E-03 0. -1.
         11   -1    0    0    0    0 -0.00000000000E+00 -0.00000000000E+00 -0.45593999997E+02  0.45594000000E+02  0.51100000000E-03 0.  1.
    9900012    2    1    2    0    0 -0.56324846616E+00 -0.15463597189E+00  0.10257679205E+01  0.90007592890E+02  0.89999852316E+02 0.  0.
        -12    1    1    2    0    0  0.56324846616E+00  0.15463597189E+00 -0.10257679205E+01  0.11804071099E+01  0.00000000000E+00 0.  1.
         11    1    3    3    0    0 -0.13718701870E+01  0.22676722862E+02  0.30052313964E+02  0.37673032297E+02  0.51100000000E-03 0. -1.
        -11    1    3    3    0    0 -0.55915899443E+01  0.45541346862E+01  0.45569878241E+01  0.85306599472E+01  0.51100000000E-03 0.  1.
        -12    1    3    3    0    0  0.64002116652E+01 -0.27385493520E+02 -0.33583533868E+02  0.43803900646E+02  0.00000000000E+00 0.  1.
</event>
<event>
 7    1  0.2895479E-015  0.9000772E+02  0.7816164E-02  0.1186339E+00
        -11   -1    0    0    0    0  0.00000000000E+00  0.00000000000E+00  0.45593999997E+02  0.45594000000E+02  0.51100000000E-03 0.  1.
         11   -1    0    0    0    0 -0.00000000000E+00 -0.00000000000E+00 -0.45593999997E+02  0.45594000000E+02  0.51100000000E-03 0. -1.
    9900012    2    1    2    0    0 -0.10434647167E+01 -0.21251418210E+00 -0.50898881249E+00  0.90007724395E+02  0.89999985557E+02 0.  0.
        -12    1    1    2    0    0  0.10434647167E+01  0.21251418210E+00  0.50898881249E+00  0.11802756050E+01  0.00000000000E+00 0.  1.
         11    1    3    3    0    0  0.25916552514E+02  0.69914730139E+01 -0.31043205393E+02  0.41039359041E+02  0.51100000000E-03 0. -1.
        -11    1    3    3    0    0  0.43570664205E+01  0.20401068454E+01  0.78580515559E+01  0.92138503488E+01  0.51100000000E-03 0.  1.
        -12    1    3    3    0    0 -0.31317083651E+02 -0.92440940414E+01  0.22676165025E+02  0.39754515005E+02  0.00000000000E+00 0.  1.
</event>
<event>
 7    1  0.2895479E-015  0.9000771E+02  0.7816164E-02  0.1186339E+00
        -11   -1    0    0    0    0  0.00000000000E+00  0.00000000000E+00  0.45593999997E+02  0.45594000000E+02  0.51100000000E-03 0. -1.
         11   -1    0    0    0    0 -0.00000000000E+00 -0.00000000000E+00 -0.45593999997E+02  0.45594000000E+02  0.51100000000E-03 0.  1.
    9900012    2    1    2    0    0 -0.89714617103E+00  0.19660860697E-01  0.76669187094E+00  0.90007714345E+02  0.89999975375E+02 0.  0.
        -12    1    1    2    0    0  0.89714617103E+00 -0.19660860697E-01 -0.76669187094E+00  0.11802856547E+01  0.00000000000E+00 0.  1.
         11    1    3    3    0    0 -0.17075715543E+02  0.17413471838E+02 -0.32048123790E+02  0.40272711623E+02  0.51100000000E-03 0. -1.
        -11    1    3    3    0    0  0.70616838934E+01 -0.55281363061E+01 -0.41310624432E+01  0.98738719660E+01  0.51100000000E-03 0.  1.
        -12    1    3    3    0    0  0.91168854788E+01 -0.11865674671E+02  0.36945878104E+02  0.39861130756E+02  0.00000000000E+00 0.  1.
</event>
<event>
 7    1  0.2895479E-015  0.9000779E+02  0.7816164E-02  0.1186339E+00
        -11   -1    0    0    0    0  0.00000000000E+00  0.00000000000E+00  0.45593999997E+02  0.45594000000E+02  0.51100000000E-03 0.  1.
         11   -1    0    0    0    0 -0.00000000000E+00 -0.00000000000E+00 -0.45593999997E+02  0.45594000000E+02  0.51100000000E-03 0. -1.
    9900012    2    1    2    0    0  0.49162049159E+00  0.48329346715E+00 -0.95792612277E+00  0.90007794196E+02  0.90000056279E+02 0.  0.
        -12    1    1    2    0    0 -0.49162049159E+00 -0.48329346715E+00  0.95792612277E+00  0.11802058040E+01  0.00000000000E+00 0.  1.
         11    1    3    3    0    0  0.31541584361E+01  0.10626481515E+02 -0.36137366321E+01  0.11658898641E+02  0.51100000000E-03 0. -1.
        -11    1    3    3    0    0 -0.36476460930E+02  0.73723672371E+01 -0.94403365075E+01  0.38392759139E+02  0.51100000000E-03 0.  1.
         12    1    3    3    0    0  0.33813922986E+02 -0.17515555285E+02  0.12096147017E+02  0.39956136416E+02  0.00000000000E+00 0. -1.
</event>
<event>
 7    1  0.3026163E-015  0.9000774E+02  0.7816164E-02  0.1186339E+00
        -11   -1    0    0    0    0  0.00000000000E+00  0.00000000000E+00  0.45593999997E+02  0.45594000000E+02  0.51100000000E-03 0.  1.
         11   -1    0    0    0    0 -0.00000000000E+00 -0.00000000000E+00 -0.45593999997E+02  0.45594000000E+02  0.51100000000E-03 0. -1.
    9900012    2    1    2    0    0 -0.17397887032E+00 -0.74623187559E+00 -0.89771303215E+00  0.90007737594E+02  0.89999998930E+02 0.  0.
        -12    1    1    2    0    0  0.17397887032E+00  0.74623187559E+00  0.89771303215E+00  0.11802624062E+01  0.00000000000E+00 0.  1.
         11    1    3    3    0    0 -0.26557470183E+01  0.88808315015E+01  0.39825802050E+00  0.92779723052E+01  0.51100000000E-03 0. -1.
        -11    1    3    3    0    0  0.18237058703E+01  0.24226425697E+02  0.27203127355E+02  0.36472671185E+02  0.51100000000E-03 0.  1.
         12    1    3    3    0    0  0.65806227766E+00 -0.33853489074E+02 -0.28499098408E+02  0.44257094104E+02  0.00000000000E+00 0. -1.
</event>
<event>
 7    1  0.2895479E-015  0.9000763E+02  0.7816164E-02  0.1186339E+00
        -11   -1    0    0    0    0  0.00000000000E+00  0.00000000000E+00  0.45593999997E+02  0.45594000000E+02  0.51100000000E-03 0.  1.
         11   -1    0    0    0    0 -0.00000000000E+00 -0.00000000000E+00 -0.45593999997E+02  0.45594000000E+02  0.51100000000E-03 0. -1.
    9900012    2    1    2    0    0  0.75398000191E+00  0.14486924115E+00 -0.89654762872E+00  0.90007631163E+02  0.89999891094E+02 0.  0.
        -12    1    1    2    0    0 -0.75398000191E+00 -0.14486924115E+00  0.89654762872E+00  0.11803688368E+01  0.00000000000E+00 0.  1.
         11    1    3    3    0    0  0.80834795266E+00 -0.45097685383E+01  0.10094886393E+02  0.11085944715E+02  0.51100000000E-03 0. -1.
        -11    1    3    3    0    0 -0.22036953098E+02 -0.16295231119E+02  0.21213401578E+02  0.34657903367E+02  0.51100000000E-03 0.  1.
         12    1    3    3    0    0  0.21982585147E+02  0.20949868898E+02 -0.32204835600E+02  0.44263783081E+02  0.00000000000E+00 0. -1.
</event>
<event>
 7    1  0.2895479E-015  0.9000772E+02  0.7816164E-02  0.1186339E+00
        -11   -1    0    0    0    0  0.00000000000E+00  0.00000000000E+00  0.45593999997E+02  0.45594000000E+02  0.51100000000E-03 0. -1.
         11   -1    0    0    0    0 -0.00000000000E+00 -0.00000000000E+00 -0.45593999997E+02  0.45594000000E+02  0.51100000000E-03 0.  1.
    9900012    2    1    2    0    0  0.49883679159E+00  0.10589696922E+01 -0.15098591305E+00  0.90007723888E+02  0.89999985044E+02 0.  0.
        -12    1    1    2    0    0 -0.49883679159E+00 -0.10589696922E+01  0.15098591305E+00  0.11802761116E+01  0.00000000000E+00 0.  1.
         11    1    3    3    0    0 -0.23460513924E+02  0.29218502318E+02  0.14859396675E+02  0.40310274882E+02  0.51100000000E-03 0. -1.
        -11    1    3    3    0    0  0.80650421392E+01  0.56036974833E+01 -0.11439308453E+01  0.98871081835E+01  0.51100000000E-03 0.  1.
        -12    1    3    3    0    0  0.15894308576E+02 -0.33763230109E+02 -0.13866451743E+02  0.39810340823E+02  0.00000000000E+00 0.  1.
</event>
<event>
 7    1  0.2895479E-015  0.9000753E+02  0.7816164E-02  0.1186339E+00
        -11   -1    0    0    0    0  0.00000000000E+00  0.00000000000E+00  0.45593999997E+02  0.45594000000E+02  0.51100000000E-03 0. -1.
         11   -1    0    0    0    0 -0.00000000000E+00 -0.00000000000E+00 -0.45593999997E+02  0.45594000000E+02  0.51100000000E-03 0.  1.
    9900012    2    1    2    0    0  0.70888834752E+00 -0.40860492530E+00  0.85090234798E+00  0.90007527434E+02  0.89999785995E+02 0.  0.
        -12    1    1    2    0    0 -0.70888834752E+00  0.40860492530E+00 -0.85090234798E+00  0.11804725664E+01  0.00000000000E+00 0.  1.
         11    1    3    3    0    0  0.20256761924E+02  0.25766758303E+02  0.14440948721E+02  0.35816242647E+02  0.51100000000E-03 0. -1.
        -11    1    3    3    0    0  0.19752066091E+00  0.10646679236E+02 -0.20400289007E+01  0.10842163591E+02  0.51100000000E-03 0.  1.
        -12    1    3    3    0    0 -0.19745394238E+02 -0.36822042464E+02 -0.11550017472E+02  0.43349121196E+02  0.00000000000E+00 0.  1.
</event>
<event>
 7    1  0.2895479E-015  0.9000775E+02  0.7816164E-02  0.1186339E+00
        -11   -1    0    0    0    0  0.00000000000E+00  0.00000000000E+00  0.45593999997E+02  0.45594000000E+02  0.51100000000E-03 0. -1.
         11   -1    0    0    0    0 -0.00000000000E+00 -0.00000000000E+00 -0.45593999997E+02  0.45594000000E+02  0.51100000000E-03 0.  1.
    9900012    2    1    2    0    0  0.10575573767E+01  0.51340401458E+00  0.10481493198E+00  0.90007746867E+02  0.90000008326E+02 0.  0.
        -12    1    1    2    0    0 -0.10575573767E+01 -0.51340401458E+00 -0.10481493198E+00  0.11802531326E+01  0.00000000000E+00 0.  1.
         11    1    3    3    0    0  0.23821336916E+01 -0.10487026253E+01  0.94837507025E+01  0.98344224929E+01  0.51100000000E-03 0. -1.
        -11    1    3    3    0    0 -0.27528337534E+02 -0.20446527903E+02 -0.25118934681E+02  0.42506831809E+02  0.51100000000E-03 0.  1.
         12    1    3    3    0    0  0.26203761219E+02  0.22008634543E+02  0.15739998911E+02  0.37666492565E+02  0.00000000000E+00 0. -1.
</event>
<event>
 7    1  0.2895479E-015  0.9000803E+02  0.7816164E-02  0.1186338E+00
        -11   -1    0    0    0    0  0.00000000000E+00  0.00000000000E+00  0.45593999997E+02  0.45594000000E+02  0.51100000000E-03 0.  1.
         11   -1    0    0    0    0 -0.00000000000E+00 -0.00000000000E+00 -0.45593999997E+02  0.45594000000E+02  0.51100000000E-03 0. -1.
    9900012    2    1    2    0    0 -0.32727058152E+00 -0.13112725513E+00  0.11260727098E+01  0.90008025365E+02  0.90000290500E+02 0.  0.
        -12    1    1    2    0    0  0.32727058152E+00  0.13112725513E+00 -0.11260727098E+01  0.11799746346E+01  0.00000000000E+00 0.  1.
         11    1    3    3    0    0  0.44784190010E+01 -0.57136541647E+01  0.71101095987E+01  0.10161483131E+02  0.51100000000E-03 0. -1.
        -11    1    3    3    0    0  0.26672735952E+02 -0.22861743837E+02  0.62731877156E+01  0.35685389991E+02  0.51100000000E-03 0.  1.
         12    1    3    3    0    0 -0.31478425535E+02  0.28444270746E+02 -0.12257224605E+02  0.44161152243E+02  0.00000000000E+00 0. -1.
</event>
<event>
 7    1  0.2895479E-015  0.9000776E+02  0.7816164E-02  0.1186339E+00
        -11   -1    0    0    0    0  0.00000000000E+00  0.00000000000E+00  0.45593999997E+02  0.45594000000E+02  0.51100000000E-03 0.  1.
         11   -1    0    0    0    0 -0.00000000000E+00 -0.00000000000E+00 -0.45593999997E+02  0.45594000000E+02  0.51100000000E-03 0. -1.
    9900012    2    1    2    0    0 -0.80889162515E+00  0.58298634987E+00 -0.63148802016E+00  0.90007764487E+02  0.90000026179E+02 0.  0.
        -12    1    1    2    0    0  0.80889162515E+00 -0.58298634987E+00  0.63148802016E+00  0.11802355125E+01  0.00000000000E+00 0.  1.
         11    1    3    3    0    0  0.32574304940E+02  0.73357401901E+01 -0.13651906106E+02  0.36073161312E+02  0.51100000000E-03 0. -1.
        -11    1    3    3    0    0  0.87482520089E+01 -0.38567889805E+01 -0.55124192389E+00  0.95765652701E+01  0.51100000000E-03 0.  1.
        -12    1    3    3    0    0 -0.42131448574E+02 -0.28959648597E+01  0.13571660009E+02  0.44358037905E+02  0.00000000000E+00 0.  1.
</event>
<event>
 7    1  0.4000415E-015  0.9000826E+02  0.7816164E-02  0.1186338E+00
        -11   -1    0    0    0    0  0.00000000000E+00  0.00000000000E+00  0.45593999997E+02  0.45594000000E+02  0.51100000000E-03 0. -1.
         11   -1    0    0    0    0 -0.00000000000E+00 -0.00000000000E+00 -0.45593999997E+02  0.45594000000E+02  0.51100000000E-03 0.  1.
    9900012    2    1    2    0    0  0.39147479834E+00 -0.42965797601E+00  0.10266071690E+01  0.90008262413E+02  0.90000530676E+02 0.  0.
        -12    1    1    2    0    0 -0.39147479834E+00  0.42965797601E+00 -0.10266071690E+01  0.11797375867E+01  0.00000000000E+00 0.  1.
         11    1    3    3    0    0 -0.74576735948E+01 -0.34332788704E+01  0.55818098331E+01  0.99277842705E+01  0.51100000000E-03 0. -1.
        -11    1    3    3    0    0  0.12470544513E+02 -0.37288017108E+02 -0.48639504658E+00  0.39321079343E+02  0.51100000000E-03 0.  1.
         12    1    3    3    0    0 -0.46213961199E+01  0.40291638003E+02 -0.40688076175E+01  0.40759398799E+02  0.00000000000E+00 0. -1.
</event>
<event>
 7    1  0.2895479E-015  0.9000773E+02  0.7816164E-02  0.1186339E+00
        -11   -1    0    0    0    0  0.00000000000E+00  0.00000000000E+00  0.45593999997E+02  0.45594000000E+02  0.51100000000E-03 0.  1.
         11   -1    0    0    0    0 -0.00000000000E+00 -0.00000000000E+00 -0.45593999997E+02  0.45594000000E+02  0.51100000000E-03 0. -1.
    9900012    2    1    2    0    0 -0.88726418829E+00  0.50495335994E+00 -0.59230824286E+00  0.90007726858E+02  0.89999988052E+02 0.  0.
        -12    1    1    2    0    0  0.88726418829E+00 -0.50495335994E+00  0.59230824286E+00  0.11802731422E+01  0.00000000000E+00 0.  1.
         11    1    3    3    0    0  0.29078217251E+02  0.16895471621E+02 -0.14862839322E+02  0.36768242720E+02  0.51100000000E-03 0. -1.
        -11    1    3    3    0    0 -0.75557539361E+01  0.60109047240E+01 -0.95637111469E+01  0.13589884632E+02  0.51100000000E-03 0.  1.
        -12    1    3    3    0    0 -0.22409727503E+02 -0.22401422985E+02  0.23834242226E+02  0.39649599506E+02  0.00000000000E+00 0.  1.
</event>
<event>
 7    1  0.2895479E-015  0.9000741E+02  0.7816164E-02  0.1186340E+00
        -11   -1    0    0    0    0  0.00000000000E+00  0.00000000000E+00  0.45593999997E+02  0.45594000000E+02  0.51100000000E-03 0. -1.
         11   -1    0    0    0    0 -0.00000000000E+00 -0.00000000000E+00 -0.45593999997E+02  0.45594000000E+02  0.51100000000E-03 0.  1.
    9900012    2    1    2    0    0 -0.11691229795E+01 -0.14805141202E+00  0.70921416422E-01  0.90007407941E+02  0.89999664926E+02 0.  0.
        -12    1    1    2    0    0  0.11691229795E+01  0.14805141202E+00 -0.70921416422E-01  0.11805920587E+01  0.00000000000E+00 0.  1.
         11    1    3    3    0    0 -0.34206125678E+02 -0.14335507094E+02  0.43558522031E+01  0.37343530179E+02  0.51100000000E-03 0. -1.
        -11    1    3    3    0    0 -0.86813798580E+01  0.36534599872E+01  0.43799462150E-01  0.94189195119E+01  0.51100000000E-03 0.  1.
        -12    1    3    3    0    0  0.41718382557E+02  0.10533995695E+02 -0.43287302488E+01  0.43244958250E+02  0.00000000000E+00 0.  1.
</event>
<event>
 7    1  0.2895479E-015  0.9000774E+02  0.7816164E-02  0.1186339E+00
        -11   -1    0    0    0    0  0.00000000000E+00  0.00000000000E+00  0.45593999997E+02  0.45594000000E+02  0.51100000000E-03 0.  1.
         11   -1    0    0    0    0 -0.00000000000E+00 -0.00000000000E+00 -0.45593999997E+02  0.45594000000E+02  0.51100000000E-03 0. -1.
    9900012    2    1    2    0    0  0.50481464848E+00  0.53447370236E+00 -0.92332296466E+00  0.90007735087E+02  0.89999996390E+02 0.  0.
        -12    1    1    2    0    0 -0.50481464848E+00 -0.53447370236E+00  0.92332296466E+00  0.11802649130E+01  0.00000000000E+00 0.  1.
         11    1    3    3    0    0 -0.35573460464E+02 -0.45964135704E+01  0.17058040513E+01  0.35909718389E+02  0.51100000000E-03 0. -1.
        -11    1    3    3    0    0 -0.86485232136E+01 -0.15200662431E+01  0.28396334249E+00  0.87856809981E+01  0.51100000000E-03 0.  1.
        -12    1    3    3    0    0  0.44726798326E+02  0.66509535159E+01 -0.29130903584E+01  0.45312335700E+02  0.00000000000E+00 0.  1.
</event>
<event>
 7    1  0.2895479E-015  0.9000781E+02  0.7816164E-02  0.1186339E+00
        -11   -1    0    0    0    0  0.00000000000E+00  0.00000000000E+00  0.45593999997E+02  0.45594000000E+02  0.51100000000E-03 0. -1.
         11   -1    0    0    0    0 -0.00000000000E+00 -0.00000000000E+00 -0.45593999997E+02  0.45594000000E+02  0.51100000000E-03 0.  1.
    9900012    2    1    2    0    0  0.49946754568E-01  0.36952514259E+00  0.11197341855E+01  0.90007810119E+02  0.90000072412E+02 0.  0.
        -12    1    1    2    0    0 -0.49946754568E-01 -0.36952514259E+00 -0.11197341855E+01  0.11801898811E+01  0.00000000000E+00 0.  1.
         11    1    3    3    0    0 -0.85776189249E+01  0.28297340088E+01  0.20664241039E+01  0.92656920853E+01  0.51100000000E-03 0. -1.
        -11    1    3    3    0    0 -0.13536654924E+02 -0.36942569718E+02  0.35526779820E+01  0.39504632703E+02  0.51100000000E-03 0.  1.
         12    1    3    3    0    0  0.22164220604E+02  0.34482360852E+02 -0.44993679003E+01  0.41237485330E+02  0.00000000000E+00 0. -1.
</event>
<event>
 7    1  0.2895479E-015  0.9000779E+02  0.7816164E-02  0.1186339E+00
        -11   -1    0    0    0    0  0.00000000000E+00  0.00000000000E+00  0.45593999997E+02  0.45594000000E+02  0.51100000000E-03 0.  1.
         11   -1    0    0    0    0 -0.00000000000E+00 -0.00000000000E+00 -0.45593999997E+02  0.45594000000E+02  0.51100000000E-03 0. -1.
    9900012    2    1    2    0    0  0.87413940126E+00  0.58858947827E+00 -0.53135053882E+00  0.90007792111E+02  0.90000054167E+02 0.  0.
        -12    1    1    2    0    0 -0.87413940126E+00 -0.58858947827E+00  0.53135053882E+00  0.11802078893E+01  0.00000000000E+00 0.  1.
         11    1    3    3    0    0  0.43659128051E+01  0.10506309346E+02 -0.60540178925E+01  0.12887779623E+02  0.51100000000E-03 0. -1.
        -11    1    3    3    0    0  0.23591790451E+02  0.15156378705E+02 -0.18029747726E+02  0.33337069389E+02  0.51100000000E-03 0.  1.
         12    1    3    3    0    0 -0.27083563855E+02 -0.25074098573E+02  0.23552415080E+02  0.43782943099E+02  0.00000000000E+00 0. -1.
</event>
<event>
 7    1  0.2895479E-015  0.9000771E+02  0.7816164E-02  0.1186339E+00
        -11   -1    0    0    0    0  0.00000000000E+00  0.00000000000E+00  0.45593999997E+02  0.45594000000E+02  0.51100000000E-03 0. -1.
         11   -1    0    0    0    0 -0.00000000000E+00 -0.00000000000E+00 -0.45593999997E+02  0.45594000000E+02  0.51100000000E-03 0.  1.
    9900012    2    1    2    0    0 -0.83861085736E+00 -0.82185782258E-01  0.82647310930E+00  0.90007711699E+02  0.89999972694E+02 0.  0.
        -12    1    1    2    0    0  0.83861085736E+00  0.82185782258E-01 -0.82647310930E+00  0.11802883009E+01  0.00000000000E+00 0.  1.
         11    1    3    3    0    0 -0.16384474825E+02 -0.25122559405E+02  0.31966945325E+02  0.43834684897E+02  0.51100000000E-03 0. -1.
        -11    1    3    3    0    0  0.67841920304E+01  0.50576743476E+01 -0.39382805145E+00  0.84711529385E+01  0.51100000000E-03 0.  1.
        -12    1    3    3    0    0  0.87616719369E+01  0.19982699276E+02 -0.30746644164E+02  0.37701873864E+02  0.00000000000E+00 0.  1.
</event>
<event>
 7    1  0.2895479E-015  0.9000778E+02  0.7816164E-02  0.1186339E+00
        -11   -1    0    0    0    0  0.00000000000E+00  0.00000000000E+00  0.45593999997E+02  0.45594000000E+02  0.51100000000E-03 0. -1.
         11   -1    0    0    0    0 -0.00000000000E+00 -0.00000000000E+00 -0.45593999997E+02  0.45594000000E+02  0.51100000000E-03 0.  1.
    9900012    2    1    2    0    0 -0.18281968864E-01 -0.42640032836E+00  0.11003494237E+01  0.90007779544E+02  0.90000041434E+02 0.  0.
        -12    1    1    2    0    0  0.18281968864E-01  0.42640032836E+00 -0.11003494237E+01  0.11802204560E+01  0.00000000000E+00 0.  1.
         11    1    3    3    0    0 -0.31929005951E+02  0.73044783998E+01  0.19376556067E+02  0.38056113188E+02  0.51100000000E-03 0. -1.
        -11    1    3    3    0    0  0.40022958808E+01 -0.13315013196E+02  0.54143148122E+01  0.14920548042E+02  0.51100000000E-03 0.  1.
        -12    1    3    3    0    0  0.27908428101E+02  0.55841344674E+01 -0.23690521455E+02  0.37031118315E+02  0.00000000000E+00 0.  1.
</event>
<event>
 7    1  0.2895479E-015  0.9000787E+02  0.7816164E-02  0.1186339E+00
        -11   -1    0    0    0    0  0.00000000000E+00  0.00000000000E+00  0.45593999997E+02  0.45594000000E+02  0.51100000000E-03 0. -1.
         11   -1    0    0    0    0 -0.00000000000E+00 -0.00000000000E+00 -0.45593999997E+02  0.45594000000E+02  0.51100000000E-03 0.  1.
    9900012    2    1    2    0    0 -0.88536818392E+00 -0.40254652184E+00  0.66842851177E+00  0.90007865601E+02  0.90000128627E+02 0.  0.
        -12    1    1    2    0    0  0.88536818392E+00  0.40254652184E+00 -0.66842851177E+00  0.11801343986E+01  0.00000000000E+00 0.  1.
         11    1    3    3    0    0  0.49627820511E+01 -0.10528364584E+02 -0.27081672053E+00  0.11642551630E+02  0.51100000000E-03 0. -1.
        -11    1    3    3    0    0  0.27737559502E+02 -0.15996181876E+02 -0.11522426543E+02  0.34029639366E+02  0.51100000000E-03 0.  1.
         12    1    3    3    0    0 -0.33585709737E+02  0.26121999938E+02  0.12461671775E+02  0.44335674605E+02  0.00000000000E+00 0. -1.
</event>
<event>
 7    1  0.2895479E-015  0.9000775E+02  0.7816164E-02  0.1186339E+00
        -11   -1    0    0    0    0  0.00000000000E+00  0.00000000000E+00  0.45593999997E+02  0.45594000000E+02  0.51100000000E-03 0.  1.
         11   -1    0    0    0    0 -0.00000000000E+00 -0.00000000000E+00 -0.45593999997E+02  0.45594000000E+02  0.51100000000E-03 0. -1.
    9900012    2    1    2    0    0  0.10221024297E+01 -0.10570384662E+00 -0.58063159893E+00  0.90007745903E+02  0.90000007349E+02 0.  0.
        -12    1    1    2    0    0 -0.10221024297E+01  0.10570384662E+00  0.58063159893E+00  0.11802540971E+01  0.00000000000E+00 0.  1.
         11    1    3    3    0    0 -0.21672542693E+02 -0.25529208566E+02  0.10987876727E+02  0.35244475199E+02  0.51100000000E-03 0. -1.
        -11    1    3    3    0    0  0.14596187856E+02  0.98198687715E+01  0.14855629576E+02  0.23025382797E+02  0.51100000000E-03 0.  1.
        -12    1    3    3    0    0  0.80984572669E+01  0.15603635948E+02 -0.26424137902E+02  0.31737887907E+02  0.00000000000E+00 0.  1.
</event>
<event>
 7    1  0.2895479E-015  0.9000774E+02  0.7816164E-02  0.1186339E+00
        -11   -1    0    0    0    0  0.00000000000E+00  0.00000000000E+00  0.45593999997E+02  0.45594000000E+02  0.51100000000E-03 0.  1.
         11   -1    0    0    0    0 -0.00000000000E+00 -0.00000000000E+00 -0.45593999997E+02  0.45594000000E+02  0.51100000000E-03 0. -1.
    9900012    2    1    2    0    0  0.49111963988E+00 -0.24910935732E+00 -0.10439168218E+01  0.90007738883E+02  0.90000000237E+02 0.  0.
        -12    1    1    2    0    0 -0.49111963988E+00  0.24910935732E+00  0.10439168218E+01  0.11802611166E+01  0.00000000000E+00 0.  1.
         11    1    3    3    0    0 -0.22302980457E+01 -0.10623332335E+02  0.49268770510E+01  0.11920718812E+02  0.51100000000E-03 0. -1.
        -11    1    3    3    0    0  0.12546709155E+02 -0.27836404604E+02  0.14316431728E+02  0.33723071473E+02  0.51100000000E-03 0.  1.
         12    1    3    3    0    0 -0.98252914689E+01  0.38210627581E+02 -0.20287225601E+02  0.44363948598E+02  0.00000000000E+00 0. -1.
</event>
<event>
 7    1  0.2895479E-015  0.9000773E+02  0.7816164E-02  0.1186339E+00
        -11   -1    0    0    0    0  0.00000000000E+00  0.00000000000E+00  0.45593999997E+02  0.45594000000E+02  0.51100000000E-03 0. -1.
         11   -1    0    0    0    0 -0.00000000000E+00 -0.00000000000E+00 -0.45593999997E+02  0.45594000000E+02  0.51100000000E-03 0.  1.
    9900012    2    1    2    0    0  0.10893643004E+01 -0.58233140574E-01  0.45048476954E+00  0.90007727910E+02  0.89999989119E+02 0.  0.
        -12    1    1    2    0    0 -0.10893643004E+01  0.58233140574E-01 -0.45048476954E+00  0.11802720895E+01  0.00000000000E+00 0.  1.
         11    1    3    3    0    0  0.34384693252E+02 -0.11506510398E+02 -0.97850320397E+01  0.37556008359E+02  0.51100000000E-03 0. -1.
        -11    1    3    3    0    0  0.74437069136E+01  0.32393542594E+01 -0.32737379633E+01  0.87532593442E+01  0.51100000000E-03 0.  1.
        -12    1    3    3    0    0 -0.40739035865E+02  0.82089229976E+01  0.13509254773E+02  0.43698460208E+02  0.00000000000E+00 0.  1.
</event>
<event>
 7    1  0.2895479E-015  0.9000774E+02  0.7816164E-02  0.1186339E+00
        -11   -1    0    0    0    0  0.00000000000E+00  0.00000000000E+00  0.45593999997E+02  0.45594000000E+02  0.51100000000E-03 0. -1.
         11   -1    0    0    0    0 -0.00000000000E+00 -0.00000000000E+00 -0.45593999997E+02  0.45594000000E+02  0.51100000000E-03 0.  1.
    9900012    2    1    2    0    0  0.91921632335E+00 -0.51890827707E+00 -0.52800376149E+00  0.90007740528E+02  0.90000001903E+02 0.  0.
        -12    1    1    2    0    0 -0.91921632335E+00  0.51890827707E+00  0.52800376149E+00  0.11802594720E+01  0.00000000000E+00 0.  1.
         11    1    3    3    0    0 -0.12794893907E+00 -0.98060080454E+01 -0.43148381447E+01  0.10714102538E+02  0.51100000000E-03 0. -1.
        -11    1    3    3    0    0  0.82660733643E+01 -0.16711617538E+02 -0.30448665964E+02  0.35703324619E+02  0.51100000000E-03 0.  1.
         12    1    3    3    0    0 -0.72189081018E+01  0.25998717306E+02  0.34235500347E+02  0.43590313371E+02  0.00000000000E+00 0. -1.
</event>
<event>
 7    1  0.2895479E-015  0.9000777E+02  0.7816164E-02  0.1186339E+00
        -11   -1    0    0    0    0  0.00000000000E+00  0.00000000000E+00  0.45593999997E+02  0.45594000000E+02  0.51100000000E-03 0.  1.
         11   -1    0    0    0    0 -0.00000000000E+00 -0.00000000000E+00 -0.45593999997E+02  0.45594000000E+02  0.51100000000E-03 0. -1.
    9900012    2    1    2    0    0 -0.37236251261E+00  0.74330943311E+00 -0.83771673652E+00  0.90007774562E+02  0.90000036386E+02 0.  0.
        -12    1    1    2    0    0  0.37236251261E+00 -0.74330943311E+00  0.83771673652E+00  0.11802254381E+01  0.00000000000E+00 0.  1.
         11    1    3    3    0    0 -0.66632014266E+01  0.72367045706E+01  0.13784784124E+01  0.99331943145E+01  0.51100000000E-03 0. -1.
        -11    1    3    3    0    0  0.19866386109E+01  0.36375011485E+02  0.35704133222E+01  0.36603770913E+02  0.51100000000E-03 0.  1.
         12    1    3    3    0    0  0.43042003031E+01 -0.42868406622E+02 -0.57866084711E+01  0.43470809334E+02  0.00000000000E+00 0. -1.
</event>
<event>
 7    1  0.2895479E-015  0.9000771E+02  0.7816164E-02  0.1186339E+00
        -11   -1    0    0    0    0  0.00000000000E+00  0.00000000000E+00  0.45593999997E+02  0.45594000000E+02  0.51100000000E-03 0.  1.
         11   -1    0    0    0    0 -0.00000000000E+00 -0.00000000000E+00 -0.45593999997E+02  0.45594000000E+02  0.51100000000E-03 0. -1.
    9900012    2    1    2    0    0  0.11380010501E+01  0.18940656506E-01  0.31252709662E+00  0.90007712609E+02  0.89999973616E+02 0.  0.
        -12    1    1    2    0    0 -0.11380010501E+01 -0.18940656506E-01 -0.31252709662E+00  0.11802873907E+01  0.00000000000E+00 0.  1.
         11    1    3    3    0    0  0.36671169101E+01  0.22200256055E+01  0.14877853738E+02  0.15483113131E+02  0.51100000000E-03 0. -1.
        -11    1    3    3    0    0  0.46825708227E+01  0.27342350907E+02  0.15486312284E+02  0.31770371277E+02  0.51100000000E-03 0.  1.
         12    1    3    3    0    0 -0.72116866826E+01 -0.29543435856E+02 -0.30051638925E+02  0.42754228201E+02  0.00000000000E+00 0. -1.
</event>
<event>
 7    1  0.2895479E-015  0.9000778E+02  0.7816164E-02  0.1186339E+00
        -11   -1    0    0    0    0  0.00000000000E+00  0.00000000000E+00  0.45593999997E+02  0.45594000000E+02  0.51100000000E-03 0.  1.
         11   -1    0    0    0    0 -0.00000000000E+00 -0.00000000000E+00 -0.45593999997E+02  0.45594000000E+02  0.51100000000E-03 0. -1.
    9900012    2    1    2    0    0 -0.59826800810E+00  0.96214727432E+00  0.33055821543E+00  0.90007779376E+02  0.90000041264E+02 0.  0.
        -12    1    1    2    0    0  0.59826800810E+00 -0.96214727432E+00 -0.33055821543E+00  0.11802206238E+01  0.00000000000E+00 0.  1.
         11    1    3    3    0    0 -0.13396189062E+02 -0.31765115803E+02 -0.16164862491E+02  0.38076019264E+02  0.51100000000E-03 0. -1.
        -11    1    3    3    0    0  0.55245840998E+01 -0.61839326025E+01 -0.15359460030E+01  0.84333375537E+01  0.51100000000E-03 0.  1.
        -12    1    3    3    0    0  0.72733369543E+01  0.38911195680E+02  0.18031366710E+02  0.43498422559E+02  0.00000000000E+00 0.  1.
</event>
<event>
 7    1  0.2895479E-015  0.9000766E+02  0.7816164E-02  0.1186339E+00
        -11   -1    0    0    0    0  0.00000000000E+00  0.00000000000E+00  0.45593999997E+02  0.45594000000E+02  0.51100000000E-03 0.  1.
         11   -1    0    0    0    0 -0.00000000000E+00 -0.00000000000E+00 -0.45593999997E+02  0.45594000000E+02  0.51100000000E-03 0. -1.
    9900012    2    1    2    0    0 -0.83455800338E+00 -0.80973130471E+00 -0.20262160803E+00  0.90007657947E+02  0.89999918232E+02 0.  0.
        -12    1    1    2    0    0  0.83455800338E+00  0.80973130471E+00  0.20262160803E+00  0.11803420533E+01  0.00000000000E+00 0.  1.
         11    1    3    3    0    0 -0.10353347430E+02 -0.10621151693E+02 -0.34403988468E+02  0.37465118297E+02  0.51100000000E-03 0. -1.
        -11    1    3    3    0    0  0.20846281403E+01  0.16630154698E+01 -0.82558977174E+01  0.86758943238E+01  0.51100000000E-03 0.  1.
        -12    1    3    3    0    0  0.74341612862E+01  0.81484049182E+01  0.42457264577E+02  0.43866645326E+02  0.00000000000E+00 0.  1.
</event>
<event>
 7    1  0.2895479E-015  0.9000774E+02  0.7816164E-02  0.1186339E+00
        -11   -1    0    0    0    0  0.00000000000E+00  0.00000000000E+00  0.45593999997E+02  0.45594000000E+02  0.51100000000E-03 0.  1.
         11   -1    0    0    0    0 -0.00000000000E+00 -0.00000000000E+00 -0.45593999997E+02  0.45594000000E+02  0.51100000000E-03 0. -1.
    9900012    2    1    2    0    0  0.87620681456E+00  0.78973231451E+00  0.39890104293E-01  0.90007742939E+02  0.90000004345E+02 0.  0.
        -12    1    1    2    0    0 -0.87620681456E+00 -0.78973231451E+00 -0.39890104293E-01  0.11802570614E+01  0.00000000000E+00 0.  1.
         11    1    3    3    0    0  0.32295813207E+02  0.26315065304E+02 -0.90588569008E+01  0.42632911011E+02  0.51100000000E-03 0. -1.
        -11    1    3    3    0    0  0.73171196708E+00 -0.80862326042E+01 -0.32854381997E+01  0.87588049731E+01  0.51100000000E-03 0.  1.
        -12    1    3    3    0    0 -0.32151318360E+02 -0.17439100385E+02  0.12384185205E+02  0.38616026954E+02  0.00000000000E+00 0.  1.
</event>
<event>
 7    1  0.2895479E-015  0.9000748E+02  0.7816164E-02  0.1186340E+00
        -11   -1    0    0    0    0  0.00000000000E+00  0.00000000000E+00  0.45593999997E+02  0.45594000000E+02  0.51100000000E-03 0.  1.
         11   -1    0    0    0    0 -0.00000000000E+00 -0.00000000000E+00 -0.45593999997E+02  0.45594000000E+02  0.51100000000E-03 0. -1.
    9900012    2    1    2    0    0 -0.10831702164E+01  0.29952263648E+00  0.36145107077E+00  0.90007483840E+02  0.89999741826E+02 0.  0.
        -12    1    1    2    0    0  0.10831702164E+01 -0.29952263648E+00 -0.36145107077E+00  0.11805161600E+01  0.00000000000E+00 0.  1.
         11    1    3    3    0    0  0.20541349388E+01  0.66981025733E+00  0.11084508603E+02  0.11293115042E+02  0.51100000000E-03 0. -1.
        -11    1    3    3    0    0  0.27680277621E+02  0.23251425585E+02  0.56230343499E+01  0.36584765634E+02  0.51100000000E-03 0.  1.
         12    1    3    3    0    0 -0.30817582776E+02 -0.23621713206E+02 -0.16346091882E+02  0.42129603164E+02  0.00000000000E+00 0. -1.
</event>
<event>
 7    1  0.2895479E-015  0.9000762E+02  0.7816164E-02  0.1186339E+00
        -11   -1    0    0    0    0  0.00000000000E+00  0.00000000000E+00  0.45593999997E+02  0.45594000000E+02  0.51100000000E-03 0.  1.
         11   -1    0    0    0    0 -0.00000000000E+00 -0.00000000000E+00 -0.45593999997E+02  0.45594000000E+02  0.51100000000E-03 0. -1.
    9900012    2    1    2    0    0  0.54399503510E-01  0.14865735181E+00 -0.11697212723E+01  0.90007616092E+02  0.89999875825E+02 0.  0.
        -12    1    1    2    0    0 -0.54399503510E-01 -0.14865735181E+00  0.11697212723E+01  0.11803839075E+01  0.00000000000E+00 0.  1.
         11    1    3    3    0    0 -0.38598502511E+02 -0.40804299310E+01  0.11460931423E+02  0.40470325597E+02  0.51100000000E-03 0. -1.
        -11    1    3    3    0    0  0.20410399883E+01  0.10534948294E+02 -0.22636018871E+01  0.10966990178E+02  0.51100000000E-03 0.  1.
        -12    1    3    3    0    0  0.36611862027E+02 -0.63058610116E+01 -0.10367050809E+02  0.38570300318E+02  0.00000000000E+00 0.  1.
</event>
<event>
 7    1  0.2895479E-015  0.9000776E+02  0.7816164E-02  0.1186339E+00
        -11   -1    0    0    0    0  0.00000000000E+00  0.00000000000E+00  0.45593999997E+02  0.45594000000E+02  0.51100000000E-03 0.  1.
         11   -1    0    0    0    0 -0.00000000000E+00 -0.00000000000E+00 -0.45593999997E+02  0.45594000000E+02  0.51100000000E-03 0. -1.
    9900012    2    1    2    0    0  0.57415944687E-01 -0.11265309634E+01 -0.34727759269E+00  0.90007758360E+02  0.90000019970E+02 0.  0.
        -12    1    1    2    0    0 -0.57415944687E-01  0.11265309634E+01  0.34727759269E+00  0.11802416399E+01  0.00000000000E+00 0.  1.
         11    1    3    3    0    0  0.11983233479E+02  0.33451376536E+02  0.19969792168E+02  0.40760091711E+02  0.51100000000E-03 0. -1.
        -11    1    3    3    0    0  0.65111787500E+01 -0.18762298938E+01 -0.60600871122E+01  0.90906734293E+01  0.51100000000E-03 0.  1.
        -12    1    3    3    0    0 -0.18436996285E+02 -0.32701677606E+02 -0.14256982648E+02  0.40156993220E+02  0.00000000000E+00 0.  1.
</event>
<event>
 7    1  0.2895479E-015  0.9000764E+02  0.7816164E-02  0.1186339E+00
        -11   -1    0    0    0    0  0.00000000000E+00  0.00000000000E+00  0.45593999997E+02  0.45594000000E+02  0.51100000000E-03 0. -1.
         11   -1    0    0    0    0 -0.00000000000E+00 -0.00000000000E+00 -0.45593999997E+02  0.45594000000E+02  0.51100000000E-03 0.  1.
    9900012    2    1    2    0    0  0.13477238759E+00  0.11093635965E+01  0.37998803595E+00  0.90007643235E+02  0.89999903325E+02 0.  0.
        -12    1    1    2    0    0 -0.13477238759E+00 -0.11093635965E+01 -0.37998803595E+00  0.11803567652E+01  0.00000000000E+00 0.  1.
         11    1    3    3    0    0  0.24173416448E+01  0.21415680358E+01  0.41948766477E+02  0.42072899395E+02  0.51100000000E-03 0. -1.
        -11    1    3    3    0    0  0.19816813205E+01  0.68374872252E+01 -0.20402147796E+01  0.74054553552E+01  0.51100000000E-03 0.  1.
        -12    1    3    3    0    0 -0.42642505777E+01 -0.78696916645E+01 -0.39528563662E+02  0.40529288484E+02  0.00000000000E+00 0.  1.
</event>
<event>
 7    1  0.2895479E-015  0.9000765E+02  0.7816164E-02  0.1186339E+00
        -11   -1    0    0    0    0  0.00000000000E+00  0.00000000000E+00  0.45593999997E+02  0.45594000000E+02  0.51100000000E-03 0.  1.
         11   -1    0    0    0    0 -0.00000000000E+00 -0.00000000000E+00 -0.45593999997E+02  0.45594000000E+02  0.51100000000E-03 0. -1.
    9900012    2    1    2    0    0  0.33094784951E+00  0.37095676161E+00 -0.10705591700E+01  0.90007647369E+02  0.89999907514E+02 0.  0.
        -12    1    1    2    0    0 -0.33094784951E+00 -0.37095676161E+00  0.10705591700E+01  0.11803526314E+01  0.00000000000E+00 0.  1.
         11    1    3    3    0    0 -0.11555295360E+02 -0.13268548555E+01  0.68154269287E+01  0.13480928720E+02  0.51100000000E-03 0. -1.
        -11    1    3    3    0    0 -0.23475843352E+02  0.17752946434E+02 -0.20300494470E+02  0.35754613747E+02  0.51100000000E-03 0.  1.
         12    1    3    3    0    0  0.35362086562E+02 -0.16055134817E+02  0.12414508371E+02  0.40772104902E+02  0.00000000000E+00 0. -1.
</event>
<event>
 7    1  0.2895479E-015  0.9000773E+02  0.7816164E-02  0.1186339E+00
        -11   -1    0    0    0    0  0.00000000000E+00  0.00000000000E+00  0.45593999997E+02  0.45594000000E+02  0.51100000000E-03 0.  1.
         11   -1    0    0    0    0 -0.00000000000E+00 -0.00000000000E+00 -0.45593999997E+02  0.45594000000E+02  0.51100000000E-03 0. -1.
    9900012    2    1    2    0    0  0.68127453477E+00 -0.95829867455E+00  0.10280197585E+00  0.90007729019E+02  0.89999990242E+02 0.  0.
        -12    1    1    2    0    0 -0.68127453477E+00  0.95829867455E+00 -0.10280197585E+00  0.11802709806E+01  0.00000000000E+00 0.  1.
         11    1    3    3    0    0  0.31735366876E+02  0.16151816828E+02  0.66192867157E+01  0.36219189037E+02  0.51100000000E-03 0. -1.
        -11    1    3    3    0    0  0.58949505465E+01  0.34158670916E+01 -0.91859032789E+01  0.11436756937E+02  0.51100000000E-03 0.  1.
        -12    1    3    3    0    0 -0.36949042888E+02 -0.20525982594E+02  0.26694185391E+01  0.42351783045E+02  0.00000000000E+00 0.  1.
</event>
<event>
 7    1  0.2895479E-015  0.9000778E+02  0.7816164E-02  0.1186339E+00
        -11   -1    0    0    0    0  0.00000000000E+00  0.00000000000E+00  0.45593999997E+02  0.45594000000E+02  0.51100000000E-03 0. -1.
         11   -1    0    0    0    0 -0.00000000000E+00 -0.00000000000E+00 -0.45593999997E+02  0.45594000000E+02  0.51100000000E-03 0.  1.
    9900012    2    1    2    0    0  0.74330802395E+00 -0.43010553033E+00  0.80957629733E+00  0.90007783339E+02  0.90000045279E+02 0.  0.
        -12    1    1    2    0    0 -0.74330802395E+00  0.43010553033E+00 -0.80957629733E+00  0.11802166610E+01  0.00000000000E+00 0.  1.
         11    1    3    3    0    0  0.47730814013E+01 -0.64875708848E+01  0.13339076504E+02  0.15582100125E+02  0.51100000000E-03 0. -1.
        -11    1    3    3    0    0  0.31843797399E+02  0.16647725941E+02 -0.51406691364E+01  0.36298769831E+02  0.51100000000E-03 0.  1.
         12    1    3    3    0    0 -0.35873570777E+02 -0.10590260586E+02 -0.73888310706E+01  0.38126913383E+02  0.00000000000E+00 0. -1.
</event>
<event>
 7    1  0.2895479E-015  0.9000777E+02  0.7816164E-02  0.1186339E+00
        -11   -1    0    0    0    0  0.00000000000E+00  0.00000000000E+00  0.45593999997E+02  0.45594000000E+02  0.51100000000E-03 0.  1.
         11   -1    0    0    0    0 -0.00000000000E+00 -0.00000000000E+00 -0.45593999997E+02  0.45594000000E+02  0.51100000000E-03 0. -1.
    9900012    2    1    2    0    0  0.73345995281E+00  0.47966393738E+00 -0.79051136479E+00  0.90007767306E+02  0.90000029034E+02 0.  0.
        -12    1    1    2    0    0 -0.73345995281E+00 -0.47966393738E+00  0.79051136479E+00  0.11802326945E+01  0.00000000000E+00 0.  1.
         11    1    3    3    0    0  0.22136536393E+02  0.26311498524E+01  0.28829543714E+02  0.36442993620E+02  0.51100000000E-03 0. -1.
        -11    1    3    3    0    0  0.44159321823E+01 -0.63207110038E+01  0.57194415315E+01  0.96002008482E+01  0.51100000000E-03 0.  1.
        -12    1    3    3    0    0 -0.25819008622E+02  0.41692250888E+01 -0.35339496610E+02  0.43964572837E+02  0.00000000000E+00 0.  1.
</event>
<event>
 7    1  0.2895479E-015  0.9000784E+02  0.7816164E-02  0.1186339E+00
        -11   -1    0    0    0    0  0.00000000000E+00  0.00000000000E+00  0.45593999997E+02  0.45594000000E+02  0.51100000000E-03 0.  1.
         11   -1    0    0    0    0 -0.00000000000E+00 -0.00000000000E+00 -0.45593999997E+02  0.45594000000E+02  0.51100000000E-03 0. -1.
    9900012    2    1    2    0    0  0.89039392921E+00 -0.54078564157E+00 -0.55455366214E+00  0.90007838899E+02  0.90000101573E+02 0.  0.
        -12    1    1    2    0    0 -0.89039392921E+00  0.54078564157E+00  0.55455366214E+00  0.11801611006E+01  0.00000000000E+00 0.  1.
         11    1    3    3    0    0 -0.92208214522E+01 -0.88032550430E+00 -0.36191549180E+02  0.37358088195E+02  0.51100000000E-03 0. -1.
        -11    1    3    3    0    0  0.44633747712E+01  0.81930837264E+01 -0.52009923467E+01  0.10681697288E+02  0.51100000000E-03 0.  1.
        -12    1    3    3    0    0  0.56478406102E+01 -0.78535438637E+01  0.40837987865E+02  0.41968053417E+02  0.00000000000E+00 0.  1.
</event>
<event>
 7    1  0.2895479E-015  0.9000764E+02  0.7816164E-02  0.1186339E+00
        -11   -1    0    0    0    0  0.00000000000E+00  0.00000000000E+00  0.45593999997E+02  0.45594000000E+02  0.51100000000E-03 0.  1.
         11   -1    0    0    0    0 -0.00000000000E+00 -0.00000000000E+00 -0.45593999997E+02  0.45594000000E+02  0.51100000000E-03 0. -1.
    9900012    2    1    2    0    0  0.38199891899E+00 -0.10205789101E+01  0.45359069599E+00  0.90007640307E+02  0.89999900359E+02 0.  0.
        -12    1    1    2    0    0 -0.38199891899E+00  0.10205789101E+01 -0.45359069599E+00  0.11803596932E+01  0.00000000000E+00 0.  1.
         11    1    3    3    0    0  0.48422676166E+01 -0.36056575802E+02  0.84555335972E+01  0.37349970053E+02  0.51100000000E-03 0. -1.
        -11    1    3    3    0    0  0.43628893066E+01 -0.56633075462E+01 -0.83750065345E+01  0.11011293756E+02  0.51100000000E-03 0.  1.
        -12    1    3    3    0    0 -0.88231580042E+01  0.40699304439E+02  0.37306363322E+00  0.41646376498E+02  0.00000000000E+00 0.  1.
</event>
<event>
 7    1  0.2895479E-015  0.9000792E+02  0.7816164E-02  0.1186339E+00
        -11   -1    0    0    0    0  0.00000000000E+00  0.00000000000E+00  0.45593999997E+02  0.45594000000E+02  0.51100000000E-03 0. -1.
         11   -1    0    0    0    0 -0.00000000000E+00 -0.00000000000E+00 -0.45593999997E+02  0.45594000000E+02  0.51100000000E-03 0.  1.
    9900012    2    1    2    0    0  0.84156826895E+00  0.52977772294E+00  0.63537070388E+00  0.90007916309E+02  0.90000180004E+02 0.  0.
        -12    1    1    2    0    0 -0.84156826895E+00 -0.52977772294E+00 -0.63537070388E+00  0.11800836913E+01  0.00000000000E+00 0.  1.
         11    1    3    3    0    0  0.18858133045E+02  0.10766646954E+02  0.30493087423E+02  0.37434986970E+02  0.51100000000E-03 0. -1.
        -11    1    3    3    0    0  0.32001937199E+01  0.72298388149E+01  0.40853131937E+01  0.88995277002E+01  0.51100000000E-03 0.  1.
        -12    1    3    3    0    0 -0.21216758496E+02 -0.17466708046E+02 -0.33943029913E+02  0.43673401639E+02  0.00000000000E+00 0.  1.
</event>
<event>
 7    1  0.2895479E-015  0.9000818E+02  0.7816164E-02  0.1186338E+00
        -11   -1    0    0    0    0  0.00000000000E+00  0.00000000000E+00  0.45593999997E+02  0.45594000000E+02  0.51100000000E-03 0. -1.
         11   -1    0    0    0    0 -0.00000000000E+00 -0.00000000000E+00 -0.45593999997E+02  0.45594000000E+02  0.51100000000E-03 0.  1.
    9900012    2    1    2    0    0  0.54161577536E+00  0.41196515534E+00  0.96380565260E+00  0.90008176169E+02  0.90000443293E+02 0.  0.
        -12    1    1    2    0    0 -0.54161577536E+00 -0.41196515534E+00 -0.96380565260E+00  0.11798238315E+01  0.00000000000E+00 0.  1.
         11    1    3    3    0    0  0.16934424933E+02 -0.31762681931E+02 -0.62996515350E+00  0.36000549546E+02  0.51100000000E-03 0. -1.
        -11    1    3    3    0    0  0.74245830186E+00 -0.85673904078E+01  0.45144778514E+01  0.97124627805E+01  0.51100000000E-03 0.  1.
        -12    1    3    3    0    0 -0.17135267459E+02  0.40742037495E+02 -0.29207070453E+01  0.44295163842E+02  0.00000000000E+00 0.  1.
</event>
<event>
 7    1  0.2895479E-015  0.9000771E+02  0.7816164E-02  0.1186339E+00
        -11   -1    0    0    0    0  0.00000000000E+00  0.00000000000E+00  0.45593999997E+02  0.45594000000E+02  0.51100000000E-03 0.  1.
         11   -1    0    0    0    0 -0.00000000000E+00 -0.00000000000E+00 -0.45593999997E+02  0.45594000000E+02  0.51100000000E-03 0. -1.
    9900012    2    1    2    0    0  0.57376506744E+00  0.82815570766E+00 -0.61485436692E+00  0.90007705917E+02  0.89999966836E+02 0.  0.
        -12    1    1    2    0    0 -0.57376506744E+00 -0.82815570766E+00  0.61485436692E+00  0.11802940825E+01  0.00000000000E+00 0.  1.
         11    1    3    3    0    0  0.26729335988E+02 -0.17924421694E+01  0.22194362969E+02  0.34788791286E+02  0.51100000000E-03 0. -1.
        -11    1    3    3    0    0  0.51076004151E+01 -0.56397242955E+01  0.76546535691E+01  0.10792951110E+02  0.51100000000E-03 0.  1.
        -12    1    3    3    0    0 -0.31263171336E+02  0.82603221726E+01 -0.30463870905E+02  0.44425963522E+02  0.00000000000E+00 0.  1.
</event>
<event>
 7    1  0.2895479E-015  0.9000778E+02  0.7816164E-02  0.1186339E+00
        -11   -1    0    0    0    0  0.00000000000E+00  0.00000000000E+00  0.45593999997E+02  0.45594000000E+02  0.51100000000E-03 0.  1.
         11   -1    0    0    0    0 -0.00000000000E+00 -0.00000000000E+00 -0.45593999997E+02  0.45594000000E+02  0.51100000000E-03 0. -1.
    9900012    2    1    2    0    0  0.67510666739E+00  0.59119279324E+00 -0.76657107122E+00  0.90007784283E+02  0.90000046236E+02 0.  0.
        -12    1    1    2    0    0 -0.67510666739E+00 -0.59119279324E+00  0.76657107122E+00  0.11802157169E+01  0.00000000000E+00 0.  1.
         11    1    3    3    0    0 -0.47874072417E+01  0.54040789013E+01 -0.63343897329E+01  0.96045734116E+01  0.51100000000E-03 0. -1.
        -11    1    3    3    0    0 -0.37232152931E+02 -0.39552782216E+01  0.98352514328E+00  0.37454569276E+02  0.51100000000E-03 0.  1.
         12    1    3    3    0    0  0.42694666840E+02 -0.85760788649E+00  0.45842935184E+01  0.42948641596E+02  0.00000000000E+00 0. -1.
</event>
<event>
 7    1  0.2895479E-015  0.9000772E+02  0.7816164E-02  0.1186339E+00
        -11   -1    0    0    0    0  0.00000000000E+00  0.00000000000E+00  0.45593999997E+02  0.45594000000E+02  0.51100000000E-03 0. -1.
         11   -1    0    0    0    0 -0.00000000000E+00 -0.00000000000E+00 -0.45593999997E+02  0.45594000000E+02  0.51100000000E-03 0.  1.
    9900012    2    1    2    0    0  0.41013846902E+00 -0.10936207945E+01 -0.16980392981E+00  0.90007723176E+02  0.89999984322E+02 0.  0.
        -12    1    1    2    0    0 -0.41013846902E+00  0.10936207945E+01  0.16980392981E+00  0.11802768236E+01  0.00000000000E+00 0.  1.
         11    1    3    3    0    0  0.69699509873E+01  0.20874597242E+02  0.20806470743E+02  0.30285941488E+02  0.51100000000E-03 0. -1.
        -11    1    3    3    0    0 -0.30950755082E+01  0.26560900205E+01  0.15247786574E+02  0.15783830405E+02  0.51100000000E-03 0.  1.
        -12    1    3    3    0    0 -0.34647370101E+01 -0.24624308057E+02 -0.36224061246E+02  0.43937951283E+02  0.00000000000E+00 0.  1.
</event>
<event>
 7    1  0.2895479E-015  0.9000774E+02  0.7816164E-02  0.1186339E+00
        -11   -1    0    0    0    0  0.00000000000E+00  0.00000000000E+00  0.45593999997E+02  0.45594000000E+02  0.51100000000E-03 0. -1.
         11   -1    0    0    0    0 -0.00000000000E+00 -0.00000000000E+00 -0.45593999997E+02  0.45594000000E+02  0.51100000000E-03 0.  1.
    9900012    2    1    2    0    0  0.57350431897E+00 -0.60755056174E+00  0.83365578488E+00  0.90007742885E+02  0.90000004291E+02 0.  0.
        -12    1    1    2    0    0 -0.57350431897E+00  0.60755056174E+00 -0.83365578488E+00  0.11802571146E+01  0.00000000000E+00 0.  1.
         11    1    3    3    0    0 -0.13387472311E+02  0.13691674668E+02  0.31514909744E+02  0.36876495313E+02  0.51100000000E-03 0. -1.
        -11    1    3    3    0    0  0.28231622974E+01 -0.90490593312E-02  0.90413246167E+01  0.94718466166E+01  0.51100000000E-03 0.  1.
        -12    1    3    3    0    0  0.11137814333E+02 -0.14290176170E+02 -0.39722578576E+02  0.43659400956E+02  0.00000000000E+00 0.  1.
</event>
<event>
 7    1  0.2895479E-015  0.9000773E+02  0.7816164E-02  0.1186339E+00
        -11   -1    0    0    0    0  0.00000000000E+00  0.00000000000E+00  0.45593999997E+02  0.45594000000E+02  0.51100000000E-03 0. -1.
         11   -1    0    0    0    0 -0.00000000000E+00 -0.00000000000E+00 -0.45593999997E+02  0.45594000000E+02  0.51100000000E-03 0.  1.
    9900012    2    1    2    0    0 -0.99346591325E+00  0.27425857378E+00  0.57519856852E+00  0.90007726439E+02  0.89999987628E+02 0.  0.
        -12    1    1    2    0    0  0.99346591325E+00 -0.27425857378E+00 -0.57519856852E+00  0.11802735612E+01  0.00000000000E+00 0.  1.
         11    1    3    3    0    0 -0.52933149379E+01  0.58697837855E+01 -0.10898470203E+01  0.79788038896E+01  0.51100000000E-03 0. -1.
        -11    1    3    3    0    0 -0.30007228850E+02 -0.26019982370E+02 -0.89541727461E+01  0.40714253961E+02  0.51100000000E-03 0.  1.
         12    1    3    3    0    0  0.34307077875E+02  0.20424457158E+02  0.10619218335E+02  0.41314668588E+02  0.00000000000E+00 0. -1.
</event>
<event>
 7    1  0.2895479E-015  0.9000752E+02  0.7816164E-02  0.1186339E+00
        -11   -1    0    0    0    0  0.00000000000E+00  0.00000000000E+00  0.45593999997E+02  0.45594000000E+02  0.51100000000E-03 0.  1.
         11   -1    0    0    0    0 -0.00000000000E+00 -0.00000000000E+00 -0.45593999997E+02  0.45594000000E+02  0.51100000000E-03 0. -1.
    9900012    2    1    2    0    0  0.32878546800E+00 -0.93846810400E+00 -0.63617403186E+00  0.90007517190E+02  0.89999775616E+02 0.  0.
        -12    1    1    2    0    0 -0.32878546800E+00  0.93846810400E+00  0.63617403186E+00  0.11804828101E+01  0.00000000000E+00 0.  1.
         11    1    3    3    0    0 -0.34659725258E+02  0.70470673621E+01 -0.12656999978E+02  0.37565374510E+02  0.51100000000E-03 0. -1.
        -11    1    3    3    0    0 -0.43198367519E+01 -0.68250492873E+01 -0.50987097554E+01  0.95519175440E+01  0.51100000000E-03 0.  1.
        -12    1    3    3    0    0  0.39308347478E+02 -0.11604861789E+01  0.17119535702E+02  0.42890225136E+02  0.00000000000E+00 0.  1.
</event>
<event>
 7    1  0.2895479E-015  0.9000783E+02  0.7816164E-02  0.1186339E+00
        -11   -1    0    0    0    0  0.00000000000E+00  0.00000000000E+00  0.45593999997E+02  0.45594000000E+02  0.51100000000E-03 0. -1.
         11   -1    0    0    0    0 -0.00000000000E+00 -0.00000000000E+00 -0.45593999997E+02  0.45594000000E+02  0.51100000000E-03 0.  1.
    9900012    2    1    2    0    0  0.89100592488E+00 -0.65634401776E+00 -0.41001337686E+00  0.90007834759E+02  0.90000097377E+02 0.  0.
        -12    1    1    2    0    0 -0.89100592488E+00  0.65634401776E+00  0.41001337686E+00  0.11801652414E+01  0.00000000000E+00 0.  1.
         11    1    3    3    0    0  0.63512646061E+01  0.15643026916E+01 -0.56892918415E+01  0.86691203086E+01  0.51100000000E-03 0. -1.
        -11    1    3    3    0    0 -0.32648601592E+02  0.19313471577E+02 -0.15420641781E+02  0.40947986073E+02  0.51100000000E-03 0.  1.
         12    1    3    3    0    0  0.27188342911E+02 -0.21534118287E+02  0.20699920246E+02  0.40390728377E+02  0.00000000000E+00 0. -1.
</event>
<event>
 7    1  0.2895479E-015  0.9000773E+02  0.7816164E-02  0.1186339E+00
        -11   -1    0    0    0    0  0.00000000000E+00  0.00000000000E+00  0.45593999997E+02  0.45594000000E+02  0.51100000000E-03 0.  1.
         11   -1    0    0    0    0 -0.00000000000E+00 -0.00000000000E+00 -0.45593999997E+02  0.45594000000E+02  0.51100000000E-03 0. -1.
    9900012    2    1    2    0    0  0.84438225702E+00  0.52468590067E+00 -0.63621587376E+00  0.90007725740E+02  0.89999986920E+02 0.  0.
        -12    1    1    2    0    0 -0.84438225702E+00 -0.52468590067E+00  0.63621587376E+00  0.11802742598E+01  0.00000000000E+00 0.  1.
         11    1    3    3    0    0  0.85798663107E+01 -0.41233952663E+01  0.34337079759E+01  0.10119626730E+02  0.51100000000E-03 0. -1.
        -11    1    3    3    0    0  0.24460811934E+01 -0.31604092370E+02  0.17788483504E+02  0.36348756697E+02  0.51100000000E-03 0.  1.
         12    1    3    3    0    0 -0.10181565247E+02  0.36252173537E+02 -0.21858407354E+02  0.43539342314E+02  0.00000000000E+00 0. -1.
</event>
<event>
 7    1  0.2895479E-015  0.9000806E+02  0.7816164E-02  0.1186338E+00
        -11   -1    0    0    0    0  0.00000000000E+00  0.00000000000E+00  0.45593999997E+02  0.45594000000E+02  0.51100000000E-03 0. -1.
         11   -1    0    0    0    0 -0.00000000000E+00 -0.00000000000E+00 -0.45593999997E+02  0.45594000000E+02  0.51100000000E-03 0.  1.
    9900012    2    1    2    0    0  0.10422603752E+01  0.45608538390E+00 -0.31294546555E+00  0.90008061259E+02  0.90000326867E+02 0.  0.
        -12    1    1    2    0    0 -0.10422603752E+01 -0.45608538390E+00  0.31294546555E+00  0.11799387406E+01  0.00000000000E+00 0.  1.
         11    1    3    3    0    0 -0.24953819106E+01  0.10219052600E+02  0.35507557472E+02  0.37032993463E+02  0.51100000000E-03 0. -1.
        -11    1    3    3    0    0  0.67403291708E+00  0.80559735628E+01  0.41732822386E+01  0.90977643035E+01  0.51100000000E-03 0.  1.
        -12    1    3    3    0    0  0.28636093688E+01 -0.17818940779E+02 -0.39993785176E+02  0.43877303493E+02  0.00000000000E+00 0.  1.
</event>
<event>
 7    1  0.2895479E-015  0.9000789E+02  0.7816164E-02  0.1186339E+00
        -11   -1    0    0    0    0  0.00000000000E+00  0.00000000000E+00  0.45593999997E+02  0.45594000000E+02  0.51100000000E-03 0. -1.
         11   -1    0    0    0    0 -0.00000000000E+00 -0.00000000000E+00 -0.45593999997E+02  0.45594000000E+02  0.51100000000E-03 0.  1.
    9900012    2    1    2    0    0 -0.73020526734E+00 -0.89956029573E+00 -0.22417696094E+00  0.90007888239E+02  0.90000151564E+02 0.  0.
        -12    1    1    2    0    0  0.73020526734E+00  0.89956029573E+00  0.22417696094E+00  0.11801117608E+01  0.00000000000E+00 0.  1.
         11    1    3    3    0    0  0.16751191976E+01 -0.98523234280E+01  0.35386549147E+01  0.10601715905E+02  0.51100000000E-03 0. -1.
        -11    1    3    3    0    0  0.14421654814E+02 -0.16998014035E+02 -0.31007605207E+02  0.38188849022E+02  0.51100000000E-03 0.  1.
         12    1    3    3    0    0 -0.16826979279E+02  0.25950777167E+02  0.27244773331E+02  0.41217323313E+02  0.00000000000E+00 0. -1.
</event>
<event>
 7    1  0.2895479E-015  0.9000748E+02  0.7816164E-02  0.1186340E+00
        -11   -1    0    0    0    0  0.00000000000E+00  0.00000000000E+00  0.45593999997E+02  0.45594000000E+02  0.51100000000E-03 0.  1.
         11   -1    0    0    0    0 -0.00000000000E+00 -0.00000000000E+00 -0.45593999997E+02  0.45594000000E+02  0.51100000000E-03 0. -1.
    9900012    2    1    2    0    0 -0.20404333914E+00  0.10546322575E+01 -0.48964441155E+00  0.90007477009E+02  0.89999734905E+02 0.  0.
        -12    1    1    2    0    0  0.20404333914E+00 -0.10546322575E+01  0.48964441155E+00  0.11805229911E+01  0.00000000000E+00 0.  1.
         11    1    3    3    0    0  0.12301105493E+02 -0.34004273035E+02  0.13712031408E+02  0.38673344652E+02  0.51100000000E-03 0. -1.
        -11    1    3    3    0    0 -0.72131732583E+01 -0.31995406465E+01  0.37578240984E+01  0.87400326669E+01  0.51100000000E-03 0.  1.
        -12    1    3    3    0    0 -0.52919755736E+01  0.38258445939E+02 -0.17959499918E+02  0.42594099690E+02  0.00000000000E+00 0.  1.
</event>
<event>
 7    1  0.2895479E-015  0.9000783E+02  0.7816164E-02  0.1186339E+00
        -11   -1    0    0    0    0  0.00000000000E+00  0.00000000000E+00  0.45593999997E+02  0.45594000000E+02  0.51100000000E-03 0. -1.
         11   -1    0    0    0    0 -0.00000000000E+00 -0.00000000000E+00 -0.45593999997E+02  0.45594000000E+02  0.51100000000E-03 0.  1.
    9900012    2    1    2    0    0  0.40015004787E+00 -0.23488963978E+00  0.10851260541E+01  0.90007834013E+02  0.90000096622E+02 0.  0.
        -12    1    1    2    0    0 -0.40015004787E+00  0.23488963978E+00 -0.10851260541E+01  0.11801659871E+01  0.00000000000E+00 0.  1.
         11    1    3    3    0    0 -0.18567193080E+02 -0.21501372398E+02  0.23964853573E+02  0.37166703928E+02  0.51100000000E-03 0. -1.
        -11    1    3    3    0    0  0.85295018699E+01 -0.76079323352E+01  0.39239663425E+01  0.12084310021E+02  0.51100000000E-03 0.  1.
        -12    1    3    3    0    0  0.10437841258E+02  0.28874415093E+02 -0.26803693862E+02  0.40756820064E+02  0.00000000000E+00 0.  1.
</event>
<event>
 7    1  0.2895479E-015  0.9000678E+02  0.7816164E-02  0.1186341E+00
        -11   -1    0    0    0    0  0.00000000000E+00  0.00000000000E+00  0.45593999997E+02  0.45594000000E+02  0.51100000000E-03 0. -1.
         11   -1    0    0    0    0 -0.00000000000E+00 -0.00000000000E+00 -0.45593999997E+02  0.45594000000E+02  0.51100000000E-03 0.  1.
    9900012    2    1    2    0    0 -0.85098974518E+00 -0.72850663348E+00  0.37468253681E+00  0.90006775015E+02  0.89999023640E+02 0.  0.
        -12    1    1    2    0    0  0.85098974518E+00  0.72850663348E+00 -0.37468253681E+00  0.11812249848E+01  0.00000000000E+00 0.  1.
         11    1    3    3    0    0  0.69523231576E+01  0.35073213067E+01 -0.50511622869E+01  0.92817207858E+01  0.51100000000E-03 0. -1.
        -11    1    3    3    0    0 -0.39173540919E+02  0.52398459779E+01 -0.14815000672E+02  0.42207896645E+02  0.51100000000E-03 0.  1.
         12    1    3    3    0    0  0.31370228017E+02 -0.94756739181E+01  0.20240845495E+02  0.38517157584E+02  0.00000000000E+00 0. -1.
</event>
<event>
 7    1  0.2895479E-015  0.9000774E+02  0.7816164E-02  0.1186339E+00
        -11   -1    0    0    0    0  0.00000000000E+00  0.00000000000E+00  0.45593999997E+02  0.45594000000E+02  0.51100000000E-03 0.  1.
         11   -1    0    0    0    0 -0.00000000000E+00 -0.00000000000E+00 -0.45593999997E+02  0.45594000000E+02  0.51100000000E-03 0. -1.
    9900012    2    1    2    0    0  0.66644331895E+00 -0.96983166039E+00  0.91125077808E-01  0.90007735654E+02  0.89999996965E+02 0.  0.
        -12    1    1    2    0    0 -0.66644331895E+00  0.96983166039E+00 -0.91125077808E-01  0.11802643461E+01  0.00000000000E+00 0.  1.
         11    1    3    3    0    0  0.29885764461E+02  0.18830798251E+02  0.72288467139E+01  0.36055708359E+02  0.51100000000E-03 0. -1.
        -11    1    3    3    0    0  0.63122953949E+01  0.12418550622E+01 -0.10719633044E+02  0.12501912254E+02  0.51100000000E-03 0.  1.
        -12    1    3    3    0    0 -0.35531616537E+02 -0.21042484974E+02  0.35819114084E+01  0.41450115041E+02  0.00000000000E+00 0.  1.
</event>
<event>
 7    1  0.2895479E-015  0.9000766E+02  0.7816164E-02  0.1186339E+00
        -11   -1    0    0    0    0  0.00000000000E+00  0.00000000000E+00  0.45593999997E+02  0.45594000000E+02  0.51100000000E-03 0. -1.
         11   -1    0    0    0    0 -0.00000000000E+00 -0.00000000000E+00 -0.45593999997E+02  0.45594000000E+02  0.51100000000E-03 0.  1.
    9900012    2    1    2    0    0 -0.87314378805E+00  0.28376353517E+00  0.74183045412E+00  0.90007655033E+02  0.89999915279E+02 0.  0.
        -12    1    1    2    0    0  0.87314378805E+00 -0.28376353517E+00 -0.74183045412E+00  0.11803449670E+01  0.00000000000E+00 0.  1.
         11    1    3    3    0    0  0.23359718200E+01  0.82101209245E+00 -0.96163706572E+01  0.99300256836E+01  0.51100000000E-03 0. -1.
        -11    1    3    3    0    0  0.22599791787E+02  0.27206065889E+02 -0.10408735873E+02  0.36868175880E+02  0.51100000000E-03 0.  1.
         12    1    3    3    0    0 -0.25808907395E+02 -0.27743314446E+02  0.20766936984E+02  0.43209453469E+02  0.00000000000E+00 0. -1.
</event>
<event>
 7    1  0.2895479E-015  0.9000767E+02  0.7816164E-02  0.1186339E+00
        -11   -1    0    0    0    0  0.00000000000E+00  0.00000000000E+00  0.45593999997E+02  0.45594000000E+02  0.51100000000E-03 0. -1.
         11   -1    0    0    0    0 -0.00000000000E+00 -0.00000000000E+00 -0.45593999997E+02  0.45594000000E+02  0.51100000000E-03 0.  1.
    9900012    2    1    2    0    0 -0.50143905444E+00  0.72670466493E+00 -0.78334465006E+00  0.90007673928E+02  0.89999934424E+02 0.  0.
        -12    1    1    2    0    0  0.50143905444E+00 -0.72670466493E+00  0.78334465006E+00  0.11803260719E+01  0.00000000000E+00 0.  1.
         11    1    3    3    0    0 -0.18327528914E+01 -0.11598855191E+02 -0.13330768622E+00  0.11743517195E+02  0.51100000000E-03 0. -1.
        -11    1    3    3    0    0  0.25155512041E+02 -0.18552733007E+02  0.16858546888E+02  0.35513578974E+02  0.51100000000E-03 0.  1.
         12    1    3    3    0    0 -0.23824198204E+02  0.30878292864E+02 -0.17508583852E+02  0.42750577759E+02  0.00000000000E+00 0. -1.
</event>
<event>
 7    1  0.2895479E-015  0.9000782E+02  0.7816164E-02  0.1186339E+00
        -11   -1    0    0    0    0  0.00000000000E+00  0.00000000000E+00  0.45593999997E+02  0.45594000000E+02  0.51100000000E-03 0.  1.
         11   -1    0    0    0    0 -0.00000000000E+00 -0.00000000000E+00 -0.45593999997E+02  0.45594000000E+02  0.51100000000E-03 0. -1.
    9900012    2    1    2    0    0  0.10160209434E+01 -0.59942798339E+00  0.34783169045E-01  0.90007821059E+02  0.90000083497E+02 0.  0.
        -12    1    1    2    0    0 -0.10160209434E+01  0.59942798339E+00 -0.34783169045E-01  0.11801789413E+01  0.00000000000E+00 0.  1.
         11    1    3    3    0    0  0.92352521677E+01  0.29562013289E+01  0.55511397326E+01  0.11173368404E+02  0.51100000000E-03 0. -1.
        -11    1    3    3    0    0  0.98605551638E+01  0.23359202642E+02  0.24055533599E+02  0.34950702328E+02  0.51100000000E-03 0.  1.
         12    1    3    3    0    0 -0.18079786388E+02 -0.26914831954E+02 -0.29571890162E+02  0.43883750327E+02  0.00000000000E+00 0. -1.
</event>
<event>
 7    1  0.2895479E-015  0.9000782E+02  0.7816164E-02  0.1186339E+00
        -11   -1    0    0    0    0  0.00000000000E+00  0.00000000000E+00  0.45593999997E+02  0.45594000000E+02  0.51100000000E-03 0.  1.
         11   -1    0    0    0    0 -0.00000000000E+00 -0.00000000000E+00 -0.45593999997E+02  0.45594000000E+02  0.51100000000E-03 0. -1.
    9900012    2    1    2    0    0 -0.57904412367E+00  0.95337086697E+00  0.38550347086E+00  0.90007821610E+02  0.90000084055E+02 0.  0.
        -12    1    1    2    0    0  0.57904412367E+00 -0.95337086697E+00 -0.38550347086E+00  0.11801783904E+01  0.00000000000E+00 0.  1.
         11    1    3    3    0    0  0.57925440143E+01 -0.20181969244E+01 -0.16859877825E+01  0.63615438415E+01  0.51100000000E-03 0. -1.
        -11    1    3    3    0    0  0.27032899967E+02 -0.20487337719E+02  0.19653732381E+02  0.39201758687E+02  0.51100000000E-03 0.  1.
         12    1    3    3    0    0 -0.33404488105E+02  0.23458905510E+02 -0.17582241127E+02  0.44444519081E+02  0.00000000000E+00 0. -1.
</event>
<event>
 7    1  0.2895479E-015  0.9000772E+02  0.7816164E-02  0.1186339E+00
        -11   -1    0    0    0    0  0.00000000000E+00  0.00000000000E+00  0.45593999997E+02  0.45594000000E+02  0.51100000000E-03 0.  1.
         11   -1    0    0    0    0 -0.00000000000E+00 -0.00000000000E+00 -0.45593999997E+02  0.45594000000E+02  0.51100000000E-03 0. -1.
    9900012    2    1    2    0    0  0.56399791039E+00  0.29149138187E+00 -0.99498759060E+00  0.90007719875E+02  0.89999980977E+02 0.  0.
        -12    1    1    2    0    0 -0.56399791039E+00 -0.29149138187E+00  0.99498759060E+00  0.11802801253E+01  0.00000000000E+00 0.  1.
         11    1    3    3    0    0  0.45682961917E+01 -0.15636092614E+01  0.71381221472E+01  0.86178298931E+01  0.51100000000E-03 0. -1.
        -11    1    3    3    0    0  0.37193716568E+02 -0.88745889437E+01 -0.11994488257E+01  0.38256627645E+02  0.51100000000E-03 0.  1.
         12    1    3    3    0    0 -0.41198014849E+02  0.10729689587E+02 -0.69336609121E+01  0.43133262336E+02  0.00000000000E+00 0. -1.
</event>
<event>
 7    1  0.2895479E-015  0.9000771E+02  0.7816164E-02  0.1186339E+00
        -11   -1    0    0    0    0  0.00000000000E+00  0.00000000000E+00  0.45593999997E+02  0.45594000000E+02  0.51100000000E-03 0. -1.
         11   -1    0    0    0    0 -0.00000000000E+00 -0.00000000000E+00 -0.45593999997E+02  0.45594000000E+02  0.51100000000E-03 0.  1.
    9900012    2    1    2    0    0  0.85585702384E+00 -0.15954393172E+00  0.79695208288E+00  0.90007712690E+02  0.89999973698E+02 0.  0.
        -12    1    1    2    0    0 -0.85585702384E+00  0.15954393172E+00 -0.79695208288E+00  0.11802873099E+01  0.00000000000E+00 0.  1.
         11    1    3    3    0    0 -0.32689610343E+01 -0.22222291643E+02  0.32734600462E+02  0.39699753397E+02  0.51100000000E-03 0. -1.
        -11    1    3    3    0    0 -0.36727446136E+01  0.68902531676E+01  0.52400517524E+01  0.94033389995E+01  0.51100000000E-03 0.  1.
        -12    1    3    3    0    0  0.77975626718E+01  0.15172494543E+02 -0.37177700132E+02  0.40904620294E+02  0.00000000000E+00 0.  1.
</event>
<event>
 7    1  0.2895479E-015  0.9000751E+02  0.7816164E-02  0.1186340E+00
        -11   -1    0    0    0    0  0.00000000000E+00  0.00000000000E+00  0.45593999997E+02  0.45594000000E+02  0.51100000000E-03 0.  1.
         11   -1    0    0    0    0 -0.00000000000E+00 -0.00000000000E+00 -0.45593999997E+02  0.45594000000E+02  0.51100000000E-03 0. -1.
    9900012    2    1    2    0    0 -0.10084297825E+01 -0.58344563791E+00 -0.19033749739E+00  0.90007505273E+02  0.89999763542E+02 0.  0.
        -12    1    1    2    0    0  0.10084297825E+01  0.58344563791E+00  0.19033749739E+00  0.11804947274E+01  0.00000000000E+00 0.  1.
         11    1    3    3    0    0  0.13144797117E+02 -0.17856928682E+02 -0.30748981973E+02  0.37909833630E+02  0.51100000000E-03 0. -1.
        -11    1    3    3    0    0  0.84874391830E+01  0.46690055870E+01 -0.25856940036E+01  0.10026068561E+02  0.51100000000E-03 0.  1.
        -12    1    3    3    0    0 -0.22640666082E+02  0.12604477457E+02  0.33144338479E+02  0.42071603081E+02  0.00000000000E+00 0.  1.
</event>
<event>
 7    1  0.2895479E-015  0.9000776E+02  0.7816164E-02  0.1186339E+00
        -11   -1    0    0    0    0  0.00000000000E+00  0.00000000000E+00  0.45593999997E+02  0.45594000000E+02  0.51100000000E-03 0.  1.
         11   -1    0    0    0    0 -0.00000000000E+00 -0.00000000000E+00 -0.45593999997E+02  0.45594000000E+02  0.51100000000E-03 0. -1.
    9900012    2    1    2    0    0  0.53573403614E-01  0.47091768549E+00 -0.10808963763E+01  0.90007758265E+02  0.90000019874E+02 0.  0.
        -12    1    1    2    0    0 -0.53573403614E-01 -0.47091768549E+00  0.10808963763E+01  0.11802417347E+01  0.00000000000E+00 0.  1.
         11    1    3    3    0    0  0.65679623353E+01 -0.43493007669E+00  0.83736263541E+01  0.10651052154E+02  0.51100000000E-03 0. -1.
        -11    1    3    3    0    0 -0.27101027427E+02 -0.14999406450E+02  0.22402307277E+02  0.38227101029E+02  0.51100000000E-03 0.  1.
         12    1    3    3    0    0  0.20586638495E+02  0.15905254212E+02 -0.31856830008E+02  0.41129605082E+02  0.00000000000E+00 0. -1.
</event>
<event>
 7    1  0.2895479E-015  0.9000772E+02  0.7816164E-02  0.1186339E+00
        -11   -1    0    0    0    0  0.00000000000E+00  0.00000000000E+00  0.45593999997E+02  0.45594000000E+02  0.51100000000E-03 0.  1.
         11   -1    0    0    0    0 -0.00000000000E+00 -0.00000000000E+00 -0.45593999997E+02  0.45594000000E+02  0.51100000000E-03 0. -1.
    9900012    2    1    2    0    0  0.81397379257E+00 -0.49548804974E+00 -0.69641388626E+00  0.90007722896E+02  0.89999984038E+02 0.  0.
        -12    1    1    2    0    0 -0.81397379257E+00  0.49548804974E+00  0.69641388626E+00  0.11802771045E+01  0.00000000000E+00 0.  1.
         11    1    3    3    0    0 -0.23801397793E+01 -0.30061840520E+02 -0.31093323169E+02  0.43314825023E+02  0.51100000000E-03 0. -1.
        -11    1    3    3    0    0 -0.65663705959E+01  0.31743771375E+01  0.57865465509E+01  0.93101028061E+01  0.51100000000E-03 0.  1.
        -12    1    3    3    0    0  0.97604841678E+01  0.26391975333E+02  0.24610362732E+02  0.37382795066E+02  0.00000000000E+00 0.  1.
</event>
<event>
 7    1  0.2895479E-015  0.9000774E+02  0.7816164E-02  0.1186339E+00
        -11   -1    0    0    0    0  0.00000000000E+00  0.00000000000E+00  0.45593999997E+02  0.45594000000E+02  0.51100000000E-03 0.  1.
         11   -1    0    0    0    0 -0.00000000000E+00 -0.00000000000E+00 -0.45593999997E+02  0.45594000000E+02  0.51100000000E-03 0. -1.
    9900012    2    1    2    0    0  0.92922227469E+00 -0.48658945471E+00 -0.54109583833E+00  0.90007742384E+02  0.90000003784E+02 0.  0.
        -12    1    1    2    0    0 -0.92922227469E+00  0.48658945471E+00  0.54109583833E+00  0.11802576157E+01  0.00000000000E+00 0.  1.
         11    1    3    3    0    0 -0.36894876852E+02  0.41795985563E+01  0.12435349451E+02  0.39157871472E+02  0.51100000000E-03 0. -1.
        -11    1    3    3    0    0 -0.46435335616E+01 -0.31719655967E+01 -0.51820125948E+01  0.76470271660E+01  0.51100000000E-03 0.  1.
        -12    1    3    3    0    0  0.42467632688E+02 -0.14942224142E+01 -0.77944326946E+01  0.43202843746E+02  0.00000000000E+00 0.  1.
</event>
<event>
 7    1  0.2895479E-015  0.9000774E+02  0.7816164E-02  0.1186339E+00
        -11   -1    0    0    0    0  0.00000000000E+00  0.00000000000E+00  0.45593999997E+02  0.45594000000E+02  0.51100000000E-03 0.  1.
         11   -1    0    0    0    0 -0.00000000000E+00 -0.00000000000E+00 -0.45593999997E+02  0.45594000000E+02  0.51100000000E-03 0. -1.
    9900012    2    1    2    0    0 -0.71931840970E+00  0.69588552433E+00 -0.62557724567E+00  0.90007736247E+02  0.89999997565E+02 0.  0.
        -12    1    1    2    0    0  0.71931840970E+00 -0.69588552433E+00  0.62557724567E+00  0.11802637535E+01  0.00000000000E+00 0.  1.
         11    1    3    3    0    0 -0.93181612050E+00  0.54454615566E+01  0.11680689054E+02  0.12921293661E+02  0.51100000000E-03 0. -1.
        -11    1    3    3    0    0 -0.10675235489E+02 -0.13164343581E+02  0.28977283430E+02  0.33569979891E+02  0.51100000000E-03 0.  1.
         12    1    3    3    0    0  0.10887733200E+02  0.84147675491E+01 -0.41283549729E+02  0.43516462694E+02  0.00000000000E+00 0. -1.
</event>
<event>
 7    1  0.2895479E-015  0.9000770E+02  0.7816164E-02  0.1186339E+00
        -11   -1    0    0    0    0  0.00000000000E+00  0.00000000000E+00  0.45593999997E+02  0.45594000000E+02  0.51100000000E-03 0.  1.
         11   -1    0    0    0    0 -0.00000000000E+00 -0.00000000000E+00 -0.45593999997E+02  0.45594000000E+02  0.51100000000E-03 0. -1.
    9900012    2    1    2    0    0 -0.75984326192E+00  0.72482820060E+00  0.53886879989E+00  0.90007696104E+02  0.89999956893E+02 0.  0.
        -12    1    1    2    0    0  0.75984326192E+00 -0.72482820060E+00 -0.53886879989E+00  0.11803038959E+01  0.00000000000E+00 0.  1.
         11    1    3    3    0    0 -0.58747960380E+01  0.29769083624E+01  0.64699825522E+01  0.92323283289E+01  0.51100000000E-03 0. -1.
        -11    1    3    3    0    0  0.35553618085E+02 -0.16083873800E+02  0.14458145478E+02  0.41614765724E+02  0.51100000000E-03 0.  1.
         12    1    3    3    0    0 -0.30438665309E+02  0.13831793639E+02 -0.20389259231E+02  0.39160602051E+02  0.00000000000E+00 0. -1.
</event>
<event>
 7    1  0.2895479E-015  0.9000773E+02  0.7816164E-02  0.1186339E+00
        -11   -1    0    0    0    0  0.00000000000E+00  0.00000000000E+00  0.45593999997E+02  0.45594000000E+02  0.51100000000E-03 0.  1.
         11   -1    0    0    0    0 -0.00000000000E+00 -0.00000000000E+00 -0.45593999997E+02  0.45594000000E+02  0.51100000000E-03 0. -1.
    9900012    2    1    2    0    0 -0.10800969742E+01 -0.21163980197E+00 -0.42619056699E+00  0.90007729150E+02  0.89999990375E+02 0.  0.
        -12    1    1    2    0    0  0.10800969742E+01  0.21163980197E+00  0.42619056699E+00  0.11802708498E+01  0.00000000000E+00 0.  1.
         11    1    3    3    0    0 -0.51802329688E-01 -0.22597239153E+01 -0.34300780509E+02  0.34375173882E+02  0.51100000000E-03 0. -1.
        -11    1    3    3    0    0  0.11681590489E+01 -0.96575622179E+01 -0.76867825540E+01  0.12398376097E+02  0.51100000000E-03 0.  1.
        -12    1    3    3    0    0 -0.21964536934E+01  0.11705646331E+02  0.41561372496E+02  0.43234179171E+02  0.00000000000E+00 0.  1.
</event>
<event>
 7    1  0.2895479E-015  0.9000777E+02  0.7816164E-02  0.1186339E+00
        -11   -1    0    0    0    0  0.00000000000E+00  0.00000000000E+00  0.45593999997E+02  0.45594000000E+02  0.51100000000E-03 0.  1.
         11   -1    0    0    0    0 -0.00000000000E+00 -0.00000000000E+00 -0.45593999997E+02  0.45594000000E+02  0.51100000000E-03 0. -1.
    9900012    2    1    2    0    0  0.60308562101E+00  0.22892541384E+00 -0.98834620926E+00  0.90007768099E+02  0.90000029838E+02 0.  0.
        -12    1    1    2    0    0 -0.60308562101E+00 -0.22892541384E+00  0.98834620926E+00  0.11802319013E+01  0.00000000000E+00 0.  1.
         11    1    3    3    0    0  0.22376658224E+02  0.35202042452E+01 -0.26780571601E+02  0.35075713631E+02  0.51100000000E-03 0. -1.
        -11    1    3    3    0    0  0.84760477409E+01  0.20961256694E+01 -0.60966832273E+01  0.10649257005E+02  0.51100000000E-03 0.  1.
        -12    1    3    3    0    0 -0.30249620344E+02 -0.53874045007E+01  0.31888908619E+02  0.44282797462E+02  0.00000000000E+00 0.  1.
</event>
<event>
 7    1  0.2895479E-015  0.9000774E+02  0.7816164E-02  0.1186339E+00
        -11   -1    0    0    0    0  0.00000000000E+00  0.00000000000E+00  0.45593999997E+02  0.45594000000E+02  0.51100000000E-03 0.  1.
         11   -1    0    0    0    0 -0.00000000000E+00 -0.00000000000E+00 -0.45593999997E+02  0.45594000000E+02  0.51100000000E-03 0. -1.
    9900012    2    1    2    0    0 -0.67002594127E+00  0.85089134153E-01 -0.96790210342E+00  0.90007741806E+02  0.90000003198E+02 0.  0.
        -12    1    1    2    0    0  0.67002594127E+00 -0.85089134153E-01  0.96790210342E+00  0.11802581940E+01  0.00000000000E+00 0.  1.
         11    1    3    3    0    0  0.23158855788E+02 -0.42836086451E+00 -0.28177601498E+02  0.36475927964E+02  0.51100000000E-03 0. -1.
        -11    1    3    3    0    0  0.71576272934E+01  0.58813878578E+01 -0.31848096393E+01  0.97961913163E+01  0.51100000000E-03 0.  1.
        -12    1    3    3    0    0 -0.30986509023E+02 -0.53679378592E+01  0.30394509034E+02  0.43735622525E+02  0.00000000000E+00 0.  1.
</event>
<event>
 7    1  0.2895479E-015  0.9000855E+02  0.7816164E-02  0.1186337E+00
        -11   -1    0    0    0    0  0.00000000000E+00  0.00000000000E+00  0.45593999997E+02  0.45594000000E+02  0.51100000000E-03 0. -1.
         11   -1    0    0    0    0 -0.00000000000E+00 -0.00000000000E+00 -0.45593999997E+02  0.45594000000E+02  0.51100000000E-03 0.  1.
    9900012    2    1    2    0    0 -0.77936225265E-01  0.17404480126E+00  0.11639347655E+01  0.90008546827E+02  0.90000818842E+02 0.  0.
        -12    1    1    2    0    0  0.77936225265E-01 -0.17404480126E+00 -0.11639347655E+01  0.11794531727E+01  0.00000000000E+00 0.  1.
         11    1    3    3    0    0 -0.23083407367E+02 -0.29080022786E+02  0.17511597400E+00  0.37128453870E+02  0.51100000000E-03 0. -1.
        -11    1    3    3    0    0 -0.59859358060E+00 -0.84034627019E+01 -0.26940901700E-01  0.84247982605E+01  0.51100000000E-03 0.  1.
        -12    1    3    3    0    0  0.23604064722E+02  0.37657530289E+02  0.10157596933E+01  0.44455294697E+02  0.00000000000E+00 0.  1.
</event>
<event>
 7    1  0.2895479E-015  0.9000783E+02  0.7816164E-02  0.1186339E+00
        -11   -1    0    0    0    0  0.00000000000E+00  0.00000000000E+00  0.45593999997E+02  0.45594000000E+02  0.51100000000E-03 0. -1.
         11   -1    0    0    0    0 -0.00000000000E+00 -0.00000000000E+00 -0.45593999997E+02  0.45594000000E+02  0.51100000000E-03 0.  1.
    9900012    2    1    2    0    0  0.84473677729E+00 -0.79208729148E-01  0.82033122356E+00  0.90007831554E+02  0.90000094130E+02 0.  0.
        -12    1    1    2    0    0 -0.84473677729E+00  0.79208729148E-01 -0.82033122356E+00  0.11801684465E+01  0.00000000000E+00 0.  1.
         11    1    3    3    0    0 -0.30014215715E+01  0.15559976206E+02  0.38191803807E+02  0.41348945201E+02  0.51100000000E-03 0. -1.
        -11    1    3    3    0    0  0.39764493155E+01 -0.87786025319E+01  0.99056433889E+00  0.96879940929E+01  0.51100000000E-03 0.  1.
        -12    1    3    3    0    0 -0.13029096669E+00 -0.68605824028E+01 -0.38362036922E+02  0.38970892259E+02  0.00000000000E+00 0.  1.
</event>
<event>
 7    1  0.2895479E-015  0.9000780E+02  0.7816164E-02  0.1186339E+00
        -11   -1    0    0    0    0  0.00000000000E+00  0.00000000000E+00  0.45593999997E+02  0.45594000000E+02  0.51100000000E-03 0.  1.
         11   -1    0    0    0    0 -0.00000000000E+00 -0.00000000000E+00 -0.45593999997E+02  0.45594000000E+02  0.51100000000E-03 0. -1.
    9900012    2    1    2    0    0 -0.39399234549E+00  0.10769328447E+01 -0.27903553278E+00  0.90007798683E+02  0.90000060825E+02 0.  0.
        -12    1    1    2    0    0  0.39399234549E+00 -0.10769328447E+01  0.27903553278E+00  0.11802013171E+01  0.00000000000E+00 0.  1.
         11    1    3    3    0    0  0.34342634969E+01  0.61427363500E+01 -0.60847549055E+01  0.93033122142E+01  0.51100000000E-03 0. -1.
        -11    1    3    3    0    0 -0.18872612035E+02 -0.12568962183E+02 -0.32063601085E+02  0.39271221145E+02  0.51100000000E-03 0.  1.
         12    1    3    3    0    0  0.15044356193E+02  0.75031586780E+01  0.37869320458E+02  0.41433265324E+02  0.00000000000E+00 0. -1.
</event>
<event>
 7    1  0.2895479E-015  0.9000775E+02  0.7816164E-02  0.1186339E+00
        -11   -1    0    0    0    0  0.00000000000E+00  0.00000000000E+00  0.45593999997E+02  0.45594000000E+02  0.51100000000E-03 0.  1.
         11   -1    0    0    0    0 -0.00000000000E+00 -0.00000000000E+00 -0.45593999997E+02  0.45594000000E+02  0.51100000000E-03 0. -1.
    9900012    2    1    2    0    0 -0.54865830880E+00 -0.25535711455E+00 -0.10132871514E+01  0.90007752548E+02  0.90000014082E+02 0.  0.
        -12    1    1    2    0    0  0.54865830880E+00  0.25535711455E+00  0.10132871514E+01  0.11802474516E+01  0.00000000000E+00 0.  1.
         11    1    3    3    0    0 -0.37715376729E+02 -0.17799914272E+02  0.62377073001E+01  0.42168656399E+02  0.51100000000E-03 0. -1.
        -11    1    3    3    0    0  0.32245918897E+01  0.73531549834E+01  0.59792457347E+01  0.10010907096E+02  0.51100000000E-03 0.  1.
        -12    1    3    3    0    0  0.33942126530E+02  0.10191402174E+02 -0.13230240186E+02  0.37828189053E+02  0.00000000000E+00 0.  1.
</event>
<event>
 7    1  0.2895479E-015  0.9000704E+02  0.7816164E-02  0.1186340E+00
        -11   -1    0    0    0    0  0.00000000000E+00  0.00000000000E+00  0.45593999997E+02  0.45594000000E+02  0.51100000000E-03 0. -1.
         11   -1    0    0    0    0 -0.00000000000E+00 -0.00000000000E+00 -0.45593999997E+02  0.45594000000E+02  0.51100000000E-03 0.  1.
    9900012    2    1    2    0    0  0.93259664378E+00 -0.84992552998E-01  0.71951641624E+00  0.90007041022E+02  0.89999293161E+02 0.  0.
        -12    1    1    2    0    0 -0.93259664378E+00  0.84992552998E-01 -0.71951641624E+00  0.11809589778E+01  0.00000000000E+00 0.  1.
         11    1    3    3    0    0 -0.33564169392E+01 -0.21939281115E+01  0.10231937856E+02  0.10989604532E+02  0.51100000000E-03 0. -1.
        -11    1    3    3    0    0 -0.33944832436E+02 -0.13417522935E+02  0.69698446323E+00  0.36507086413E+02  0.51100000000E-03 0.  1.
         12    1    3    3    0    0  0.38233846019E+02  0.15526458493E+02 -0.10209405903E+02  0.42510350076E+02  0.00000000000E+00 0. -1.
</event>
<event>
 7    1  0.2895479E-015  0.9000781E+02  0.7816164E-02  0.1186339E+00
        -11   -1    0    0    0    0  0.00000000000E+00  0.00000000000E+00  0.45593999997E+02  0.45594000000E+02  0.51100000000E-03 0.  1.
         11   -1    0    0    0    0 -0.00000000000E+00 -0.00000000000E+00 -0.45593999997E+02  0.45594000000E+02  0.51100000000E-03 0. -1.
    9900012    2    1    2    0    0  0.44944435847E+00  0.12763138616E+00 -0.10837717492E+01  0.90007808826E+02  0.90000071103E+02 0.  0.
        -12    1    1    2    0    0 -0.44944435847E+00 -0.12763138616E+00  0.10837717492E+01  0.11801911737E+01  0.00000000000E+00 0.  1.
         11    1    3    3    0    0 -0.47017029940E+01 -0.26990435295E+02 -0.28297578176E+02  0.39387085946E+02  0.51100000000E-03 0. -1.
        -11    1    3    3    0    0 -0.80121214553E+01  0.55898202717E+01 -0.39362493157E+01  0.10532532450E+02  0.51100000000E-03 0.  1.
        -12    1    3    3    0    0  0.13163268808E+02  0.21528246409E+02  0.31150055743E+02  0.40088190430E+02  0.00000000000E+00 0.  1.
</event>
<event>
 7    1  0.2895479E-015  0.9000774E+02  0.7816164E-02  0.1186339E+00
        -11   -1    0    0    0    0  0.00000000000E+00  0.00000000000E+00  0.45593999997E+02  0.45594000000E+02  0.51100000000E-03 0.  1.
         11   -1    0    0    0    0 -0.00000000000E+00 -0.00000000000E+00 -0.45593999997E+02  0.45594000000E+02  0.51100000000E-03 0. -1.
    9900012    2    1    2    0    0 -0.70610633623E-01 -0.56020670300E+00 -0.10364364382E+01  0.90007738206E+02  0.89999999550E+02 0.  0.
        -12    1    1    2    0    0  0.70610633623E-01  0.56020670300E+00  0.10364364382E+01  0.11802617939E+01  0.00000000000E+00 0.  1.
         11    1    3    3    0    0 -0.14656530237E+02 -0.12015198044E+02 -0.40678927978E+02  0.44877099331E+02  0.51100000000E-03 0. -1.
        -11    1    3    3    0    0  0.57878028511E+01  0.48384078136E+01  0.57215456358E+01  0.94681010101E+01  0.51100000000E-03 0.  1.
        -12    1    3    3    0    0  0.87981167526E+01  0.66165835275E+01  0.33920945904E+02  0.35662537865E+02  0.00000000000E+00 0.  1.
</event>
<event>
 7    1  0.2895479E-015  0.9000778E+02  0.7816164E-02  0.1186339E+00
        -11   -1    0    0    0    0  0.00000000000E+00  0.00000000000E+00  0.45593999997E+02  0.45594000000E+02  0.51100000000E-03 0.  1.
         11   -1    0    0    0    0 -0.00000000000E+00 -0.00000000000E+00 -0.45593999997E+02  0.45594000000E+02  0.51100000000E-03 0. -1.
    9900012    2    1    2    0    0  0.84577683282E+00 -0.19552590641E+00 -0.79959778411E+00  0.90007777374E+02  0.90000039235E+02 0.  0.
        -12    1    1    2    0    0 -0.84577683282E+00  0.19552590641E+00  0.79959778411E+00  0.11802226262E+01  0.00000000000E+00 0.  1.
         11    1    3    3    0    0 -0.11654276591E+02 -0.92845211822E+01  0.36378853760E+01  0.15338145478E+02  0.51100000000E-03 0. -1.
        -11    1    3    3    0    0 -0.23405984784E+00 -0.21957886402E+02 -0.26571036418E+02  0.34470618443E+02  0.51100000000E-03 0.  1.
         12    1    3    3    0    0  0.12734113272E+02  0.31046881677E+02  0.22133553258E+02  0.40199013452E+02  0.00000000000E+00 0. -1.
</event>
<event>
 7    1  0.2895479E-015  0.9000771E+02  0.7816164E-02  0.1186339E+00
        -11   -1    0    0    0    0  0.00000000000E+00  0.00000000000E+00  0.45593999997E+02  0.45594000000E+02  0.51100000000E-03 0. -1.
         11   -1    0    0    0    0 -0.00000000000E+00 -0.00000000000E+00 -0.45593999997E+02  0.45594000000E+02  0.51100000000E-03 0.  1.
    9900012    2    1    2    0    0  0.58446998971E+00 -0.85977448776E+00 -0.55880170969E+00  0.90007713302E+02  0.89999974318E+02 0.  0.
        -12    1    1    2    0    0 -0.58446998971E+00  0.85977448776E+00  0.55880170969E+00  0.11802866980E+01  0.00000000000E+00 0.  1.
         11    1    3    3    0    0  0.30790200258E+02 -0.60383742784E+01  0.18268819019E+02  0.36307687126E+02  0.51100000000E-03 0. -1.
        -11    1    3    3    0    0  0.34898504463E+01 -0.76015992307E+01  0.56869614814E+01  0.10114588383E+02  0.51100000000E-03 0.  1.
        -12    1    3    3    0    0 -0.33695580714E+02  0.12780199021E+02 -0.24514582210E+02  0.43585437793E+02  0.00000000000E+00 0.  1.
</event>
<event>
 7    1  0.2895479E-015  0.9000770E+02  0.7816164E-02  0.1186339E+00
        -11   -1    0    0    0    0  0.00000000000E+00  0.00000000000E+00  0.45593999997E+02  0.45594000000E+02  0.51100000000E-03 0.  1.
         11   -1    0    0    0    0 -0.00000000000E+00 -0.00000000000E+00 -0.45593999997E+02  0.45594000000E+02  0.51100000000E-03 0. -1.
    9900012    2    1    2    0    0 -0.11046800869E+01  0.37256837160E+00  0.18437026447E+00  0.90007695937E+02  0.89999956724E+02 0.  0.
        -12    1    1    2    0    0  0.11046800869E+01 -0.37256837160E+00 -0.18437026447E+00  0.11803040627E+01  0.00000000000E+00 0.  1.
         11    1    3    3    0    0 -0.19725517195E+02 -0.60794303910E+01 -0.32616910437E+02  0.38599460478E+02  0.51100000000E-03 0. -1.
        -11    1    3    3    0    0  0.40205218312E+01  0.28114553754E+01 -0.71760478806E+01  0.86927866975E+01  0.51100000000E-03 0.  1.
        -12    1    3    3    0    0  0.14600315277E+02  0.36405433872E+01  0.39977328582E+02  0.42715448762E+02  0.00000000000E+00 0.  1.
</event>
<event>
 7    1  0.2895479E-015  0.9000777E+02  0.7816164E-02  0.1186339E+00
        -11   -1    0    0    0    0  0.00000000000E+00  0.00000000000E+00  0.45593999997E+02  0.45594000000E+02  0.51100000000E-03 0.  1.
         11   -1    0    0    0    0 -0.00000000000E+00 -0.00000000000E+00 -0.45593999997E+02  0.45594000000E+02  0.51100000000E-03 0. -1.
    9900012    2    1    2    0    0 -0.10507035496E+01  0.51227516591E+00 -0.16290228113E+00  0.90007770807E+02  0.90000032582E+02 0.  0.
        -12    1    1    2    0    0  0.10507035496E+01 -0.51227516591E+00  0.16290228113E+00  0.11802291930E+01  0.00000000000E+00 0.  1.
         11    1    3    3    0    0  0.20749141730E+02 -0.14131033726E+02 -0.26859436388E+02  0.36764688493E+02  0.51100000000E-03 0. -1.
        -11    1    3    3    0    0  0.64033360206E+01 -0.67015037052E+01  0.60060864698E+00  0.92883580417E+01  0.51100000000E-03 0.  1.
        -12    1    3    3    0    0 -0.28203181300E+02  0.21344812597E+02  0.26095925459E+02  0.43954724272E+02  0.00000000000E+00 0.  1.
</event>
<event>
 7    1  0.2895479E-015  0.9000777E+02  0.7816164E-02  0.1186339E+00
        -11   -1    0    0    0    0  0.00000000000E+00  0.00000000000E+00  0.45593999997E+02  0.45594000000E+02  0.51100000000E-03 0.  1.
         11   -1    0    0    0    0 -0.00000000000E+00 -0.00000000000E+00 -0.45593999997E+02  0.45594000000E+02  0.51100000000E-03 0. -1.
    9900012    2    1    2    0    0 -0.49940484414E+00 -0.11520893467E+00 -0.10631441694E+01  0.90007765353E+02  0.90000027056E+02 0.  0.
        -12    1    1    2    0    0  0.49940484414E+00  0.11520893467E+00  0.10631441694E+01  0.11802346469E+01  0.00000000000E+00 0.  1.
         11    1    3    3    0    0  0.36025866681E+01 -0.10296220889E+02 -0.39250147310E+02  0.40737757172E+02  0.51100000000E-03 0. -1.
        -11    1    3    3    0    0  0.82679199620E+01  0.58049975976E+01  0.13823972387E+01  0.10196446439E+02  0.51100000000E-03 0.  1.
        -12    1    3    3    0    0 -0.12369911474E+02  0.43760143569E+01  0.36804605902E+02  0.39073561741E+02  0.00000000000E+00 0.  1.
</event>
<event>
 7    1  0.2895479E-015  0.9000883E+02  0.7816164E-02  0.1186337E+00
        -11   -1    0    0    0    0  0.00000000000E+00  0.00000000000E+00  0.45593999997E+02  0.45594000000E+02  0.51100000000E-03 0. -1.
         11   -1    0    0    0    0 -0.00000000000E+00 -0.00000000000E+00 -0.45593999997E+02  0.45594000000E+02  0.51100000000E-03 0.  1.
    9900012    2    1    2    0    0 -0.39083617422E+00  0.88259530500E+00  0.67729259786E+00  0.90008825437E+02  0.90001101126E+02 0.  0.
        -12    1    1    2    0    0  0.39083617422E+00 -0.88259530500E+00 -0.67729259786E+00  0.11791745632E+01  0.00000000000E+00 0.  1.
         11    1    3    3    0    0 -0.17963616141E+01  0.27379965617E+01  0.38874432766E+02  0.39012114315E+02  0.51100000000E-03 0. -1.
        -11    1    3    3    0    0  0.72504545319E+01 -0.65060455271E+01  0.21400006879E+01  0.99738318877E+01  0.51100000000E-03 0.  1.
        -12    1    3    3    0    0 -0.58449290920E+01  0.46506442703E+01 -0.40337140856E+02  0.41022879234E+02  0.00000000000E+00 0.  1.
</event>
<event>
 7    1  0.2895479E-015  0.9000770E+02  0.7816164E-02  0.1186339E+00
        -11   -1    0    0    0    0  0.00000000000E+00  0.00000000000E+00  0.45593999997E+02  0.45594000000E+02  0.51100000000E-03 0. -1.
         11   -1    0    0    0    0 -0.00000000000E+00 -0.00000000000E+00 -0.45593999997E+02  0.45594000000E+02  0.51100000000E-03 0.  1.
    9900012    2    1    2    0    0 -0.90812885670E+00 -0.95864563150E-01  0.74781414735E+00  0.90007697482E+02  0.89999958289E+02 0.  0.
        -12    1    1    2    0    0  0.90812885670E+00  0.95864563150E-01 -0.74781414735E+00  0.11803025179E+01  0.00000000000E+00 0.  1.
         11    1    3    3    0    0  0.93188326930E-01  0.10259433234E+02  0.29937249391E+00  0.10264223229E+02  0.51100000000E-03 0. -1.
        -11    1    3    3    0    0 -0.34184321433E+02  0.86150338220E+01 -0.15265676325E+02  0.38416500537E+02  0.51100000000E-03 0.  1.
         12    1    3    3    0    0  0.33183004249E+02 -0.18970331619E+02  0.15714117978E+02  0.41326973716E+02  0.00000000000E+00 0. -1.
</event>
<event>
 7    1  0.2895479E-015  0.9000774E+02  0.7816164E-02  0.1186339E+00
        -11   -1    0    0    0    0  0.00000000000E+00  0.00000000000E+00  0.45593999997E+02  0.45594000000E+02  0.51100000000E-03 0. -1.
         11   -1    0    0    0    0 -0.00000000000E+00 -0.00000000000E+00 -0.45593999997E+02  0.45594000000E+02  0.51100000000E-03 0.  1.
    9900012    2    1    2    0    0  0.33569952717E+00 -0.67631073161E+00  0.90714671933E+00  0.90007743439E+02  0.90000004853E+02 0.  0.
        -12    1    1    2    0    0 -0.33569952717E+00  0.67631073161E+00 -0.90714671933E+00  0.11802565605E+01  0.00000000000E+00 0.  1.
         11    1    3    3    0    0 -0.15231235773E+02 -0.94857121950E+01  0.29205357393E+02  0.34277137858E+02  0.51100000000E-03 0. -1.
        -11    1    3    3    0    0  0.11590033556E+02 -0.12796220419E+02  0.29680904785E+01  0.17518039165E+02  0.51100000000E-03 0.  1.
        -12    1    3    3    0    0  0.39769017443E+01  0.21605621882E+02 -0.31266301153E+02  0.38212566417E+02  0.00000000000E+00 0.  1.
</event>
<event>
 7    1  0.2895479E-015  0.9000774E+02  0.7816164E-02  0.1186339E+00
        -11   -1    0    0    0    0  0.00000000000E+00  0.00000000000E+00  0.45593999997E+02  0.45594000000E+02  0.51100000000E-03 0.  1.
         11   -1    0    0    0    0 -0.00000000000E+00 -0.00000000000E+00 -0.45593999997E+02  0.45594000000E+02  0.51100000000E-03 0. -1.
    9900012    2    1    2    0    0 -0.54938630403E+00 -0.55310580960E+00 -0.88614593784E+00  0.90007743261E+02  0.90000004672E+02 0.  0.
        -12    1    1    2    0    0  0.54938630403E+00  0.55310580960E+00  0.88614593784E+00  0.11802567394E+01  0.00000000000E+00 0.  1.
         11    1    3    3    0    0 -0.54258884173E+01  0.72565170879E+00 -0.71192909077E+01  0.89805979094E+01  0.51100000000E-03 0. -1.
        -11    1    3    3    0    0 -0.34781453060E+02 -0.12573649577E+02  0.13076589315E+02  0.39228093620E+02  0.51100000000E-03 0.  1.
         12    1    3    3    0    0  0.39657955173E+02  0.11294892059E+02 -0.68434443446E+01  0.41799051732E+02  0.00000000000E+00 0. -1.
</event>
<event>
 7    1  0.2895479E-015  0.9000772E+02  0.7816164E-02  0.1186339E+00
        -11   -1    0    0    0    0  0.00000000000E+00  0.00000000000E+00  0.45593999997E+02  0.45594000000E+02  0.51100000000E-03 0. -1.
         11   -1    0    0    0    0 -0.00000000000E+00 -0.00000000000E+00 -0.45593999997E+02  0.45594000000E+02  0.51100000000E-03 0.  1.
    9900012    2    1    2    0    0  0.35635358571E+00  0.70945996711E+00  0.87335165333E+00  0.90007718494E+02  0.89999979578E+02 0.  0.
        -12    1    1    2    0    0 -0.35635358571E+00 -0.70945996711E+00 -0.87335165333E+00  0.11802815060E+01  0.00000000000E+00 0.  1.
         11    1    3    3    0    0  0.36823027403E+01 -0.51210838048E+01  0.61656265750E+01  0.88204197253E+01  0.51100000000E-03 0. -1.
        -11    1    3    3    0    0  0.17025436451E+02 -0.16653984905E+02 -0.32602991958E+02  0.40375435409E+02  0.51100000000E-03 0.  1.
         12    1    3    3    0    0 -0.20351385605E+02  0.22484528677E+02  0.27310717037E+02  0.40811863360E+02  0.00000000000E+00 0. -1.
</event>
<event>
 7    1  0.2895479E-015  0.9000762E+02  0.7816164E-02  0.1186339E+00
        -11   -1    0    0    0    0  0.00000000000E+00  0.00000000000E+00  0.45593999997E+02  0.45594000000E+02  0.51100000000E-03 0.  1.
         11   -1    0    0    0    0 -0.00000000000E+00 -0.00000000000E+00 -0.45593999997E+02  0.45594000000E+02  0.51100000000E-03 0. -1.
    9900012    2    1    2    0    0 -0.78562345437E+00 -0.33864071345E-01 -0.88030814562E+00  0.90007621493E+02  0.89999881297E+02 0.  0.
        -12    1    1    2    0    0  0.78562345437E+00  0.33864071345E-01  0.88030814562E+00  0.11803785065E+01  0.00000000000E+00 0.  1.
         11    1    3    3    0    0  0.12979001411E+00  0.24685370405E+01 -0.99865029500E+01  0.10287893954E+02  0.51100000000E-03 0. -1.
        -11    1    3    3    0    0 -0.27249371119E+02 -0.30359021697E+02  0.30234230445E+01  0.40906472739E+02  0.51100000000E-03 0.  1.
         12    1    3    3    0    0  0.26333957651E+02  0.27856620585E+02  0.60827717599E+01  0.38813254801E+02  0.00000000000E+00 0. -1.
</event>
<event>
 7    1  0.2895479E-015  0.9000773E+02  0.7816164E-02  0.1186339E+00
        -11   -1    0    0    0    0  0.00000000000E+00  0.00000000000E+00  0.45593999997E+02  0.45594000000E+02  0.51100000000E-03 0. -1.
         11   -1    0    0    0    0 -0.00000000000E+00 -0.00000000000E+00 -0.45593999997E+02  0.45594000000E+02  0.51100000000E-03 0.  1.
    9900012    2    1    2    0    0 -0.29552039929E+00 -0.11231556502E+01  0.21027340992E+00  0.90007734848E+02  0.89999996148E+02 0.  0.
        -12    1    1    2    0    0  0.29552039929E+00  0.11231556502E+01 -0.21027340992E+00  0.11802651516E+01  0.00000000000E+00 0.  1.
         11    1    3    3    0    0 -0.22422920294E+02  0.12927733904E+02 -0.19456713840E+02  0.32380200310E+02  0.51100000000E-03 0. -1.
        -11    1    3    3    0    0  0.26483782374E+01 -0.47391870409E+01 -0.15465794794E+02  0.16390991732E+02  0.51100000000E-03 0.  1.
        -12    1    3    3    0    0  0.19479021658E+02 -0.93117025135E+01  0.35132782044E+02  0.41236542806E+02  0.00000000000E+00 0.  1.
</event>
<event>
 7    1  0.2895479E-015  0.9000767E+02  0.7816164E-02  0.1186339E+00
        -11   -1    0    0    0    0  0.00000000000E+00  0.00000000000E+00  0.45593999997E+02  0.45594000000E+02  0.51100000000E-03 0. -1.
         11   -1    0    0    0    0 -0.00000000000E+00 -0.00000000000E+00 -0.45593999997E+02  0.45594000000E+02  0.51100000000E-03 0.  1.
    9900012    2    1    2    0    0 -0.73325077204E+00 -0.90172875081E+00  0.20592324523E+00  0.90007671309E+02  0.89999931771E+02 0.  0.
        -12    1    1    2    0    0  0.73325077204E+00  0.90172875081E+00 -0.20592324523E+00  0.11803286905E+01  0.00000000000E+00 0.  1.
         11    1    3    3    0    0  0.30372288790E+01  0.84506724525E+01 -0.29598277844E+01  0.94551152789E+01  0.51100000000E-03 0. -1.
        -11    1    3    3    0    0 -0.99233685377E+01  0.29422477847E+02  0.20944775677E+02  0.37454493378E+02  0.51100000000E-03 0.  1.
         12    1    3    3    0    0  0.61528888866E+01 -0.38774879050E+02 -0.17779024647E+02  0.43098062653E+02  0.00000000000E+00 0. -1.
</event>
<event>
 7    1  0.2895479E-015  0.9000793E+02  0.7816164E-02  0.1186339E+00
        -11   -1    0    0    0    0  0.00000000000E+00  0.00000000000E+00  0.45593999997E+02  0.45594000000E+02  0.51100000000E-03 0.  1.
         11   -1    0    0    0    0 -0.00000000000E+00 -0.00000000000E+00 -0.45593999997E+02  0.45594000000E+02  0.51100000000E-03 0. -1.
    9900012    2    1    2    0    0  0.10701373299E+01  0.32310834523E+00 -0.37810503827E+00  0.90007933761E+02  0.90000197687E+02 0.  0.
        -12    1    1    2    0    0 -0.10701373299E+01 -0.32310834523E+00  0.37810503827E+00  0.11800662386E+01  0.00000000000E+00 0.  1.
         11    1    3    3    0    0  0.16585812966E+01 -0.10723928052E+02  0.88378496386E+00  0.10887359685E+02  0.51100000000E-03 0. -1.
        -11    1    3    3    0    0 -0.12417918412E+02 -0.31835761945E+02 -0.47455986911E+01  0.34499871644E+02  0.51100000000E-03 0.  1.
         12    1    3    3    0    0  0.11829474445E+02  0.42882798342E+02  0.34837086890E+01  0.44620702432E+02  0.00000000000E+00 0. -1.
</event>
<event>
 7    1  0.2895479E-015  0.9000779E+02  0.7816164E-02  0.1186339E+00
        -11   -1    0    0    0    0  0.00000000000E+00  0.00000000000E+00  0.45593999997E+02  0.45594000000E+02  0.51100000000E-03 0. -1.
         11   -1    0    0    0    0 -0.00000000000E+00 -0.00000000000E+00 -0.45593999997E+02  0.45594000000E+02  0.51100000000E-03 0.  1.
    9900012    2    1    2    0    0 -0.88016701329E+00 -0.21000539795E+00 -0.75769290053E+00  0.90007790370E+02  0.90000052403E+02 0.  0.
        -12    1    1    2    0    0  0.88016701329E+00  0.21000539795E+00  0.75769290053E+00  0.11802096297E+01  0.00000000000E+00 0.  1.
         11    1    3    3    0    0 -0.18233080925E+02 -0.12891127196E+02  0.29866416555E+02  0.37291141555E+02  0.51100000000E-03 0. -1.
        -11    1    3    3    0    0  0.57666291558E+01 -0.10333116882E+02  0.10571001152E+01  0.11880436744E+02  0.51100000000E-03 0.  1.
        -12    1    3    3    0    0  0.11586284755E+02  0.23014238680E+02 -0.31681209571E+02  0.40836212071E+02  0.00000000000E+00 0.  1.
</event>
<event>
 7    1  0.2895479E-015  0.9000767E+02  0.7816164E-02  0.1186339E+00
        -11   -1    0    0    0    0  0.00000000000E+00  0.00000000000E+00  0.45593999997E+02  0.45594000000E+02  0.51100000000E-03 0. -1.
         11   -1    0    0    0    0 -0.00000000000E+00 -0.00000000000E+00 -0.45593999997E+02  0.45594000000E+02  0.51100000000E-03 0.  1.
    9900012    2    1    2    0    0 -0.10397041168E+01 -0.51233889251E+00  0.22295063490E+00  0.90007668361E+02  0.89999928784E+02 0.  0.
        -12    1    1    2    0    0  0.10397041168E+01  0.51233889251E+00 -0.22295063490E+00  0.11803316385E+01  0.00000000000E+00 0.  1.
         11    1    3    3    0    0 -0.25688612246E+01 -0.71371882517E+01  0.61505870867E+01  0.97656656662E+01  0.51100000000E-03 0. -1.
        -11    1    3    3    0    0 -0.26857927383E+02 -0.25194798187E+02 -0.74562650311E+01  0.37572889262E+02  0.51100000000E-03 0.  1.
         12    1    3    3    0    0  0.28387084491E+02  0.31819647546E+02  0.15286285792E+01  0.42669113433E+02  0.00000000000E+00 0. -1.
</event>
<event>
 7    1  0.2895479E-015  0.9000769E+02  0.7816164E-02  0.1186339E+00
        -11   -1    0    0    0    0  0.00000000000E+00  0.00000000000E+00  0.45593999997E+02  0.45594000000E+02  0.51100000000E-03 0. -1.
         11   -1    0    0    0    0 -0.00000000000E+00 -0.00000000000E+00 -0.45593999997E+02  0.45594000000E+02  0.51100000000E-03 0.  1.
    9900012    2    1    2    0    0  0.96904377722E+00  0.62911958811E+00 -0.24144700544E+00  0.90007689043E+02  0.89999949739E+02 0.  0.
        -12    1    1    2    0    0 -0.96904377722E+00 -0.62911958811E+00  0.24144700544E+00  0.11803109568E+01  0.00000000000E+00 0.  1.
         11    1    3    3    0    0  0.27185149924E+02 -0.29521778458E+02 -0.14283897930E+02  0.42598092915E+02  0.51100000000E-03 0. -1.
        -11    1    3    3    0    0 -0.29515471993E+01 -0.38126736421E+00  0.80200850853E+01  0.85544585281E+01  0.51100000000E-03 0.  1.
        -12    1    3    3    0    0 -0.23264558947E+02  0.30532165410E+02  0.60223658389E+01  0.38855137600E+02  0.00000000000E+00 0.  1.
</event>
<event>
 7    1  0.2895479E-015  0.9000771E+02  0.7816164E-02  0.1186339E+00
        -11   -1    0    0    0    0  0.00000000000E+00  0.00000000000E+00  0.45593999997E+02  0.45594000000E+02  0.51100000000E-03 0.  1.
         11   -1    0    0    0    0 -0.00000000000E+00 -0.00000000000E+00 -0.45593999997E+02  0.45594000000E+02  0.51100000000E-03 0. -1.
    9900012    2    1    2    0    0  0.63097676882E+00 -0.50903054119E+00 -0.85781515242E+00  0.90007707405E+02  0.89999968342E+02 0.  0.
        -12    1    1    2    0    0 -0.63097676882E+00  0.50903054119E+00  0.85781515242E+00  0.11802925952E+01  0.00000000000E+00 0.  1.
         11    1    3    3    0    0  0.35804288248E+01 -0.87665499474E+01  0.16813425122E+01  0.96176286815E+01  0.51100000000E-03 0. -1.
        -11    1    3    3    0    0  0.29344390091E+02  0.90823331795E+00  0.24023259838E+02  0.37934616528E+02  0.51100000000E-03 0.  1.
         12    1    3    3    0    0 -0.32293842147E+02  0.73492860883E+01 -0.26562417503E+02  0.42455462196E+02  0.00000000000E+00 0. -1.
</event>
<event>
 7    1  0.2895479E-015  0.9000785E+02  0.7816164E-02  0.1186339E+00
        -11   -1    0    0    0    0  0.00000000000E+00  0.00000000000E+00  0.45593999997E+02  0.45594000000E+02  0.51100000000E-03 0. -1.
         11   -1    0    0    0    0 -0.00000000000E+00 -0.00000000000E+00 -0.45593999997E+02  0.45594000000E+02  0.51100000000E-03 0.  1.
    9900012    2    1    2    0    0 -0.12619116839E+00 -0.24469416454E+00  0.11475860769E+01  0.90007850328E+02  0.90000113152E+02 0.  0.
        -12    1    1    2    0    0  0.12619116839E+00  0.24469416454E+00 -0.11475860769E+01  0.11801496723E+01  0.00000000000E+00 0.  1.
         11    1    3    3    0    0  0.93279985165E+01  0.28867958541E+01  0.30869308073E+01  0.10240814845E+02  0.51100000000E-03 0. -1.
        -11    1    3    3    0    0  0.34737650659E+02 -0.41474554283E+01 -0.55265832831E+01  0.35418199882E+02  0.51100000000E-03 0.  1.
         12    1    3    3    0    0 -0.44191840344E+02  0.10159654096E+01  0.35872385527E+01  0.44348835600E+02  0.00000000000E+00 0. -1.
</event>
<event>
 7    1  0.2895479E-015  0.9000759E+02  0.7816164E-02  0.1186339E+00
        -11   -1    0    0    0    0  0.00000000000E+00  0.00000000000E+00  0.45593999997E+02  0.45594000000E+02  0.51100000000E-03 0.  1.
         11   -1    0    0    0    0 -0.00000000000E+00 -0.00000000000E+00 -0.45593999997E+02  0.45594000000E+02  0.51100000000E-03 0. -1.
    9900012    2    1    2    0    0 -0.40815100856E+00  0.75057535939E+00 -0.81450010501E+00  0.90007592851E+02  0.89999852277E+02 0.  0.
        -12    1    1    2    0    0  0.40815100856E+00 -0.75057535939E+00  0.81450010501E+00  0.11804071488E+01  0.00000000000E+00 0.  1.
         11    1    3    3    0    0 -0.13432472168E+02  0.39308948149E+01 -0.41797878021E+01  0.14606637837E+02  0.51100000000E-03 0. -1.
        -11    1    3    3    0    0 -0.18202167812E+02  0.25769460612E+02 -0.51754561868E+01  0.31971383459E+02  0.51100000000E-03 0.  1.
         12    1    3    3    0    0  0.31226488971E+02 -0.28949780067E+02  0.85407438839E+01  0.43429571555E+02  0.00000000000E+00 0. -1.
</event>
<event>
 7    1  0.2895479E-015  0.9000772E+02  0.7816164E-02  0.1186339E+00
        -11   -1    0    0    0    0  0.00000000000E+00  0.00000000000E+00  0.45593999997E+02  0.45594000000E+02  0.51100000000E-03 0.  1.
         11   -1    0    0    0    0 -0.00000000000E+00 -0.00000000000E+00 -0.45593999997E+02  0.45594000000E+02  0.51100000000E-03 0. -1.
    9900012    2    1    2    0    0  0.11630070816E+01  0.89253046369E-01  0.18030713882E+00  0.90007719422E+02  0.89999980518E+02 0.  0.
        -12    1    1    2    0    0 -0.11630070816E+01 -0.89253046369E-01 -0.18030713882E+00  0.11802805779E+01  0.00000000000E+00 0.  1.
         11    1    3    3    0    0  0.34980683603E+01 -0.19731904287E+02 -0.37204661016E+02  0.42258387695E+02  0.51100000000E-03 0. -1.
        -11    1    3    3    0    0 -0.13503284874E+01 -0.47942559281E+01  0.77437384267E+01  0.92072668046E+01  0.51100000000E-03 0.  1.
        -12    1    3    3    0    0 -0.98473279122E+00  0.24615413261E+02  0.29641229728E+02  0.38542064922E+02  0.00000000000E+00 0.  1.
</event>
<event>
 7    1  0.2895479E-015  0.9000740E+02  0.7816164E-02  0.1186340E+00
        -11   -1    0    0    0    0  0.00000000000E+00  0.00000000000E+00  0.45593999997E+02  0.45594000000E+02  0.51100000000E-03 0. -1.
         11   -1    0    0    0    0 -0.00000000000E+00 -0.00000000000E+00 -0.45593999997E+02  0.45594000000E+02  0.51100000000E-03 0.  1.
    9900012    2    1    2    0    0  0.32804486065E+00 -0.83271386006E+00  0.76992807354E+00  0.90007400558E+02  0.89999657445E+02 0.  0.
        -12    1    1    2    0    0 -0.32804486065E+00  0.83271386006E+00 -0.76992807354E+00  0.11805994417E+01  0.00000000000E+00 0.  1.
         11    1    3    3    0    0  0.44245853096E+01 -0.14867463492E+02  0.31454003067E+02  0.35070967124E+02  0.51100000000E-03 0. -1.
        -11    1    3    3    0    0  0.21274165489E+01 -0.67639724002E+01  0.79300029729E+01  0.10637770970E+02  0.51100000000E-03 0.  1.
        -12    1    3    3    0    0 -0.62239569979E+01  0.20798722033E+02 -0.38614077966E+02  0.44298662464E+02  0.00000000000E+00 0.  1.
</event>
<event>
 7    1  0.2895479E-015  0.9000753E+02  0.7816164E-02  0.1186339E+00
        -11   -1    0    0    0    0  0.00000000000E+00  0.00000000000E+00  0.45593999997E+02  0.45594000000E+02  0.51100000000E-03 0.  1.
         11   -1    0    0    0    0 -0.00000000000E+00 -0.00000000000E+00 -0.45593999997E+02  0.45594000000E+02  0.51100000000E-03 0. -1.
    9900012    2    1    2    0    0 -0.83887705046E+00 -0.13888205102E+00 -0.81885178428E+00  0.90007525022E+02  0.89999783552E+02 0.  0.
        -12    1    1    2    0    0  0.83887705046E+00  0.13888205102E+00  0.81885178428E+00  0.11804749784E+01  0.00000000000E+00 0.  1.
         11    1    3    3    0    0 -0.38933836536E+02  0.14910640541E+02 -0.12455168182E+02  0.43512090773E+02  0.51100000000E-03 0. -1.
        -11    1    3    3    0    0  0.62758866854E+01  0.44521102783E+01  0.18551963362E+01  0.79151622425E+01  0.51100000000E-03 0.  1.
        -12    1    3    3    0    0  0.31819072800E+02 -0.19501632870E+02  0.97811200612E+01  0.38580272006E+02  0.00000000000E+00 0.  1.
</event>
<event>
 7    1  0.2895479E-015  0.9000777E+02  0.7816164E-02  0.1186339E+00
        -11   -1    0    0    0    0  0.00000000000E+00  0.00000000000E+00  0.45593999997E+02  0.45594000000E+02  0.51100000000E-03 0.  1.
         11   -1    0    0    0    0 -0.00000000000E+00 -0.00000000000E+00 -0.45593999997E+02  0.45594000000E+02  0.51100000000E-03 0. -1.
    9900012    2    1    2    0    0 -0.43633432400E+00 -0.88859865185E+00 -0.64261031305E+00  0.90007769844E+02  0.90000031606E+02 0.  0.
        -12    1    1    2    0    0  0.43633432400E+00  0.88859865185E+00  0.64261031305E+00  0.11802301559E+01  0.00000000000E+00 0.  1.
         11    1    3    3    0    0 -0.31273399297E+02  0.18088285158E+01 -0.20393099581E+02  0.37378815859E+02  0.51100000000E-03 0. -1.
        -11    1    3    3    0    0 -0.15582259520E+01  0.10054517343E+02 -0.35051688541E+01  0.10761393779E+02  0.51100000000E-03 0.  1.
        -12    1    3    3    0    0  0.32395290925E+02 -0.12751944510E+02  0.23255658122E+02  0.41867560206E+02  0.00000000000E+00 0.  1.
</event>
<event>
 7    1  0.2895479E-015  0.9000773E+02  0.7816164E-02  0.1186339E+00
        -11   -1    0    0    0    0  0.00000000000E+00  0.00000000000E+00  0.45593999997E+02  0.45594000000E+02  0.51100000000E-03 0.  1.
         11   -1    0    0    0    0 -0.00000000000E+00 -0.00000000000E+00 -0.45593999997E+02  0.45594000000E+02  0.51100000000E-03 0. -1.
    9900012    2    1    2    0    0  0.48890025431E+00 -0.66688458658E+00 -0.84218027847E+00  0.90007734720E+02  0.89999996018E+02 0.  0.
        -12    1    1    2    0    0 -0.48890025431E+00  0.66688458658E+00  0.84218027847E+00  0.11802652803E+01  0.00000000000E+00 0.  1.
         11    1    3    3    0    0 -0.73006343437E+01 -0.65744533204E+00 -0.55624454970E+01  0.92017550692E+01  0.51100000000E-03 0. -1.
        -11    1    3    3    0    0 -0.29753796159E+02 -0.21724566884E+02  0.64465729165E+01  0.37400581477E+02  0.51100000000E-03 0.  1.
         12    1    3    3    0    0  0.37543330757E+02  0.21715127630E+02 -0.17263076980E+01  0.43405398173E+02  0.00000000000E+00 0. -1.
</event>
<event>
 7    1  0.2895479E-015  0.9000754E+02  0.7816164E-02  0.1186339E+00
        -11   -1    0    0    0    0  0.00000000000E+00  0.00000000000E+00  0.45593999997E+02  0.45594000000E+02  0.51100000000E-03 0. -1.
         11   -1    0    0    0    0 -0.00000000000E+00 -0.00000000000E+00 -0.45593999997E+02  0.45594000000E+02  0.51100000000E-03 0.  1.
    9900012    2    1    2    0    0 -0.59353718128E-01 -0.88923651132E+00  0.77409149735E+00  0.90007541579E+02  0.89999800328E+02 0.  0.
        -12    1    1    2    0    0  0.59353718128E-01  0.88923651132E+00 -0.77409149735E+00  0.11804584208E+01  0.00000000000E+00 0.  1.
         11    1    3    3    0    0  0.37908472856E+02  0.10466139285E+02 -0.84228058323E+01  0.40218603210E+02  0.51100000000E-03 0. -1.
        -11    1    3    3    0    0  0.25909847504E+00  0.60401311857E+01  0.44828718120E+01  0.75263840391E+01  0.51100000000E-03 0.  1.
        -12    1    3    3    0    0 -0.38226925049E+02 -0.17395506982E+02  0.47140255177E+01  0.42262554330E+02  0.00000000000E+00 0.  1.
</event>
<event>
 7    1  0.2895479E-015  0.9000777E+02  0.7816164E-02  0.1186339E+00
        -11   -1    0    0    0    0  0.00000000000E+00  0.00000000000E+00  0.45593999997E+02  0.45594000000E+02  0.51100000000E-03 0.  1.
         11   -1    0    0    0    0 -0.00000000000E+00 -0.00000000000E+00 -0.45593999997E+02  0.45594000000E+02  0.51100000000E-03 0. -1.
    9900012    2    1    2    0    0 -0.32954182242E-01 -0.47693987635E+00 -0.10790699441E+01  0.90007767155E+02  0.90000028882E+02 0.  0.
        -12    1    1    2    0    0  0.32954182242E-01  0.47693987635E+00  0.10790699441E+01  0.11802328449E+01  0.00000000000E+00 0.  1.
         11    1    3    3    0    0 -0.74083823618E+01  0.67610878467E+01  0.41658183342E+01  0.10860500944E+02  0.51100000000E-03 0. -1.
        -11    1    3    3    0    0 -0.68491937896E+01  0.71605548990E+01 -0.38753527831E+02  0.40000261520E+02  0.51100000000E-03 0.  1.
         12    1    3    3    0    0  0.14224621969E+02 -0.14398582622E+02  0.33508639553E+02  0.39147004692E+02  0.00000000000E+00 0. -1.
</event>
<event>
 7    1  0.2895479E-015  0.9000772E+02  0.7816164E-02  0.1186339E+00
        -11   -1    0    0    0    0  0.00000000000E+00  0.00000000000E+00  0.45593999997E+02  0.45594000000E+02  0.51100000000E-03 0. -1.
         11   -1    0    0    0    0 -0.00000000000E+00 -0.00000000000E+00 -0.45593999997E+02  0.45594000000E+02  0.51100000000E-03 0.  1.
    9900012    2    1    2    0    0 -0.56602809557E+00 -0.54610495874E-01  0.10342585102E+01  0.90007720043E+02  0.89999981147E+02 0.  0.
        -12    1    1    2    0    0  0.56602809557E+00  0.54610495874E-01 -0.10342585102E+01  0.11802799571E+01  0.00000000000E+00 0.  1.
         11    1    3    3    0    0 -0.12744454652E+02  0.40910422716E+01 -0.21524877730E+01  0.13556952279E+02  0.51100000000E-03 0. -1.
        -11    1    3    3    0    0 -0.65448702042E+01  0.23658872926E+02  0.26113117282E+02  0.35839538063E+02  0.51100000000E-03 0.  1.
         12    1    3    3    0    0  0.18723296760E+02 -0.27804525694E+02 -0.22926370999E+02  0.40611229701E+02  0.00000000000E+00 0. -1.
</event>
<event>
 7    1  0.2895479E-015  0.9000779E+02  0.7816164E-02  0.1186339E+00
        -11   -1    0    0    0    0  0.00000000000E+00  0.00000000000E+00  0.45593999997E+02  0.45594000000E+02  0.51100000000E-03 0. -1.
         11   -1    0    0    0    0 -0.00000000000E+00 -0.00000000000E+00 -0.45593999997E+02  0.45594000000E+02  0.51100000000E-03 0.  1.
    9900012    2    1    2    0    0  0.69738962130E-01  0.16273059171E+00  0.11668564837E+01  0.90007788654E+02  0.90000050664E+02 0.  0.
        -12    1    1    2    0    0 -0.69738962130E-01 -0.16273059171E+00 -0.11668564837E+01  0.11802113462E+01  0.00000000000E+00 0.  1.
         11    1    3    3    0    0  0.10429790774E+02  0.17837363216E+01  0.40880858242E+02  0.42228033600E+02  0.51100000000E-03 0. -1.
        -11    1    3    3    0    0  0.75711254439E+01 -0.27581194436E+00 -0.63783211198E+01  0.99035848703E+01  0.51100000000E-03 0.  1.
        -12    1    3    3    0    0 -0.17931177256E+02 -0.13451937855E+01 -0.33335680639E+02  0.37876170183E+02  0.00000000000E+00 0.  1.
</event>
<event>
 7    1  0.2895479E-015  0.9000689E+02  0.7816164E-02  0.1186341E+00
        -11   -1    0    0    0    0  0.00000000000E+00  0.00000000000E+00  0.45593999997E+02  0.45594000000E+02  0.51100000000E-03 0. -1.
         11   -1    0    0    0    0 -0.00000000000E+00 -0.00000000000E+00 -0.45593999997E+02  0.45594000000E+02  0.51100000000E-03 0.  1.
    9900012    2    1    2    0    0 -0.41393529359E+00 -0.51852055552E+00  0.97714619007E+00  0.90006890068E+02  0.89999140213E+02 0.  0.
        -12    1    1    2    0    0  0.41393529359E+00  0.51852055552E+00 -0.97714619007E+00  0.11811099316E+01  0.00000000000E+00 0.  1.
         11    1    3    3    0    0  0.46064870091E+01  0.36245169091E+02 -0.10538186688E+02  0.38026114499E+02  0.51100000000E-03 0. -1.
        -11    1    3    3    0    0  0.89924735651E+01 -0.83741703084E+00 -0.46606748655E+01  0.10163057540E+02  0.51100000000E-03 0.  1.
        -12    1    3    3    0    0 -0.14012895868E+02 -0.35926272615E+02  0.16176007743E+02  0.41817718029E+02  0.00000000000E+00 0.  1.
</event>
<event>
 7    1  0.2895479E-015  0.9000787E+02  0.7816164E-02  0.1186339E+00
        -11   -1    0    0    0    0  0.00000000000E+00  0.00000000000E+00  0.45593999997E+02  0.45594000000E+02  0.51100000000E-03 0.  1.
         11   -1    0    0    0    0 -0.00000000000E+00 -0.00000000000E+00 -0.45593999997E+02  0.45594000000E+02  0.51100000000E-03 0. -1.
    9900012    2    1    2    0    0 -0.61436115012E+00  0.65527794232E+00 -0.76542225681E+00  0.90007872873E+02  0.90000135995E+02 0.  0.
        -12    1    1    2    0    0  0.61436115012E+00 -0.65527794232E+00  0.76542225681E+00  0.11801271269E+01  0.00000000000E+00 0.  1.
         11    1    3    3    0    0  0.60655824076E+00  0.12060107482E+01 -0.53118875611E+01  0.54807412407E+01  0.51100000000E-03 0. -1.
        -11    1    3    3    0    0 -0.25850817257E+02  0.26569702628E+02  0.22877701516E+02  0.43561486171E+02  0.51100000000E-03 0.  1.
         12    1    3    3    0    0  0.24629897866E+02 -0.27120435434E+02 -0.18331236211E+02  0.40965645461E+02  0.00000000000E+00 0. -1.
</event>
<event>
 7    1  0.2895479E-015  0.9000770E+02  0.7816164E-02  0.1186339E+00
        -11   -1    0    0    0    0  0.00000000000E+00  0.00000000000E+00  0.45593999997E+02  0.45594000000E+02  0.51100000000E-03 0. -1.
         11   -1    0    0    0    0 -0.00000000000E+00 -0.00000000000E+00 -0.45593999997E+02  0.45594000000E+02  0.51100000000E-03 0.  1.
    9900012    2    1    2    0    0  0.34267224761E+00  0.77872271608E+00  0.81809466763E+00  0.90007698249E+02  0.89999959066E+02 0.  0.
        -12    1    1    2    0    0 -0.34267224761E+00 -0.77872271608E+00 -0.81809466763E+00  0.11803017508E+01  0.00000000000E+00 0.  1.
         11    1    3    3    0    0 -0.19204757591E+02 -0.25339243199E+02  0.17977114731E+02  0.36525013544E+02  0.51100000000E-03 0. -1.
        -11    1    3    3    0    0  0.10966442860E+01 -0.96196414765E+01  0.18297954717E+00  0.96836776383E+01  0.51100000000E-03 0.  1.
        -12    1    3    3    0    0  0.18450785553E+02  0.35737607391E+02 -0.17341999611E+02  0.43799007067E+02  0.00000000000E+00 0.  1.
</event>
<event>
 7    1  0.2895479E-015  0.9000769E+02  0.7816164E-02  0.1186339E+00
        -11   -1    0    0    0    0  0.00000000000E+00  0.00000000000E+00  0.45593999997E+02  0.45594000000E+02  0.51100000000E-03 0.  1.
         11   -1    0    0    0    0 -0.00000000000E+00 -0.00000000000E+00 -0.45593999997E+02  0.45594000000E+02  0.51100000000E-03 0. -1.
    9900012    2    1    2    0    0  0.41711593180E-01  0.44226939085E+00 -0.10935245178E+01  0.90007687354E+02  0.89999948027E+02 0.  0.
        -12    1    1    2    0    0 -0.41711593180E-01 -0.44226939085E+00  0.10935245178E+01  0.11803126459E+01  0.00000000000E+00 0.  1.
         11    1    3    3    0    0  0.98214505631E+00 -0.25314341203E+01  0.96386581618E+01  0.10013815409E+02  0.51100000000E-03 0.  1.
        -11    1    3    3    0    0  0.57271657221E+01  0.39611148954E+02  0.33910350953E+01  0.40166437083E+02  0.51100000000E-03 0. -1.
         12    1    3    3    0    0 -0.66675991852E+01 -0.36637445442E+02 -0.14123217775E+02  0.39827434863E+02  0.00000000000E+00 0. -1.
</event>
<event>
 7    1  0.2895479E-015  0.9000776E+02  0.7816164E-02  0.1186339E+00
        -11   -1    0    0    0    0  0.00000000000E+00  0.00000000000E+00  0.45593999997E+02  0.45594000000E+02  0.51100000000E-03 0. -1.
         11   -1    0    0    0    0 -0.00000000000E+00 -0.00000000000E+00 -0.45593999997E+02  0.45594000000E+02  0.51100000000E-03 0.  1.
    9900012    2    1    2    0    0 -0.61089664026E+00 -0.89006252895E+00  0.47702982802E+00  0.90007761267E+02  0.90000022916E+02 0.  0.
        -12    1    1    2    0    0  0.61089664026E+00  0.89006252895E+00 -0.47702982802E+00  0.11802387332E+01  0.00000000000E+00 0.  1.
         11    1    3    3    0    0 -0.84740163652E+01 -0.18901153262E+01 -0.62061876350E+01  0.10672312520E+02  0.51100000000E-03 0. -1.
        -11    1    3    3    0    0 -0.27826128003E+02  0.17014413169E+02 -0.13522224102E+02  0.35307707374E+02  0.51100000000E-03 0.  1.
         12    1    3    3    0    0  0.35689247728E+02 -0.16014360372E+02  0.20205441565E+02  0.44027741372E+02  0.00000000000E+00 0. -1.
</event>
<event>
 7    1  0.2895479E-015  0.9000770E+02  0.7816164E-02  0.1186339E+00
        -11   -1    0    0    0    0  0.00000000000E+00  0.00000000000E+00  0.45593999997E+02  0.45594000000E+02  0.51100000000E-03 0.  1.
         11   -1    0    0    0    0 -0.00000000000E+00 -0.00000000000E+00 -0.45593999997E+02  0.45594000000E+02  0.51100000000E-03 0. -1.
    9900012    2    1    2    0    0  0.33259957124E+00  0.58803116438E-01 -0.11309366606E+01  0.90007704269E+02  0.89999965166E+02 0.  0.
        -12    1    1    2    0    0 -0.33259957124E+00 -0.58803116438E-01  0.11309366606E+01  0.11802957306E+01  0.00000000000E+00 0.  1.
         11    1    3    3    0    0  0.21924301174E+01  0.74989250585E+01  0.52474452140E+01  0.94114987323E+01  0.51100000000E-03 0. -1.
        -11    1    3    3    0    0  0.23589694493E+02 -0.15620967145E+02  0.26126572224E+02  0.38510856615E+02  0.51100000000E-03 0.  1.
         12    1    3    3    0    0 -0.25449525039E+02  0.81808452024E+01 -0.32504954098E+02  0.42085348922E+02  0.00000000000E+00 0. -1.
</event>
<event>
 7    1  0.2895479E-015  0.9000776E+02  0.7816164E-02  0.1186339E+00
        -11   -1    0    0    0    0  0.00000000000E+00  0.00000000000E+00  0.45593999997E+02  0.45594000000E+02  0.51100000000E-03 0. -1.
         11   -1    0    0    0    0 -0.00000000000E+00 -0.00000000000E+00 -0.45593999997E+02  0.45594000000E+02  0.51100000000E-03 0.  1.
    9900012    2    1    2    0    0  0.83753888601E+00  0.17915621533E+00  0.81203499372E+00  0.90007758853E+02  0.90000020469E+02 0.  0.
        -12    1    1    2    0    0 -0.83753888601E+00 -0.17915621533E+00 -0.81203499372E+00  0.11802411474E+01  0.00000000000E+00 0.  1.
         11    1    3    3    0    0  0.65127252209E+01 -0.36399212514E+01  0.35033412844E+02  0.35819054040E+02  0.51100000000E-03 0. -1.
        -11    1    3    3    0    0 -0.63459504582E+01 -0.84662267254E+01  0.59752843416E+01  0.12151218268E+02  0.51100000000E-03 0.  1.
        -12    1    3    3    0    0  0.67076412328E+00  0.12285304192E+02 -0.40196662192E+02  0.42037486545E+02  0.00000000000E+00 0.  1.
</event>
<event>
 7    1  0.2895479E-015  0.9000775E+02  0.7816164E-02  0.1186339E+00
        -11   -1    0    0    0    0  0.00000000000E+00  0.00000000000E+00  0.45593999997E+02  0.45594000000E+02  0.51100000000E-03 0.  1.
         11   -1    0    0    0    0 -0.00000000000E+00 -0.00000000000E+00 -0.45593999997E+02  0.45594000000E+02  0.51100000000E-03 0. -1.
    9900012    2    1    2    0    0 -0.67289644012E+00 -0.84370307806E+00 -0.47788702032E+00  0.90007745575E+02  0.90000007017E+02 0.  0.
        -12    1    1    2    0    0  0.67289644012E+00  0.84370307806E+00  0.47788702032E+00  0.11802544248E+01  0.00000000000E+00 0.  1.
         11    1    3    3    0    0  0.11450060461E+02 -0.93974225541E+01 -0.35059168519E+02  0.38059962332E+02  0.51100000000E-03 0. -1.
        -11    1    3    3    0    0 -0.59604840345E+01 -0.69507464528E+01 -0.39403324947E+01  0.99682730002E+01  0.51100000000E-03 0.  1.
        -12    1    3    3    0    0 -0.61624728671E+01  0.15504465929E+02  0.38521613993E+02  0.41979510243E+02  0.00000000000E+00 0.  1.
</event>
<event>
 7    1  0.2895479E-015  0.9000771E+02  0.7816164E-02  0.1186339E+00
        -11   -1    0    0    0    0  0.00000000000E+00  0.00000000000E+00  0.45593999997E+02  0.45594000000E+02  0.51100000000E-03 0. -1.
         11   -1    0    0    0    0 -0.00000000000E+00 -0.00000000000E+00 -0.45593999997E+02  0.45594000000E+02  0.51100000000E-03 0.  1.
    9900012    2    1    2    0    0  0.15165427411E+00  0.11621807594E+01 -0.13935092680E+00  0.90007711130E+02  0.89999972117E+02 0.  0.
        -12    1    1    2    0    0 -0.15165427411E+00 -0.11621807594E+01  0.13935092680E+00  0.11802888702E+01  0.00000000000E+00 0.  1.
         11    1    3    3    0    0  0.18038815929E+02 -0.20979134590E+02 -0.22563952895E+02  0.35702309992E+02  0.51100000000E-03 0. -1.
        -11    1    3    3    0    0  0.65729937004E+01 -0.71238645415E+01 -0.67181881376E+00  0.97162252429E+01  0.51100000000E-03 0.  1.
        -12    1    3    3    0    0 -0.24460155356E+02  0.29265179891E+02  0.23096420782E+02  0.44589175895E+02  0.00000000000E+00 0.  1.
</event>
<event>
 7    1  0.2895479E-015  0.9000772E+02  0.7816164E-02  0.1186339E+00
        -11   -1    0    0    0    0  0.00000000000E+00  0.00000000000E+00  0.45593999997E+02  0.45594000000E+02  0.51100000000E-03 0.  1.
         11   -1    0    0    0    0 -0.00000000000E+00 -0.00000000000E+00 -0.45593999997E+02  0.45594000000E+02  0.51100000000E-03 0. -1.
    9900012    2    1    2    0    0  0.23979286062E+00 -0.69158308351E+00 -0.92589572096E+00  0.90007715855E+02  0.89999976904E+02 0.  0.
        -12    1    1    2    0    0 -0.23979286062E+00  0.69158308351E+00  0.92589572096E+00  0.11802841452E+01  0.00000000000E+00 0.  1.
         11    1    3    3    0    0 -0.79281692993E+01 -0.51242798672E+01  0.38870648851E+01  0.10208985566E+02  0.51100000000E-03 0. -1.
        -11    1    3    3    0    0 -0.17647801759E+02  0.31279187759E+02  0.13408186600E+02  0.38335518282E+02  0.51100000000E-03 0.  1.
         12    1    3    3    0    0  0.25815763919E+02 -0.26846490976E+02 -0.18221147206E+02  0.41463212007E+02  0.00000000000E+00 0. -1.
</event>
<event>
 7    1  0.2895479E-015  0.9000781E+02  0.7816164E-02  0.1186339E+00
        -11   -1    0    0    0    0  0.00000000000E+00  0.00000000000E+00  0.45593999997E+02  0.45594000000E+02  0.51100000000E-03 0. -1.
         11   -1    0    0    0    0 -0.00000000000E+00 -0.00000000000E+00 -0.45593999997E+02  0.45594000000E+02  0.51100000000E-03 0.  1.
    9900012    2    1    2    0    0  0.40104820904E+00 -0.10217912369E+01 -0.43352468341E+00  0.90007813299E+02  0.90000075635E+02 0.  0.
        -12    1    1    2    0    0 -0.40104820904E+00  0.10217912369E+01  0.43352468341E+00  0.11801867009E+01  0.00000000000E+00 0.  1.
         11    1    3    3    0    0 -0.78937551732E+01  0.51906074671E+01 -0.10881882769E+01  0.95098859404E+01  0.51100000000E-03 0. -1.
        -11    1    3    3    0    0 -0.64149112477E+00  0.20173764670E+02 -0.31838541130E+02  0.37697280981E+02  0.51100000000E-03 0.  1.
         12    1    3    3    0    0  0.89362945070E+01 -0.26386163374E+02  0.32493204723E+02  0.42800646377E+02  0.00000000000E+00 0. -1.
</event>
<event>
 7    1  0.2895479E-015  0.9000770E+02  0.7816164E-02  0.1186339E+00
        -11   -1    0    0    0    0  0.00000000000E+00  0.00000000000E+00  0.45593999997E+02  0.45594000000E+02  0.51100000000E-03 0.  1.
         11   -1    0    0    0    0 -0.00000000000E+00 -0.00000000000E+00 -0.45593999997E+02  0.45594000000E+02  0.51100000000E-03 0. -1.
    9900012    2    1    2    0    0  0.97054158389E+00  0.43944601286E+00 -0.50798433624E+00  0.90007698407E+02  0.89999959226E+02 0.  0.
        -12    1    1    2    0    0 -0.97054158389E+00 -0.43944601286E+00  0.50798433624E+00  0.11803015929E+01  0.00000000000E+00 0.  1.
         11    1    3    3    0    0  0.10408083957E+02  0.31453764802E+01  0.25608034259E+01  0.11170466387E+02  0.51100000000E-03 0. -1.
        -11    1    3    3    0    0 -0.35323326469E+01  0.35673876019E+02  0.11059368974E+02  0.37515496085E+02  0.51100000000E-03 0.  1.
         12    1    3    3    0    0 -0.59052097265E+01 -0.38379806487E+02 -0.14128156736E+02  0.41321735934E+02  0.00000000000E+00 0. -1.
</event>
<event>
 7    1  0.2895479E-015  0.9000773E+02  0.7816164E-02  0.1186339E+00
        -11   -1    0    0    0    0  0.00000000000E+00  0.00000000000E+00  0.45593999997E+02  0.45594000000E+02  0.51100000000E-03 0. -1.
         11   -1    0    0    0    0 -0.00000000000E+00 -0.00000000000E+00 -0.45593999997E+02  0.45594000000E+02  0.51100000000E-03 0.  1.
    9900012    2    1    2    0    0  0.11312913061E+01  0.11710378937E+00  0.31546096221E+00  0.90007725059E+02  0.89999986230E+02 0.  0.
        -12    1    1    2    0    0 -0.11312913061E+01 -0.11710378937E+00 -0.31546096221E+00  0.11802749406E+01  0.00000000000E+00 0.  1.
         11    1    3    3    0    0 -0.18331735639E+02  0.25544014472E+02  0.28808691066E+02  0.42643755558E+02  0.51100000000E-03 0. -1.
        -11    1    3    3    0    0 -0.22959650883E+01 -0.88025993658E+01 -0.21090727809E+01  0.93383831330E+01  0.51100000000E-03 0.  1.
        -12    1    3    3    0    0  0.21758992033E+02 -0.16624311317E+02 -0.26384157323E+02  0.38025586369E+02  0.00000000000E+00 0.  1.
</event>
<event>
 7    1  0.2895479E-015  0.9000740E+02  0.7816164E-02  0.1186340E+00
        -11   -1    0    0    0    0  0.00000000000E+00  0.00000000000E+00  0.45593999997E+02  0.45594000000E+02  0.51100000000E-03 0.  1.
         11   -1    0    0    0    0 -0.00000000000E+00 -0.00000000000E+00 -0.45593999997E+02  0.45594000000E+02  0.51100000000E-03 0. -1.
    9900012    2    1    2    0    0 -0.56627030047E+00 -0.77629108990E+00 -0.68594746301E+00  0.90007401071E+02  0.89999657964E+02 0.  0.
        -12    1    1    2    0    0  0.56627030047E+00  0.77629108990E+00  0.68594746301E+00  0.11805989291E+01  0.00000000000E+00 0.  1.
         11    1    3    3    0    0  0.10101218093E+02 -0.31984927206E+01  0.15895221570E+01  0.10714081556E+02  0.51100000000E-03 0. -1.
        -11    1    3    3    0    0  0.23118272845E+02  0.19098987556E+02  0.19505890738E+02  0.35772973580E+02  0.51100000000E-03 0.  1.
         12    1    3    3    0    0 -0.33785761238E+02 -0.16676785925E+02 -0.21781360358E+02  0.43520345935E+02  0.00000000000E+00 0. -1.
</event>
<event>
 7    1  0.2895479E-015  0.9000781E+02  0.7816164E-02  0.1186339E+00
        -11   -1    0    0    0    0  0.00000000000E+00  0.00000000000E+00  0.45593999997E+02  0.45594000000E+02  0.51100000000E-03 0. -1.
         11   -1    0    0    0    0 -0.00000000000E+00 -0.00000000000E+00 -0.45593999997E+02  0.45594000000E+02  0.51100000000E-03 0.  1.
    9900012    2    1    2    0    0 -0.77792335715E-02 -0.11774187874E+01 -0.80395043696E-01  0.90007814048E+02  0.90000076394E+02 0.  0.
        -12    1    1    2    0    0  0.77792335715E-02  0.11774187874E+01  0.80395043696E-01  0.11801859516E+01  0.00000000000E+00 0.  1.
         11    1    3    3    0    0  0.26755789470E+02 -0.12801151586E+02  0.17556479101E+02  0.34466965499E+02  0.51100000000E-03 0. -1.
        -11    1    3    3    0    0  0.41131132192E+00 -0.11606529813E+02  0.56087397199E+01  0.12897235084E+02  0.51100000000E-03 0.  1.
        -12    1    3    3    0    0 -0.27174880025E+02  0.23230262612E+02 -0.23245613864E+02  0.42643613465E+02  0.00000000000E+00 0.  1.
</event>
<event>
 7    1  0.2895479E-015  0.9000766E+02  0.7816164E-02  0.1186339E+00
        -11   -1    0    0    0    0  0.00000000000E+00  0.00000000000E+00  0.45593999997E+02  0.45594000000E+02  0.51100000000E-03 0. -1.
         11   -1    0    0    0    0 -0.00000000000E+00 -0.00000000000E+00 -0.45593999997E+02  0.45594000000E+02  0.51100000000E-03 0.  1.
    9900012    2    1    2    0    0 -0.59167932429E+00 -0.12614768181E+00  0.10135142273E+01  0.90007657359E+02  0.89999917636E+02 0.  0.
        -12    1    1    2    0    0  0.59167932429E+00  0.12614768181E+00 -0.10135142273E+01  0.11803426407E+01  0.00000000000E+00 0.  1.
         11    1    3    3    0    0 -0.80655980856E+01 -0.42385811798E+01  0.15994984602E+00  0.91129044279E+01  0.51100000000E-03 0. -1.
        -11    1    3    3    0    0 -0.24011932351E+02  0.22079718288E+02  0.21602765667E+02  0.39125009133E+02  0.51100000000E-03 0.  1.
         12    1    3    3    0    0  0.31485851112E+02 -0.17967284790E+02 -0.20749201286E+02  0.41769743799E+02  0.00000000000E+00 0. -1.
</event>
<event>
 7    1  0.2895479E-015  0.9000778E+02  0.7816164E-02  0.1186339E+00
        -11   -1    0    0    0    0  0.00000000000E+00  0.00000000000E+00  0.45593999997E+02  0.45594000000E+02  0.51100000000E-03 0.  1.
         11   -1    0    0    0    0 -0.00000000000E+00 -0.00000000000E+00 -0.45593999997E+02  0.45594000000E+02  0.51100000000E-03 0. -1.
    9900012    2    1    2    0    0  0.66887426683E+00  0.30795780603E+00 -0.92233121143E+00  0.90007777284E+02  0.90000039144E+02 0.  0.
        -12    1    1    2    0    0 -0.66887426683E+00 -0.30795780603E+00  0.92233121143E+00  0.11802227157E+01  0.00000000000E+00 0.  1.
         11    1    3    3    0    0  0.12614561634E+02 -0.31020028947E+02 -0.17069884199E+02  0.37586570845E+02  0.51100000000E-03 0. -1.
        -11    1    3    3    0    0 -0.14086234892E+02 -0.37416781154E+01  0.66828158069E+01  0.16033782958E+02  0.51100000000E-03 0.  1.
        -12    1    3    3    0    0  0.21405475257E+01  0.35069664869E+02  0.94647371805E+01  0.36387423481E+02  0.00000000000E+00 0.  1.
</event>
<event>
 7    1  0.2895479E-015  0.9000778E+02  0.7816164E-02  0.1186339E+00
        -11   -1    0    0    0    0  0.00000000000E+00  0.00000000000E+00  0.45593999997E+02  0.45594000000E+02  0.51100000000E-03 0.  1.
         11   -1    0    0    0    0 -0.00000000000E+00 -0.00000000000E+00 -0.45593999997E+02  0.45594000000E+02  0.51100000000E-03 0. -1.
    9900012    2    1    2    0    0  0.45664660215E+00  0.77021361816E+00  0.76887541150E+00  0.90007777760E+02  0.90000039627E+02 0.  0.
        -12    1    1    2    0    0 -0.45664660215E+00 -0.77021361816E+00 -0.76887541150E+00  0.11802222398E+01  0.00000000000E+00 0.  1.
         11    1    3    3    0    0 -0.97754271348E+00 -0.27682766154E+01 -0.99086975939E+01  0.10334468223E+02  0.51100000000E-03 0. -1.
        -11    1    3    3    0    0 -0.47973102966E+01  0.40200170069E+02 -0.15843164865E+01  0.40516390741E+02  0.51100000000E-03 0.  1.
         12    1    3    3    0    0  0.62314996123E+01 -0.36661679835E+02  0.12261889492E+02  0.39156918797E+02  0.00000000000E+00 0. -1.
</event>
<event>
 7    1  0.2895479E-015  0.9000767E+02  0.7816164E-02  0.1186339E+00
        -11   -1    0    0    0    0  0.00000000000E+00  0.00000000000E+00  0.45593999997E+02  0.45594000000E+02  0.51100000000E-03 0.  1.
         11   -1    0    0    0    0 -0.00000000000E+00 -0.00000000000E+00 -0.45593999997E+02  0.45594000000E+02  0.51100000000E-03 0. -1.
    9900012    2    1    2    0    0 -0.11377336466E+01 -0.26687211029E+00  0.16588846016E+00  0.90007670573E+02  0.89999931025E+02 0.  0.
        -12    1    1    2    0    0  0.11377336466E+01  0.26687211029E+00 -0.16588846016E+00  0.11803294265E+01  0.00000000000E+00 0.  1.
         11    1    3    3    0    0 -0.13395095504E+02  0.33193464373E+02  0.17620905087E+01  0.35837684410E+02  0.51100000000E-03 0. -1.
        -11    1    3    3    0    0 -0.90469587323E+01  0.44256492548E+01 -0.35023350127E+01  0.10663028858E+02  0.51100000000E-03 0.  1.
        -12    1    3    3    0    0  0.21304320590E+02 -0.37885985738E+02  0.19061329641E+01  0.43506957306E+02  0.00000000000E+00 0.  1.
</event>
<event>
 7    1  0.2895479E-015  0.9000792E+02  0.7816164E-02  0.1186339E+00
        -11   -1    0    0    0    0  0.00000000000E+00  0.00000000000E+00  0.45593999997E+02  0.45594000000E+02  0.51100000000E-03 0.  1.
         11   -1    0    0    0    0 -0.00000000000E+00 -0.00000000000E+00 -0.45593999997E+02  0.45594000000E+02  0.51100000000E-03 0. -1.
    9900012    2    1    2    0    0  0.53386922125E-01 -0.33099469811E+00 -0.11314491199E+01  0.90007921712E+02  0.90000185479E+02 0.  0.
        -12    1    1    2    0    0 -0.53386922125E-01  0.33099469811E+00  0.11314491199E+01  0.11800782875E+01  0.00000000000E+00 0.  1.
         11    1    3    3    0    0  0.57752146034E+01  0.16183268471E+00  0.69698128660E+01  0.90530428686E+01  0.51100000000E-03 0. -1.
        -11    1    3    3    0    0 -0.28585750614E+02 -0.30583277478E+02  0.17544874803E+01  0.41899406035E+02  0.51100000000E-03 0.  1.
         12    1    3    3    0    0  0.22863922933E+02  0.30090450095E+02 -0.98557494663E+01  0.39055472809E+02  0.00000000000E+00 0. -1.
</event>
<event>
 7    1  0.2895479E-015  0.9000777E+02  0.7816164E-02  0.1186339E+00
        -11   -1    0    0    0    0  0.00000000000E+00  0.00000000000E+00  0.45593999997E+02  0.45594000000E+02  0.51100000000E-03 0.  1.
         11   -1    0    0    0    0 -0.00000000000E+00 -0.00000000000E+00 -0.45593999997E+02  0.45594000000E+02  0.51100000000E-03 0. -1.
    9900012    2    1    2    0    0 -0.11288057493E+00 -0.61965731373E+00 -0.99810964557E+00  0.90007771177E+02  0.90000032956E+02 0.  0.
        -12    1    1    2    0    0  0.11288057493E+00  0.61965731373E+00  0.99810964557E+00  0.11802288233E+01  0.00000000000E+00 0.  1.
         11    1    3    3    0    0  0.99471870075E+01 -0.17313071758E+01 -0.50283542965E+01  0.11279552344E+02  0.51100000000E-03 0. -1.
        -11    1    3    3    0    0 -0.16457527777E+01 -0.71511165149E+01  0.40107069115E+02  0.40772833638E+02  0.51100000000E-03 0.  1.
         12    1    3    3    0    0 -0.84143148047E+01  0.82627663769E+01 -0.36076824464E+02  0.37955385194E+02  0.00000000000E+00 0. -1.
</event>
<event>
 7    1  0.2895479E-015  0.9000800E+02  0.7816164E-02  0.1186339E+00
        -11   -1    0    0    0    0  0.00000000000E+00  0.00000000000E+00  0.45593999997E+02  0.45594000000E+02  0.51100000000E-03 0.  1.
         11   -1    0    0    0    0 -0.00000000000E+00 -0.00000000000E+00 -0.45593999997E+02  0.45594000000E+02  0.51100000000E-03 0. -1.
    9900012    2    1    2    0    0 -0.34267467855E+00 -0.99084700436E+00  0.54147325139E+00  0.90008001270E+02  0.90000266086E+02 0.  0.
        -12    1    1    2    0    0  0.34267467855E+00  0.99084700436E+00 -0.54147325139E+00  0.11799987302E+01  0.00000000000E+00 0.  1.
         11    1    3    3    0    0  0.56332022896E+01  0.39208566312E+01 -0.47008862142E+01  0.83189191737E+01  0.51100000000E-03 0. -1.
        -11    1    3    3    0    0  0.21651680800E+02  0.98651916871E+01  0.32419270514E+02  0.40213510036E+02  0.51100000000E-03 0.  1.
         12    1    3    3    0    0 -0.27627557768E+02 -0.14776895323E+02 -0.27176911048E+02  0.41475572060E+02  0.00000000000E+00 0. -1.
</event>
<event>
 7    1  0.2895479E-015  0.9000773E+02  0.7816164E-02  0.1186339E+00
        -11   -1    0    0    0    0  0.00000000000E+00  0.00000000000E+00  0.45593999997E+02  0.45594000000E+02  0.51100000000E-03 0. -1.
         11   -1    0    0    0    0 -0.00000000000E+00 -0.00000000000E+00 -0.45593999997E+02  0.45594000000E+02  0.51100000000E-03 0.  1.
    9900012    2    1    2    0    0 -0.18068343250E+00  0.66226276398E+00  0.96010871484E+00  0.90007725788E+02  0.89999986968E+02 0.  0.
        -12    1    1    2    0    0  0.18068343250E+00 -0.66226276398E+00 -0.96010871484E+00  0.11802742121E+01  0.00000000000E+00 0.  1.
         11    1    3    3    0    0 -0.38593056388E+01 -0.75035960439E+01 -0.69553619037E+01  0.10935047008E+02  0.51100000000E-03 0. -1.
        -11    1    3    3    0    0  0.21917418239E+02 -0.54854848947E+01 -0.28345974198E+02  0.36248558872E+02  0.51100000000E-03 0.  1.
         12    1    3    3    0    0 -0.18238796033E+02  0.13651343703E+02  0.36261444817E+02  0.42824119907E+02  0.00000000000E+00 0. -1.
</event>
<event>
 7    1  0.2895479E-015  0.9000766E+02  0.7816164E-02  0.1186339E+00
        -11   -1    0    0    0    0  0.00000000000E+00  0.00000000000E+00  0.45593999997E+02  0.45594000000E+02  0.51100000000E-03 0.  1.
         11   -1    0    0    0    0 -0.00000000000E+00 -0.00000000000E+00 -0.45593999997E+02  0.45594000000E+02  0.51100000000E-03 0. -1.
    9900012    2    1    2    0    0 -0.52909401035E+00  0.96322980036E+00  0.43064831098E+00  0.90007656792E+02  0.89999917062E+02 0.  0.
        -12    1    1    2    0    0  0.52909401035E+00 -0.96322980036E+00 -0.43064831098E+00  0.11803432076E+01  0.00000000000E+00 0.  1.
         11    1    3    3    0    0 -0.42668265248E+01 -0.20650391262E+01  0.56530068536E+01  0.73774441328E+01  0.51100000000E-03 0. -1.
        -11    1    3    3    0    0  0.10100064735E+02  0.30818332175E+02  0.25100532437E+02  0.41009969941E+02  0.51100000000E-03 0.  1.
         12    1    3    3    0    0 -0.63623322202E+01 -0.27790063248E+02 -0.30322890979E+02  0.41620242719E+02  0.00000000000E+00 0. -1.
</event>
<event>
 7    1  0.3115540E-015  0.9000762E+02  0.7816164E-02  0.1186339E+00
        -11   -1    0    0    0    0  0.00000000000E+00  0.00000000000E+00  0.45593999997E+02  0.45594000000E+02  0.51100000000E-03 0. -1.
         11   -1    0    0    0    0 -0.00000000000E+00 -0.00000000000E+00 -0.45593999997E+02  0.45594000000E+02  0.51100000000E-03 0.  1.
    9900012    2    1    2    0    0 -0.19297204334E-01  0.15840831004E+00  0.11695444763E+01  0.90007618766E+02  0.89999878534E+02 0.  0.
        -12    1    1    2    0    0  0.19297204334E-01 -0.15840831004E+00 -0.11695444763E+01  0.11803812337E+01  0.00000000000E+00 0.  1.
         11    1    3    3    0    0 -0.62796232575E+01 -0.17433621033E+01  0.70856108968E+01  0.96269861183E+01  0.51100000000E-03 0. -1.
        -11    1    3    3    0    0 -0.16015066448E+02 -0.23189121078E+02 -0.28385697904E+02  0.39999569191E+02  0.51100000000E-03 0.  1.
         12    1    3    3    0    0  0.22275392501E+02  0.25090891491E+02  0.22469631483E+02  0.40381063457E+02  0.00000000000E+00 0. -1.
</event>
<event>
 7    1  0.2895479E-015  0.9000777E+02  0.7816164E-02  0.1186339E+00
        -11   -1    0    0    0    0  0.00000000000E+00  0.00000000000E+00  0.45593999997E+02  0.45594000000E+02  0.51100000000E-03 0.  1.
         11   -1    0    0    0    0 -0.00000000000E+00 -0.00000000000E+00 -0.45593999997E+02  0.45594000000E+02  0.51100000000E-03 0. -1.
    9900012    2    1    2    0    0  0.10452547321E+01 -0.47184199805E+00 -0.27884261451E+00  0.90007768866E+02  0.90000030615E+02 0.  0.
        -12    1    1    2    0    0 -0.10452547321E+01  0.47184199805E+00  0.27884261451E+00  0.11802311340E+01  0.00000000000E+00 0.  1.
         11    1    3    3    0    0  0.78324108932E+01  0.37970504874E+00  0.60625523806E+01  0.99118806466E+01  0.51100000000E-03 0. -1.
        -11    1    3    3    0    0  0.35401679076E+02  0.72184737845E+01  0.25921725247E+01  0.36222984469E+02  0.51100000000E-03 0.  1.
         12    1    3    3    0    0 -0.42188835237E+02 -0.80700208313E+01 -0.89335675198E+01  0.43872903751E+02  0.00000000000E+00 0. -1.
</event>
<event>
 7    1  0.2895479E-015  0.9000775E+02  0.7816164E-02  0.1186339E+00
        -11   -1    0    0    0    0  0.00000000000E+00  0.00000000000E+00  0.45593999997E+02  0.45594000000E+02  0.51100000000E-03 0.  1.
         11   -1    0    0    0    0 -0.00000000000E+00 -0.00000000000E+00 -0.45593999997E+02  0.45594000000E+02  0.51100000000E-03 0. -1.
    9900012    2    1    2    0    0  0.48271597320E+00  0.55400240983E+00 -0.92360525111E+00  0.90007754246E+02  0.90000015802E+02 0.  0.
        -12    1    1    2    0    0 -0.48271597320E+00 -0.55400240983E+00  0.92360525111E+00  0.11802457544E+01  0.00000000000E+00 0.  1.
         11    1    3    3    0    0  0.66275921083E+01  0.61608051576E+01  0.12345232281E+02  0.15306379640E+02  0.51100000000E-03 0. -1.
        -11    1    3    3    0    0  0.25893906138E+02 -0.25005396879E+02 -0.80479838094E+01  0.36885421128E+02  0.51100000000E-03 0.  1.
         12    1    3    3    0    0 -0.32038782273E+02  0.19398594132E+02 -0.52208537229E+01  0.37815953477E+02  0.00000000000E+00 0. -1.
</event>
<event>
 7    1  0.2895479E-015  0.9000778E+02  0.7816164E-02  0.1186339E+00
        -11   -1    0    0    0    0  0.00000000000E+00  0.00000000000E+00  0.45593999997E+02  0.45594000000E+02  0.51100000000E-03 0.  1.
         11   -1    0    0    0    0 -0.00000000000E+00 -0.00000000000E+00 -0.45593999997E+02  0.45594000000E+02  0.51100000000E-03 0. -1.
    9900012    2    1    2    0    0 -0.18603965679E+00  0.10789509414E+01  0.44066095415E+00  0.90007776307E+02  0.90000038155E+02 0.  0.
        -12    1    1    2    0    0  0.18603965679E+00 -0.10789509414E+01 -0.44066095415E+00  0.11802236925E+01  0.00000000000E+00 0.  1.
         11    1    3    3    0    0  0.17391006574E+01  0.40715264794E+01 -0.80587494157E+01  0.91948486325E+01  0.51100000000E-03 0. -1.
        -11    1    3    3    0    0 -0.16651287693E+02  0.32590490281E+02  0.18525146764E+02  0.41019343016E+02  0.51100000000E-03 0.  1.
         12    1    3    3    0    0  0.14726147378E+02 -0.35583065819E+02 -0.10025736395E+02  0.39793584658E+02  0.00000000000E+00 0. -1.
</event>
<event>
 7    1  0.2895479E-015  0.9000775E+02  0.7816164E-02  0.1186339E+00
        -11   -1    0    0    0    0  0.00000000000E+00  0.00000000000E+00  0.45593999997E+02  0.45594000000E+02  0.51100000000E-03 0. -1.
         11   -1    0    0    0    0 -0.00000000000E+00 -0.00000000000E+00 -0.45593999997E+02  0.45594000000E+02  0.51100000000E-03 0.  1.
    9900012    2    1    2    0    0  0.58222833015E+00  0.98767538023E+00  0.28016392371E+00  0.90007752437E+02  0.90000013969E+02 0.  0.
        -12    1    1    2    0    0 -0.58222833015E+00 -0.98767538023E+00 -0.28016392371E+00  0.11802475627E+01  0.00000000000E+00 0.  1.
         11    1    3    3    0    0 -0.23738521837E+01  0.89007366608E+01  0.23155024213E+01  0.94984124474E+01  0.51100000000E-03 0. -1.
        -11    1    3    3    0    0 -0.21390626519E+02  0.27650009644E+02 -0.10677868461E+02  0.36552685419E+02  0.51100000000E-03 0.  1.
         12    1    3    3    0    0  0.24346707033E+02 -0.35563070925E+02  0.86425299637E+01  0.43956654571E+02  0.00000000000E+00 0. -1.
</event>
<event>
 7    1  0.2895479E-015  0.9000782E+02  0.7816164E-02  0.1186339E+00
        -11   -1    0    0    0    0  0.00000000000E+00  0.00000000000E+00  0.45593999997E+02  0.45594000000E+02  0.51100000000E-03 0.  1.
         11   -1    0    0    0    0 -0.00000000000E+00 -0.00000000000E+00 -0.45593999997E+02  0.45594000000E+02  0.51100000000E-03 0. -1.
    9900012    2    1    2    0    0  0.70412734730E-01  0.77791487853E+00 -0.88470840870E+00  0.90007822691E+02  0.90000085151E+02 0.  0.
        -12    1    1    2    0    0 -0.70412734730E-01 -0.77791487853E+00  0.88470840870E+00  0.11801773087E+01  0.00000000000E+00 0.  1.
         11    1    3    3    0    0  0.10146017438E+02  0.11517791961E+02  0.75490664683E+01  0.17105250841E+02  0.51100000000E-03 0. -1.
        -11    1    3    3    0    0  0.29428891537E+02 -0.11142126025E+02 -0.10944076710E+02  0.33316354013E+02  0.51100000000E-03 0.  1.
         12    1    3    3    0    0 -0.39504496240E+02  0.40224894225E+00  0.25103018329E+01  0.39586217837E+02  0.00000000000E+00 0. -1.
</event>
<event>
 7    1  0.2895479E-015  0.9000777E+02  0.7816164E-02  0.1186339E+00
        -11   -1    0    0    0    0  0.00000000000E+00  0.00000000000E+00  0.45593999997E+02  0.45594000000E+02  0.51100000000E-03 0. -1.
         11   -1    0    0    0    0 -0.00000000000E+00 -0.00000000000E+00 -0.45593999997E+02  0.45594000000E+02  0.51100000000E-03 0.  1.
    9900012    2    1    2    0    0  0.62858293305E+00  0.71272569784E+00 -0.69989371729E+00  0.90007768819E+02  0.90000030568E+02 0.  0.
        -12    1    1    2    0    0 -0.62858293305E+00 -0.71272569784E+00  0.69989371729E+00  0.11802311806E+01  0.00000000000E+00 0.  1.
         11    1    3    3    0    0 -0.25188887616E+02 -0.16875523415E+02  0.23061204682E+02  0.38093076950E+02  0.51100000000E-03 0. -1.
        -11    1    3    3    0    0 -0.12616449577E+01 -0.90531380873E+00  0.68692351461E+01  0.70425657857E+01  0.51100000000E-03 0.  1.
        -12    1    3    3    0    0  0.27079115507E+02  0.18493562922E+02 -0.30630333545E+02  0.44872126084E+02  0.00000000000E+00 0.  1.
</event>
<event>
 7    1  0.2895479E-015  0.9000776E+02  0.7816164E-02  0.1186339E+00
        -11   -1    0    0    0    0  0.00000000000E+00  0.00000000000E+00  0.45593999997E+02  0.45594000000E+02  0.51100000000E-03 0. -1.
         11   -1    0    0    0    0 -0.00000000000E+00 -0.00000000000E+00 -0.45593999997E+02  0.45594000000E+02  0.51100000000E-03 0.  1.
    9900012    2    1    2    0    0  0.10871439003E+01 -0.42761836903E+00 -0.16798631496E+00  0.90007763273E+02  0.90000024948E+02 0.  0.
        -12    1    1    2    0    0 -0.10871439003E+01  0.42761836903E+00  0.16798631496E+00  0.11802367269E+01  0.00000000000E+00 0.  1.
         11    1    3    3    0    0 -0.12405257473E+02 -0.21944521929E+02  0.35261638657E+02  0.43345537449E+02  0.51100000000E-03 0. -1.
        -11    1    3    3    0    0  0.28882396791E+01  0.17760958952E+01  0.13042777516E+01  0.36328481646E+01  0.51100000000E-03 0.  1.
        -12    1    3    3    0    0  0.10604161695E+02  0.19740807665E+02 -0.36733902723E+02  0.43029377660E+02  0.00000000000E+00 0.  1.
</event>
<event>
 7    1  0.2895479E-015  0.9000768E+02  0.7816164E-02  0.1186339E+00
        -11   -1    0    0    0    0  0.00000000000E+00  0.00000000000E+00  0.45593999997E+02  0.45594000000E+02  0.51100000000E-03 0. -1.
         11   -1    0    0    0    0 -0.00000000000E+00 -0.00000000000E+00 -0.45593999997E+02  0.45594000000E+02  0.51100000000E-03 0.  1.
    9900012    2    1    2    0    0 -0.88675671764E+00  0.69884841026E+00  0.34413529681E+00  0.90007679840E+02  0.89999940414E+02 0.  0.
        -12    1    1    2    0    0  0.88675671764E+00 -0.69884841026E+00 -0.34413529681E+00  0.11803201597E+01  0.00000000000E+00 0.  1.
         11    1    3    3    0    0 -0.19151775076E+02 -0.27009835862E+02 -0.18089465671E+02  0.37729968068E+02  0.51100000000E-03 0. -1.
        -11    1    3    3    0    0 -0.40935145807E+01 -0.60084458750E+01  0.73317699836E+01  0.10325363665E+02  0.51100000000E-03 0.  1.
        -12    1    3    3    0    0  0.22358532939E+02  0.33717130147E+02  0.11101830985E+02  0.41952348108E+02  0.00000000000E+00 0.  1.
</event>
<event>
 7    1  0.2895479E-015  0.9000784E+02  0.7816164E-02  0.1186339E+00
        -11   -1    0    0    0    0  0.00000000000E+00  0.00000000000E+00  0.45593999997E+02  0.45594000000E+02  0.51100000000E-03 0.  1.
         11   -1    0    0    0    0 -0.00000000000E+00 -0.00000000000E+00 -0.45593999997E+02  0.45594000000E+02  0.51100000000E-03 0. -1.
    9900012    2    1    2    0    0  0.19636599972E+00 -0.66361247609E+00 -0.95595159287E+00  0.90007837057E+02  0.90000099706E+02 0.  0.
        -12    1    1    2    0    0 -0.19636599972E+00  0.66361247609E+00  0.95595159287E+00  0.11801629431E+01  0.00000000000E+00 0.  1.
         11    1    3    3    0    0  0.70773772771E+01 -0.60897560036E+01  0.35158771230E+01  0.99767624765E+01  0.51100000000E-03 0. -1.
        -11    1    3    3    0    0  0.14564728160E+02  0.38101324449E+02 -0.34061502237E+01  0.40932188932E+02  0.51100000000E-03 0.  1.
         12    1    3    3    0    0 -0.21445739438E+02 -0.32675180922E+02 -0.10656784922E+01  0.39098885648E+02  0.00000000000E+00 0. -1.
</event>
<event>
 7    1  0.2895479E-015  0.9000784E+02  0.7816164E-02  0.1186339E+00
        -11   -1    0    0    0    0  0.00000000000E+00  0.00000000000E+00  0.45593999997E+02  0.45594000000E+02  0.51100000000E-03 0. -1.
         11   -1    0    0    0    0 -0.00000000000E+00 -0.00000000000E+00 -0.45593999997E+02  0.45594000000E+02  0.51100000000E-03 0.  1.
    9900012    2    1    2    0    0  0.95958953752E+00 -0.41108537239E+00  0.55043721309E+00  0.90007837134E+02  0.90000099784E+02 0.  0.
        -12    1    1    2    0    0 -0.95958953752E+00  0.41108537239E+00 -0.55043721309E+00  0.11801628656E+01  0.00000000000E+00 0.  1.
         11    1    3    3    0    0 -0.52952163310E+01 -0.20485403638E+02 -0.31322373057E+02  0.37799234547E+02  0.51100000000E-03 0. -1.
        -11    1    3    3    0    0  0.59801903926E+01 -0.80972314586E+01  0.55191148287E+00  0.10081291632E+02  0.51100000000E-03 0.  1.
        -12    1    3    3    0    0  0.27461547584E+00  0.28171549724E+02  0.31320898787E+02  0.42127310955E+02  0.00000000000E+00 0.  1.
</event>
<event>
 7    1  0.2895479E-015  0.9000781E+02  0.7816164E-02  0.1186339E+00
        -11   -1    0    0    0    0  0.00000000000E+00  0.00000000000E+00  0.45593999997E+02  0.45594000000E+02  0.51100000000E-03 0.  1.
         11   -1    0    0    0    0 -0.00000000000E+00 -0.00000000000E+00 -0.45593999997E+02  0.45594000000E+02  0.51100000000E-03 0. -1.
    9900012    2    1    2    0    0  0.89235198122E+00 -0.19488150244E+00 -0.74737754634E+00  0.90007811856E+02  0.90000074173E+02 0.  0.
        -12    1    1    2    0    0 -0.89235198122E+00  0.19488150244E+00  0.74737754634E+00  0.11801881440E+01  0.00000000000E+00 0.  1.
         11    1    3    3    0    0  0.36004385291E+02 -0.96523896747E+01 -0.39952613635E+00  0.37277929234E+02  0.51100000000E-03 0. -1.
        -11    1    3    3    0    0  0.57732677933E+01 -0.45332844723E+01 -0.55536720443E+01  0.92045946437E+01  0.51100000000E-03 0.  1.
        -12    1    3    3    0    0 -0.40885301103E+02  0.13990792645E+02  0.52058206343E+01  0.43525287978E+02  0.00000000000E+00 0.  1.
</event>
<event>
 7    1  0.2895479E-015  0.9000706E+02  0.7816164E-02  0.1186340E+00
        -11   -1    0    0    0    0  0.00000000000E+00  0.00000000000E+00  0.45593999997E+02  0.45594000000E+02  0.51100000000E-03 0. -1.
         11   -1    0    0    0    0 -0.00000000000E+00 -0.00000000000E+00 -0.45593999997E+02  0.45594000000E+02  0.51100000000E-03 0.  1.
    9900012    2    1    2    0    0 -0.43248278145E+00 -0.10926684638E+01 -0.11687275902E+00  0.90007057592E+02  0.89999309950E+02 0.  0.
        -12    1    1    2    0    0  0.43248278145E+00  0.10926684638E+01  0.11687275902E+00  0.11809424075E+01  0.00000000000E+00 0.  1.
         11    1    3    3    0    0 -0.78825544920E+01  0.13831715941E+01 -0.91640215412E+01  0.12166639637E+02  0.51100000000E-03 0. -1.
        -11    1    3    3    0    0 -0.20109988063E+02  0.28270168264E+02  0.11305067050E+02  0.36488608837E+02  0.51100000000E-03 0.  1.
         12    1    3    3    0    0  0.27560059774E+02 -0.30746008322E+02 -0.22579182681E+01  0.41351809119E+02  0.00000000000E+00 0. -1.
</event>
<event>
 7    1  0.2895479E-015  0.9000758E+02  0.7816164E-02  0.1186339E+00
        -11   -1    0    0    0    0  0.00000000000E+00  0.00000000000E+00  0.45593999997E+02  0.45594000000E+02  0.51100000000E-03 0. -1.
         11   -1    0    0    0    0 -0.00000000000E+00 -0.00000000000E+00 -0.45593999997E+02  0.45594000000E+02  0.51100000000E-03 0.  1.
    9900012    2    1    2    0    0  0.28377418806E+00  0.57027644977E+00  0.99380221269E+00  0.90007582338E+02  0.89999841625E+02 0.  0.
        -12    1    1    2    0    0 -0.28377418806E+00 -0.57027644977E+00 -0.99380221269E+00  0.11804176621E+01  0.00000000000E+00 0.  1.
         11    1    3    3    0    0  0.80621859427E+01 -0.21909166706E+01 -0.64150227368E+01  0.10533350607E+02  0.51100000000E-03 0. -1.
        -11    1    3    3    0    0 -0.24428768176E+01 -0.18504990569E+02 -0.30455373427E+02  0.35720191684E+02  0.51100000000E-03 0.  1.
         12    1    3    3    0    0 -0.53355349370E+01  0.21266183689E+02  0.37864198376E+02  0.43754040047E+02  0.00000000000E+00 0. -1.
</event>
<event>
 7    1  0.2895479E-015  0.9000771E+02  0.7816164E-02  0.1186339E+00
        -11   -1    0    0    0    0  0.00000000000E+00  0.00000000000E+00  0.45593999997E+02  0.45594000000E+02  0.51100000000E-03 0. -1.
         11   -1    0    0    0    0 -0.00000000000E+00 -0.00000000000E+00 -0.45593999997E+02  0.45594000000E+02  0.51100000000E-03 0.  1.
    9900012    2    1    2    0    0 -0.76401640181E+00  0.86107991373E+00 -0.26058034075E+00  0.90007711140E+02  0.89999972127E+02 0.  0.
        -12    1    1    2    0    0  0.76401640181E+00 -0.86107991373E+00  0.26058034075E+00  0.11802888604E+01  0.00000000000E+00 0.  1.
         11    1    3    3    0    0 -0.24489925753E+02 -0.25803442103E+01  0.29562914518E+02  0.38475713829E+02  0.51100000000E-03 0. -1.
        -11    1    3    3    0    0  0.28936347587E+01  0.26918753520E+01  0.76727523750E+01  0.86307846861E+01  0.51100000000E-03 0.  1.
        -12    1    3    3    0    0  0.20832274592E+02  0.74954877210E+00 -0.37496247234E+02  0.42901212624E+02  0.00000000000E+00 0.  1.
</event>
<event>
 7    1  0.2895479E-015  0.9000773E+02  0.7816164E-02  0.1186339E+00
        -11   -1    0    0    0    0  0.00000000000E+00  0.00000000000E+00  0.45593999997E+02  0.45594000000E+02  0.51100000000E-03 0.  1.
         11   -1    0    0    0    0 -0.00000000000E+00 -0.00000000000E+00 -0.45593999997E+02  0.45594000000E+02  0.51100000000E-03 0. -1.
    9900012    2    1    2    0    0  0.37882260042E+00 -0.23851705493E+00 -0.10920812557E+01  0.90007729515E+02  0.89999990745E+02 0.  0.
        -12    1    1    2    0    0 -0.37882260042E+00  0.23851705493E+00  0.10920812557E+01  0.11802704847E+01  0.00000000000E+00 0.  1.
         11    1    3    3    0    0 -0.30410070450E+02  0.15102242265E+02 -0.16867363954E+02  0.37912505499E+02  0.51100000000E-03 0. -1.
        -11    1    3    3    0    0  0.48779769948E+01  0.73457709065E+01 -0.66099352635E+01  0.11020265615E+02  0.51100000000E-03 0.  1.
        -12    1    3    3    0    0  0.25910916055E+02 -0.22686530226E+02  0.22385217962E+02  0.41074958402E+02  0.00000000000E+00 0.  1.
</event>
<event>
 7    1  0.2895479E-015  0.9000776E+02  0.7816164E-02  0.1186339E+00
        -11   -1    0    0    0    0  0.00000000000E+00  0.00000000000E+00  0.45593999997E+02  0.45594000000E+02  0.51100000000E-03 0.  1.
         11   -1    0    0    0    0 -0.00000000000E+00 -0.00000000000E+00 -0.45593999997E+02  0.45594000000E+02  0.51100000000E-03 0. -1.
    9900012    2    1    2    0    0  0.19661222989E+00 -0.44729148261E+00 -0.10743540316E+01  0.90007761624E+02  0.90000023277E+02 0.  0.
        -12    1    1    2    0    0 -0.19661222989E+00  0.44729148261E+00  0.10743540316E+01  0.11802383762E+01  0.00000000000E+00 0.  1.
         11    1    3    3    0    0 -0.49468626407E+01 -0.71854318118E+01  0.26910233811E+00  0.87277887599E+01  0.51100000000E-03 0. -1.
        -11    1    3    3    0    0 -0.12559559248E+01  0.23628914498E+01  0.39558987192E+02  0.39649390276E+02  0.51100000000E-03 0.  1.
         12    1    3    3    0    0  0.63994307954E+01  0.43752488794E+01 -0.40902443562E+02  0.41630582588E+02  0.00000000000E+00 0. -1.
</event>
<event>
 7    1  0.2895479E-015  0.9000769E+02  0.7816164E-02  0.1186339E+00
        -11   -1    0    0    0    0  0.00000000000E+00  0.00000000000E+00  0.45593999997E+02  0.45594000000E+02  0.51100000000E-03 0.  1.
         11   -1    0    0    0    0 -0.00000000000E+00 -0.00000000000E+00 -0.45593999997E+02  0.45594000000E+02  0.51100000000E-03 0. -1.
    9900012    2    1    2    0    0 -0.32385239967E+00 -0.11153793124E+01 -0.21019977493E+00  0.90007688459E+02  0.89999949147E+02 0.  0.
        -12    1    1    2    0    0  0.32385239967E+00  0.11153793124E+01  0.21019977493E+00  0.11803115406E+01  0.00000000000E+00 0.  1.
         11    1    3    3    0    0 -0.47219492405E+01 -0.27406083266E+01  0.75447180392E+01  0.93129216244E+01  0.51100000000E-03 0. -1.
        -11    1    3    3    0    0 -0.33582242867E+02  0.18889021560E+02 -0.54233460155E+01  0.38909829783E+02  0.51100000000E-03 0.  1.
         12    1    3    3    0    0  0.37980339708E+02 -0.17263792546E+02 -0.23315717987E+01  0.41784937052E+02  0.00000000000E+00 0. -1.
</event>
<event>
 7    1  0.2895479E-015  0.9000762E+02  0.7816164E-02  0.1186339E+00
        -11   -1    0    0    0    0  0.00000000000E+00  0.00000000000E+00  0.45593999997E+02  0.45594000000E+02  0.51100000000E-03 0. -1.
         11   -1    0    0    0    0 -0.00000000000E+00 -0.00000000000E+00 -0.45593999997E+02  0.45594000000E+02  0.51100000000E-03 0.  1.
    9900012    2    1    2    0    0  0.10284818872E-01  0.68034670498E+00  0.96452891261E+00  0.90007621485E+02  0.89999881288E+02 0.  0.
        -12    1    1    2    0    0 -0.10284818872E-01 -0.68034670498E+00 -0.96452891261E+00  0.11803785155E+01  0.00000000000E+00 0.  1.
         11    1    3    3    0    0 -0.48005145297E+01 -0.17327510806E+00  0.82288869700E+01  0.95283547919E+01  0.51100000000E-03 0. -1.
        -11    1    3    3    0    0  0.31426253597E+02  0.14066987013E+02  0.20281850136E+02  0.39960517815E+02  0.51100000000E-03 0.  1.
         12    1    3    3    0    0 -0.26615454249E+02 -0.13213365200E+02 -0.27546208194E+02  0.40518748878E+02  0.00000000000E+00 0. -1.
</event>
<event>
 7    1  0.2895479E-015  0.9000763E+02  0.7816164E-02  0.1186339E+00
        -11   -1    0    0    0    0  0.00000000000E+00  0.00000000000E+00  0.45593999997E+02  0.45594000000E+02  0.51100000000E-03 0.  1.
         11   -1    0    0    0    0 -0.00000000000E+00 -0.00000000000E+00 -0.45593999997E+02  0.45594000000E+02  0.51100000000E-03 0. -1.
    9900012    2    1    2    0    0 -0.20562794895E+00  0.36059717876E+00 -0.11049673394E+01  0.90007633108E+02  0.89999893065E+02 0.  0.
        -12    1    1    2    0    0  0.20562794895E+00 -0.36059717876E+00  0.11049673394E+01  0.11803668921E+01  0.00000000000E+00 0.  1.
         11    1    3    3    0    0 -0.17177117685E+02  0.13410631140E+02 -0.37083920083E+02  0.43012969306E+02  0.51100000000E-03 0. -1.
        -11    1    3    3    0    0 -0.49880489430E+01 -0.40411131694E+01  0.90894638659E+01  0.11127874080E+02  0.51100000000E-03 0.  1.
        -12    1    3    3    0    0  0.21959538679E+02 -0.90089207921E+01  0.26889488878E+02  0.35866789722E+02  0.00000000000E+00 0.  1.
</event>
<event>
 7    1  0.2895479E-015  0.9000780E+02  0.7816164E-02  0.1186339E+00
        -11   -1    0    0    0    0  0.00000000000E+00  0.00000000000E+00  0.45593999997E+02  0.45594000000E+02  0.51100000000E-03 0. -1.
         11   -1    0    0    0    0 -0.00000000000E+00 -0.00000000000E+00 -0.45593999997E+02  0.45594000000E+02  0.51100000000E-03 0.  1.
    9900012    2    1    2    0    0 -0.47497093253E+00 -0.10769714557E+01 -0.86082061995E-01  0.90007798736E+02  0.90000060879E+02 0.  0.
        -12    1    1    2    0    0  0.47497093253E+00  0.10769714557E+01  0.86082061995E-01  0.11802012645E+01  0.00000000000E+00 0.  1.
         11    1    3    3    0    0  0.28477037082E+02  0.21095135327E+02  0.14380190769E+02  0.38245735216E+02  0.51100000000E-03 0. -1.
        -11    1    3    3    0    0 -0.39110150200E+01  0.68835464564E+01  0.43551634959E+01  0.90358563313E+01  0.51100000000E-03 0.  1.
        -12    1    3    3    0    0 -0.25040992995E+02 -0.29055653239E+02 -0.18821436326E+02  0.42726207188E+02  0.00000000000E+00 0.  1.
</event>
<event>
 7    1  0.3009488E-015  0.9000774E+02  0.7816164E-02  0.1186339E+00
        -11   -1    0    0    0    0  0.00000000000E+00  0.00000000000E+00  0.45593999997E+02  0.45594000000E+02  0.51100000000E-03 0.  1.
         11   -1    0    0    0    0 -0.00000000000E+00 -0.00000000000E+00 -0.45593999997E+02  0.45594000000E+02  0.51100000000E-03 0. -1.
    9900012    2    1    2    0    0  0.89521534219E+00  0.25283462867E+00  0.72641291702E+00  0.90007740883E+02  0.90000002262E+02 0.  0.
        -12    1    1    2    0    0 -0.89521534219E+00 -0.25283462867E+00 -0.72641291702E+00  0.11802591175E+01  0.00000000000E+00 0.  1.
         11    1    3    3    0    0 -0.69921460902E+01 -0.58888292865E+01 -0.26756869024E+01  0.95251098667E+01  0.51100000000E-03 0. -1.
        -11    1    3    3    0    0  0.28361218835E+02 -0.25369060564E+02  0.15378951715E+02  0.41042174940E+02  0.51100000000E-03 0.  1.
         12    1    3    3    0    0 -0.20473857403E+02  0.31510724479E+02 -0.11976851895E+02  0.39440456076E+02  0.00000000000E+00 0. -1.
</event>
<event>
 7    1  0.2895479E-015  0.9000772E+02  0.7816164E-02  0.1186339E+00
        -11   -1    0    0    0    0  0.00000000000E+00  0.00000000000E+00  0.45593999997E+02  0.45594000000E+02  0.51100000000E-03 0. -1.
         11   -1    0    0    0    0 -0.00000000000E+00 -0.00000000000E+00 -0.45593999997E+02  0.45594000000E+02  0.51100000000E-03 0.  1.
    9900012    2    1    2    0    0  0.91789353744E+00  0.29613018869E+00  0.68032709372E+00  0.90007717581E+02  0.89999978653E+02 0.  0.
        -12    1    1    2    0    0 -0.91789353744E+00 -0.29613018869E+00 -0.68032709372E+00  0.11802824193E+01  0.00000000000E+00 0.  1.
         11    1    3    3    0    0 -0.50063129674E+00  0.88410809780E+01 -0.62287939106E+01  0.10826505364E+02  0.51100000000E-03 0. -1.
        -11    1    3    3    0    0 -0.21787167460E+02  0.22084726173E+02 -0.15518372369E+02  0.34687687691E+02  0.51100000000E-03 0.  1.
         12    1    3    3    0    0  0.23205692295E+02 -0.30629676963E+02  0.22427493374E+02  0.44493524526E+02  0.00000000000E+00 0. -1.
</event>
<event>
 7    1  0.2895479E-015  0.9000772E+02  0.7816164E-02  0.1186339E+00
        -11   -1    0    0    0    0  0.00000000000E+00  0.00000000000E+00  0.45593999997E+02  0.45594000000E+02  0.51100000000E-03 0. -1.
         11   -1    0    0    0    0 -0.00000000000E+00 -0.00000000000E+00 -0.45593999997E+02  0.45594000000E+02  0.51100000000E-03 0.  1.
    9900012    2    1    2    0    0 -0.10792532456E+01 -0.42040454884E+00  0.22700742109E+00  0.90007720405E+02  0.89999981514E+02 0.  0.
        -12    1    1    2    0    0  0.10792532456E+01  0.42040454884E+00 -0.22700742109E+00  0.11802795949E+01  0.00000000000E+00 0.  1.
         11    1    3    3    0    0  0.35264176066E+02  0.10308311522E+02 -0.11495777843E+01  0.36757923355E+02  0.51100000000E-03 0. -1.
        -11    1    3    3    0    0  0.24256543253E+01  0.86621711852E+01  0.39522785039E+01  0.98253505882E+01  0.51100000000E-03 0.  1.
        -12    1    3    3    0    0 -0.38769083636E+02 -0.19390887256E+02 -0.25756932985E+01  0.43424446462E+02  0.00000000000E+00 0.  1.
</event>
<event>
 7    1  0.2895479E-015  0.9000797E+02  0.7816164E-02  0.1186339E+00
        -11   -1    0    0    0    0  0.00000000000E+00  0.00000000000E+00  0.45593999997E+02  0.45594000000E+02  0.51100000000E-03 0.  1.
         11   -1    0    0    0    0 -0.00000000000E+00 -0.00000000000E+00 -0.45593999997E+02  0.45594000000E+02  0.51100000000E-03 0. -1.
    9900012    2    1    2    0    0  0.41276843521E+00  0.15013456714E+00 -0.10952451085E+01  0.90007966095E+02  0.90000230447E+02 0.  0.
        -12    1    1    2    0    0 -0.41276843521E+00 -0.15013456714E+00  0.10952451085E+01  0.11800339050E+01  0.00000000000E+00 0.  1.
         11    1    3    3    0    0 -0.60501755224E+01  0.31088182680E+02 -0.77317768177E+01  0.32601535228E+02  0.51100000000E-03 0. -1.
        -11    1    3    3    0    0 -0.17300259711E+02  0.86376014359E+00  0.19320840826E+01  0.17429228808E+02  0.51100000000E-03 0.  1.
        -12    1    3    3    0    0  0.23763203669E+02 -0.31801808257E+02  0.47044476267E+01  0.39977202059E+02  0.00000000000E+00 0.  1.
</event>
<event>
 7    1  0.2895479E-015  0.9000758E+02  0.7816164E-02  0.1186339E+00
        -11   -1    0    0    0    0  0.00000000000E+00  0.00000000000E+00  0.45593999997E+02  0.45594000000E+02  0.51100000000E-03 0.  1.
         11   -1    0    0    0    0 -0.00000000000E+00 -0.00000000000E+00 -0.45593999997E+02  0.45594000000E+02  0.51100000000E-03 0. -1.
    9900012    2    1    2    0    0  0.14829268531E+00 -0.90816773462E+00 -0.73935256835E+00  0.90007575680E+02  0.89999834879E+02 0.  0.
        -12    1    1    2    0    0 -0.14829268531E+00  0.90816773462E+00  0.73935256835E+00  0.11804243199E+01  0.00000000000E+00 0.  1.
         11    1    3    3    0    0  0.13693055917E+02  0.28177297218E+02 -0.20723909266E+02  0.37562484934E+02  0.51100000000E-03 0. -1.
        -11    1    3    3    0    0  0.10330088609E+02 -0.10986631018E+01 -0.38457234456E+00  0.10395464753E+02  0.51100000000E-03 0.  1.
        -12    1    3    3    0    0 -0.23874851841E+02 -0.27986801851E+02  0.20369129043E+02  0.42049625994E+02  0.00000000000E+00 0.  1.
</event>
<event>
 7    1  0.2895479E-015  0.9000771E+02  0.7816164E-02  0.1186339E+00
        -11   -1    0    0    0    0  0.00000000000E+00  0.00000000000E+00  0.45593999997E+02  0.45594000000E+02  0.51100000000E-03 0.  1.
         11   -1    0    0    0    0 -0.00000000000E+00 -0.00000000000E+00 -0.45593999997E+02  0.45594000000E+02  0.51100000000E-03 0. -1.
    9900012    2    1    2    0    0 -0.25579091232E+00  0.11467867121E+01  0.11199717133E+00  0.90007706765E+02  0.89999967694E+02 0.  0.
        -12    1    1    2    0    0  0.25579091232E+00 -0.11467867121E+01 -0.11199717133E+00  0.11802932349E+01  0.00000000000E+00 0.  1.
         11    1    3    3    0    0 -0.35595189037E+02 -0.17016453661E+02 -0.42032162577E+01  0.39676746401E+02  0.51100000000E-03 0. -1.
        -11    1    3    3    0    0  0.50366844687E+01 -0.84100830547E+01  0.59686920780E-01  0.98031245128E+01  0.51100000000E-03 0.  1.
        -12    1    3    3    0    0  0.30302713656E+02  0.26573323428E+02  0.42555265083E+01  0.40527835851E+02  0.00000000000E+00 0.  1.
</event>
<event>
 7    1  0.2895479E-015  0.9000778E+02  0.7816164E-02  0.1186339E+00
        -11   -1    0    0    0    0  0.00000000000E+00  0.00000000000E+00  0.45593999997E+02  0.45594000000E+02  0.51100000000E-03 0. -1.
         11   -1    0    0    0    0 -0.00000000000E+00 -0.00000000000E+00 -0.45593999997E+02  0.45594000000E+02  0.51100000000E-03 0.  1.
    9900012    2    1    2    0    0  0.32637337983E+00  0.84009567832E+00 -0.76199465256E+00  0.90007781299E+02  0.90000043212E+02 0.  0.
        -12    1    1    2    0    0 -0.32637337983E+00 -0.84009567832E+00  0.76199465256E+00  0.11802187011E+01  0.00000000000E+00 0.  1.
         11    1    3    3    0    0  0.46334237793E+01 -0.49122717192E+01  0.65970539976E+01  0.94403469783E+01  0.51100000000E-03 0. -1.
        -11    1    3    3    0    0 -0.59753194885E+01 -0.21586292253E+02 -0.35065259308E+02  0.41608230758E+02  0.51100000000E-03 0.  1.
         12    1    3    3    0    0  0.16682690890E+01  0.27338659650E+02  0.27706210658E+02  0.38959203563E+02  0.00000000000E+00 0. -1.
</event>
<event>
 7    1  0.2895479E-015  0.9000780E+02  0.7816164E-02  0.1186339E+00
        -11   -1    0    0    0    0  0.00000000000E+00  0.00000000000E+00  0.45593999997E+02  0.45594000000E+02  0.51100000000E-03 0.  1.
         11   -1    0    0    0    0 -0.00000000000E+00 -0.00000000000E+00 -0.45593999997E+02  0.45594000000E+02  0.51100000000E-03 0. -1.
    9900012    2    1    2    0    0  0.41880024155E+00  0.71793840341E+00 -0.83787823457E+00  0.90007801233E+02  0.90000063409E+02 0.  0.
        -12    1    1    2    0    0 -0.41880024155E+00 -0.71793840341E+00  0.83787823457E+00  0.11801987669E+01  0.00000000000E+00 0.  1.
         11    1    3    3    0    0 -0.31427903910E+02 -0.20731021506E+02  0.14255399106E+01  0.37676525333E+02  0.51100000000E-03 0. -1.
        -11    1    3    3    0    0 -0.76595623101E+01  0.55334078000E+01 -0.23601677750E+01  0.97395014683E+01  0.51100000000E-03 0.  1.
        -12    1    3    3    0    0  0.39506266462E+02  0.15915552110E+02  0.96749629772E-01  0.42591774431E+02  0.00000000000E+00 0.  1.
</event>
<event>
 7    1  0.3340061E-015  0.9000767E+02  0.7816164E-02  0.1186339E+00
        -11   -1    0    0    0    0  0.00000000000E+00  0.00000000000E+00  0.45593999997E+02  0.45594000000E+02  0.51100000000E-03 0.  1.
         11   -1    0    0    0    0 -0.00000000000E+00 -0.00000000000E+00 -0.45593999997E+02  0.45594000000E+02  0.51100000000E-03 0. -1.
    9900012    2    1    2    0    0  0.11242204839E+01  0.30457328420E+00 -0.19115917766E+00  0.90007670210E+02  0.89999930657E+02 0.  0.
        -12    1    1    2    0    0 -0.11242204839E+01 -0.30457328420E+00  0.19115917766E+00  0.11803297899E+01  0.00000000000E+00 0.  1.
         11    1    3    3    0    0  0.89665568659E+00 -0.24677987285E+01  0.86444832868E+01  0.90344404111E+01  0.51100000000E-03 0. -1.
        -11    1    3    3    0    0 -0.14666275760E+02  0.25189034544E+02  0.24537005347E+02  0.38100547733E+02  0.51100000000E-03 0.  1.
         12    1    3    3    0    0  0.14893840557E+02 -0.22416662531E+02 -0.33372647811E+02  0.42872682066E+02  0.00000000000E+00 0. -1.
</event>
<event>
 7    1  0.2895479E-015  0.9000770E+02  0.7816164E-02  0.1186339E+00
        -11   -1    0    0    0    0  0.00000000000E+00  0.00000000000E+00  0.45593999997E+02  0.45594000000E+02  0.51100000000E-03 0. -1.
         11   -1    0    0    0    0 -0.00000000000E+00 -0.00000000000E+00 -0.45593999997E+02  0.45594000000E+02  0.51100000000E-03 0.  1.
    9900012    2    1    2    0    0  0.10651914853E+01 -0.50821209097E+00  0.13565271591E-01  0.90007704932E+02  0.89999965838E+02 0.  0.
        -12    1    1    2    0    0 -0.10651914853E+01  0.50821209097E+00 -0.13565271591E-01  0.11802950675E+01  0.00000000000E+00 0.  1.
         11    1    3    3    0    0  0.10457409322E+01 -0.91649187102E+01  0.76210986339E+00  0.92558155106E+01  0.51100000000E-03 0. -1.
        -11    1    3    3    0    0  0.75290817903E+01 -0.15884459247E+00 -0.39549263071E+02  0.40259862318E+02  0.51100000000E-03 0.  1.
         12    1    3    3    0    0 -0.75096312372E+01  0.88155512117E+01  0.38800718479E+02  0.40492027103E+02  0.00000000000E+00 0. -1.
</event>
<event>
 7    1  0.2895479E-015  0.9000777E+02  0.7816164E-02  0.1186339E+00
        -11   -1    0    0    0    0  0.00000000000E+00  0.00000000000E+00  0.45593999997E+02  0.45594000000E+02  0.51100000000E-03 0.  1.
         11   -1    0    0    0    0 -0.00000000000E+00 -0.00000000000E+00 -0.45593999997E+02  0.45594000000E+02  0.51100000000E-03 0. -1.
    9900012    2    1    2    0    0 -0.91565453243E+00  0.43902611872E+00 -0.60147328208E+00  0.90007772367E+02  0.90000034163E+02 0.  0.
        -12    1    1    2    0    0  0.91565453243E+00 -0.43902611872E+00  0.60147328208E+00  0.11802276326E+01  0.00000000000E+00 0.  1.
         11    1    3    3    0    0  0.99009361179E+01 -0.45748703035E+01  0.49075506351E+01  0.11960017885E+02  0.51100000000E-03 0. -1.
        -11    1    3    3    0    0 -0.99990480350E+01 -0.27613417993E+02  0.20915035411E+02  0.36054410567E+02  0.51100000000E-03 0.  1.
         12    1    3    3    0    0 -0.81754261531E+00  0.32627314415E+02 -0.26424059328E+02  0.41993343916E+02  0.00000000000E+00 0. -1.
</event>
<event>
 7    1  0.2895479E-015  0.9000771E+02  0.7816164E-02  0.1186339E+00
        -11   -1    0    0    0    0  0.00000000000E+00  0.00000000000E+00  0.45593999997E+02  0.45594000000E+02  0.51100000000E-03 0.  1.
         11   -1    0    0    0    0 -0.00000000000E+00 -0.00000000000E+00 -0.45593999997E+02  0.45594000000E+02  0.51100000000E-03 0. -1.
    9900012    2    1    2    0    0 -0.84547611276E+00  0.27198135052E+00 -0.77735688586E+00  0.90007708748E+02  0.89999969703E+02 0.  0.
        -12    1    1    2    0    0  0.84547611276E+00 -0.27198135052E+00  0.77735688586E+00  0.11802912523E+01  0.00000000000E+00 0.  1.
         11    1    3    3    0    0 -0.12984240182E+02 -0.25446367721E+02  0.24049103586E+02  0.37342569634E+02  0.51100000000E-03 0. -1.
        -11    1    3    3    0    0  0.65658550947E+01 -0.64721400188E+01  0.30582734070E+01  0.97135001952E+01  0.51100000000E-03 0.  1.
        -12    1    3    3    0    0  0.55729089748E+01  0.32190489091E+02 -0.27884733878E+02  0.42951638919E+02  0.00000000000E+00 0.  1.
</event>
<event>
 7    1  0.2895479E-015  0.9000775E+02  0.7816164E-02  0.1186339E+00
        -11   -1    0    0    0    0  0.00000000000E+00  0.00000000000E+00  0.45593999997E+02  0.45594000000E+02  0.51100000000E-03 0. -1.
         11   -1    0    0    0    0 -0.00000000000E+00 -0.00000000000E+00 -0.45593999997E+02  0.45594000000E+02  0.51100000000E-03 0.  1.
    9900012    2    1    2    0    0  0.10447793240E+01 -0.41099426405E+00  0.36402559555E+00  0.90007748012E+02  0.90000009486E+02 0.  0.
        -12    1    1    2    0    0 -0.10447793240E+01  0.41099426405E+00 -0.36402559555E+00  0.11802519880E+01  0.00000000000E+00 0.  1.
         11    1    3    3    0    0  0.14496101246E+02  0.29383368772E+02  0.13716856804E+01  0.32793304707E+02  0.51100000000E-03 0. -1.
        -11    1    3    3    0    0 -0.76812087030E+00  0.66984860928E+01  0.14180768561E+02  0.15702035628E+02  0.51100000000E-03 0.  1.
        -12    1    3    3    0    0 -0.12683201052E+02 -0.36492849129E+02 -0.15188428646E+02  0.41512407678E+02  0.00000000000E+00 0.  1.
</event>
<event>
 7    1  0.2895479E-015  0.9000773E+02  0.7816164E-02  0.1186339E+00
        -11   -1    0    0    0    0  0.00000000000E+00  0.00000000000E+00  0.45593999997E+02  0.45594000000E+02  0.51100000000E-03 0.  1.
         11   -1    0    0    0    0 -0.00000000000E+00 -0.00000000000E+00 -0.45593999997E+02  0.45594000000E+02  0.51100000000E-03 0. -1.
    9900012    2    1    2    0    0 -0.11557281739E+01 -0.18415549409E+00 -0.15305729285E+00  0.90007725713E+02  0.89999986892E+02 0.  0.
        -12    1    1    2    0    0  0.11557281739E+01  0.18415549409E+00  0.15305729285E+00  0.11802742871E+01  0.00000000000E+00 0.  1.
         11    1    3    3    0    0  0.96452639725E+01 -0.23460476422E+02 -0.27979197704E+02  0.37765865215E+02  0.51100000000E-03 0. -1.
        -11    1    3    3    0    0 -0.72649653598E+01 -0.82193252705E+01  0.15625971511E+01  0.11080556832E+02  0.51100000000E-03 0.  1.
        -12    1    3    3    0    0 -0.35360267866E+01  0.31495646198E+02  0.26263543260E+02  0.41161303666E+02  0.00000000000E+00 0.  1.
</event>
<event>
 7    1  0.2895479E-015  0.9000781E+02  0.7816164E-02  0.1186339E+00
        -11   -1    0    0    0    0  0.00000000000E+00  0.00000000000E+00  0.45593999997E+02  0.45594000000E+02  0.51100000000E-03 0. -1.
         11   -1    0    0    0    0 -0.00000000000E+00 -0.00000000000E+00 -0.45593999997E+02  0.45594000000E+02  0.51100000000E-03 0.  1.
    9900012    2    1    2    0    0  0.10900676186E+01 -0.26627732959E+00  0.36564042317E+00  0.90007811901E+02  0.90000074218E+02 0.  0.
        -12    1    1    2    0    0 -0.10900676186E+01  0.26627732959E+00 -0.36564042317E+00  0.11801880988E+01  0.00000000000E+00 0.  1.
         11    1    3    3    0    0  0.11609352794E+02 -0.51606470281E+01  0.33430729184E+02  0.35763431101E+02  0.51100000000E-03 0. -1.
        -11    1    3    3    0    0 -0.31173429229E+01 -0.19688914357E+01  0.96617451195E+01  0.10341357716E+02  0.51100000000E-03 0.  1.
        -12    1    3    3    0    0 -0.74019422525E+01  0.68632611342E+01 -0.42726833881E+02  0.43903023085E+02  0.00000000000E+00 0.  1.
</event>
<event>
 7    1  0.2895479E-015  0.9000774E+02  0.7816164E-02  0.1186339E+00
        -11   -1    0    0    0    0  0.00000000000E+00  0.00000000000E+00  0.45593999997E+02  0.45594000000E+02  0.51100000000E-03 0.  1.
         11   -1    0    0    0    0 -0.00000000000E+00 -0.00000000000E+00 -0.45593999997E+02  0.45594000000E+02  0.51100000000E-03 0. -1.
    9900012    2    1    2    0    0 -0.14734555302E+00  0.64645202755E+00 -0.97642435946E+00  0.90007739238E+02  0.90000000596E+02 0.  0.
        -12    1    1    2    0    0  0.14734555302E+00 -0.64645202755E+00  0.97642435946E+00  0.11802607617E+01  0.00000000000E+00 0.  1.
         11    1    3    3    0    0 -0.32105435677E+02  0.23305210365E+02  0.15323708661E+02  0.42528906376E+02  0.51100000000E-03 0. -1.
        -11    1    3    3    0    0 -0.66429757301E+00 -0.70063962218E+01  0.14356357864E+01  0.71827522340E+01  0.51100000000E-03 0.  1.
        -12    1    3    3    0    0  0.32622387697E+02 -0.15652362116E+02 -0.17735768807E+02  0.40296080628E+02  0.00000000000E+00 0.  1.
</event>
<event>
 7    1  0.2895479E-015  0.9000776E+02  0.7816164E-02  0.1186339E+00
        -11   -1    0    0    0    0  0.00000000000E+00  0.00000000000E+00  0.45593999997E+02  0.45594000000E+02  0.51100000000E-03 0. -1.
         11   -1    0    0    0    0 -0.00000000000E+00 -0.00000000000E+00 -0.45593999997E+02  0.45594000000E+02  0.51100000000E-03 0.  1.
    9900012    2    1    2    0    0 -0.98173163767E+00  0.63722471846E+00  0.15201967355E+00  0.90007761748E+02  0.90000023403E+02 0.  0.
        -12    1    1    2    0    0  0.98173163767E+00 -0.63722471846E+00 -0.15201967355E+00  0.11802382519E+01  0.00000000000E+00 0.  1.
         11    1    3    3    0    0 -0.33959873035E+02 -0.40731820388E+01  0.25747223023E+02  0.42811018233E+02  0.51100000000E-03 0. -1.
        -11    1    3    3    0    0  0.82837000457E+01  0.13167983076E+01  0.33197269621E+01  0.90207666855E+01  0.51100000000E-03 0.  1.
        -12    1    3    3    0    0  0.24694441351E+02  0.33936084497E+01 -0.28914930312E+02  0.38175976830E+02  0.00000000000E+00 0.  1.
</event>
<event>
 7    1  0.2895479E-015  0.9000776E+02  0.7816164E-02  0.1186339E+00
        -11   -1    0    0    0    0  0.00000000000E+00  0.00000000000E+00  0.45593999997E+02  0.45594000000E+02  0.51100000000E-03 0.  1.
         11   -1    0    0    0    0 -0.00000000000E+00 -0.00000000000E+00 -0.45593999997E+02  0.45594000000E+02  0.51100000000E-03 0. -1.
    9900012    2    1    2    0    0 -0.21611329070E-01  0.10677663350E+01 -0.50236624213E+00  0.90007761110E+02  0.90000022757E+02 0.  0.
        -12    1    1    2    0    0  0.21611329070E-01 -0.10677663350E+01  0.50236624213E+00  0.11802388898E+01  0.00000000000E+00 0.  1.
         11    1    3    3    0    0 -0.12393136481E+00  0.93429787571E+01  0.44071300036E+01  0.10330992506E+02  0.51100000000E-03 0. -1.
        -11    1    3    3    0    0 -0.17896798535E+02  0.12587738590E+02  0.28780809489E+02  0.36153582889E+02  0.51100000000E-03 0.  1.
         12    1    3    3    0    0  0.17999118571E+02 -0.20862951013E+02 -0.33690305734E+02  0.43523185715E+02  0.00000000000E+00 0. -1.
</event>
<event>
 7    1  0.2895479E-015  0.9000772E+02  0.7816164E-02  0.1186339E+00
        -11   -1    0    0    0    0  0.00000000000E+00  0.00000000000E+00  0.45593999997E+02  0.45594000000E+02  0.51100000000E-03 0. -1.
         11   -1    0    0    0    0 -0.00000000000E+00 -0.00000000000E+00 -0.45593999997E+02  0.45594000000E+02  0.51100000000E-03 0.  1.
    9900012    2    1    2    0    0  0.11338189752E+01  0.29652562561E+00  0.13997801406E+00  0.90007717509E+02  0.89999978580E+02 0.  0.
        -12    1    1    2    0    0 -0.11338189752E+01 -0.29652562561E+00 -0.13997801406E+00  0.11802824914E+01  0.00000000000E+00 0.  1.
         11    1    3    3    0    0  0.41875079030E+01 -0.10305546428E+02 -0.47952910456E+01  0.12113394491E+02  0.51100000000E-03 0. -1.
        -11    1    3    3    0    0  0.84664257462E+01 -0.15315793071E+02 -0.28874209665E+02  0.33763499024E+02  0.51100000000E-03 0.  1.
         12    1    3    3    0    0 -0.11520114674E+02  0.25917865125E+02  0.33809478724E+02  0.44130823994E+02  0.00000000000E+00 0. -1.
</event>
<event>
 7    1  0.2895479E-015  0.9000775E+02  0.7816164E-02  0.1186339E+00
        -11   -1    0    0    0    0  0.00000000000E+00  0.00000000000E+00  0.45593999997E+02  0.45594000000E+02  0.51100000000E-03 0. -1.
         11   -1    0    0    0    0 -0.00000000000E+00 -0.00000000000E+00 -0.45593999997E+02  0.45594000000E+02  0.51100000000E-03 0.  1.
    9900012    2    1    2    0    0 -0.49389002378E+00 -0.34496974200E+00  0.10149235737E+01  0.90007745223E+02  0.90000006660E+02 0.  0.
        -12    1    1    2    0    0  0.49389002378E+00  0.34496974200E+00 -0.10149235737E+01  0.11802547771E+01  0.00000000000E+00 0.  1.
         11    1    3    3    0    0 -0.22275921885E+01 -0.11305582254E+02  0.62853373566E+00  0.11540078509E+02  0.51100000000E-03 0. -1.
        -11    1    3    3    0    0 -0.20125836242E+02 -0.22679298893E+02  0.17322583861E+02  0.34920936336E+02  0.51100000000E-03 0.  1.
         12    1    3    3    0    0  0.21859538407E+02  0.33639911405E+02 -0.16936194023E+02  0.43546730378E+02  0.00000000000E+00 0. -1.
</event>
<event>
 7    1  0.2895479E-015  0.9000771E+02  0.7816164E-02  0.1186339E+00
        -11   -1    0    0    0    0  0.00000000000E+00  0.00000000000E+00  0.45593999997E+02  0.45594000000E+02  0.51100000000E-03 0. -1.
         11   -1    0    0    0    0 -0.00000000000E+00 -0.00000000000E+00 -0.45593999997E+02  0.45594000000E+02  0.51100000000E-03 0.  1.
    9900012    2    1    2    0    0 -0.54986754460E+00 -0.83457359276E+00  0.62786834525E+00  0.90007709334E+02  0.89999970297E+02 0.  0.
        -12    1    1    2    0    0  0.54986754460E+00  0.83457359276E+00 -0.62786834525E+00  0.11802906665E+01  0.00000000000E+00 0.  1.
         11    1    3    3    0    0 -0.35661036376E+02  0.11630099982E+02  0.84237832851E+01  0.38443840418E+02  0.51100000000E-03 0. -1.
        -11    1    3    3    0    0 -0.26868045341E+01 -0.11013003205E+02  0.38724870615E+01  0.11979203417E+02  0.51100000000E-03 0.  1.
        -12    1    3    3    0    0  0.37797973365E+02 -0.14516703695E+01 -0.11668402001E+02  0.39584665499E+02  0.00000000000E+00 0.  1.
</event>
<event>
 7    1  0.2895479E-015  0.9000777E+02  0.7816164E-02  0.1186339E+00
        -11   -1    0    0    0    0  0.00000000000E+00  0.00000000000E+00  0.45593999997E+02  0.45594000000E+02  0.51100000000E-03 0.  1.
         11   -1    0    0    0    0 -0.00000000000E+00 -0.00000000000E+00 -0.45593999997E+02  0.45594000000E+02  0.51100000000E-03 0. -1.
    9900012    2    1    2    0    0 -0.50998989389E-01 -0.11455739906E+01 -0.27930409463E+00  0.90007766361E+02  0.90000028077E+02 0.  0.
        -12    1    1    2    0    0  0.50998989389E-01  0.11455739906E+01  0.27930409463E+00  0.11802336388E+01  0.00000000000E+00 0.  1.
         11    1    3    3    0    0  0.20299314373E+02 -0.29654130500E+01  0.88443547049E+01  0.22340063764E+02  0.51100000000E-03 0. -1.
        -11    1    3    3    0    0 -0.52191648124E+00  0.83060729986E+01  0.25732679952E+02  0.27045037683E+02  0.51100000000E-03 0.  1.
         12    1    3    3    0    0 -0.19828396881E+02 -0.64862339392E+01 -0.34856338752E+02  0.40622664915E+02  0.00000000000E+00 0. -1.
</event>
<event>
 7    1  0.2895479E-015  0.9000766E+02  0.7816164E-02  0.1186339E+00
        -11   -1    0    0    0    0  0.00000000000E+00  0.00000000000E+00  0.45593999997E+02  0.45594000000E+02  0.51100000000E-03 0. -1.
         11   -1    0    0    0    0 -0.00000000000E+00 -0.00000000000E+00 -0.45593999997E+02  0.45594000000E+02  0.51100000000E-03 0.  1.
    9900012    2    1    2    0    0  0.42088307706E+00  0.10732769395E+01  0.25327401295E+00  0.90007655271E+02  0.89999915521E+02 0.  0.
        -12    1    1    2    0    0 -0.42088307706E+00 -0.10732769395E+01 -0.25327401295E+00  0.11803447289E+01  0.00000000000E+00 0.  1.
         11    1    3    3    0    0 -0.53080175591E+01  0.63198435878E+01  0.25286130907E+01  0.86318803169E+01  0.51100000000E-03 0. -1.
        -11    1    3    3    0    0  0.57063358642E+01  0.34925074388E+02  0.13967094988E+02  0.38044747767E+02  0.51100000000E-03 0.  1.
         12    1    3    3    0    0  0.22564771969E-01 -0.40171641036E+02 -0.16242434066E+02  0.43331027187E+02  0.00000000000E+00 0. -1.
</event>
<event>
 7    1  0.2895479E-015  0.9000770E+02  0.7816164E-02  0.1186339E+00
        -11   -1    0    0    0    0  0.00000000000E+00  0.00000000000E+00  0.45593999997E+02  0.45594000000E+02  0.51100000000E-03 0.  1.
         11   -1    0    0    0    0 -0.00000000000E+00 -0.00000000000E+00 -0.45593999997E+02  0.45594000000E+02  0.51100000000E-03 0. -1.
    9900012    2    1    2    0    0 -0.53183489381E-01  0.10228457631E+01 -0.58658050075E+00  0.90007695538E+02  0.89999956319E+02 0.  0.
        -12    1    1    2    0    0  0.53183489381E-01 -0.10228457631E+01  0.58658050075E+00  0.11803044618E+01  0.00000000000E+00 0.  1.
         11    1    3    3    0    0 -0.42997647083E+00  0.22112383430E+01  0.96691149382E+01  0.99280531185E+01  0.51100000000E-03 0. -1.
        -11    1    3    3    0    0  0.31061755783E+02  0.78976534802E+01  0.18542842840E+02  0.37027592734E+02  0.51100000000E-03 0.  1.
         12    1    3    3    0    0 -0.30684962802E+02 -0.90860460601E+01 -0.28798538279E+02  0.43052049686E+02  0.00000000000E+00 0. -1.
</event>
<event>
 7    1  0.2895479E-015  0.9000771E+02  0.7816164E-02  0.1186339E+00
        -11   -1    0    0    0    0  0.00000000000E+00  0.00000000000E+00  0.45593999997E+02  0.45594000000E+02  0.51100000000E-03 0. -1.
         11   -1    0    0    0    0 -0.00000000000E+00 -0.00000000000E+00 -0.45593999997E+02  0.45594000000E+02  0.51100000000E-03 0.  1.
    9900012    2    1    2    0    0  0.51536253403E+00 -0.11962352042E+00  0.10550760479E+01  0.90007706056E+02  0.89999966976E+02 0.  0.
        -12    1    1    2    0    0 -0.51536253403E+00  0.11962352042E+00 -0.10550760479E+01  0.11802939443E+01  0.00000000000E+00 0.  1.
         11    1    3    3    0    0 -0.86903965199E+01 -0.10647830560E+02  0.31537832586E+02  0.34402531473E+02  0.51100000000E-03 0. -1.
        -11    1    3    3    0    0  0.72352833646E+01  0.19203081703E+01  0.10937593421E+02  0.13253975213E+02  0.51100000000E-03 0.  1.
        -12    1    3    3    0    0  0.19704756893E+01  0.86078988690E+01 -0.41420349959E+02  0.42351199370E+02  0.00000000000E+00 0.  1.
</event>
<event>
 7    1  0.2895479E-015  0.9000775E+02  0.7816164E-02  0.1186339E+00
        -11   -1    0    0    0    0  0.00000000000E+00  0.00000000000E+00  0.45593999997E+02  0.45594000000E+02  0.51100000000E-03 0.  1.
         11   -1    0    0    0    0 -0.00000000000E+00 -0.00000000000E+00 -0.45593999997E+02  0.45594000000E+02  0.51100000000E-03 0. -1.
    9900012    2    1    2    0    0  0.10653137748E+00 -0.11615028290E+01  0.18042184412E+00  0.90007750112E+02  0.90000011613E+02 0.  0.
        -12    1    1    2    0    0 -0.10653137748E+00  0.11615028290E+01 -0.18042184412E+00  0.11802498880E+01  0.00000000000E+00 0.  1.
         11    1    3    3    0    0  0.21827531426E+01  0.81077979159E+01 -0.27221753955E+01  0.88267229181E+01  0.51100000000E-03 0. -1.
        -11    1    3    3    0    0 -0.19340815275E+02  0.59536514846E+01  0.35745033276E+02  0.41075789775E+02  0.51100000000E-03 0.  1.
         12    1    3    3    0    0  0.17264593510E+02 -0.15222952230E+02 -0.32842436036E+02  0.40105237419E+02  0.00000000000E+00 0. -1.
</event>
<event>
 7    1  0.2895479E-015  0.9000780E+02  0.7816164E-02  0.1186339E+00
        -11   -1    0    0    0    0  0.00000000000E+00  0.00000000000E+00  0.45593999997E+02  0.45594000000E+02  0.51100000000E-03 0.  1.
         11   -1    0    0    0    0 -0.00000000000E+00 -0.00000000000E+00 -0.45593999997E+02  0.45594000000E+02  0.51100000000E-03 0. -1.
    9900012    2    1    2    0    0 -0.29193390251E+00 -0.36142212549E+00 -0.10849106851E+01  0.90007795547E+02  0.90000057648E+02 0.  0.
        -12    1    1    2    0    0  0.29193390251E+00  0.36142212549E+00  0.10849106851E+01  0.11802044530E+01  0.00000000000E+00 0.  1.
         11    1    3    3    0    0  0.25665002937E+02  0.12933237505E+02  0.55659599375E+01  0.29273553225E+02  0.51100000000E-03 0. -1.
        -11    1    3    3    0    0  0.93915837726E+01 -0.33293050814E+01  0.15069400645E+02  0.18065795143E+02  0.51100000000E-03 0.  1.
        -12    1    3    3    0    0 -0.35348520612E+02 -0.99653545495E+01 -0.21720271267E+02  0.42668447179E+02  0.00000000000E+00 0.  1.
</event>
<event>
 7    1  0.2895479E-015  0.9000755E+02  0.7816164E-02  0.1186339E+00
        -11   -1    0    0    0    0  0.00000000000E+00  0.00000000000E+00  0.45593999997E+02  0.45594000000E+02  0.51100000000E-03 0.  1.
         11   -1    0    0    0    0 -0.00000000000E+00 -0.00000000000E+00 -0.45593999997E+02  0.45594000000E+02  0.51100000000E-03 0. -1.
    9900012    2    1    2    0    0 -0.10703082216E+01  0.11648436275E+00  0.48406894932E+00  0.90007554727E+02  0.89999813649E+02 0.  0.
        -12    1    1    2    0    0  0.10703082216E+01 -0.11648436275E+00 -0.48406894932E+00  0.11804452734E+01  0.00000000000E+00 0.  1.
         11    1    3    3    0    0 -0.24781958361E+02  0.25156341113E+02 -0.17451063111E+02  0.39389421960E+02  0.51100000000E-03 0. -1.
        -11    1    3    3    0    0  0.47935778150E+01 -0.71976249080E+00 -0.86545672309E+01  0.99195756223E+01  0.51100000000E-03 0.  1.
        -12    1    3    3    0    0  0.18918072324E+02 -0.24320094260E+02  0.26589699291E+02  0.40698557144E+02  0.00000000000E+00 0.  1.
</event>
<event>
 7    1  0.2895479E-015  0.9000778E+02  0.7816164E-02  0.1186339E+00
        -11   -1    0    0    0    0  0.00000000000E+00  0.00000000000E+00  0.45593999997E+02  0.45594000000E+02  0.51100000000E-03 0.  1.
         11   -1    0    0    0    0 -0.00000000000E+00 -0.00000000000E+00 -0.45593999997E+02  0.45594000000E+02  0.51100000000E-03 0. -1.
    9900012    2    1    2    0    0 -0.11369994232E+01 -0.14354109762E+00 -0.28204080784E+00  0.90007780210E+02  0.90000042109E+02 0.  0.
        -12    1    1    2    0    0  0.11369994232E+01  0.14354109762E+00  0.28204080784E+00  0.11802197899E+01  0.00000000000E+00 0.  1.
         11    1    3    3    0    0 -0.51702622250E+01  0.26978264065E+01 -0.71066234053E+01  0.91931482791E+01  0.51100000000E-03 0. -1.
        -11    1    3    3    0    0 -0.23186587986E+02  0.29179757565E+02 -0.38054405313E+01  0.37464082692E+02  0.51100000000E-03 0.  1.
         12    1    3    3    0    0  0.27219850788E+02 -0.32021125069E+02  0.10630023129E+02  0.43350549239E+02  0.00000000000E+00 0. -1.
</event>
<event>
 7    1  0.2895479E-015  0.9000768E+02  0.7816164E-02  0.1186339E+00
        -11   -1    0    0    0    0  0.00000000000E+00  0.00000000000E+00  0.45593999997E+02  0.45594000000E+02  0.51100000000E-03 0.  1.
         11   -1    0    0    0    0 -0.00000000000E+00 -0.00000000000E+00 -0.45593999997E+02  0.45594000000E+02  0.51100000000E-03 0. -1.
    9900012    2    1    2    0    0 -0.68826646891E+00 -0.84793728602E-01 -0.95512254838E+00  0.90007678099E+02  0.89999938649E+02 0.  0.
        -12    1    1    2    0    0  0.68826646891E+00  0.84793728602E-01  0.95512254838E+00  0.11803219015E+01  0.00000000000E+00 0.  1.
         11    1    3    3    0    0  0.15971767155E+02 -0.21274591386E+01 -0.38212501617E+02  0.41470696986E+02  0.51100000000E-03 0. -1.
        -11    1    3    3    0    0 -0.31997220797E+01  0.76053751185E+01 -0.29789732245E+00  0.82564335615E+01  0.51100000000E-03 0.  1.
        -12    1    3    3    0    0 -0.13460311544E+02 -0.55627097085E+01  0.37555276391E+02  0.40280547551E+02  0.00000000000E+00 0.  1.
</event>
<event>
 7    1  0.2895479E-015  0.9000775E+02  0.7816164E-02  0.1186339E+00
        -11   -1    0    0    0    0  0.00000000000E+00  0.00000000000E+00  0.45593999997E+02  0.45594000000E+02  0.51100000000E-03 0. -1.
         11   -1    0    0    0    0 -0.00000000000E+00 -0.00000000000E+00 -0.45593999997E+02  0.45594000000E+02  0.51100000000E-03 0.  1.
    9900012    2    1    2    0    0  0.72952918488E+00 -0.15385853595E+00  0.91493846466E+00  0.90007746775E+02  0.90000008233E+02 0.  0.
        -12    1    1    2    0    0 -0.72952918488E+00  0.15385853595E+00 -0.91493846466E+00  0.11802532249E+01  0.00000000000E+00 0.  1.
         11    1    3    3    0    0 -0.62260859314E+01 -0.32001834809E+01  0.64110618366E+01  0.94924725161E+01  0.51100000000E-03 0. -1.
        -11    1    3    3    0    0 -0.28285589129E+02 -0.18975004270E+02 -0.16031467934E+02  0.37644831037E+02  0.51100000000E-03 0.  1.
         12    1    3    3    0    0  0.35241204245E+02  0.22021329215E+02  0.10535344562E+02  0.42870443222E+02  0.00000000000E+00 0. -1.
</event>
<event>
 7    1  0.2895479E-015  0.9000772E+02  0.7816164E-02  0.1186339E+00
        -11   -1    0    0    0    0  0.00000000000E+00  0.00000000000E+00  0.45593999997E+02  0.45594000000E+02  0.51100000000E-03 0.  1.
         11   -1    0    0    0    0 -0.00000000000E+00 -0.00000000000E+00 -0.45593999997E+02  0.45594000000E+02  0.51100000000E-03 0. -1.
    9900012    2    1    2    0    0  0.68364807373E+00  0.79560763576E+00 -0.54100769080E+00  0.90007722270E+02  0.89999983404E+02 0.  0.
        -12    1    1    2    0    0 -0.68364807373E+00 -0.79560763576E+00  0.54100769080E+00  0.11802777302E+01  0.00000000000E+00 0.  1.
         11    1    3    3    0    0 -0.24909610128E+02  0.30591804836E+02 -0.10427166817E+02  0.40805306124E+02  0.51100000000E-03 0. -1.
        -11    1    3    3    0    0  0.80557202809E+00 -0.50555500255E+01 -0.82911704256E+01  0.97442824076E+01  0.51100000000E-03 0.  1.
        -12    1    3    3    0    0  0.24787686173E+02 -0.24740647174E+02  0.18177329552E+02  0.39458133738E+02  0.00000000000E+00 0.  1.
</event>
<event>
 7    1  0.2895479E-015  0.9000766E+02  0.7816164E-02  0.1186339E+00
        -11   -1    0    0    0    0  0.00000000000E+00  0.00000000000E+00  0.45593999997E+02  0.45594000000E+02  0.51100000000E-03 0.  1.
         11   -1    0    0    0    0 -0.00000000000E+00 -0.00000000000E+00 -0.45593999997E+02  0.45594000000E+02  0.51100000000E-03 0. -1.
    9900012    2    1    2    0    0  0.14267151101E-01  0.47071906910E+00 -0.10823221070E+01  0.90007660584E+02  0.89999920904E+02 0.  0.
        -12    1    1    2    0    0 -0.14267151101E-01 -0.47071906910E+00  0.10823221070E+01  0.11803394160E+01  0.00000000000E+00 0.  1.
         11    1    3    3    0    0  0.33036071868E+02  0.15694724616E+02 -0.47703991153E+01  0.36884456526E+02  0.51100000000E-03 0. -1.
        -11    1    3    3    0    0 -0.58051223169E+00  0.91413983690E+01 -0.65721798262E+01  0.11273673160E+02  0.51100000000E-03 0.  1.
        -12    1    3    3    0    0 -0.32441292485E+02 -0.24365403916E+02  0.10260256835E+02  0.41849530898E+02  0.00000000000E+00 0.  1.
</event>
<event>
 7    1  0.2895479E-015  0.9000775E+02  0.7816164E-02  0.1186339E+00
        -11   -1    0    0    0    0  0.00000000000E+00  0.00000000000E+00  0.45593999997E+02  0.45594000000E+02  0.51100000000E-03 0. -1.
         11   -1    0    0    0    0 -0.00000000000E+00 -0.00000000000E+00 -0.45593999997E+02  0.45594000000E+02  0.51100000000E-03 0.  1.
    9900012    2    1    2    0    0 -0.55504055803E+00  0.22641503136E+00  0.10166906147E+01  0.90007748504E+02  0.90000009984E+02 0.  0.
        -12    1    1    2    0    0  0.55504055803E+00 -0.22641503136E+00 -0.10166906147E+01  0.11802514959E+01  0.00000000000E+00 0.  1.
         11    1    3    3    0    0 -0.52637741142E+01 -0.25368628372E+02  0.28743253559E+02  0.38696889395E+02  0.51100000000E-03 0. -1.
        -11    1    3    3    0    0  0.98888828972E+01 -0.56381893739E+01 -0.56066914155E+01  0.12689136033E+02  0.51100000000E-03 0.  1.
        -12    1    3    3    0    0 -0.51801493410E+01  0.31233232777E+02 -0.22119871529E+02  0.38621723076E+02  0.00000000000E+00 0.  1.
</event>
<event>
 7    1  0.2895479E-015  0.9000791E+02  0.7816164E-02  0.1186339E+00
        -11   -1    0    0    0    0  0.00000000000E+00  0.00000000000E+00  0.45593999997E+02  0.45594000000E+02  0.51100000000E-03 0. -1.
         11   -1    0    0    0    0 -0.00000000000E+00 -0.00000000000E+00 -0.45593999997E+02  0.45594000000E+02  0.51100000000E-03 0.  1.
    9900012    2    1    2    0    0 -0.36632253195E+00 -0.37380856238E+00  0.10576753206E+01  0.90007914358E+02  0.90000178027E+02 0.  0.
        -12    1    1    2    0    0  0.36632253195E+00  0.37380856238E+00 -0.10576753206E+01  0.11800856420E+01  0.00000000000E+00 0.  1.
         11    1    3    3    0    0 -0.34704779494E+01  0.33800118096E+02 -0.10292958748E+02  0.35502636529E+02  0.51100000000E-03 0. -1.
        -11    1    3    3    0    0 -0.37441155834E+01  0.75541825060E+01 -0.42389593187E+01  0.94367818245E+01  0.51100000000E-03 0.  1.
        -12    1    3    3    0    0  0.68482710008E+01 -0.41728109164E+02  0.15589593387E+02  0.45068496004E+02  0.00000000000E+00 0.  1.
</event>
<event>
 7    1  0.2895479E-015  0.9000762E+02  0.7816164E-02  0.1186339E+00
        -11   -1    0    0    0    0  0.00000000000E+00  0.00000000000E+00  0.45593999997E+02  0.45594000000E+02  0.51100000000E-03 0. -1.
         11   -1    0    0    0    0 -0.00000000000E+00 -0.00000000000E+00 -0.45593999997E+02  0.45594000000E+02  0.51100000000E-03 0.  1.
    9900012    2    1    2    0    0  0.86365057290E+00 -0.67312113274E-01  0.80179267457E+00  0.90007620940E+02  0.89999880736E+02 0.  0.
        -12    1    1    2    0    0 -0.86365057290E+00  0.67312113274E-01 -0.80179267457E+00  0.11803790602E+01  0.00000000000E+00 0.  1.
         11    1    3    3    0    0  0.49741864016E+01  0.13619207713E+01  0.73319311651E+01  0.89640712523E+01  0.51100000000E-03 0. -1.
        -11    1    3    3    0    0  0.29686470536E+02  0.19845467314E+02 -0.17303291644E+02  0.39680385681E+02  0.51100000000E-03 0.  1.
         12    1    3    3    0    0 -0.33797006365E+02 -0.21274700198E+02  0.10773153153E+02  0.41363164007E+02  0.00000000000E+00 0. -1.
</event>
<event>
 7    1  0.2895479E-015  0.9000774E+02  0.7816164E-02  0.1186339E+00
        -11   -1    0    0    0    0  0.00000000000E+00  0.00000000000E+00  0.45593999997E+02  0.45594000000E+02  0.51100000000E-03 0.  1.
         11   -1    0    0    0    0 -0.00000000000E+00 -0.00000000000E+00 -0.45593999997E+02  0.45594000000E+02  0.51100000000E-03 0. -1.
    9900012    2    1    2    0    0 -0.93834198674E+00 -0.58567410114E+00 -0.41172108280E+00  0.90007739822E+02  0.90000001188E+02 0.  0.
        -12    1    1    2    0    0  0.93834198674E+00  0.58567410114E+00  0.41172108280E+00  0.11802601776E+01  0.00000000000E+00 0.  1.
         11    1    3    3    0    0 -0.19438713391E+02  0.77996093031E+01 -0.18842507895E+02  0.28173348889E+02  0.51100000000E-03 0. -1.
        -11    1    3    3    0    0 -0.96884442713E+01  0.15587733561E+02 -0.36925806159E+01  0.18721072133E+02  0.51100000000E-03 0.  1.
        -12    1    3    3    0    0  0.28188815676E+02 -0.23973016965E+02  0.22123367428E+02  0.43113318800E+02  0.00000000000E+00 0.  1.
</event>
<event>
 7    1  0.2895479E-015  0.9000787E+02  0.7816164E-02  0.1186339E+00
        -11   -1    0    0    0    0  0.00000000000E+00  0.00000000000E+00  0.45593999997E+02  0.45594000000E+02  0.51100000000E-03 0. -1.
         11   -1    0    0    0    0 -0.00000000000E+00 -0.00000000000E+00 -0.45593999997E+02  0.45594000000E+02  0.51100000000E-03 0.  1.
    9900012    2    1    2    0    0 -0.90651217625E+00 -0.50362333423E+00 -0.56329407098E+00  0.90007872465E+02  0.90000135581E+02 0.  0.
        -12    1    1    2    0    0  0.90651217625E+00  0.50362333423E+00  0.56329407098E+00  0.11801275350E+01  0.00000000000E+00 0.  1.
         11    1    3    3    0    0 -0.22261675290E+02 -0.16045512752E+02  0.28965544097E+02  0.39900418685E+02  0.51100000000E-03 0. -1.
        -11    1    3    3    0    0  0.57679903130E+01  0.54740271265E+01  0.60423621906E+01  0.99872331672E+01  0.51100000000E-03 0.  1.
        -12    1    3    3    0    0  0.15587172800E+02  0.10067862291E+02 -0.35571200359E+02  0.40120220612E+02  0.00000000000E+00 0.  1.
</event>
<event>
 7    1  0.2895479E-015  0.9000798E+02  0.7816164E-02  0.1186339E+00
        -11   -1    0    0    0    0  0.00000000000E+00  0.00000000000E+00  0.45593999997E+02  0.45594000000E+02  0.51100000000E-03 0. -1.
         11   -1    0    0    0    0 -0.00000000000E+00 -0.00000000000E+00 -0.45593999997E+02  0.45594000000E+02  0.51100000000E-03 0.  1.
    9900012    2    1    2    0    0 -0.57182182804E+00 -0.81564412554E+00  0.63261153453E+00  0.90007977587E+02  0.90000242090E+02 0.  0.
        -12    1    1    2    0    0  0.57182182804E+00  0.81564412554E+00 -0.63261153453E+00  0.11800224134E+01  0.00000000000E+00 0.  1.
         11    1    3    3    0    0 -0.10382613412E+01  0.59635682849E+01 -0.39652999251E+01  0.72364174188E+01  0.51100000000E-03 0. -1.
        -11    1    3    3    0    0 -0.21460243960E+02  0.24692497892E+02  0.23235252994E+02  0.40126531185E+02  0.51100000000E-03 0.  1.
         12    1    3    3    0    0  0.21926683473E+02 -0.31471710303E+02 -0.18637341534E+02  0.42645028983E+02  0.00000000000E+00 0. -1.
</event>
<event>
 7    1  0.2895479E-015  0.9000778E+02  0.7816164E-02  0.1186339E+00
        -11   -1    0    0    0    0  0.00000000000E+00  0.00000000000E+00  0.45593999997E+02  0.45594000000E+02  0.51100000000E-03 0.  1.
         11   -1    0    0    0    0 -0.00000000000E+00 -0.00000000000E+00 -0.45593999997E+02  0.45594000000E+02  0.51100000000E-03 0. -1.
    9900012    2    1    2    0    0 -0.75782149146E+00  0.46082418439E+00 -0.77862682229E+00  0.90007783041E+02  0.90000044977E+02 0.  0.
        -12    1    1    2    0    0  0.75782149146E+00 -0.46082418439E+00  0.77862682229E+00  0.11802169590E+01  0.00000000000E+00 0.  1.
         11    1    3    3    0    0  0.33403209472E+01 -0.49289267862E+01 -0.22528203163E+01  0.63661026486E+01  0.51100000000E-03 0. -1.
        -11    1    3    3    0    0  0.34489484803E+02  0.22738081027E+02  0.71747332371E-01  0.41310410779E+02  0.51100000000E-03 0.  1.
         12    1    3    3    0    0 -0.38587627241E+02 -0.17348330057E+02  0.14024461616E+01  0.42331269614E+02  0.00000000000E+00 0. -1.
</event>
<event>
 7    1  0.2895479E-015  0.9000767E+02  0.7816164E-02  0.1186339E+00
        -11   -1    0    0    0    0  0.00000000000E+00  0.00000000000E+00  0.45593999997E+02  0.45594000000E+02  0.51100000000E-03 0. -1.
         11   -1    0    0    0    0 -0.00000000000E+00 -0.00000000000E+00 -0.45593999997E+02  0.45594000000E+02  0.51100000000E-03 0.  1.
    9900012    2    1    2    0    0  0.36845663363E+00  0.89210024768E+00  0.67939410039E+00  0.90007669755E+02  0.89999930196E+02 0.  0.
        -12    1    1    2    0    0 -0.36845663363E+00 -0.89210024768E+00 -0.67939410039E+00  0.11803302446E+01  0.00000000000E+00 0.  1.
         11    1    3    3    0    0 -0.21227526948E+02 -0.33129516808E+02  0.34194727449E+01  0.39495133604E+02  0.51100000000E-03 0. -1.
        -11    1    3    3    0    0 -0.77677630707E+01  0.56637900135E+01 -0.29574762586E+00  0.96179065996E+01  0.51100000000E-03 0.  1.
        -12    1    3    3    0    0  0.29363746653E+02  0.28357827042E+02 -0.24443310187E+01  0.40894629552E+02  0.00000000000E+00 0.  1.
</event>
<event>
 7    1  0.2895479E-015  0.9000776E+02  0.7816164E-02  0.1186339E+00
        -11   -1    0    0    0    0  0.00000000000E+00  0.00000000000E+00  0.45593999997E+02  0.45594000000E+02  0.51100000000E-03 0.  1.
         11   -1    0    0    0    0 -0.00000000000E+00 -0.00000000000E+00 -0.45593999997E+02  0.45594000000E+02  0.51100000000E-03 0. -1.
    9900012    2    1    2    0    0 -0.11274677173E+01  0.78692554915E-01 -0.33998089135E+00  0.90007761474E+02  0.90000023125E+02 0.  0.
        -12    1    1    2    0    0  0.11274677173E+01 -0.78692554915E-01  0.33998089135E+00  0.11802385260E+01  0.00000000000E+00 0.  1.
         11    1    3    3    0    0 -0.96987542150E+01 -0.34438495855E+02 -0.55924233504E+01  0.36212581091E+02  0.51100000000E-03 0. -1.
        -11    1    3    3    0    0 -0.17633090119E+01 -0.68148962584E+01 -0.65191343487E+01  0.95943307532E+01  0.51100000000E-03 0.  1.
        -12    1    3    3    0    0  0.10334595510E+02  0.41332084669E+02  0.11771576808E+02  0.44200849629E+02  0.00000000000E+00 0.  1.
</event>
<event>
 7    1  0.2895479E-015  0.9000776E+02  0.7816164E-02  0.1186339E+00
        -11   -1    0    0    0    0  0.00000000000E+00  0.00000000000E+00  0.45593999997E+02  0.45594000000E+02  0.51100000000E-03 0. -1.
         11   -1    0    0    0    0 -0.00000000000E+00 -0.00000000000E+00 -0.45593999997E+02  0.45594000000E+02  0.51100000000E-03 0.  1.
    9900012    2    1    2    0    0  0.91716096017E+00 -0.73524157891E+00 -0.10588004933E+00  0.90007756385E+02  0.90000017969E+02 0.  0.
        -12    1    1    2    0    0 -0.91716096017E+00  0.73524157891E+00  0.10588004933E+00  0.11802436151E+01  0.00000000000E+00 0.  1.
         11    1    3    3    0    0  0.56568121256E+01 -0.30953913334E+01  0.76871388571E+01  0.10033597311E+02  0.51100000000E-03 0. -1.
        -11    1    3    3    0    0  0.23151296503E+02 -0.95947772897E+01 -0.32361218778E+02  0.40930315930E+02  0.51100000000E-03 0.  1.
         12    1    3    3    0    0 -0.27890947669E+02  0.11954927044E+02  0.24568199872E+02  0.39043843144E+02  0.00000000000E+00 0. -1.
</event>
<event>
 7    1  0.2895479E-015  0.9000800E+02  0.7816164E-02  0.1186339E+00
        -11   -1    0    0    0    0  0.00000000000E+00  0.00000000000E+00  0.45593999997E+02  0.45594000000E+02  0.51100000000E-03 0.  1.
         11   -1    0    0    0    0 -0.00000000000E+00 -0.00000000000E+00 -0.45593999997E+02  0.45594000000E+02  0.51100000000E-03 0. -1.
    9900012    2    1    2    0    0  0.53911274376E+00 -0.98154358508E+00  0.37192484018E+00  0.90008000658E+02  0.90000265467E+02 0.  0.
        -12    1    1    2    0    0 -0.53911274376E+00  0.98154358508E+00 -0.37192484018E+00  0.11799993418E+01  0.00000000000E+00 0.  1.
         11    1    3    3    0    0 -0.41781864391E+01 -0.41540607894E+01 -0.17987981164E+02  0.18928310267E+02  0.51100000000E-03 0. -1.
        -11    1    3    3    0    0  0.13514590586E+02  0.27219173541E+02 -0.10819963928E+02  0.32258319650E+02  0.51100000000E-03 0.  1.
         12    1    3    3    0    0 -0.87972914032E+01 -0.24046656337E+02  0.29179869932E+02  0.38821370741E+02  0.00000000000E+00 0. -1.
</event>
<event>
 7    1  0.2895479E-015  0.9000781E+02  0.7816164E-02  0.1186339E+00
        -11   -1    0    0    0    0  0.00000000000E+00  0.00000000000E+00  0.45593999997E+02  0.45594000000E+02  0.51100000000E-03 0. -1.
         11   -1    0    0    0    0 -0.00000000000E+00 -0.00000000000E+00 -0.45593999997E+02  0.45594000000E+02  0.51100000000E-03 0.  1.
    9900012    2    1    2    0    0 -0.56548600896E+00  0.81314829314E-01  0.10326982665E+01  0.90007808390E+02  0.90000070660E+02 0.  0.
        -12    1    1    2    0    0  0.56548600896E+00 -0.81314829314E-01 -0.10326982665E+01  0.11801916105E+01  0.00000000000E+00 0.  1.
         11    1    3    3    0    0 -0.70782628732E+01  0.13115169134E+00 -0.46659039544E+01  0.84787773907E+01  0.51100000000E-03 0. -1.
        -11    1    3    3    0    0 -0.23246479970E+02 -0.20908780279E+02 -0.19913404253E+02  0.37069119129E+02  0.51100000000E-03 0.  1.
         12    1    3    3    0    0  0.29759256835E+02  0.20858943417E+02  0.25612006474E+02  0.44459911870E+02  0.00000000000E+00 0. -1.
</event>
<event>
 7    1  0.2895479E-015  0.9000728E+02  0.7816164E-02  0.1186340E+00
        -11   -1    0    0    0    0  0.00000000000E+00  0.00000000000E+00  0.45593999997E+02  0.45594000000E+02  0.51100000000E-03 0. -1.
         11   -1    0    0    0    0 -0.00000000000E+00 -0.00000000000E+00 -0.45593999997E+02  0.45594000000E+02  0.51100000000E-03 0.  1.
    9900012    2    1    2    0    0  0.68260905626E+00  0.90026550349E+00  0.34301133339E+00  0.90007284168E+02  0.89999539518E+02 0.  0.
        -12    1    1    2    0    0 -0.68260905626E+00 -0.90026550349E+00 -0.34301133339E+00  0.11807158317E+01  0.00000000000E+00 0.  1.
         11    1    3    3    0    0  0.42296445462E+01  0.37469485184E+02 -0.46627167302E+01  0.37994646208E+02  0.51100000000E-03 0. -1.
        -11    1    3    3    0    0 -0.61838542307E+01  0.45460280480E+01 -0.55628195288E+01  0.94789970741E+01  0.51100000000E-03 0.  1.
        -12    1    3    3    0    0  0.26368187407E+01 -0.41115247728E+02  0.10568547592E+02  0.42533640886E+02  0.00000000000E+00 0.  1.
</event>
<event>
 7    1  0.2895479E-015  0.9000769E+02  0.7816164E-02  0.1186339E+00
        -11   -1    0    0    0    0  0.00000000000E+00  0.00000000000E+00  0.45593999997E+02  0.45594000000E+02  0.51100000000E-03 0.  1.
         11   -1    0    0    0    0 -0.00000000000E+00 -0.00000000000E+00 -0.45593999997E+02  0.45594000000E+02  0.51100000000E-03 0. -1.
    9900012    2    1    2    0    0 -0.11218175207E+01 -0.30305770756E+00  0.20693290840E+00  0.90007686587E+02  0.89999947250E+02 0.  0.
        -12    1    1    2    0    0  0.11218175207E+01  0.30305770756E+00 -0.20693290840E+00  0.11803134128E+01  0.00000000000E+00 0.  1.
         11    1    3    3    0    0  0.40400516822E+01  0.99882387615E+01 -0.10419392505E+02  0.14988351197E+02  0.51100000000E-03 0. -1.
        -11    1    3    3    0    0 -0.14856549133E+02  0.28792612297E+02  0.12451107949E+02  0.34709676813E+02  0.51100000000E-03 0.  1.
         12    1    3    3    0    0  0.96946799298E+01 -0.39083908766E+02 -0.18247825350E+01  0.40309658578E+02  0.00000000000E+00 0. -1.
</event>
<event>
 7    1  0.2895479E-015  0.9000758E+02  0.7816164E-02  0.1186339E+00
        -11   -1    0    0    0    0  0.00000000000E+00  0.00000000000E+00  0.45593999997E+02  0.45594000000E+02  0.51100000000E-03 0.  1.
         11   -1    0    0    0    0 -0.00000000000E+00 -0.00000000000E+00 -0.45593999997E+02  0.45594000000E+02  0.51100000000E-03 0. -1.
    9900012    2    1    2    0    0 -0.11318196616E+01 -0.31926517574E+00  0.10224367575E+00  0.90007576446E+02  0.89999835654E+02 0.  0.
        -12    1    1    2    0    0  0.11318196616E+01  0.31926517574E+00 -0.10224367575E+00  0.11804235545E+01  0.00000000000E+00 0.  1.
         11    1    3    3    0    0 -0.89693756081E+01 -0.35175248283E+02 -0.68795767429E+01  0.36946939887E+02  0.51100000000E-03 0. -1.
        -11    1    3    3    0    0  0.76405218858E+01 -0.55236150217E+01 -0.53490789448E+01  0.10839766760E+02  0.51100000000E-03 0.  1.
        -12    1    3    3    0    0  0.19703406078E+00  0.40379598129E+02  0.12330899363E+02  0.42220869799E+02  0.00000000000E+00 0.  1.
</event>
<event>
 7    1  0.2895479E-015  0.9000767E+02  0.7816164E-02  0.1186339E+00
        -11   -1    0    0    0    0  0.00000000000E+00  0.00000000000E+00  0.45593999997E+02  0.45594000000E+02  0.51100000000E-03 0. -1.
         11   -1    0    0    0    0 -0.00000000000E+00 -0.00000000000E+00 -0.45593999997E+02  0.45594000000E+02  0.51100000000E-03 0.  1.
    9900012    2    1    2    0    0 -0.32873053946E+00  0.91967907042E+00  0.66279440371E+00  0.90007673866E+02  0.89999934361E+02 0.  0.
        -12    1    1    2    0    0  0.32873053946E+00 -0.91967907042E+00 -0.66279440371E+00  0.11803261336E+01  0.00000000000E+00 0.  1.
         11    1    3    3    0    0 -0.55647213214E+01 -0.94955332199E+01 -0.10266585068E+01  0.11053746083E+02  0.51100000000E-03 0. -1.
        -11    1    3    3    0    0  0.34467101425E+02 -0.93683099930E+01 -0.16387607824E+02  0.39297582664E+02  0.51100000000E-03 0.  1.
         12    1    3    3    0    0 -0.29231110644E+02  0.19783522283E+02  0.18077060735E+02  0.39656345119E+02  0.00000000000E+00 0. -1.
</event>
<event>
 7    1  0.2895479E-015  0.9000776E+02  0.7816164E-02  0.1186339E+00
        -11   -1    0    0    0    0  0.00000000000E+00  0.00000000000E+00  0.45593999997E+02  0.45594000000E+02  0.51100000000E-03 0.  1.
         11   -1    0    0    0    0 -0.00000000000E+00 -0.00000000000E+00 -0.45593999997E+02  0.45594000000E+02  0.51100000000E-03 0. -1.
    9900012    2    1    2    0    0 -0.87030701595E+00  0.48467339943E+00 -0.63295508993E+00  0.90007756486E+02  0.90000018072E+02 0.  0.
        -12    1    1    2    0    0  0.87030701595E+00 -0.48467339943E+00  0.63295508993E+00  0.11802435139E+01  0.00000000000E+00 0.  1.
         11    1    3    3    0    0 -0.38888769287E+01  0.88545802673E+01 -0.40119726675E+02  0.41268867494E+02  0.51100000000E-03 0. -1.
        -11    1    3    3    0    0  0.12748530238E+01  0.81712339995E+01  0.32843389921E+01  0.88983817733E+01  0.51100000000E-03 0.  1.
        -12    1    3    3    0    0  0.17437168890E+01 -0.16541140867E+02  0.36202432593E+02  0.39840507219E+02  0.00000000000E+00 0.  1.
</event>
<event>
 7    1  0.2895479E-015  0.9000773E+02  0.7816164E-02  0.1186339E+00
        -11   -1    0    0    0    0  0.00000000000E+00  0.00000000000E+00  0.45593999997E+02  0.45594000000E+02  0.51100000000E-03 0.  1.
         11   -1    0    0    0    0 -0.00000000000E+00 -0.00000000000E+00 -0.45593999997E+02  0.45594000000E+02  0.51100000000E-03 0. -1.
    9900012    2    1    2    0    0  0.65659973507E+00  0.80056838669E+00 -0.56656312344E+00  0.90007734468E+02  0.89999995763E+02 0.  0.
        -12    1    1    2    0    0 -0.65659973507E+00 -0.80056838669E+00  0.56656312344E+00  0.11802655323E+01  0.00000000000E+00 0.  1.
         11    1    3    3    0    0 -0.23227854739E+01 -0.88611561198E+01  0.15402234511E+01  0.92891177556E+01  0.51100000000E-03 0. -1.
        -11    1    3    3    0    0 -0.32305179792E+02 -0.16885479902E+02  0.87046072595E+00  0.36462333648E+02  0.51100000000E-03 0.  1.
         12    1    3    3    0    0  0.35284565001E+02  0.26547204409E+02 -0.29772473005E+01  0.44256283064E+02  0.00000000000E+00 0. -1.
</event>
<event>
 7    1  0.2895479E-015  0.9000766E+02  0.7816164E-02  0.1186339E+00
        -11   -1    0    0    0    0  0.00000000000E+00  0.00000000000E+00  0.45593999997E+02  0.45594000000E+02  0.51100000000E-03 0.  1.
         11   -1    0    0    0    0 -0.00000000000E+00 -0.00000000000E+00 -0.45593999997E+02  0.45594000000E+02  0.51100000000E-03 0. -1.
    9900012    2    1    2    0    0 -0.19318273403E+00  0.10562179364E+01 -0.49019437701E+00  0.90007658344E+02  0.89999918634E+02 0.  0.
        -12    1    1    2    0    0  0.19318273403E+00 -0.10562179364E+01  0.49019437701E+00  0.11803416561E+01  0.00000000000E+00 0.  1.
         11    1    3    3    0    0 -0.28680390478E+02 -0.55144543731E+00 -0.30614523425E+02  0.41953759484E+02  0.51100000000E-03 0. -1.
        -11    1    3    3    0    0  0.87193461516E+01 -0.46780578029E+00 -0.31602219900E+01  0.92861640545E+01  0.51100000000E-03 0.  1.
        -12    1    3    3    0    0  0.19767861592E+02  0.20754691540E+01  0.33284551038E+02  0.38767734805E+02  0.00000000000E+00 0.  1.
</event>
<event>
 7    1  0.2895479E-015  0.9000774E+02  0.7816164E-02  0.1186339E+00
        -11   -1    0    0    0    0  0.00000000000E+00  0.00000000000E+00  0.45593999997E+02  0.45594000000E+02  0.51100000000E-03 0.  1.
         11   -1    0    0    0    0 -0.00000000000E+00 -0.00000000000E+00 -0.45593999997E+02  0.45594000000E+02  0.51100000000E-03 0. -1.
    9900012    2    1    2    0    0 -0.55764464688E-01  0.10982975980E+01 -0.42852740132E+00  0.90007744509E+02  0.90000005937E+02 0.  0.
        -12    1    1    2    0    0  0.55764464688E-01 -0.10982975980E+01  0.42852740132E+00  0.11802554905E+01  0.00000000000E+00 0.  1.
         11    1    3    3    0    0 -0.29954016437E+01 -0.74690975805E+01 -0.55775221098E+01  0.97912513410E+01  0.51100000000E-03 0. -1.
        -11    1    3    3    0    0 -0.30216473570E+02 -0.16829065866E+02  0.14357428027E+02  0.37448477576E+02  0.51100000000E-03 0.  1.
         12    1    3    3    0    0  0.33156110749E+02  0.25396461044E+02 -0.92084333182E+01  0.42768015593E+02  0.00000000000E+00 0. -1.
</event>
<event>
 7    1  0.2895479E-015  0.9000772E+02  0.7816164E-02  0.1186339E+00
        -11   -1    0    0    0    0  0.00000000000E+00  0.00000000000E+00  0.45593999997E+02  0.45594000000E+02  0.51100000000E-03 0.  1.
         11   -1    0    0    0    0 -0.00000000000E+00 -0.00000000000E+00 -0.45593999997E+02  0.45594000000E+02  0.51100000000E-03 0. -1.
    9900012    2    1    2    0    0 -0.99429282191E+00  0.74124193638E-01 -0.63163174431E+00  0.90007715597E+02  0.89999976643E+02 0.  0.
        -12    1    1    2    0    0  0.99429282191E+00 -0.74124193638E-01  0.63163174431E+00  0.11802844031E+01  0.00000000000E+00 0.  1.
         11    1    3    3    0    0 -0.10084420711E+02  0.19393245208E+01 -0.63061493846E+00  0.10288546843E+02  0.51100000000E-03 0. -1.
        -11    1    3    3    0    0  0.14867226736E+02 -0.30248579725E+02  0.24591252303E+02  0.41722184702E+02  0.51100000000E-03 0.  1.
         12    1    3    3    0    0 -0.57770988467E+01  0.28383379398E+02 -0.24592269108E+02  0.37996984052E+02  0.00000000000E+00 0. -1.
</event>
<event>
 7    1  0.2895479E-015  0.9000764E+02  0.7816164E-02  0.1186339E+00
        -11   -1    0    0    0    0  0.00000000000E+00  0.00000000000E+00  0.45593999997E+02  0.45594000000E+02  0.51100000000E-03 0.  1.
         11   -1    0    0    0    0 -0.00000000000E+00 -0.00000000000E+00 -0.45593999997E+02  0.45594000000E+02  0.51100000000E-03 0. -1.
    9900012    2    1    2    0    0 -0.91866122326E+00 -0.69527104890E+00  0.25672943557E+00  0.90007639768E+02  0.89999899813E+02 0.  0.
        -12    1    1    2    0    0  0.91866122326E+00  0.69527104890E+00 -0.25672943557E+00  0.11803602322E+01  0.00000000000E+00 0.  1.
         11    1    3    3    0    0 -0.82974164411E+01  0.32434402385E+01  0.52167918478E+01  0.10323853041E+02  0.51100000000E-03 0. -1.
        -11    1    3    3    0    0 -0.31187831407E+02 -0.11882596781E+02  0.13740366637E+02  0.36092583861E+02  0.51100000000E-03 0.  1.
         12    1    3    3    0    0  0.38566586625E+02  0.79438854939E+01 -0.18700429049E+02  0.43591202866E+02  0.00000000000E+00 0. -1.
</event>
<event>
 7    1  0.2895479E-015  0.9000780E+02  0.7816164E-02  0.1186339E+00
        -11   -1    0    0    0    0  0.00000000000E+00  0.00000000000E+00  0.45593999997E+02  0.45594000000E+02  0.51100000000E-03 0.  1.
         11   -1    0    0    0    0 -0.00000000000E+00 -0.00000000000E+00 -0.45593999997E+02  0.45594000000E+02  0.51100000000E-03 0. -1.
    9900012    2    1    2    0    0  0.78604838613E+00 -0.54763560189E+00 -0.68926923426E+00  0.90007801332E+02  0.90000063510E+02 0.  0.
        -12    1    1    2    0    0 -0.78604838613E+00  0.54763560189E+00  0.68926923426E+00  0.11801986676E+01  0.00000000000E+00 0.  1.
         11    1    3    3    0    0 -0.12519808863E+01  0.83031209028E+01 -0.40584613917E+01  0.93263273584E+01  0.51100000000E-03 0. -1.
        -11    1    3    3    0    0 -0.11268925892E+02  0.14407349038E+02 -0.31668909062E+02  0.36571576374E+02  0.51100000000E-03 0.  1.
         12    1    3    3    0    0  0.13306955165E+02 -0.23258105543E+02  0.35038101219E+02  0.44109897600E+02  0.00000000000E+00 0. -1.
</event>
<event>
 7    1  0.2895479E-015  0.9000755E+02  0.7816164E-02  0.1186339E+00
        -11   -1    0    0    0    0  0.00000000000E+00  0.00000000000E+00  0.45593999997E+02  0.45594000000E+02  0.51100000000E-03 0.  1.
         11   -1    0    0    0    0 -0.00000000000E+00 -0.00000000000E+00 -0.45593999997E+02  0.45594000000E+02  0.51100000000E-03 0. -1.
    9900012    2    1    2    0    0 -0.58150210111E+00  0.79910452397E+00 -0.64556119719E+00  0.90007550089E+02  0.89999808950E+02 0.  0.
        -12    1    1    2    0    0  0.58150210111E+00 -0.79910452397E+00  0.64556119719E+00  0.11804499113E+01  0.00000000000E+00 0.  1.
         11    1    3    3    0    0  0.52816601267E+01  0.82404019970E+01 -0.37427678005E+02  0.38686318510E+02  0.51100000000E-03 0. -1.
        -11    1    3    3    0    0  0.24459123554E+01  0.95799239589E+01 -0.68845856801E-01  0.98874754271E+01  0.51100000000E-03 0.  1.
        -12    1    3    3    0    0 -0.83090745832E+01 -0.17021221432E+02  0.36850962665E+02  0.41433756151E+02  0.00000000000E+00 0.  1.
</event>
<event>
 7    1  0.2895479E-015  0.9000772E+02  0.7816164E-02  0.1186339E+00
        -11   -1    0    0    0    0  0.00000000000E+00  0.00000000000E+00  0.45593999997E+02  0.45594000000E+02  0.51100000000E-03 0. -1.
         11   -1    0    0    0    0 -0.00000000000E+00 -0.00000000000E+00 -0.45593999997E+02  0.45594000000E+02  0.51100000000E-03 0.  1.
    9900012    2    1    2    0    0  0.88971807821E+00 -0.18453256149E+00  0.75326958961E+00  0.90007718000E+02  0.89999979078E+02 0.  0.
        -12    1    1    2    0    0 -0.88971807821E+00  0.18453256149E+00 -0.75326958961E+00  0.11802820000E+01  0.00000000000E+00 0.  1.
         11    1    3    3    0    0  0.72655726078E+01 -0.63937094169E+00  0.27335979157E+02  0.28292279817E+02  0.51100000000E-03 0. -1.
        -11    1    3    3    0    0 -0.46885206105E+01  0.89834435821E+01  0.15624122656E+02  0.18622505018E+02  0.51100000000E-03 0.  1.
        -12    1    3    3    0    0 -0.16873339190E+01 -0.85286052019E+01 -0.42206832223E+02  0.43092933165E+02  0.00000000000E+00 0.  1.
</event>
<event>
 7    1  0.2895479E-015  0.9000778E+02  0.7816164E-02  0.1186339E+00
        -11   -1    0    0    0    0  0.00000000000E+00  0.00000000000E+00  0.45593999997E+02  0.45594000000E+02  0.51100000000E-03 0.  1.
         11   -1    0    0    0    0 -0.00000000000E+00 -0.00000000000E+00 -0.45593999997E+02  0.45594000000E+02  0.51100000000E-03 0. -1.
    9900012    2    1    2    0    0  0.56768940366E+00  0.10182547309E+01  0.18388679662E+00  0.90007776161E+02  0.90000038006E+02 0.  0.
        -12    1    1    2    0    0 -0.56768940366E+00 -0.10182547309E+01 -0.18388679662E+00  0.11802238389E+01  0.00000000000E+00 0.  1.
         11    1    3    3    0    0  0.55901256053E+01 -0.97862601262E+01  0.34661114711E+02  0.36447404089E+02  0.51100000000E-03 0. -1.
        -11    1    3    3    0    0  0.46787484862E+01 -0.39681582711E+01  0.64978372608E+01  0.89363782815E+01  0.51100000000E-03 0.  1.
        -12    1    3    3    0    0 -0.97011846878E+01  0.14772673128E+02 -0.40975065175E+02  0.44623993791E+02  0.00000000000E+00 0.  1.
</event>
<event>
 7    1  0.2895479E-015  0.9000750E+02  0.7816164E-02  0.1186340E+00
        -11   -1    0    0    0    0  0.00000000000E+00  0.00000000000E+00  0.45593999997E+02  0.45594000000E+02  0.51100000000E-03 0. -1.
         11   -1    0    0    0    0 -0.00000000000E+00 -0.00000000000E+00 -0.45593999997E+02  0.45594000000E+02  0.51100000000E-03 0.  1.
    9900012    2    1    2    0    0 -0.27220938658E+00  0.59904229618E+00 -0.98011745427E+00  0.90007500171E+02  0.89999758373E+02 0.  0.
        -12    1    1    2    0    0  0.27220938658E+00 -0.59904229618E+00  0.98011745427E+00  0.11804998293E+01  0.00000000000E+00 0.  1.
         11    1    3    3    0    0  0.56201665672E+01 -0.53517927702E+01 -0.57915402802E+01  0.96834857968E+01  0.51100000000E-03 0. -1.
        -11    1    3    3    0    0 -0.12194586713E+02 -0.10986157473E+01 -0.36211459442E+02  0.38225445672E+02  0.51100000000E-03 0.  1.
         12    1    3    3    0    0  0.63022107593E+01  0.70494508137E+01  0.41022882268E+02  0.42098568702E+02  0.00000000000E+00 0. -1.
</event>
<event>
 7    1  0.2895479E-015  0.9000771E+02  0.7816164E-02  0.1186339E+00
        -11   -1    0    0    0    0  0.00000000000E+00  0.00000000000E+00  0.45593999997E+02  0.45594000000E+02  0.51100000000E-03 0. -1.
         11   -1    0    0    0    0 -0.00000000000E+00 -0.00000000000E+00 -0.45593999997E+02  0.45594000000E+02  0.51100000000E-03 0.  1.
    9900012    2    1    2    0    0 -0.27166517151E+00 -0.45842393735E-02  0.11485927184E+01  0.90007708420E+02  0.89999969371E+02 0.  0.
        -12    1    1    2    0    0  0.27166517151E+00  0.45842393735E-02 -0.11485927184E+01  0.11802915798E+01  0.00000000000E+00 0.  1.
         11    1    3    3    0    0 -0.10557533601E+02  0.31251128269E+01 -0.53325559148E+01  0.12233723831E+02  0.51100000000E-03 0. -1.
        -11    1    3    3    0    0  0.20402138435E+02 -0.33332117613E+02 -0.12084998655E+02  0.40906289370E+02  0.51100000000E-03 0.  1.
         12    1    3    3    0    0 -0.10116270005E+02  0.30202420547E+02  0.18566147288E+02  0.36867695220E+02  0.00000000000E+00 0. -1.
</event>
<event>
 7    1  0.2895479E-015  0.9000773E+02  0.7816164E-02  0.1186339E+00
        -11   -1    0    0    0    0  0.00000000000E+00  0.00000000000E+00  0.45593999997E+02  0.45594000000E+02  0.51100000000E-03 0. -1.
         11   -1    0    0    0    0 -0.00000000000E+00 -0.00000000000E+00 -0.45593999997E+02  0.45594000000E+02  0.51100000000E-03 0.  1.
    9900012    2    1    2    0    0  0.70189455266E+00 -0.94728678940E+00  0.55136405267E-01  0.90007725351E+02  0.89999986525E+02 0.  0.
        -12    1    1    2    0    0 -0.70189455266E+00  0.94728678940E+00 -0.55136405267E-01  0.11802746492E+01  0.00000000000E+00 0.  1.
         11    1    3    3    0    0 -0.57202708802E+01 -0.11297212895E+02  0.33961228918E+02  0.36245187102E+02  0.51100000000E-03 0. -1.
        -11    1    3    3    0    0  0.40811515723E+01  0.90900937789E+00  0.89170313773E+01  0.98486316334E+01  0.51100000000E-03 0.  1.
        -12    1    3    3    0    0  0.23410138606E+01  0.94409167280E+01 -0.42823123890E+02  0.43913906616E+02  0.00000000000E+00 0.  1.
</event>
<event>
 7    1  0.2895479E-015  0.9000772E+02  0.7816164E-02  0.1186339E+00
        -11   -1    0    0    0    0  0.00000000000E+00  0.00000000000E+00  0.45593999997E+02  0.45594000000E+02  0.51100000000E-03 0.  1.
         11   -1    0    0    0    0 -0.00000000000E+00 -0.00000000000E+00 -0.45593999997E+02  0.45594000000E+02  0.51100000000E-03 0. -1.
    9900012    2    1    2    0    0  0.87940348419E+00 -0.19221081556E+00  0.76339615123E+00  0.90007716488E+02  0.89999977545E+02 0.  0.
        -12    1    1    2    0    0 -0.87940348419E+00  0.19221081556E+00 -0.76339615123E+00  0.11802835123E+01  0.00000000000E+00 0.  1.
         11    1    3    3    0    0 -0.34365259158E+02 -0.20288080869E+02  0.12975163121E+01  0.39928195692E+02  0.51100000000E-03 0. -1.
        -11    1    3    3    0    0  0.22889741298E+01 -0.56473805163E+01  0.50182112974E+01  0.78939694799E+01  0.51100000000E-03 0.  1.
        -12    1    3    3    0    0  0.32955688512E+02  0.25743250570E+02 -0.55523314582E+01  0.42185551316E+02  0.00000000000E+00 0.  1.
</event>
<event>
 7    1  0.2895479E-015  0.9000766E+02  0.7816164E-02  0.1186339E+00
        -11   -1    0    0    0    0  0.00000000000E+00  0.00000000000E+00  0.45593999997E+02  0.45594000000E+02  0.51100000000E-03 0.  1.
         11   -1    0    0    0    0 -0.00000000000E+00 -0.00000000000E+00 -0.45593999997E+02  0.45594000000E+02  0.51100000000E-03 0. -1.
    9900012    2    1    2    0    0 -0.94764775142E+00  0.51277638226E+00  0.48190638429E+00  0.90007656981E+02  0.89999917253E+02 0.  0.
        -12    1    1    2    0    0  0.94764775142E+00 -0.51277638226E+00 -0.48190638429E+00  0.11803430189E+01  0.00000000000E+00 0.  1.
         11    1    3    3    0    0 -0.29283242348E+01  0.12147682357E+01  0.92178255688E+01  0.97477717027E+01  0.51100000000E-03 0. -1.
        -11    1    3    3    0    0 -0.16296634151E+02  0.13734905652E+02  0.28955057673E+02  0.35953070565E+02  0.51100000000E-03 0.  1.
         12    1    3    3    0    0  0.18277310634E+02 -0.14436897505E+02 -0.37690976858E+02  0.44306814714E+02  0.00000000000E+00 0. -1.
</event>
<event>
 7    1  0.2895479E-015  0.9000772E+02  0.7816164E-02  0.1186339E+00
        -11   -1    0    0    0    0  0.00000000000E+00  0.00000000000E+00  0.45593999997E+02  0.45594000000E+02  0.51100000000E-03 0. -1.
         11   -1    0    0    0    0 -0.00000000000E+00 -0.00000000000E+00 -0.45593999997E+02  0.45594000000E+02  0.51100000000E-03 0.  1.
    9900012    2    1    2    0    0 -0.25311494939E-01  0.11635747889E+01 -0.19624504370E+00  0.90007720763E+02  0.89999981877E+02 0.  0.
        -12    1    1    2    0    0  0.25311494939E-01 -0.11635747889E+01  0.19624504370E+00  0.11802792374E+01  0.00000000000E+00 0.  1.
         11    1    3    3    0    0 -0.18303016545E+02  0.36570578433E+02 -0.58222783054E-01  0.40895122102E+02  0.51100000000E-03 0. -1.
        -11    1    3    3    0    0 -0.57789328589E+01 -0.62241757734E+01  0.65245995619E+01  0.10710127392E+02  0.51100000000E-03 0.  1.
        -12    1    3    3    0    0  0.24056637909E+02 -0.29182827871E+02 -0.66626218226E+01  0.38402471269E+02  0.00000000000E+00 0.  1.
</event>
<event>
 7    1  0.2895479E-015  0.9000776E+02  0.7816164E-02  0.1186339E+00
        -11   -1    0    0    0    0  0.00000000000E+00  0.00000000000E+00  0.45593999997E+02  0.45594000000E+02  0.51100000000E-03 0. -1.
         11   -1    0    0    0    0 -0.00000000000E+00 -0.00000000000E+00 -0.45593999997E+02  0.45594000000E+02  0.51100000000E-03 0.  1.
    9900012    2    1    2    0    0 -0.98812076436E+00 -0.50851279117E+00 -0.39749513166E+00  0.90007758379E+02  0.90000019990E+02 0.  0.
        -12    1    1    2    0    0  0.98812076436E+00  0.50851279117E+00  0.39749513166E+00  0.11802416208E+01  0.00000000000E+00 0.  1.
         11    1    3    3    0    0  0.18851965190E+02  0.31938821612E+02  0.68311296652E+01  0.37711394170E+02  0.51100000000E-03 0. -1.
        -11    1    3    3    0    0  0.77194022541E+01  0.13188337464E+01  0.11433638860E+01  0.79142766471E+01  0.51100000000E-03 0.  1.
        -12    1    3    3    0    0 -0.27559488208E+02 -0.33766168150E+02 -0.83719886829E+01  0.44382087562E+02  0.00000000000E+00 0.  1.
</event>
<event>
 7    1  0.2895479E-015  0.9000810E+02  0.7816164E-02  0.1186338E+00
        -11   -1    0    0    0    0  0.00000000000E+00  0.00000000000E+00  0.45593999997E+02  0.45594000000E+02  0.51100000000E-03 0.  1.
         11   -1    0    0    0    0 -0.00000000000E+00 -0.00000000000E+00 -0.45593999997E+02  0.45594000000E+02  0.51100000000E-03 0. -1.
    9900012    2    1    2    0    0 -0.11126630818E+01  0.27552052791E-01  0.39164487234E+00  0.90008100023E+02  0.90000366143E+02 0.  0.
        -12    1    1    2    0    0  0.11126630818E+01 -0.27552052791E-01 -0.39164487234E+00  0.11798999768E+01  0.00000000000E+00 0.  1.
         11    1    3    3    0    0 -0.11883055272E+02  0.52095486929E+01 -0.21315370287E+02  0.24953785503E+02  0.51100000000E-03 0. -1.
        -11    1    3    3    0    0  0.12386938220E+01 -0.18986584095E+02 -0.15304620342E+02  0.24418356662E+02  0.51100000000E-03 0.  1.
         12    1    3    3    0    0  0.95316983683E+01  0.13804587455E+02  0.37011635501E+02  0.40635957859E+02  0.00000000000E+00 0. -1.
</event>
<event>
 7    1  0.2895479E-015  0.9000780E+02  0.7816164E-02  0.1186339E+00
        -11   -1    0    0    0    0  0.00000000000E+00  0.00000000000E+00  0.45593999997E+02  0.45594000000E+02  0.51100000000E-03 0.  1.
         11   -1    0    0    0    0 -0.00000000000E+00 -0.00000000000E+00 -0.45593999997E+02  0.45594000000E+02  0.51100000000E-03 0. -1.
    9900012    2    1    2    0    0  0.10520811431E+01  0.35859898550E+00 -0.39675398404E+00  0.90007795913E+02  0.90000058019E+02 0.  0.
        -12    1    1    2    0    0 -0.10520811431E+01 -0.35859898550E+00  0.39675398404E+00  0.11802040874E+01  0.00000000000E+00 0.  1.
         11    1    3    3    0    0 -0.12723832976E+02  0.34321644059E+01 -0.35070683416E+01  0.13637272701E+02  0.51100000000E-03 0. -1.
        -11    1    3    3    0    0 -0.11503828303E+02 -0.30478782890E+02  0.16797856707E+02  0.36653270826E+02  0.51100000000E-03 0.  1.
         12    1    3    3    0    0  0.25279742422E+02  0.27405217470E+02 -0.13687542349E+02  0.39717252385E+02  0.00000000000E+00 0. -1.
</event>
<event>
 7    1  0.2895479E-015  0.9000829E+02  0.7816164E-02  0.1186338E+00
        -11   -1    0    0    0    0  0.00000000000E+00  0.00000000000E+00  0.45593999997E+02  0.45594000000E+02  0.51100000000E-03 0.  1.
         11   -1    0    0    0    0 -0.00000000000E+00 -0.00000000000E+00 -0.45593999997E+02  0.45594000000E+02  0.51100000000E-03 0. -1.
    9900012    2    1    2    0    0  0.95094889921E+00 -0.60519030662E+00 -0.34808636424E+00  0.90008286800E+02  0.90000555385E+02 0.  0.
        -12    1    1    2    0    0 -0.95094889921E+00  0.60519030662E+00  0.34808636424E+00  0.11797131995E+01  0.00000000000E+00 0.  1.
         11    1    3    3    0    0  0.99036788382E+01  0.27809489688E+02 -0.27384282253E+02  0.40265984230E+02  0.51100000000E-03 0. -1.
        -11    1    3    3    0    0 -0.53015675095E+01  0.54710001260E+01  0.59321384920E+01  0.96555024616E+01  0.51100000000E-03 0.  1.
        -12    1    3    3    0    0 -0.36511624294E+01 -0.33885680121E+02  0.21104057397E+02  0.40086800109E+02  0.00000000000E+00 0.  1.
</event>
<event>
 7    1  0.2895479E-015  0.9000777E+02  0.7816164E-02  0.1186339E+00
        -11   -1    0    0    0    0  0.00000000000E+00  0.00000000000E+00  0.45593999997E+02  0.45594000000E+02  0.51100000000E-03 0.  1.
         11   -1    0    0    0    0 -0.00000000000E+00 -0.00000000000E+00 -0.45593999997E+02  0.45594000000E+02  0.51100000000E-03 0. -1.
    9900012    2    1    2    0    0 -0.16546474241E+00 -0.11684115890E+01  0.19257775150E-01  0.90007773291E+02  0.90000035099E+02 0.  0.
        -12    1    1    2    0    0  0.16546474241E+00  0.11684115890E+01 -0.19257775150E-01  0.11802267088E+01  0.00000000000E+00 0.  1.
         11    1    3    3    0    0  0.32052357574E+01 -0.61056061579E+01  0.84602638145E+00  0.69474976585E+01  0.51100000000E-03 0. -1.
        -11    1    3    3    0    0  0.18596972387E+02 -0.33482744240E+02 -0.49160738977E+01  0.38614884781E+02  0.51100000000E-03 0.  1.
         12    1    3    3    0    0 -0.21967672887E+02  0.38419938809E+02  0.40893052914E+01  0.44445390852E+02  0.00000000000E+00 0. -1.
</event>
<event>
 7    1  0.2895479E-015  0.9000775E+02  0.7816164E-02  0.1186339E+00
        -11   -1    0    0    0    0  0.00000000000E+00  0.00000000000E+00  0.45593999997E+02  0.45594000000E+02  0.51100000000E-03 0. -1.
         11   -1    0    0    0    0 -0.00000000000E+00 -0.00000000000E+00 -0.45593999997E+02  0.45594000000E+02  0.51100000000E-03 0.  1.
    9900012    2    1    2    0    0 -0.25446822314E+00 -0.89696816513E-01  0.11489906471E+01  0.90007754643E+02  0.90000016204E+02 0.  0.
        -12    1    1    2    0    0  0.25446822314E+00  0.89696816513E-01 -0.11489906471E+01  0.11802453570E+01  0.00000000000E+00 0.  1.
         11    1    3    3    0    0  0.19399160252E+02  0.33028385778E+02  0.91331014646E+01  0.39377852001E+02  0.51100000000E-03 0. -1.
        -11    1    3    3    0    0  0.87211019971E+01 -0.55073837395E+01 -0.42415690403E+00  0.10323216797E+02  0.51100000000E-03 0.  1.
        -12    1    3    3    0    0 -0.28374730472E+02 -0.27610698855E+02 -0.75599539134E+01  0.40306685845E+02  0.00000000000E+00 0.  1.
</event>
<event>
 7    1  0.2895479E-015  0.9000767E+02  0.7816164E-02  0.1186339E+00
        -11   -1    0    0    0    0  0.00000000000E+00  0.00000000000E+00  0.45593999997E+02  0.45594000000E+02  0.51100000000E-03 0.  1.
         11   -1    0    0    0    0 -0.00000000000E+00 -0.00000000000E+00 -0.45593999997E+02  0.45594000000E+02  0.51100000000E-03 0. -1.
    9900012    2    1    2    0    0  0.41816288898E+00 -0.78279506407E+00 -0.77817574215E+00  0.90007667081E+02  0.89999927486E+02 0.  0.
        -12    1    1    2    0    0 -0.41816288898E+00  0.78279506407E+00  0.77817574215E+00  0.11803329190E+01  0.00000000000E+00 0.  1.
         11    1    3    3    0    0 -0.70634674183E+01  0.48114973258E+01  0.13542167539E+00  0.85475971932E+01  0.51100000000E-03 0. -1.
        -11    1    3    3    0    0 -0.25384275952E+02 -0.14330396229E+02  0.25240211358E+02  0.38558915847E+02  0.51100000000E-03 0.  1.
         12    1    3    3    0    0  0.32865906259E+02  0.87361038391E+01 -0.26153808775E+02  0.42901154040E+02  0.00000000000E+00 0. -1.
</event>
<event>
 7    1  0.2895479E-015  0.9000765E+02  0.7816164E-02  0.1186339E+00
        -11   -1    0    0    0    0  0.00000000000E+00  0.00000000000E+00  0.45593999997E+02  0.45594000000E+02  0.51100000000E-03 0.  1.
         11   -1    0    0    0    0 -0.00000000000E+00 -0.00000000000E+00 -0.45593999997E+02  0.45594000000E+02  0.51100000000E-03 0. -1.
    9900012    2    1    2    0    0 -0.62407382587E+00  0.90356625134E+00 -0.43281943008E+00  0.90007647184E+02  0.89999907327E+02 0.  0.
        -12    1    1    2    0    0  0.62407382587E+00 -0.90356625134E+00  0.43281943008E+00  0.11803528158E+01  0.00000000000E+00 0.  1.
         11    1    3    3    0    0 -0.16534075924E+02 -0.20120056135E+02 -0.27547931628E+02  0.37908849400E+02  0.51100000000E-03 0. -1.
        -11    1    3    3    0    0  0.20473829492E+01 -0.95324007771E+01  0.14544593602E+01  0.98576819693E+01  0.51100000000E-03 0.  1.
        -12    1    3    3    0    0  0.13862619148E+02  0.30556023164E+02  0.25660652838E+02  0.42241115815E+02  0.00000000000E+00 0.  1.
</event>
<event>
 7    1  0.2895479E-015  0.9000765E+02  0.7816164E-02  0.1186339E+00
        -11   -1    0    0    0    0  0.00000000000E+00  0.00000000000E+00  0.45593999997E+02  0.45594000000E+02  0.51100000000E-03 0. -1.
         11   -1    0    0    0    0 -0.00000000000E+00 -0.00000000000E+00 -0.45593999997E+02  0.45594000000E+02  0.51100000000E-03 0.  1.
    9900012    2    1    2    0    0 -0.78279166865E+00  0.87504145137E+00 -0.12155105430E+00  0.90007646241E+02  0.89999906371E+02 0.  0.
        -12    1    1    2    0    0  0.78279166865E+00 -0.87504145137E+00  0.12155105430E+00  0.11803537592E+01  0.00000000000E+00 0.  1.
         11    1    3    3    0    0 -0.10951597918E+02  0.33205308059E+01  0.24792970870E+02  0.27306680988E+02  0.51100000000E-03 0. -1.
        -11    1    3    3    0    0 -0.52306222342E-01  0.26673871946E+02 -0.11208311840E+02  0.28933102756E+02  0.51100000000E-03 0.  1.
         12    1    3    3    0    0  0.10221112471E+02 -0.29119361300E+02 -0.13706210084E+02  0.33767862496E+02  0.00000000000E+00 0. -1.
</event>
<event>
 7    1  0.2895479E-015  0.9000774E+02  0.7816164E-02  0.1186339E+00
        -11   -1    0    0    0    0  0.00000000000E+00  0.00000000000E+00  0.45593999997E+02  0.45594000000E+02  0.51100000000E-03 0.  1.
         11   -1    0    0    0    0 -0.00000000000E+00 -0.00000000000E+00 -0.45593999997E+02  0.45594000000E+02  0.51100000000E-03 0. -1.
    9900012    2    1    2    0    0 -0.21818309649E+00  0.11578754607E+01  0.68863001536E-01  0.90007736657E+02  0.89999997981E+02 0.  0.
        -12    1    1    2    0    0  0.21818309649E+00 -0.11578754607E+01 -0.68863001536E-01  0.11802633431E+01  0.00000000000E+00 0.  1.
         11    1    3    3    0    0 -0.20519147879E+02 -0.25971176981E+02 -0.66206207511E+01  0.33754556475E+02  0.51100000000E-03 0. -1.
        -11    1    3    3    0    0 -0.93244280352E+01 -0.56419183602E+01  0.51383929184E+01  0.12049036601E+02  0.51100000000E-03 0.  1.
        -12    1    3    3    0    0  0.29625392818E+02  0.32770970802E+02  0.15510908342E+01  0.44204143580E+02  0.00000000000E+00 0.  1.
</event>
<event>
 7    1  0.2895479E-015  0.9000769E+02  0.7816164E-02  0.1186339E+00
        -11   -1    0    0    0    0  0.00000000000E+00  0.00000000000E+00  0.45593999997E+02  0.45594000000E+02  0.51100000000E-03 0.  1.
         11   -1    0    0    0    0 -0.00000000000E+00 -0.00000000000E+00 -0.45593999997E+02  0.45594000000E+02  0.51100000000E-03 0. -1.
    9900012    2    1    2    0    0 -0.32408049052E+00 -0.11348122224E+01  0.17388716842E-01  0.90007691010E+02  0.89999951731E+02 0.  0.
        -12    1    1    2    0    0  0.32408049052E+00  0.11348122224E+01 -0.17388716842E-01  0.11803089901E+01  0.00000000000E+00 0.  1.
         11    1    3    3    0    0 -0.34410471495E+02  0.57604931003E+01 -0.20041444121E+02  0.40235846107E+02  0.51100000000E-03 0. -1.
        -11    1    3    3    0    0 -0.10059763562E+00 -0.90012059950E+01 -0.17445091207E+01  0.91692497829E+01  0.51100000000E-03 0.  1.
        -12    1    3    3    0    0  0.34186988640E+02  0.21059006722E+01  0.21803341959E+02  0.40602595120E+02  0.00000000000E+00 0.  1.
</event>
<event>
 7    1  0.2895479E-015  0.9000785E+02  0.7816164E-02  0.1186339E+00
        -11   -1    0    0    0    0  0.00000000000E+00  0.00000000000E+00  0.45593999997E+02  0.45594000000E+02  0.51100000000E-03 0. -1.
         11   -1    0    0    0    0 -0.00000000000E+00 -0.00000000000E+00 -0.45593999997E+02  0.45594000000E+02  0.51100000000E-03 0.  1.
    9900012    2    1    2    0    0  0.69672865921E+00 -0.95239852815E+00  0.16118606910E-01  0.90007850183E+02  0.90000113005E+02 0.  0.
        -12    1    1    2    0    0 -0.69672865921E+00  0.95239852815E+00 -0.16118606910E-01  0.11801498170E+01  0.00000000000E+00 0.  1.
         11    1    3    3    0    0  0.65157236946E+01  0.17925377363E+01 -0.39811298604E+01  0.78432928051E+01  0.51100000000E-03 0. -1.
        -11    1    3    3    0    0  0.92679080914E+01 -0.33023158022E+02  0.24913036643E+02  0.42392009638E+02  0.51100000000E-03 0.  1.
         12    1    3    3    0    0 -0.15086903127E+02  0.30278221757E+02 -0.20915788175E+02  0.39772547740E+02  0.00000000000E+00 0. -1.
</event>
<event>
 7    1  0.2895479E-015  0.9000784E+02  0.7816164E-02  0.1186339E+00
        -11   -1    0    0    0    0  0.00000000000E+00  0.00000000000E+00  0.45593999997E+02  0.45594000000E+02  0.51100000000E-03 0.  1.
         11   -1    0    0    0    0 -0.00000000000E+00 -0.00000000000E+00 -0.45593999997E+02  0.45594000000E+02  0.51100000000E-03 0. -1.
    9900012    2    1    2    0    0 -0.10097418969E+01  0.60507478617E+00 -0.84137389182E-01  0.90007841835E+02  0.90000104547E+02 0.  0.
        -12    1    1    2    0    0  0.10097418969E+01 -0.60507478617E+00  0.84137389182E-01  0.11801581654E+01  0.00000000000E+00 0.  1.
         11    1    3    3    0    0 -0.33959896323E+02 -0.12702854641E+02 -0.38406686250E+01  0.36460770837E+02  0.51100000000E-03 0. -1.
        -11    1    3    3    0    0 -0.44971754506E+00 -0.89354918474E+01 -0.77117261798E+01  0.11811688337E+02  0.51100000000E-03 0.  1.
        -12    1    3    3    0    0  0.33399871971E+02  0.22243421275E+02  0.11468257416E+02  0.41735382661E+02  0.00000000000E+00 0.  1.
</event>
<event>
 7    1  0.2895479E-015  0.9000781E+02  0.7816164E-02  0.1186339E+00
        -11   -1    0    0    0    0  0.00000000000E+00  0.00000000000E+00  0.45593999997E+02  0.45594000000E+02  0.51100000000E-03 0. -1.
         11   -1    0    0    0    0 -0.00000000000E+00 -0.00000000000E+00 -0.45593999997E+02  0.45594000000E+02  0.51100000000E-03 0.  1.
    9900012    2    1    2    0    0  0.34301567781E+00  0.20121711197E+00  0.11111718974E+01  0.90007808885E+02  0.90000071163E+02 0.  0.
        -12    1    1    2    0    0 -0.34301567781E+00 -0.20121711197E+00 -0.11111718974E+01  0.11801911146E+01  0.00000000000E+00 0.  1.
         11    1    3    3    0    0  0.75351972716E+01  0.81861435504E+01 -0.58145839138E+01  0.12553944818E+02  0.51100000000E-03 0. -1.
        -11    1    3    3    0    0  0.15465892116E+02  0.29165434898E+02  0.78356978466E+01  0.33929553088E+02  0.51100000000E-03 0.  1.
         12    1    3    3    0    0 -0.22658073710E+02 -0.37150361337E+02 -0.90994203543E+00  0.43524310979E+02  0.00000000000E+00 0. -1.
</event>
<event>
 7    1  0.2895479E-015  0.9000790E+02  0.7816164E-02  0.1186339E+00
        -11   -1    0    0    0    0  0.00000000000E+00  0.00000000000E+00  0.45593999997E+02  0.45594000000E+02  0.51100000000E-03 0. -1.
         11   -1    0    0    0    0 -0.00000000000E+00 -0.00000000000E+00 -0.45593999997E+02  0.45594000000E+02  0.51100000000E-03 0.  1.
    9900012    2    1    2    0    0 -0.69356038799E+00 -0.76347072443E+00  0.57334342535E+00  0.90007899902E+02  0.90000163380E+02 0.  0.
        -12    1    1    2    0    0  0.69356038799E+00  0.76347072443E+00 -0.57334342535E+00  0.11801000984E+01  0.00000000000E+00 0.  1.
         11    1    3    3    0    0 -0.64350302071E+01 -0.35732647942E+02 -0.37891960146E+01  0.36504653805E+02  0.51100000000E-03 0. -1.
        -11    1    3    3    0    0  0.60038496103E+00 -0.70501419708E+01  0.83948215993E+01  0.10978979636E+02  0.51100000000E-03 0.  1.
        -12    1    3    3    0    0  0.51410848581E+01  0.42019319188E+02 -0.40322821593E+01  0.42524266460E+02  0.00000000000E+00 0.  1.
</event>
<event>
 7    1  0.2895479E-015  0.9000770E+02  0.7816164E-02  0.1186339E+00
        -11   -1    0    0    0    0  0.00000000000E+00  0.00000000000E+00  0.45593999997E+02  0.45594000000E+02  0.51100000000E-03 0.  1.
         11   -1    0    0    0    0 -0.00000000000E+00 -0.00000000000E+00 -0.45593999997E+02  0.45594000000E+02  0.51100000000E-03 0. -1.
    9900012    2    1    2    0    0  0.10316188866E+01 -0.11898934392E+00 -0.56098863676E+00  0.90007701630E+02  0.89999962492E+02 0.  0.
        -12    1    1    2    0    0 -0.10316188866E+01  0.11898934392E+00  0.56098863676E+00  0.11802983698E+01  0.00000000000E+00 0.  1.
         11    1    3    3    0    0  0.13206518538E+02 -0.29174344635E+02 -0.22107551299E+02  0.38913986451E+02  0.51100000000E-03 0. -1.
        -11    1    3    3    0    0 -0.14035110843E+02 -0.28790778591E+01  0.72135510818E+01  0.16040846149E+02  0.51100000000E-03 0.  1.
        -12    1    3    3    0    0  0.18602111912E+01  0.31934433150E+02  0.14333011581E+02  0.35052869031E+02  0.00000000000E+00 0.  1.
</event>
<event>
 7    1  0.2895479E-015  0.9000779E+02  0.7816164E-02  0.1186339E+00
        -11   -1    0    0    0    0  0.00000000000E+00  0.00000000000E+00  0.45593999997E+02  0.45594000000E+02  0.51100000000E-03 0.  1.
         11   -1    0    0    0    0 -0.00000000000E+00 -0.00000000000E+00 -0.45593999997E+02  0.45594000000E+02  0.51100000000E-03 0. -1.
    9900012    2    1    2    0    0 -0.42375796528E+00  0.47778400501E+00 -0.99249696455E+00  0.90007788751E+02  0.90000050762E+02 0.  0.
        -12    1    1    2    0    0  0.42375796528E+00 -0.47778400501E+00  0.99249696455E+00  0.11802112494E+01  0.00000000000E+00 0.  1.
         11    1    3    3    0    0  0.23827879839E+01 -0.43030289956E+01  0.66581260764E+01  0.82779454107E+01  0.51100000000E-03 0. -1.
        -11    1    3    3    0    0 -0.26444254322E+02 -0.22380946575E+02  0.16501130158E+02  0.38373071978E+02  0.51100000000E-03 0.  1.
         12    1    3    3    0    0  0.23637708373E+02  0.27161759576E+02 -0.24151753199E+02  0.43356771362E+02  0.00000000000E+00 0. -1.
</event>
<event>
 7    1  0.2895479E-015  0.9000774E+02  0.7816164E-02  0.1186339E+00
        -11   -1    0    0    0    0  0.00000000000E+00  0.00000000000E+00  0.45593999997E+02  0.45594000000E+02  0.51100000000E-03 0. -1.
         11   -1    0    0    0    0 -0.00000000000E+00 -0.00000000000E+00 -0.45593999997E+02  0.45594000000E+02  0.51100000000E-03 0.  1.
    9900012    2    1    2    0    0 -0.20442921120E-01 -0.11333443322E+01 -0.32881978120E+00  0.90007741665E+02  0.90000003055E+02 0.  0.
        -12    1    1    2    0    0  0.20442921120E-01  0.11333443322E+01  0.32881978120E+00  0.11802583348E+01  0.00000000000E+00 0.  1.
         11    1    3    3    0    0 -0.27285763299E+01  0.20284799450E+02  0.19711472962E+02  0.28415847412E+02  0.51100000000E-03 0. -1.
        -11    1    3    3    0    0  0.74082661659E+01  0.97830502624E+01  0.11614971568E+02  0.16896687392E+02  0.51100000000E-03 0.  1.
        -12    1    3    3    0    0 -0.47001327571E+01 -0.31201194045E+02 -0.31655264312E+02  0.44695206862E+02  0.00000000000E+00 0.  1.
</event>
<event>
 7    1  0.2895479E-015  0.9000769E+02  0.7816164E-02  0.1186339E+00
        -11   -1    0    0    0    0  0.00000000000E+00  0.00000000000E+00  0.45593999997E+02  0.45594000000E+02  0.51100000000E-03 0.  1.
         11   -1    0    0    0    0 -0.00000000000E+00 -0.00000000000E+00 -0.45593999997E+02  0.45594000000E+02  0.51100000000E-03 0. -1.
    9900012    2    1    2    0    0 -0.96578436232E+00  0.18430842833E-01 -0.67826772560E+00  0.90007692312E+02  0.89999953051E+02 0.  0.
        -12    1    1    2    0    0  0.96578436232E+00 -0.18430842833E-01  0.67826772560E+00  0.11803076879E+01  0.00000000000E+00 0.  1.
         11    1    3    3    0    0 -0.24529327934E+02  0.21584957109E+02 -0.37325036164E+01  0.32886621684E+02  0.51100000000E-03 0. -1.
        -11    1    3    3    0    0  0.30792584367E+01  0.82229977607E+01  0.16384520358E+02  0.18589029892E+02  0.51100000000E-03 0.  1.
        -12    1    3    3    0    0  0.20484285135E+02 -0.29789524027E+02 -0.13330284468E+02  0.38532040736E+02  0.00000000000E+00 0.  1.
</event>
<event>
 7    1  0.2895479E-015  0.9000764E+02  0.7816164E-02  0.1186339E+00
        -11   -1    0    0    0    0  0.00000000000E+00  0.00000000000E+00  0.45593999997E+02  0.45594000000E+02  0.51100000000E-03 0. -1.
         11   -1    0    0    0    0 -0.00000000000E+00 -0.00000000000E+00 -0.45593999997E+02  0.45594000000E+02  0.51100000000E-03 0.  1.
    9900012    2    1    2    0    0 -0.17158322675E+00  0.18489848374E+00  0.11530919660E+01  0.90007640167E+02  0.89999900217E+02 0.  0.
        -12    1    1    2    0    0  0.17158322675E+00 -0.18489848374E+00 -0.11530919660E+01  0.11803598329E+01  0.00000000000E+00 0.  1.
         11    1    3    3    0    0 -0.17627609514E+01 -0.24813136390E+02  0.24865475724E+02  0.35172303691E+02  0.51100000000E-03 0. -1.
        -11    1    3    3    0    0 -0.64698082000E+01 -0.34369076533E+01  0.84310238014E+01  0.11169284443E+02  0.51100000000E-03 0.  1.
        -12    1    3    3    0    0  0.80609859247E+01  0.28434942527E+02 -0.32143407560E+02  0.43666052033E+02  0.00000000000E+00 0.  1.
</event>
<event>
 7    1  0.2895479E-015  0.9000774E+02  0.7816164E-02  0.1186339E+00
        -11   -1    0    0    0    0  0.00000000000E+00  0.00000000000E+00  0.45593999997E+02  0.45594000000E+02  0.51100000000E-03 0.  1.
         11   -1    0    0    0    0 -0.00000000000E+00 -0.00000000000E+00 -0.45593999997E+02  0.45594000000E+02  0.51100000000E-03 0. -1.
    9900012    2    1    2    0    0  0.30710179851E+00  0.28641911770E+00 -0.11030298221E+01  0.90007736379E+02  0.89999997700E+02 0.  0.
        -12    1    1    2    0    0 -0.30710179851E+00 -0.28641911770E+00  0.11030298221E+01  0.11802636206E+01  0.00000000000E+00 0.  1.
         11    1    3    3    0    0 -0.42762628940E+01 -0.82445764966E+01  0.56987402705E+01  0.10896563994E+02  0.51100000000E-03 0. -1.
        -11    1    3    3    0    0  0.27817714732E+02 -0.21039824021E+02  0.12233177446E+02  0.36961467482E+02  0.51100000000E-03 0.  1.
         12    1    3    3    0    0 -0.23234350040E+02  0.29570819635E+02 -0.19034947538E+02  0.42149704903E+02  0.00000000000E+00 0. -1.
</event>
<event>
 7    1  0.2895479E-015  0.9000769E+02  0.7816164E-02  0.1186339E+00
        -11   -1    0    0    0    0  0.00000000000E+00  0.00000000000E+00  0.45593999997E+02  0.45594000000E+02  0.51100000000E-03 0.  1.
         11   -1    0    0    0    0 -0.00000000000E+00 -0.00000000000E+00 -0.45593999997E+02  0.45594000000E+02  0.51100000000E-03 0. -1.
    9900012    2    1    2    0    0 -0.55282318371E+00  0.28497695144E+00 -0.10031473328E+01  0.90007690758E+02  0.89999951476E+02 0.  0.
        -12    1    1    2    0    0  0.55282318371E+00 -0.28497695144E+00  0.10031473328E+01  0.11803092420E+01  0.00000000000E+00 0.  1.
         11    1    3    3    0    0  0.45696164254E+01  0.59696784796E+01  0.62641132074E+01  0.97855796946E+01  0.51100000000E-03 0. -1.
        -11    1    3    3    0    0 -0.89754529395E+01 -0.20544148622E+02  0.31421237027E+02  0.38599416248E+02  0.51100000000E-03 0.  1.
         12    1    3    3    0    0  0.38530133305E+01  0.14859447094E+02 -0.38688497568E+02  0.41622694816E+02  0.00000000000E+00 0. -1.
</event>
<event>
 7    1  0.2895479E-015  0.9000779E+02  0.7816164E-02  0.1186339E+00
        -11   -1    0    0    0    0  0.00000000000E+00  0.00000000000E+00  0.45593999997E+02  0.45594000000E+02  0.51100000000E-03 0.  1.
         11   -1    0    0    0    0 -0.00000000000E+00 -0.00000000000E+00 -0.45593999997E+02  0.45594000000E+02  0.51100000000E-03 0. -1.
    9900012    2    1    2    0    0 -0.59459967187E-02  0.51595210515E-01 -0.11790652685E+01  0.90007791405E+02  0.90000053451E+02 0.  0.
        -12    1    1    2    0    0  0.59459967187E-02 -0.51595210515E-01  0.11790652685E+01  0.11802085951E+01  0.00000000000E+00 0.  1.
         11    1    3    3    0    0  0.42019606251E+01 -0.71294083449E+00  0.82052785043E+01  0.92461534339E+01  0.51100000000E-03 0. -1.
        -11    1    3    3    0    0 -0.82690684346E+01 -0.11940525287E+02  0.33146111899E+02  0.36188649756E+02  0.51100000000E-03 0.  1.
         12    1    3    3    0    0  0.40611618128E+01  0.12705061332E+02 -0.42530455672E+02  0.44572988215E+02  0.00000000000E+00 0. -1.
</event>
<event>
 7    1  0.2895479E-015  0.9000770E+02  0.7816164E-02  0.1186339E+00
        -11   -1    0    0    0    0  0.00000000000E+00  0.00000000000E+00  0.45593999997E+02  0.45594000000E+02  0.51100000000E-03 0. -1.
         11   -1    0    0    0    0 -0.00000000000E+00 -0.00000000000E+00 -0.45593999997E+02  0.45594000000E+02  0.51100000000E-03 0.  1.
    9900012    2    1    2    0    0  0.98014256829E+00  0.59236659783E+00  0.28551776788E+00  0.90007704259E+02  0.89999965155E+02 0.  0.
        -12    1    1    2    0    0 -0.98014256829E+00 -0.59236659783E+00 -0.28551776788E+00  0.11802957410E+01  0.00000000000E+00 0.  1.
         11    1    3    3    0    0 -0.73989862481E+01 -0.71714733369E+00 -0.47111232548E+01  0.88007943040E+01  0.51100000000E-03 0. -1.
        -11    1    3    3    0    0 -0.36380893108E+01  0.22695194261E+02 -0.30418290985E+02  0.38125843769E+02  0.51100000000E-03 0.  1.
         12    1    3    3    0    0  0.12017218127E+02 -0.21385680329E+02  0.35414932007E+02  0.43081066186E+02  0.00000000000E+00 0. -1.
</event>
<event>
 7    1  0.2998126E-015  0.9000777E+02  0.7816164E-02  0.1186339E+00
        -11   -1    0    0    0    0  0.00000000000E+00  0.00000000000E+00  0.45593999997E+02  0.45594000000E+02  0.51100000000E-03 0.  1.
         11   -1    0    0    0    0 -0.00000000000E+00 -0.00000000000E+00 -0.45593999997E+02  0.45594000000E+02  0.51100000000E-03 0. -1.
    9900012    2    1    2    0    0 -0.83731789302E+00  0.82283851239E+00 -0.12157100374E+00  0.90007769522E+02  0.90000031280E+02 0.  0.
        -12    1    1    2    0    0  0.83731789302E+00 -0.82283851239E+00  0.12157100374E+00  0.11802304777E+01  0.00000000000E+00 0.  1.
         11    1    3    3    0    0 -0.40299931480E+01  0.61400026854E+01 -0.63415695379E+01  0.97034005490E+01  0.51100000000E-03 0. -1.
        -11    1    3    3    0    0 -0.29647030765E+02 -0.13730624194E+02 -0.19232494335E+02  0.37912600973E+02  0.51100000000E-03 0.  1.
         12    1    3    3    0    0  0.32839706020E+02  0.84134600206E+01  0.25452492869E+02  0.42391768001E+02  0.00000000000E+00 0. -1.
</event>
<event>
 7    1  0.2895479E-015  0.9000737E+02  0.7816164E-02  0.1186340E+00
        -11   -1    0    0    0    0  0.00000000000E+00  0.00000000000E+00  0.45593999997E+02  0.45594000000E+02  0.51100000000E-03 0. -1.
         11   -1    0    0    0    0 -0.00000000000E+00 -0.00000000000E+00 -0.45593999997E+02  0.45594000000E+02  0.51100000000E-03 0.  1.
    9900012    2    1    2    0    0 -0.62794969742E-01  0.32685654223E+00  0.11327484234E+01  0.90007365680E+02  0.89999622106E+02 0.  0.
        -12    1    1    2    0    0  0.62794969742E-01 -0.32685654223E+00 -0.11327484234E+01  0.11806343203E+01  0.00000000000E+00 0.  1.
         11    1    3    3    0    0 -0.21893617972E+00 -0.13956758280E+02  0.75581344990E+01  0.15873387543E+02  0.51100000000E-03 0. -1.
        -11    1    3    3    0    0 -0.20165267615E+02  0.34159621001E+02 -0.17849600851E+02  0.43498574410E+02  0.51100000000E-03 0.  1.
         12    1    3    3    0    0  0.20321408825E+02 -0.19876006179E+02  0.11424214775E+02  0.30635403726E+02  0.00000000000E+00 0. -1.
</event>
<event>
 7    1  0.2895479E-015  0.9000779E+02  0.7816164E-02  0.1186339E+00
        -11   -1    0    0    0    0  0.00000000000E+00  0.00000000000E+00  0.45593999997E+02  0.45594000000E+02  0.51100000000E-03 0.  1.
         11   -1    0    0    0    0 -0.00000000000E+00 -0.00000000000E+00 -0.45593999997E+02  0.45594000000E+02  0.51100000000E-03 0. -1.
    9900012    2    1    2    0    0  0.65399974359E+00  0.58551751998E+00 -0.78888559278E+00  0.90007793701E+02  0.90000055777E+02 0.  0.
        -12    1    1    2    0    0 -0.65399974359E+00 -0.58551751998E+00  0.78888559278E+00  0.11802062995E+01  0.00000000000E+00 0.  1.
         11    1    3    3    0    0 -0.29417978286E+02  0.19904922062E+02 -0.76327079944E+01  0.36330174791E+02  0.51100000000E-03 0. -1.
        -11    1    3    3    0    0 -0.27285778342E+01  0.86450970238E+01 -0.28400663738E+01  0.94999377270E+01  0.51100000000E-03 0.  1.
        -12    1    3    3    0    0  0.32800555864E+02 -0.27964501566E+02  0.96838887755E+01  0.44177681182E+02  0.00000000000E+00 0.  1.
</event>
<event>
 7    1  0.2895479E-015  0.9000796E+02  0.7816164E-02  0.1186339E+00
        -11   -1    0    0    0    0  0.00000000000E+00  0.00000000000E+00  0.45593999997E+02  0.45594000000E+02  0.51100000000E-03 0. -1.
         11   -1    0    0    0    0 -0.00000000000E+00 -0.00000000000E+00 -0.45593999997E+02  0.45594000000E+02  0.51100000000E-03 0.  1.
    9900012    2    1    2    0    0 -0.10394898910E+00  0.11215495881E+01  0.35186462844E+00  0.90007962887E+02  0.90000227197E+02 0.  0.
        -12    1    1    2    0    0  0.10394898910E+00 -0.11215495881E+01 -0.35186462844E+00  0.11800371128E+01  0.00000000000E+00 0.  1.
         11    1    3    3    0    0  0.32874216403E+01  0.71496639689E+01  0.36944854818E+02  0.37773630137E+02  0.51100000000E-03 0. -1.
        -11    1    3    3    0    0  0.22176171091E+01  0.94947760902E+01  0.22705278710E+01  0.10011188527E+02  0.51100000000E-03 0.  1.
        -12    1    3    3    0    0 -0.56089877385E+01 -0.15522890471E+02 -0.38863518061E+02  0.42223144223E+02  0.00000000000E+00 0.  1.
</event>
<event>
 7    1  0.2895479E-015  0.9000783E+02  0.7816164E-02  0.1186339E+00
        -11   -1    0    0    0    0  0.00000000000E+00  0.00000000000E+00  0.45593999997E+02  0.45594000000E+02  0.51100000000E-03 0.  1.
         11   -1    0    0    0    0 -0.00000000000E+00 -0.00000000000E+00 -0.45593999997E+02  0.45594000000E+02  0.51100000000E-03 0. -1.
    9900012    2    1    2    0    0  0.88400652395E-01  0.74459863637E+00 -0.91135257644E+00  0.90007828265E+02  0.90000090798E+02 0.  0.
        -12    1    1    2    0    0 -0.88400652395E-01 -0.74459863637E+00  0.91135257644E+00  0.11801717346E+01  0.00000000000E+00 0.  1.
         11    1    3    3    0    0 -0.35271592801E+02 -0.83834950738E+01  0.13665180613E+02  0.38744101613E+02  0.51100000000E-03 0. -1.
        -11    1    3    3    0    0 -0.49339850897E+01  0.34171743106E+01 -0.80592270958E+01  0.10048503907E+02  0.51100000000E-03 0.  1.
        -12    1    3    3    0    0  0.40293978543E+02  0.57109193996E+01 -0.65173060938E+01  0.41215222745E+02  0.00000000000E+00 0.  1.
</event>
<event>
 7    1  0.2895479E-015  0.9000780E+02  0.7816164E-02  0.1186339E+00
        -11   -1    0    0    0    0  0.00000000000E+00  0.00000000000E+00  0.45593999997E+02  0.45594000000E+02  0.51100000000E-03 0. -1.
         11   -1    0    0    0    0 -0.00000000000E+00 -0.00000000000E+00 -0.45593999997E+02  0.45594000000E+02  0.51100000000E-03 0.  1.
    9900012    2    1    2    0    0 -0.63393367950E+00 -0.14980553109E+00  0.98415139583E+00  0.90007801891E+02  0.90000064076E+02 0.  0.
        -12    1    1    2    0    0  0.63393367950E+00  0.14980553109E+00 -0.98415139583E+00  0.11801981092E+01  0.00000000000E+00 0.  1.
         11    1    3    3    0    0 -0.39052230463E+02  0.20040350954E+00  0.11292488671E+02  0.40652640336E+02  0.51100000000E-03 0. -1.
        -11    1    3    3    0    0 -0.10346993336E+01 -0.74762499546E+01  0.12055522001E+01  0.76431847068E+01  0.51100000000E-03 0.  1.
        -12    1    3    3    0    0  0.39452996117E+02  0.71260409140E+01 -0.11513889475E+02  0.41711976848E+02  0.00000000000E+00 0.  1.
</event>
<event>
 7    1  0.2895479E-015  0.9000784E+02  0.7816164E-02  0.1186339E+00
        -11   -1    0    0    0    0  0.00000000000E+00  0.00000000000E+00  0.45593999997E+02  0.45594000000E+02  0.51100000000E-03 0. -1.
         11   -1    0    0    0    0 -0.00000000000E+00 -0.00000000000E+00 -0.45593999997E+02  0.45594000000E+02  0.51100000000E-03 0.  1.
    9900012    2    1    2    0    0 -0.26732681567E+00  0.11472297240E+01  0.71935687925E-01  0.90007841363E+02  0.90000104069E+02 0.  0.
        -12    1    1    2    0    0  0.26732681567E+00 -0.11472297240E+01 -0.71935687925E-01  0.11801586373E+01  0.00000000000E+00 0.  1.
         11    1    3    3    0    0  0.28799608343E+01 -0.86974273999E+01  0.39928015183E+01  0.99940923554E+01  0.51100000000E-03 0. -1.
        -11    1    3    3    0    0  0.27362611000E+02 -0.21417140284E+02 -0.93799721951E+01  0.35991530355E+02  0.51100000000E-03 0.  1.
         12    1    3    3    0    0 -0.30509898649E+02  0.31261797408E+02  0.54591063647E+01  0.44022218652E+02  0.00000000000E+00 0. -1.
</event>
<event>
 7    1  0.2895479E-015  0.9000734E+02  0.7816164E-02  0.1186340E+00
        -11   -1    0    0    0    0  0.00000000000E+00  0.00000000000E+00  0.45593999997E+02  0.45594000000E+02  0.51100000000E-03 0.  1.
         11   -1    0    0    0    0 -0.00000000000E+00 -0.00000000000E+00 -0.45593999997E+02  0.45594000000E+02  0.51100000000E-03 0. -1.
    9900012    2    1    2    0    0 -0.55888273637E+00 -0.48868694622E+00 -0.91803461960E+00  0.90007342384E+02  0.89999598502E+02 0.  0.
        -12    1    1    2    0    0  0.55888273637E+00  0.48868694622E+00  0.91803461960E+00  0.11806576164E+01  0.00000000000E+00 0.  1.
         11    1    3    3    0    0  0.42393330382E+01 -0.50910660797E+01 -0.64862395242E+01  0.92715803325E+01  0.51100000000E-03 0. -1.
        -11    1    3    3    0    0  0.34372644055E+02  0.29012222231E+00 -0.13534328563E+02  0.36942399491E+02  0.51100000000E-03 0.  1.
         12    1    3    3    0    0 -0.39170859829E+02  0.43122569111E+01  0.19102533468E+02  0.43793362560E+02  0.00000000000E+00 0. -1.
</event>
<event>
 7    1  0.2895479E-015  0.9000785E+02  0.7816164E-02  0.1186339E+00
        -11   -1    0    0    0    0  0.00000000000E+00  0.00000000000E+00  0.45593999997E+02  0.45594000000E+02  0.51100000000E-03 0.  1.
         11   -1    0    0    0    0 -0.00000000000E+00 -0.00000000000E+00 -0.45593999997E+02  0.45594000000E+02  0.51100000000E-03 0. -1.
    9900012    2    1    2    0    0  0.75280440892E+00  0.28717549904E+00 -0.86230399968E+00  0.90007850673E+02  0.90000113502E+02 0.  0.
        -12    1    1    2    0    0 -0.75280440892E+00 -0.28717549904E+00  0.86230399968E+00  0.11801493267E+01  0.00000000000E+00 0.  1.
         11    1    3    3    0    0  0.17206167663E+02 -0.27761896949E+01 -0.33199821365E+02  0.37496500821E+02  0.51100000000E-03 0. -1.
        -11    1    3    3    0    0  0.78332926308E+01 -0.56386929354E+01 -0.17014006171E+01  0.98005150773E+01  0.51100000000E-03 0.  1.
        -12    1    3    3    0    0 -0.24286655885E+02  0.87020581294E+01  0.34038917982E+02  0.42710834775E+02  0.00000000000E+00 0.  1.
</event>
<event>
 7    1  0.2895479E-015  0.9000782E+02  0.7816164E-02  0.1186339E+00
        -11   -1    0    0    0    0  0.00000000000E+00  0.00000000000E+00  0.45593999997E+02  0.45594000000E+02  0.51100000000E-03 0.  1.
         11   -1    0    0    0    0 -0.00000000000E+00 -0.00000000000E+00 -0.45593999997E+02  0.45594000000E+02  0.51100000000E-03 0. -1.
    9900012    2    1    2    0    0  0.25447801981E+00 -0.63653723951E-01 -0.11506551272E+01  0.90007822860E+02  0.90000085322E+02 0.  0.
        -12    1    1    2    0    0 -0.25447801981E+00  0.63653723951E-01  0.11506551272E+01  0.11801771396E+01  0.00000000000E+00 0.  1.
         11    1    3    3    0    0  0.52575965722E+01  0.15328050090E+01 -0.92997093773E+00  0.55548770570E+01  0.51100000000E-03 0. -1.
        -11    1    3    3    0    0 -0.25208080237E+02 -0.71528971617E+01 -0.35076370953E+02  0.43783136554E+02  0.51100000000E-03 0.  1.
         12    1    3    3    0    0  0.20204961684E+02  0.55564384287E+01  0.34855686763E+02  0.40669809250E+02  0.00000000000E+00 0. -1.
</event>
<event>
 7    1  0.2895479E-015  0.9000788E+02  0.7816164E-02  0.1186339E+00
        -11   -1    0    0    0    0  0.00000000000E+00  0.00000000000E+00  0.45593999997E+02  0.45594000000E+02  0.51100000000E-03 0. -1.
         11   -1    0    0    0    0 -0.00000000000E+00 -0.00000000000E+00 -0.45593999997E+02  0.45594000000E+02  0.51100000000E-03 0.  1.
    9900012    2    1    2    0    0 -0.65118803886E+00  0.10795159517E+00  0.97826009252E+00  0.90007876186E+02  0.90000139351E+02 0.  0.
        -12    1    1    2    0    0  0.65118803886E+00 -0.10795159517E+00 -0.97826009252E+00  0.11801238145E+01  0.00000000000E+00 0.  1.
         11    1    3    3    0    0 -0.69214454924E+00  0.67620260382E+01 -0.80653634980E+01  0.10547708227E+02  0.51100000000E-03 0. -1.
        -11    1    3    3    0    0  0.22152796654E+02  0.22866797274E+02 -0.15242945601E+02  0.35298501498E+02  0.51100000000E-03 0.  1.
         12    1    3    3    0    0 -0.22111840144E+02 -0.29520871717E+02  0.24286569192E+02  0.44161666461E+02  0.00000000000E+00 0. -1.
</event>
<event>
 7    1  0.2895479E-015  0.9000888E+02  0.7816164E-02  0.1186337E+00
        -11   -1    0    0    0    0  0.00000000000E+00  0.00000000000E+00  0.45593999997E+02  0.45594000000E+02  0.51100000000E-03 0. -1.
         11   -1    0    0    0    0 -0.00000000000E+00 -0.00000000000E+00 -0.45593999997E+02  0.45594000000E+02  0.51100000000E-03 0.  1.
    9900012    2    1    2    0    0  0.81194843005E+00 -0.41034758265E+00  0.75012137830E+00  0.90008878516E+02  0.90001154905E+02 0.  0.
        -12    1    1    2    0    0 -0.81194843005E+00  0.41034758265E+00 -0.75012137830E+00  0.11791214839E+01  0.00000000000E+00 0.  1.
         11    1    3    3    0    0  0.22351297379E+02  0.43933410878E-01  0.34806606056E+02  0.41365229965E+02  0.51100000000E-03 0. -1.
        -11    1    3    3    0    0 -0.10090872004E+02  0.55503425485E+01  0.72299053755E+00  0.11539268425E+02  0.51100000000E-03 0.  1.
        -12    1    3    3    0    0 -0.11448476945E+02 -0.60046235420E+01 -0.34779475216E+02  0.37104380126E+02  0.00000000000E+00 0.  1.
</event>
<event>
 7    1  0.2895479E-015  0.9000773E+02  0.7816164E-02  0.1186339E+00
        -11   -1    0    0    0    0  0.00000000000E+00  0.00000000000E+00  0.45593999997E+02  0.45594000000E+02  0.51100000000E-03 0.  1.
         11   -1    0    0    0    0 -0.00000000000E+00 -0.00000000000E+00 -0.45593999997E+02  0.45594000000E+02  0.51100000000E-03 0. -1.
    9900012    2    1    2    0    0  0.92737927354E+00  0.41237905159E+00  0.60245149767E+00  0.90007730282E+02  0.89999991522E+02 0.  0.
        -12    1    1    2    0    0 -0.92737927354E+00 -0.41237905159E+00 -0.60245149767E+00  0.11802697176E+01  0.00000000000E+00 0.  1.
         11    1    3    3    0    0 -0.92072996961E+01 -0.17841496975E+01 -0.25721367796E+01  0.97248879536E+01  0.51100000000E-03 0. -1.
        -11    1    3    3    0    0  0.63762496177E+01 -0.31917537462E+02  0.23727586382E+02  0.40278829583E+02  0.51100000000E-03 0.  1.
         12    1    3    3    0    0  0.37584293519E+01  0.34114066211E+02 -0.20552998105E+02  0.40004012745E+02  0.00000000000E+00 0. -1.
</event>
<event>
 7    1  0.2895479E-015  0.9000770E+02  0.7816164E-02  0.1186339E+00
        -11   -1    0    0    0    0  0.00000000000E+00  0.00000000000E+00  0.45593999997E+02  0.45594000000E+02  0.51100000000E-03 0. -1.
         11   -1    0    0    0    0 -0.00000000000E+00 -0.00000000000E+00 -0.45593999997E+02  0.45594000000E+02  0.51100000000E-03 0.  1.
    9900012    2    1    2    0    0  0.53996882763E+00  0.38538841662E+00  0.97622501158E+00  0.90007700953E+02  0.89999961806E+02 0.  0.
        -12    1    1    2    0    0 -0.53996882763E+00 -0.38538841662E+00 -0.97622501158E+00  0.11802990467E+01  0.00000000000E+00 0.  1.
         11    1    3    3    0    0 -0.10563613628E+02 -0.61804684037E+00 -0.16869785117E+02  0.19913853593E+02  0.51100000000E-03 0. -1.
        -11    1    3    3    0    0  0.38996399670E+02  0.79799746530E+00  0.47954318035E+01  0.39298246190E+02  0.51100000000E-03 0.  1.
         12    1    3    3    0    0 -0.27892817214E+02  0.20543779169E+00  0.13050578325E+02  0.30795601170E+02  0.00000000000E+00 0. -1.
</event>
<event>
 7    1  0.2895479E-015  0.9000781E+02  0.7816164E-02  0.1186339E+00
        -11   -1    0    0    0    0  0.00000000000E+00  0.00000000000E+00  0.45593999997E+02  0.45594000000E+02  0.51100000000E-03 0.  1.
         11   -1    0    0    0    0 -0.00000000000E+00 -0.00000000000E+00 -0.45593999997E+02  0.45594000000E+02  0.51100000000E-03 0. -1.
    9900012    2    1    2    0    0 -0.60790645785E+00  0.86449699779E+00  0.52530308544E+00  0.90007809908E+02  0.90000072199E+02 0.  0.
        -12    1    1    2    0    0  0.60790645785E+00 -0.86449699779E+00 -0.52530308544E+00  0.11801900916E+01  0.00000000000E+00 0.  1.
         11    1    3    3    0    0 -0.30177911932E+02 -0.25094860194E+02 -0.79859537515E+01  0.40052887965E+02  0.51100000000E-03 0. -1.
        -11    1    3    3    0    0  0.26372500532E+01  0.26825660685E+01 -0.93858291450E+01  0.10111628828E+02  0.51100000000E-03 0.  1.
        -12    1    3    3    0    0  0.26932755421E+02  0.23276791124E+02  0.17897085982E+02  0.39843293115E+02  0.00000000000E+00 0.  1.
</event>
<event>
 7    1  0.2895479E-015  0.9000774E+02  0.7816164E-02  0.1186339E+00
        -11   -1    0    0    0    0  0.00000000000E+00  0.00000000000E+00  0.45593999997E+02  0.45594000000E+02  0.51100000000E-03 0.  1.
         11   -1    0    0    0    0 -0.00000000000E+00 -0.00000000000E+00 -0.45593999997E+02  0.45594000000E+02  0.51100000000E-03 0. -1.
    9900012    2    1    2    0    0 -0.19135452738E+00 -0.15796019480E+00 -0.11538877833E+01  0.90007735201E+02  0.89999996506E+02 0.  0.
        -12    1    1    2    0    0  0.19135452738E+00  0.15796019480E+00  0.11538877833E+01  0.11802647986E+01  0.00000000000E+00 0.  1.
         11    1    3    3    0    0 -0.16007230361E+02 -0.31117744266E+01 -0.38382387284E+02  0.41702784293E+02  0.51100000000E-03 0. -1.
        -11    1    3    3    0    0  0.89404533234E+01  0.78492136615E+01  0.19808994561E+01  0.12060921343E+02  0.51100000000E-03 0.  1.
        -12    1    3    3    0    0  0.68754225103E+01 -0.48953994297E+01  0.35247600044E+02  0.36244029566E+02  0.00000000000E+00 0.  1.
</event>
<event>
 7    1  0.2895479E-015  0.9000771E+02  0.7816164E-02  0.1186339E+00
        -11   -1    0    0    0    0  0.00000000000E+00  0.00000000000E+00  0.45593999997E+02  0.45594000000E+02  0.51100000000E-03 0. -1.
         11   -1    0    0    0    0 -0.00000000000E+00 -0.00000000000E+00 -0.45593999997E+02  0.45594000000E+02  0.51100000000E-03 0.  1.
    9900012    2    1    2    0    0  0.11230647225E+01  0.12882911083E+00 -0.33941959154E+00  0.90007713183E+02  0.89999974197E+02 0.  0.
        -12    1    1    2    0    0 -0.11230647225E+01 -0.12882911083E+00  0.33941959154E+00  0.11802868167E+01  0.00000000000E+00 0.  1.
         11    1    3    3    0    0  0.18963769843E+02  0.17725142284E+02  0.25307517923E+02  0.36252940561E+02  0.51100000000E-03 0. -1.
        -11    1    3    3    0    0  0.80424037662E+01  0.53928852060E+01  0.14517915552E+01  0.97913823419E+01  0.51100000000E-03 0.  1.
        -12    1    3    3    0    0 -0.25883108887E+02 -0.22989198379E+02 -0.27098729070E+02  0.43963390280E+02  0.00000000000E+00 0.  1.
</event>
<event>
 7    1  0.2895479E-015  0.9000773E+02  0.7816164E-02  0.1186339E+00
        -11   -1    0    0    0    0  0.00000000000E+00  0.00000000000E+00  0.45593999997E+02  0.45594000000E+02  0.51100000000E-03 0. -1.
         11   -1    0    0    0    0 -0.00000000000E+00 -0.00000000000E+00 -0.45593999997E+02  0.45594000000E+02  0.51100000000E-03 0.  1.
    9900012    2    1    2    0    0 -0.92738033069E+00  0.67154576123E+00 -0.28639473924E+00  0.90007733109E+02  0.89999994386E+02 0.  0.
        -12    1    1    2    0    0  0.92738033069E+00 -0.67154576123E+00  0.28639473924E+00  0.11802668909E+01  0.00000000000E+00 0.  1.
         11    1    3    3    0    0  0.64920313735E+01 -0.40295089579E+01  0.26425797036E+01  0.80849639175E+01  0.51100000000E-03 0. -1.
        -11    1    3    3    0    0  0.34926271822E+02  0.19906332996E+01 -0.14611194913E+02  0.37911661813E+02  0.51100000000E-03 0.  1.
         12    1    3    3    0    0 -0.42345683526E+02  0.27104214196E+01  0.11682220471E+02  0.44011107379E+02  0.00000000000E+00 0. -1.
</event>
<event>
 7    1  0.2895479E-015  0.9000715E+02  0.7816164E-02  0.1186340E+00
        -11   -1    0    0    0    0  0.00000000000E+00  0.00000000000E+00  0.45593999997E+02  0.45594000000E+02  0.51100000000E-03 0.  1.
         11   -1    0    0    0    0 -0.00000000000E+00 -0.00000000000E+00 -0.45593999997E+02  0.45594000000E+02  0.51100000000E-03 0. -1.
    9900012    2    1    2    0    0 -0.40616863300E+00  0.55073126746E+00 -0.96235359212E+00  0.90007151863E+02  0.89999405465E+02 0.  0.
        -12    1    1    2    0    0  0.40616863300E+00 -0.55073126746E+00  0.96235359212E+00  0.11808481374E+01  0.00000000000E+00 0.  1.
         11    1    3    3    0    0 -0.35143358744E+02 -0.21528629411E+02  0.73698738664E+01  0.41867082407E+02  0.51100000000E-03 0. -1.
        -11    1    3    3    0    0  0.25947941688E+01  0.57276233351E+01  0.65931187033E+01  0.91108638638E+01  0.51100000000E-03 0.  1.
        -12    1    3    3    0    0  0.32142395943E+02  0.16351737344E+02 -0.14925346162E+02  0.39029205592E+02  0.00000000000E+00 0.  1.
</event>
<event>
 7    1  0.2895479E-015  0.9000773E+02  0.7816164E-02  0.1186339E+00
        -11   -1    0    0    0    0  0.00000000000E+00  0.00000000000E+00  0.45593999997E+02  0.45594000000E+02  0.51100000000E-03 0. -1.
         11   -1    0    0    0    0 -0.00000000000E+00 -0.00000000000E+00 -0.45593999997E+02  0.45594000000E+02  0.51100000000E-03 0.  1.
    9900012    2    1    2    0    0 -0.74415518541E-01 -0.11694739756E+01 -0.14081683290E+00  0.90007730357E+02  0.89999991598E+02 0.  0.
        -12    1    1    2    0    0  0.74415518541E-01  0.11694739756E+01  0.14081683290E+00  0.11802696426E+01  0.00000000000E+00 0.  1.
         11    1    3    3    0    0  0.11099419835E+01  0.46758341106E+01 -0.89255192229E+01  0.10137074997E+02  0.51100000000E-03 0. -1.
        -11    1    3    3    0    0 -0.20475056388E+02  0.51481630232E+01 -0.29104194138E+02  0.35955328302E+02  0.51100000000E-03 0.  1.
         12    1    3    3    0    0  0.19290698886E+02 -0.10993471109E+02  0.37888896528E+02  0.43915327059E+02  0.00000000000E+00 0. -1.
</event>
<event>
 7    1  0.2895479E-015  0.9000776E+02  0.7816164E-02  0.1186339E+00
        -11   -1    0    0    0    0  0.00000000000E+00  0.00000000000E+00  0.45593999997E+02  0.45594000000E+02  0.51100000000E-03 0.  1.
         11   -1    0    0    0    0 -0.00000000000E+00 -0.00000000000E+00 -0.45593999997E+02  0.45594000000E+02  0.51100000000E-03 0. -1.
    9900012    2    1    2    0    0  0.62096642547E+00 -0.39485507263E+00 -0.92274248766E+00  0.90007761241E+02  0.90000022889E+02 0.  0.
        -12    1    1    2    0    0 -0.62096642547E+00  0.39485507263E+00  0.92274248766E+00  0.11802387591E+01  0.00000000000E+00 0.  1.
         11    1    3    3    0    0 -0.92598655048E+00  0.88437641623E+01 -0.29972311208E+01  0.93836565529E+01  0.51100000000E-03 0. -1.
        -11    1    3    3    0    0  0.30480438539E+02  0.22291346131E+02  0.22710732609E+01  0.37830133754E+02  0.51100000000E-03 0.  1.
         12    1    3    3    0    0 -0.28933485563E+02 -0.31529965366E+02 -0.19658462777E+00  0.42793970934E+02  0.00000000000E+00 0. -1.
</event>
<event>
 7    1  0.2895479E-015  0.9000776E+02  0.7816164E-02  0.1186339E+00
        -11   -1    0    0    0    0  0.00000000000E+00  0.00000000000E+00  0.45593999997E+02  0.45594000000E+02  0.51100000000E-03 0. -1.
         11   -1    0    0    0    0 -0.00000000000E+00 -0.00000000000E+00 -0.45593999997E+02  0.45594000000E+02  0.51100000000E-03 0.  1.
    9900012    2    1    2    0    0  0.17088606038E+00  0.98467695432E+00  0.62783804169E+00  0.90007757925E+02  0.90000019529E+02 0.  0.
        -12    1    1    2    0    0 -0.17088606038E+00 -0.98467695432E+00 -0.62783804169E+00  0.11802420754E+01  0.00000000000E+00 0.  1.
         11    1    3    3    0    0 -0.55237529299E+01 -0.60141366101E+01 -0.34348811328E+01  0.88588991559E+01  0.51100000000E-03 0. -1.
        -11    1    3    3    0    0  0.92825713188E+01 -0.36329356814E+02  0.15156023880E+00  0.37496816766E+02  0.51100000000E-03 0.  1.
         12    1    3    3    0    0 -0.35879323285E+01  0.43328170379E+02  0.39111589357E+01  0.43652042003E+02  0.00000000000E+00 0. -1.
</event>
<event>
 7    1  0.2895479E-015  0.9000765E+02  0.7816164E-02  0.1186339E+00
        -11   -1    0    0    0    0  0.00000000000E+00  0.00000000000E+00  0.45593999997E+02  0.45594000000E+02  0.51100000000E-03 0.  1.
         11   -1    0    0    0    0 -0.00000000000E+00 -0.00000000000E+00 -0.45593999997E+02  0.45594000000E+02  0.51100000000E-03 0. -1.
    9900012    2    1    2    0    0  0.79889111989E+00 -0.83060614245E+00  0.25511926113E+00  0.90007652838E+02  0.89999913055E+02 0.  0.
        -12    1    1    2    0    0 -0.79889111989E+00  0.83060614245E+00 -0.25511926113E+00  0.11803471619E+01  0.00000000000E+00 0.  1.
         11    1    3    3    0    0  0.40144019927E+02 -0.29363401913E+01 -0.12282008795E+02  0.42083395418E+02  0.51100000000E-03 0. -1.
        -11    1    3    3    0    0 -0.62295339045E+01 -0.49716766944E+01 -0.53769543663E+01  0.96143798728E+01  0.51100000000E-03 0.  1.
        -12    1    3    3    0    0 -0.33115594903E+02  0.70774107432E+01  0.17914082423E+02  0.38309877547E+02  0.00000000000E+00 0.  1.
</event>
<event>
 7    1  0.2895479E-015  0.9000776E+02  0.7816164E-02  0.1186339E+00
        -11   -1    0    0    0    0  0.00000000000E+00  0.00000000000E+00  0.45593999997E+02  0.45594000000E+02  0.51100000000E-03 0.  1.
         11   -1    0    0    0    0 -0.00000000000E+00 -0.00000000000E+00 -0.45593999997E+02  0.45594000000E+02  0.51100000000E-03 0. -1.
    9900012    2    1    2    0    0  0.79786333185E+00 -0.85956790789E+00  0.13234642444E+00  0.90007763388E+02  0.90000025065E+02 0.  0.
        -12    1    1    2    0    0 -0.79786333185E+00  0.85956790789E+00 -0.13234642444E+00  0.11802366121E+01  0.00000000000E+00 0.  1.
         11    1    3    3    0    0  0.36743391650E+01 -0.29084313394E+01  0.87724758974E+01  0.99456560763E+01  0.51100000000E-03 0. -1.
        -11    1    3    3    0    0  0.25265068392E+02  0.12893550851E+02  0.22876525922E+02  0.36440400285E+02  0.51100000000E-03 0.  1.
         12    1    3    3    0    0 -0.28141544225E+02 -0.10844687419E+02 -0.31516655395E+02  0.43621707027E+02  0.00000000000E+00 0. -1.
</event>
<event>
 7    1  0.2895479E-015  0.9000768E+02  0.7816164E-02  0.1186339E+00
        -11   -1    0    0    0    0  0.00000000000E+00  0.00000000000E+00  0.45593999997E+02  0.45594000000E+02  0.51100000000E-03 0.  1.
         11   -1    0    0    0    0 -0.00000000000E+00 -0.00000000000E+00 -0.45593999997E+02  0.45594000000E+02  0.51100000000E-03 0. -1.
    9900012    2    1    2    0    0  0.88798317463E+00 -0.59698553960E-02 -0.77756489328E+00  0.90007679314E+02  0.89999939881E+02 0.  0.
        -12    1    1    2    0    0 -0.88798317463E+00  0.59698553960E-02  0.77756489328E+00  0.11803206856E+01  0.00000000000E+00 0.  1.
         11    1    3    3    0    0 -0.36888823818E+02  0.94332542599E+01 -0.10448071240E+01  0.38090198618E+02  0.51100000000E-03 0. -1.
        -11    1    3    3    0    0 -0.17510712311E+01  0.22871615715E+01  0.92770424954E+01  0.97139526575E+01  0.51100000000E-03 0.  1.
        -12    1    3    3    0    0  0.39527878223E+02 -0.11726385687E+02 -0.90098002647E+01  0.42203528039E+02  0.00000000000E+00 0.  1.
</event>
<event>
 7    1  0.2895479E-015  0.9000781E+02  0.7816164E-02  0.1186339E+00
        -11   -1    0    0    0    0  0.00000000000E+00  0.00000000000E+00  0.45593999997E+02  0.45594000000E+02  0.51100000000E-03 0. -1.
         11   -1    0    0    0    0 -0.00000000000E+00 -0.00000000000E+00 -0.45593999997E+02  0.45594000000E+02  0.51100000000E-03 0.  1.
    9900012    2    1    2    0    0  0.10893502567E+01  0.42084746859E+00 -0.17043145393E+00  0.90007812111E+02  0.90000074430E+02 0.  0.
        -12    1    1    2    0    0 -0.10893502567E+01 -0.42084746859E+00  0.17043145393E+00  0.11801878893E+01  0.00000000000E+00 0.  1.
         11    1    3    3    0    0  0.15186892907E+02  0.34535844634E+02  0.11139725628E+02  0.39337765164E+02  0.51100000000E-03 0. -1.
        -11    1    3    3    0    0 -0.16790207089E+01  0.32289795607E+01 -0.10709243528E+02  0.11310761104E+02  0.51100000000E-03 0.  1.
        -12    1    3    3    0    0 -0.12418521942E+02 -0.37343976727E+02 -0.60091355372E+00  0.39359285843E+02  0.00000000000E+00 0.  1.
</event>
<event>
 7    1  0.2895479E-015  0.9000775E+02  0.7816164E-02  0.1186339E+00
        -11   -1    0    0    0    0  0.00000000000E+00  0.00000000000E+00  0.45593999997E+02  0.45594000000E+02  0.51100000000E-03 0.  1.
         11   -1    0    0    0    0 -0.00000000000E+00 -0.00000000000E+00 -0.45593999997E+02  0.45594000000E+02  0.51100000000E-03 0. -1.
    9900012    2    1    2    0    0  0.14535099372E+00  0.10982614166E+01  0.40704116710E+00  0.90007751059E+02  0.90000012573E+02 0.  0.
        -12    1    1    2    0    0 -0.14535099372E+00 -0.10982614166E+01 -0.40704116710E+00  0.11802489408E+01  0.00000000000E+00 0.  1.
         11    1    3    3    0    0 -0.36288835046E+01  0.54960958834E+01 -0.34428037096E+01  0.74316056874E+01  0.51100000000E-03 0. -1.
        -11    1    3    3    0    0 -0.38548621418E+02  0.48603956128E+01  0.53854722979E+01  0.39225284841E+02  0.51100000000E-03 0.  1.
         12    1    3    3    0    0  0.42322855917E+02 -0.92582300796E+01 -0.15356274211E+01  0.43350860530E+02  0.00000000000E+00 0. -1.
</event>
<event>
 7    1  0.2895479E-015  0.9000770E+02  0.7816164E-02  0.1186339E+00
        -11   -1    0    0    0    0  0.00000000000E+00  0.00000000000E+00  0.45593999997E+02  0.45594000000E+02  0.51100000000E-03 0.  1.
         11   -1    0    0    0    0 -0.00000000000E+00 -0.00000000000E+00 -0.45593999997E+02  0.45594000000E+02  0.51100000000E-03 0. -1.
    9900012    2    1    2    0    0 -0.10195169971E+01  0.33175043181E+00  0.49358465853E+00  0.90007703820E+02  0.89999964711E+02 0.  0.
        -12    1    1    2    0    0  0.10195169971E+01 -0.33175043181E+00 -0.49358465853E+00  0.11802961796E+01  0.00000000000E+00 0.  1.
         11    1    3    3    0    0  0.34544426218E+01 -0.34707790985E+02 -0.85477879267E+01  0.35911399410E+02  0.51100000000E-03 0. -1.
        -11    1    3    3    0    0  0.12197448275E+01 -0.79466215793E+01  0.70435671002E+01  0.10688704773E+02  0.51100000000E-03 0.  1.
        -12    1    3    3    0    0 -0.56937044464E+01  0.42986162997E+02  0.19978054850E+01  0.43407599637E+02  0.00000000000E+00 0.  1.
</event>
<event>
 7    1  0.2895479E-015  0.9000775E+02  0.7816164E-02  0.1186339E+00
        -11   -1    0    0    0    0  0.00000000000E+00  0.00000000000E+00  0.45593999997E+02  0.45594000000E+02  0.51100000000E-03 0.  1.
         11   -1    0    0    0    0 -0.00000000000E+00 -0.00000000000E+00 -0.45593999997E+02  0.45594000000E+02  0.51100000000E-03 0. -1.
    9900012    2    1    2    0    0  0.43094104851E+00  0.21455775903E+00 -0.10776106641E+01  0.90007750042E+02  0.90000011543E+02 0.  0.
        -12    1    1    2    0    0 -0.43094104851E+00 -0.21455775903E+00  0.10776106641E+01  0.11802499577E+01  0.00000000000E+00 0.  1.
         11    1    3    3    0    0 -0.18878312728E+02  0.28881366423E+02 -0.20486173262E+02  0.40127388566E+02  0.51100000000E-03 0. -1.
        -11    1    3    3    0    0 -0.51125472803E+01 -0.74206338701E+01 -0.40742143377E+01  0.98895484961E+01  0.51100000000E-03 0.  1.
        -12    1    3    3    0    0  0.24421801057E+02 -0.21246174794E+02  0.23482776936E+02  0.39990812981E+02  0.00000000000E+00 0.  1.
</event>
<event>
 7    1  0.2895479E-015  0.9000776E+02  0.7816164E-02  0.1186339E+00
        -11   -1    0    0    0    0  0.00000000000E+00  0.00000000000E+00  0.45593999997E+02  0.45594000000E+02  0.51100000000E-03 0. -1.
         11   -1    0    0    0    0 -0.00000000000E+00 -0.00000000000E+00 -0.45593999997E+02  0.45594000000E+02  0.51100000000E-03 0.  1.
    9900012    2    1    2    0    0  0.10871655997E+01  0.13445478388E+00 -0.43927071715E+00  0.90007760239E+02  0.90000021874E+02 0.  0.
        -12    1    1    2    0    0 -0.10871655997E+01 -0.13445478388E+00  0.43927071715E+00  0.11802397608E+01  0.00000000000E+00 0.  1.
         11    1    3    3    0    0 -0.95559957858E+01  0.18635169238E+01 -0.56962410406E+01  0.11279934088E+02  0.51100000000E-03 0. -1.
        -11    1    3    3    0    0 -0.91043803402E+01  0.30976256980E+02 -0.14869361016E+02  0.35545972137E+02  0.51100000000E-03 0.  1.
         12    1    3    3    0    0  0.19747541726E+02 -0.32705319120E+02  0.20126331339E+02  0.43181854014E+02  0.00000000000E+00 0. -1.
</event>
<event>
 7    1  0.2895479E-015  0.9000760E+02  0.7816164E-02  0.1186339E+00
        -11   -1    0    0    0    0  0.00000000000E+00  0.00000000000E+00  0.45593999997E+02  0.45594000000E+02  0.51100000000E-03 0.  1.
         11   -1    0    0    0    0 -0.00000000000E+00 -0.00000000000E+00 -0.45593999997E+02  0.45594000000E+02  0.51100000000E-03 0. -1.
    9900012    2    1    2    0    0  0.20844692861E+00  0.48363920471E+00  0.10564066291E+01  0.90007596693E+02  0.89999856169E+02 0.  0.
        -12    1    1    2    0    0 -0.20844692861E+00 -0.48363920471E+00 -0.10564066291E+01  0.11804033075E+01  0.00000000000E+00 0.  1.
         11    1    3    3    0    0 -0.66035863091E+01 -0.28967866718E+01  0.54862286802E+01  0.90607632435E+01  0.51100000000E-03 0. -1.
        -11    1    3    3    0    0  0.11097214716E+02  0.30402088708E+02  0.24902219795E+02  0.40835716270E+02  0.51100000000E-03 0.  1.
         12    1    3    3    0    0 -0.42851814783E+01 -0.27021662832E+02 -0.29332041846E+02  0.40111117179E+02  0.00000000000E+00 0. -1.
</event>
<event>
 7    1  0.2895479E-015  0.9000768E+02  0.7816164E-02  0.1186339E+00
        -11   -1    0    0    0    0  0.00000000000E+00  0.00000000000E+00  0.45593999997E+02  0.45594000000E+02  0.51100000000E-03 0. -1.
         11   -1    0    0    0    0 -0.00000000000E+00 -0.00000000000E+00 -0.45593999997E+02  0.45594000000E+02  0.51100000000E-03 0.  1.
    9900012    2    1    2    0    0  0.10699620679E+01 -0.12049141935E+00  0.48353710212E+00  0.90007684306E+02  0.89999944939E+02 0.  0.
        -12    1    1    2    0    0 -0.10699620679E+01  0.12049141935E+00 -0.48353710212E+00  0.11803156942E+01  0.00000000000E+00 0.  1.
         11    1    3    3    0    0 -0.75399883315E+01  0.46984232376E+01 -0.27890072447E+01  0.93115609127E+01  0.51100000000E-03 0. -1.
        -11    1    3    3    0    0 -0.34735888309E+02 -0.36580824580E+01  0.11067863592E+02  0.36639611197E+02  0.51100000000E-03 0.  1.
         12    1    3    3    0    0  0.43345838709E+02 -0.11608321989E+01 -0.77953192447E+01  0.44056512196E+02  0.00000000000E+00 0. -1.
</event>
<event>
 7    1  0.2895479E-015  0.9000756E+02  0.7816164E-02  0.1186339E+00
        -11   -1    0    0    0    0  0.00000000000E+00  0.00000000000E+00  0.45593999997E+02  0.45594000000E+02  0.51100000000E-03 0.  1.
         11   -1    0    0    0    0 -0.00000000000E+00 -0.00000000000E+00 -0.45593999997E+02  0.45594000000E+02  0.51100000000E-03 0. -1.
    9900012    2    1    2    0    0  0.93436687348E+00 -0.13057080663E+00 -0.70946273839E+00  0.90007564671E+02  0.89999823724E+02 0.  0.
        -12    1    1    2    0    0 -0.93436687348E+00  0.13057080663E+00  0.70946273839E+00  0.11804353294E+01  0.00000000000E+00 0.  1.
         11    1    3    3    0    0 -0.60293854070E+01  0.79773988308E+01 -0.58360475251E+00  0.10016634927E+02  0.51100000000E-03 0. -1.
        -11    1    3    3    0    0  0.12940434375E+02  0.11690860746E+01  0.38073470465E+02  0.40229476228E+02  0.51100000000E-03 0.  1.
         12    1    3    3    0    0 -0.59766820947E+01 -0.92770557120E+01 -0.38199328451E+02  0.39761453515E+02  0.00000000000E+00 0. -1.
</event>
<event>
 7    1  0.2895479E-015  0.9000768E+02  0.7816164E-02  0.1186339E+00
        -11   -1    0    0    0    0  0.00000000000E+00  0.00000000000E+00  0.45593999997E+02  0.45594000000E+02  0.51100000000E-03 0. -1.
         11   -1    0    0    0    0 -0.00000000000E+00 -0.00000000000E+00 -0.45593999997E+02  0.45594000000E+02  0.51100000000E-03 0.  1.
    9900012    2    1    2    0    0  0.86998286300E+00  0.45198009764E+00  0.65726112731E+00  0.90007682932E+02  0.89999943547E+02 0.  0.
        -12    1    1    2    0    0 -0.86998286300E+00 -0.45198009764E+00 -0.65726112731E+00  0.11803170676E+01  0.00000000000E+00 0.  1.
         11    1    3    3    0    0 -0.56615140444E+01 -0.92611726598E+01  0.61950263261E+01  0.12498016313E+02  0.51100000000E-03 0. -1.
        -11    1    3    3    0    0  0.39945109425E+02  0.85711400964E+01 -0.13707932579E+02  0.43092732860E+02  0.51100000000E-03 0.  1.
         12    1    3    3    0    0 -0.33413612517E+02  0.11420126611E+01  0.81701673800E+01  0.34416933759E+02  0.00000000000E+00 0. -1.
</event>
<event>
 7    1  0.2895479E-015  0.9000770E+02  0.7816164E-02  0.1186339E+00
        -11   -1    0    0    0    0  0.00000000000E+00  0.00000000000E+00  0.45593999997E+02  0.45594000000E+02  0.51100000000E-03 0. -1.
         11   -1    0    0    0    0 -0.00000000000E+00 -0.00000000000E+00 -0.45593999997E+02  0.45594000000E+02  0.51100000000E-03 0.  1.
    9900012    2    1    2    0    0 -0.44546501224E-01 -0.11775975923E+01  0.66170295796E-01  0.90007703856E+02  0.89999964747E+02 0.  0.
        -12    1    1    2    0    0  0.44546501224E-01  0.11775975923E+01 -0.66170295796E-01  0.11802961442E+01  0.00000000000E+00 0.  1.
         11    1    3    3    0    0 -0.37240179309E+02  0.62532631296E+01 -0.13431483043E+02  0.40079159069E+02  0.51100000000E-03 0. -1.
        -11    1    3    3    0    0 -0.13707125207E+01  0.73785030009E+00  0.10256070422E+02  0.10373536361E+02  0.51100000000E-03 0.  1.
        -12    1    3    3    0    0  0.38566345328E+02 -0.81687110220E+01  0.32415829169E+01  0.39555008425E+02  0.00000000000E+00 0.  1.
</event>
<event>
 7    1  0.2895479E-015  0.9000830E+02  0.7816164E-02  0.1186338E+00
        -11   -1    0    0    0    0  0.00000000000E+00  0.00000000000E+00  0.45593999997E+02  0.45594000000E+02  0.51100000000E-03 0. -1.
         11   -1    0    0    0    0 -0.00000000000E+00 -0.00000000000E+00 -0.45593999997E+02  0.45594000000E+02  0.51100000000E-03 0.  1.
    9900012    2    1    2    0    0  0.53169455041E+00  0.86669234858E+00  0.59819154111E+00  0.90008301801E+02  0.90000570582E+02 0.  0.
        -12    1    1    2    0    0 -0.53169455041E+00 -0.86669234858E+00 -0.59819154111E+00  0.11796981995E+01  0.00000000000E+00 0.  1.
         11    1    3    3    0    0  0.15838668466E+02  0.26501998359E+02  0.31958104567E+02  0.44435793945E+02  0.51100000000E-03 0. -1.
        -11    1    3    3    0    0 -0.22902862872E+01 -0.79941151949E+01 -0.13765384670E+01  0.84288876750E+01  0.51100000000E-03 0.  1.
        -12    1    3    3    0    0 -0.13016687628E+02 -0.17641190815E+02 -0.29983374559E+02  0.37143620180E+02  0.00000000000E+00 0.  1.
</event>
<event>
 7    1  0.2895479E-015  0.9000773E+02  0.7816164E-02  0.1186339E+00
        -11   -1    0    0    0    0  0.00000000000E+00  0.00000000000E+00  0.45593999997E+02  0.45594000000E+02  0.51100000000E-03 0.  1.
         11   -1    0    0    0    0 -0.00000000000E+00 -0.00000000000E+00 -0.45593999997E+02  0.45594000000E+02  0.51100000000E-03 0. -1.
    9900012    2    1    2    0    0 -0.46536517707E+00 -0.72524632192E+00 -0.80652604969E+00  0.90007732554E+02  0.89999993824E+02 0.  0.
        -12    1    1    2    0    0  0.46536517707E+00  0.72524632192E+00  0.80652604969E+00  0.11802674461E+01  0.00000000000E+00 0.  1.
         11    1    3    3    0    0 -0.32059467320E+02 -0.44822091526E+01 -0.15919005990E+02  0.36073735538E+02  0.51100000000E-03 0. -1.
        -11    1    3    3    0    0 -0.87767893067E+01 -0.48190444836E+01  0.89710370369E-01  0.10013154772E+02  0.51100000000E-03 0.  1.
        -12    1    3    3    0    0  0.40370891449E+02  0.85760073143E+01  0.15022769570E+02  0.43920842244E+02  0.00000000000E+00 0.  1.
</event>
<event>
 7    1  0.2895479E-015  0.9000775E+02  0.7816164E-02  0.1186339E+00
        -11   -1    0    0    0    0  0.00000000000E+00  0.00000000000E+00  0.45593999997E+02  0.45594000000E+02  0.51100000000E-03 0.  1.
         11   -1    0    0    0    0 -0.00000000000E+00 -0.00000000000E+00 -0.45593999997E+02  0.45594000000E+02  0.51100000000E-03 0. -1.
    9900012    2    1    2    0    0  0.89847654442E+00  0.71562422530E+00  0.27129881784E+00  0.90007753762E+02  0.90000015312E+02 0.  0.
        -12    1    1    2    0    0 -0.89847654442E+00 -0.71562422530E+00 -0.27129881784E+00  0.11802462376E+01  0.00000000000E+00 0.  1.
         11    1    3    3    0    0 -0.21612678338E+01  0.85788631299E+01 -0.50150220481E+01  0.10169484631E+02  0.51100000000E-03 0. -1.
        -11    1    3    3    0    0 -0.24068138131E+02  0.15439923354E+02  0.25882374392E+02  0.38568948789E+02  0.51100000000E-03 0.  1.
         12    1    3    3    0    0  0.27127882509E+02 -0.23303162259E+02 -0.20596053526E+02  0.41269320343E+02  0.00000000000E+00 0. -1.
</event>
<event>
 7    1  0.2895479E-015  0.9000772E+02  0.7816164E-02  0.1186339E+00
        -11   -1    0    0    0    0  0.00000000000E+00  0.00000000000E+00  0.45593999997E+02  0.45594000000E+02  0.51100000000E-03 0. -1.
         11   -1    0    0    0    0 -0.00000000000E+00 -0.00000000000E+00 -0.45593999997E+02  0.45594000000E+02  0.51100000000E-03 0.  1.
    9900012    2    1    2    0    0 -0.51874138288E+00  0.73753960025E+00  0.76158114573E+00  0.90007719048E+02  0.89999980139E+02 0.  0.
        -12    1    1    2    0    0  0.51874138288E+00 -0.73753960025E+00 -0.76158114573E+00  0.11802809521E+01  0.00000000000E+00 0.  1.
         11    1    3    3    0    0 -0.25617423254E+02 -0.51600315781E+01 -0.78214405473E+01  0.27277339177E+02  0.51100000000E-03 0. -1.
        -11    1    3    3    0    0 -0.13210524377E+02  0.17344113445E+02 -0.16045579986E+00  0.21802797340E+02  0.51100000000E-03 0.  1.
         12    1    3    3    0    0  0.38309206248E+02 -0.11446542267E+02  0.87434774929E+01  0.40927582532E+02  0.00000000000E+00 0. -1.
</event>
<event>
 7    1  0.2895479E-015  0.9000774E+02  0.7816164E-02  0.1186339E+00
        -11   -1    0    0    0    0  0.00000000000E+00  0.00000000000E+00  0.45593999997E+02  0.45594000000E+02  0.51100000000E-03 0.  1.
         11   -1    0    0    0    0 -0.00000000000E+00 -0.00000000000E+00 -0.45593999997E+02  0.45594000000E+02  0.51100000000E-03 0. -1.
    9900012    2    1    2    0    0 -0.63331553376E+00 -0.79755161642E+00 -0.59652295387E+00  0.90007738681E+02  0.90000000032E+02 0.  0.
        -12    1    1    2    0    0  0.63331553376E+00  0.79755161642E+00  0.59652295387E+00  0.11802613188E+01  0.00000000000E+00 0.  1.
         11    1    3    3    0    0  0.37886922268E+02  0.23328667150E+01 -0.86291784362E+01  0.38927161042E+02  0.51100000000E-03 0. -1.
        -11    1    3    3    0    0  0.51902745368E+01 -0.29994483427E+01  0.39513397492E+01  0.71797441599E+01  0.51100000000E-03 0.  1.
        -12    1    3    3    0    0 -0.43710512339E+02 -0.13096998879E+00  0.40813157331E+01  0.43900833479E+02  0.00000000000E+00 0.  1.
</event>
<event>
 7    1  0.2895479E-015  0.9000775E+02  0.7816164E-02  0.1186339E+00
        -11   -1    0    0    0    0  0.00000000000E+00  0.00000000000E+00  0.45593999997E+02  0.45594000000E+02  0.51100000000E-03 0. -1.
         11   -1    0    0    0    0 -0.00000000000E+00 -0.00000000000E+00 -0.45593999997E+02  0.45594000000E+02  0.51100000000E-03 0.  1.
    9900012    2    1    2    0    0  0.10331122740E+01 -0.55860159261E+00  0.11677009507E+00  0.90007749194E+02  0.90000010683E+02 0.  0.
        -12    1    1    2    0    0 -0.10331122740E+01  0.55860159261E+00 -0.11677009507E+00  0.11802508060E+01  0.00000000000E+00 0.  1.
         11    1    3    3    0    0 -0.64312715461E+01 -0.73368323097E+01 -0.78507318947E+00  0.97880898144E+01  0.51100000000E-03 0. -1.
        -11    1    3    3    0    0  0.11562811336E+02  0.26366567363E+02 -0.31160088277E+02  0.42424587001E+02  0.51100000000E-03 0.  1.
         12    1    3    3    0    0 -0.40984275160E+01 -0.19588336646E+02  0.32061931561E+02  0.37795072379E+02  0.00000000000E+00 0. -1.
</event>
<event>
 7    1  0.2895479E-015  0.9000766E+02  0.7816164E-02  0.1186339E+00
        -11   -1    0    0    0    0  0.00000000000E+00  0.00000000000E+00  0.45593999997E+02  0.45594000000E+02  0.51100000000E-03 0. -1.
         11   -1    0    0    0    0 -0.00000000000E+00 -0.00000000000E+00 -0.45593999997E+02  0.45594000000E+02  0.51100000000E-03 0.  1.
    9900012    2    1    2    0    0  0.60783107017E+00 -0.98544106450E+00 -0.22947374612E+00  0.90007656448E+02  0.89999916713E+02 0.  0.
        -12    1    1    2    0    0 -0.60783107017E+00  0.98544106450E+00  0.22947374612E+00  0.11803435524E+01  0.00000000000E+00 0.  1.
         11    1    3    3    0    0  0.18374721360E+02  0.21674877300E+02  0.30433602896E+02  0.41636941248E+02  0.51100000000E-03 0. -1.
        -11    1    3    3    0    0  0.47326668102E+01 -0.20828939452E+00 -0.81261444100E+01  0.94061545194E+01  0.51100000000E-03 0.  1.
        -12    1    3    3    0    0 -0.22499557100E+02 -0.22452028970E+02 -0.22536932232E+02  0.38964560680E+02  0.00000000000E+00 0.  1.
</event>
<event>
 7    1  0.2895479E-015  0.9000778E+02  0.7816164E-02  0.1186339E+00
        -11   -1    0    0    0    0  0.00000000000E+00  0.00000000000E+00  0.45593999997E+02  0.45594000000E+02  0.51100000000E-03 0.  1.
         11   -1    0    0    0    0 -0.00000000000E+00 -0.00000000000E+00 -0.45593999997E+02  0.45594000000E+02  0.51100000000E-03 0. -1.
    9900012    2    1    2    0    0 -0.54053851602E+00 -0.10413191976E+01  0.12807482906E+00  0.90007775140E+02  0.90000036972E+02 0.  0.
        -12    1    1    2    0    0  0.54053851602E+00  0.10413191976E+01 -0.12807482906E+00  0.11802248601E+01  0.00000000000E+00 0.  1.
         11    1    3    3    0    0 -0.17341473184E+02 -0.75197880126E+01 -0.33056302399E+02  0.38078774041E+02  0.51100000000E-03 0. -1.
        -11    1    3    3    0    0 -0.46739648072E+01 -0.86832330102E+01  0.34956160926E+00  0.98674554018E+01  0.51100000000E-03 0.  1.
        -12    1    3    3    0    0  0.21474899475E+02  0.15161701825E+02  0.32834815619E+02  0.42061545697E+02  0.00000000000E+00 0.  1.
</event>
<event>
 7    1  0.2895479E-015  0.9000760E+02  0.7816164E-02  0.1186339E+00
        -11   -1    0    0    0    0  0.00000000000E+00  0.00000000000E+00  0.45593999997E+02  0.45594000000E+02  0.51100000000E-03 0.  1.
         11   -1    0    0    0    0 -0.00000000000E+00 -0.00000000000E+00 -0.45593999997E+02  0.45594000000E+02  0.51100000000E-03 0. -1.
    9900012    2    1    2    0    0  0.22546679028E+00  0.26543954176E+00 -0.11278518981E+01  0.90007600353E+02  0.89999859877E+02 0.  0.
        -12    1    1    2    0    0 -0.22546679028E+00 -0.26543954176E+00  0.11278518981E+01  0.11803996475E+01  0.00000000000E+00 0.  1.
         11    1    3    3    0    0 -0.14179952481E+01  0.32216783992E+01  0.92905756808E+01  0.99350248602E+01  0.51100000000E-03 0. -1.
        -11    1    3    3    0    0 -0.76996968864E+01 -0.20742833810E+02  0.28615331747E+02  0.36171642178E+02  0.51100000000E-03 0.  1.
         12    1    3    3    0    0  0.93431589248E+01  0.17786594953E+02 -0.39033759326E+02  0.43900933314E+02  0.00000000000E+00 0. -1.
</event>
<event>
 7    1  0.2895479E-015  0.9000765E+02  0.7816164E-02  0.1186339E+00
        -11   -1    0    0    0    0  0.00000000000E+00  0.00000000000E+00  0.45593999997E+02  0.45594000000E+02  0.51100000000E-03 0.  1.
         11   -1    0    0    0    0 -0.00000000000E+00 -0.00000000000E+00 -0.45593999997E+02  0.45594000000E+02  0.51100000000E-03 0. -1.
    9900012    2    1    2    0    0 -0.44879599130E-01 -0.52875915236E+00 -0.10543353236E+01  0.90007651156E+02  0.89999911351E+02 0.  0.
        -12    1    1    2    0    0  0.44879599130E-01  0.52875915236E+00  0.10543353236E+01  0.11803488443E+01  0.00000000000E+00 0.  1.
         11    1    3    3    0    0 -0.24397650556E+01  0.40512358707E+01  0.69615297219E+01  0.84159290596E+01  0.51100000000E-03 0. -1.
        -11    1    3    3    0    0  0.53983631868E+01  0.25802914742E+02  0.25204993213E+02  0.36472241739E+02  0.51100000000E-03 0.  1.
         12    1    3    3    0    0 -0.30034777302E+01 -0.30382909765E+02 -0.33220858259E+02  0.45119480358E+02  0.00000000000E+00 0. -1.
</event>
<event>
 7    1  0.2895479E-015  0.9000774E+02  0.7816164E-02  0.1186339E+00
        -11   -1    0    0    0    0  0.00000000000E+00  0.00000000000E+00  0.45593999997E+02  0.45594000000E+02  0.51100000000E-03 0. -1.
         11   -1    0    0    0    0 -0.00000000000E+00 -0.00000000000E+00 -0.45593999997E+02  0.45594000000E+02  0.51100000000E-03 0.  1.
    9900012    2    1    2    0    0 -0.41769573139E-01  0.36825107928E+00  0.11205613410E+01  0.90007741014E+02  0.90000002396E+02 0.  0.
        -12    1    1    2    0    0  0.41769573139E-01 -0.36825107928E+00 -0.11205613410E+01  0.11802589858E+01  0.00000000000E+00 0.  1.
         11    1    3    3    0    0  0.27570044454E+02  0.12044741525E+02  0.22834123409E+02  0.37770098514E+02  0.51100000000E-03 0. -1.
        -11    1    3    3    0    0  0.86476905186E+01 -0.12171126360E+01 -0.69006417062E-01  0.87331939530E+01  0.51100000000E-03 0.  1.
        -12    1    3    3    0    0 -0.36259504546E+02 -0.10459377810E+02 -0.21644555651E+02  0.43504448548E+02  0.00000000000E+00 0.  1.
</event>
<event>
 7    1  0.2895479E-015  0.9000768E+02  0.7816164E-02  0.1186339E+00
        -11   -1    0    0    0    0  0.00000000000E+00  0.00000000000E+00  0.45593999997E+02  0.45594000000E+02  0.51100000000E-03 0.  1.
         11   -1    0    0    0    0 -0.00000000000E+00 -0.00000000000E+00 -0.45593999997E+02  0.45594000000E+02  0.51100000000E-03 0. -1.
    9900012    2    1    2    0    0  0.78973121308E-01  0.27199897742E+00 -0.11458382834E+01  0.90007675651E+02  0.89999936169E+02 0.  0.
        -12    1    1    2    0    0 -0.78973121308E-01 -0.27199897742E+00  0.11458382834E+01  0.11803243492E+01  0.00000000000E+00 0.  1.
         11    1    3    3    0    0 -0.27840872583E+02  0.28846155968E+02  0.36824009044E+01  0.40258849674E+02  0.51100000000E-03 0. -1.
        -11    1    3    3    0    0 -0.43110252442E+01 -0.66218154378E+01  0.52305150483E+01  0.94758464677E+01  0.51100000000E-03 0.  1.
        -12    1    3    3    0    0  0.32230870949E+02 -0.21952341553E+02 -0.10058754236E+02  0.40272979510E+02  0.00000000000E+00 0.  1.
</event>
<event>
 7    1  0.2895479E-015  0.9000722E+02  0.7816164E-02  0.1186340E+00
        -11   -1    0    0    0    0  0.00000000000E+00  0.00000000000E+00  0.45593999997E+02  0.45594000000E+02  0.51100000000E-03 0.  1.
         11   -1    0    0    0    0 -0.00000000000E+00 -0.00000000000E+00 -0.45593999997E+02  0.45594000000E+02  0.51100000000E-03 0. -1.
    9900012    2    1    2    0    0  0.87859808140E+00 -0.72718425929E+00 -0.30578197849E+00  0.90007223072E+02  0.89999477615E+02 0.  0.
        -12    1    1    2    0    0 -0.87859808140E+00  0.72718425929E+00  0.30578197849E+00  0.11807769281E+01  0.00000000000E+00 0.  1.
         11    1    3    3    0    0  0.10766293759E+02  0.31858400694E+02 -0.11277358095E+02  0.35468994656E+02  0.51100000000E-03 0. -1.
        -11    1    3    3    0    0 -0.55471354279E+01  0.74567098124E+01 -0.57494582569E+01  0.10928380630E+02  0.51100000000E-03 0.  1.
        -12    1    3    3    0    0 -0.43405602502E+01 -0.40042294766E+02  0.16721034373E+02  0.43609847786E+02  0.00000000000E+00 0.  1.
</event>
<event>
 7    1  0.2895479E-015  0.9000807E+02  0.7816164E-02  0.1186338E+00
        -11   -1    0    0    0    0  0.00000000000E+00  0.00000000000E+00  0.45593999997E+02  0.45594000000E+02  0.51100000000E-03 0.  1.
         11   -1    0    0    0    0 -0.00000000000E+00 -0.00000000000E+00 -0.45593999997E+02  0.45594000000E+02  0.51100000000E-03 0. -1.
    9900012    2    1    2    0    0 -0.76633512456E+00 -0.41071466209E+00 -0.79767166839E+00  0.90008069431E+02  0.90000335147E+02 0.  0.
        -12    1    1    2    0    0  0.76633512456E+00  0.41071466209E+00  0.79767166839E+00  0.11799305689E+01  0.00000000000E+00 0.  1.
         11    1    3    3    0    0  0.29899695750E+02 -0.50925220923E+01 -0.16985752617E+02  0.34762643447E+02  0.51100000000E-03 0. -1.
        -11    1    3    3    0    0  0.79285334263E+01 -0.82996406653E+01  0.14293408107E+00  0.11478941932E+02  0.51100000000E-03 0.  1.
        -12    1    3    3    0    0 -0.38594564301E+02  0.12981448095E+02  0.16045146868E+02  0.43766484052E+02  0.00000000000E+00 0.  1.
</event>
<event>
 7    1  0.2895479E-015  0.9000762E+02  0.7816164E-02  0.1186339E+00
        -11   -1    0    0    0    0  0.00000000000E+00  0.00000000000E+00  0.45593999997E+02  0.45594000000E+02  0.51100000000E-03 0. -1.
         11   -1    0    0    0    0 -0.00000000000E+00 -0.00000000000E+00 -0.45593999997E+02  0.45594000000E+02  0.51100000000E-03 0.  1.
    9900012    2    1    2    0    0 -0.33682438396E+00  0.97043072675E+00 -0.58146671408E+00  0.90007622941E+02  0.89999882764E+02 0.  0.
        -12    1    1    2    0    0  0.33682438396E+00 -0.97043072675E+00  0.58146671408E+00  0.11803770587E+01  0.00000000000E+00 0.  1.
         11    1    3    3    0    0  0.32688362008E+01 -0.87936078584E+01  0.29309135379E+01  0.98286867740E+01  0.51100000000E-03 0. -1.
        -11    1    3    3    0    0 -0.11723450280E+02 -0.96975068400E+01 -0.37338043295E+02  0.40318859145E+02  0.51100000000E-03 0.  1.
         12    1    3    3    0    0  0.81177896957E+01  0.19461545425E+02  0.33825663043E+02  0.39860077022E+02  0.00000000000E+00 0. -1.
</event>
<event>
 7    1  0.2895479E-015  0.9000779E+02  0.7816164E-02  0.1186339E+00
        -11   -1    0    0    0    0  0.00000000000E+00  0.00000000000E+00  0.45593999997E+02  0.45594000000E+02  0.51100000000E-03 0.  1.
         11   -1    0    0    0    0 -0.00000000000E+00 -0.00000000000E+00 -0.45593999997E+02  0.45594000000E+02  0.51100000000E-03 0. -1.
    9900012    2    1    2    0    0 -0.30023301518E+00  0.55915215154E+00 -0.99503789343E+00  0.90007791797E+02  0.90000053849E+02 0.  0.
        -12    1    1    2    0    0  0.30023301518E+00 -0.55915215154E+00  0.99503789343E+00  0.11802082025E+01  0.00000000000E+00 0.  1.
         11    1    3    3    0    0  0.34376804850E+01  0.32535763310E+02 -0.25929404618E+02  0.41745988615E+02  0.51100000000E-03 0. -1.
        -11    1    3    3    0    0 -0.86304440403E+01  0.24357228358E+00  0.39016378041E+01  0.94745274080E+01  0.51100000000E-03 0.  1.
        -12    1    3    3    0    0  0.48925305401E+01 -0.32220183442E+02  0.21032728921E+02  0.38787275775E+02  0.00000000000E+00 0.  1.
</event>
<event>
 7    1  0.2895479E-015  0.9000753E+02  0.7816164E-02  0.1186339E+00
        -11   -1    0    0    0    0  0.00000000000E+00  0.00000000000E+00  0.45593999997E+02  0.45594000000E+02  0.51100000000E-03 0. -1.
         11   -1    0    0    0    0 -0.00000000000E+00 -0.00000000000E+00 -0.45593999997E+02  0.45594000000E+02  0.51100000000E-03 0.  1.
    9900012    2    1    2    0    0  0.11007653518E+01  0.20913214008E+00  0.37160643451E+00  0.90007528927E+02  0.89999787509E+02 0.  0.
        -12    1    1    2    0    0 -0.11007653518E+01 -0.20913214008E+00 -0.37160643451E+00  0.11804710729E+01  0.00000000000E+00 0.  1.
         11    1    3    3    0    0  0.26566189638E+02  0.19925873619E+02  0.15679252358E+02  0.36723859085E+02  0.51100000000E-03 0. -1.
        -11    1    3    3    0    0  0.93739711971E+01  0.91332344777E+00  0.13252079441E+01  0.95111341112E+01  0.51100000000E-03 0.  1.
        -12    1    3    3    0    0 -0.34839395484E+02 -0.20630064926E+02 -0.16632853867E+02  0.43772535731E+02  0.00000000000E+00 0.  1.
</event>
<event>
 7    1  0.2895479E-015  0.9000773E+02  0.7816164E-02  0.1186339E+00
        -11   -1    0    0    0    0  0.00000000000E+00  0.00000000000E+00  0.45593999997E+02  0.45594000000E+02  0.51100000000E-03 0.  1.
         11   -1    0    0    0    0 -0.00000000000E+00 -0.00000000000E+00 -0.45593999997E+02  0.45594000000E+02  0.51100000000E-03 0. -1.
    9900012    2    1    2    0    0  0.25405433397E+00 -0.64286608964E+00  0.95666405912E+00  0.90007734549E+02  0.89999995845E+02 0.  0.
        -12    1    1    2    0    0 -0.25405433397E+00  0.64286608964E+00 -0.95666405912E+00  0.11802654514E+01  0.00000000000E+00 0.  1.
         11    1    3    3    0    0  0.19544347948E+02 -0.35959499094E+02 -0.91842111052E+00  0.40937887212E+02  0.51100000000E-03 0. -1.
        -11    1    3    3    0    0 -0.64316822976E+01 -0.38530325514E+01  0.22967895747E+01  0.78414054627E+01  0.51100000000E-03 0.  1.
        -12    1    3    3    0    0 -0.12858611316E+02  0.39169665556E+02 -0.42170440502E+00  0.41228441874E+02  0.00000000000E+00 0.  1.
</event>
<event>
 7    1  0.2895479E-015  0.9000757E+02  0.7816164E-02  0.1186339E+00
        -11   -1    0    0    0    0  0.00000000000E+00  0.00000000000E+00  0.45593999997E+02  0.45594000000E+02  0.51100000000E-03 0. -1.
         11   -1    0    0    0    0 -0.00000000000E+00 -0.00000000000E+00 -0.45593999997E+02  0.45594000000E+02  0.51100000000E-03 0.  1.
    9900012    2    1    2    0    0  0.83648555013E+00 -0.81846869414E+00 -0.15434830673E+00  0.90007566826E+02  0.89999825908E+02 0.  0.
        -12    1    1    2    0    0 -0.83648555013E+00  0.81846869414E+00  0.15434830673E+00  0.11804331742E+01  0.00000000000E+00 0.  1.
         11    1    3    3    0    0  0.11725022859E+02  0.44105299158E+00  0.13363290687E+01  0.11809168659E+02  0.51100000000E-03 0. -1.
        -11    1    3    3    0    0  0.26899298792E+02 -0.50507216553E+00 -0.22396778858E+02  0.35006329098E+02  0.51100000000E-03 0.  1.
         12    1    3    3    0    0 -0.37787836101E+02 -0.75444952018E+00  0.20906101483E+02  0.43192069069E+02  0.00000000000E+00 0. -1.
</event>
<event>
 7    1  0.2895479E-015  0.9000772E+02  0.7816164E-02  0.1186339E+00
        -11   -1    0    0    0    0  0.00000000000E+00  0.00000000000E+00  0.45593999997E+02  0.45594000000E+02  0.51100000000E-03 0. -1.
         11   -1    0    0    0    0 -0.00000000000E+00 -0.00000000000E+00 -0.45593999997E+02  0.45594000000E+02  0.51100000000E-03 0.  1.
    9900012    2    1    2    0    0 -0.67256095643E-01 -0.11782026645E+01  0.19630761143E-01  0.90007716022E+02  0.89999977074E+02 0.  0.
        -12    1    1    2    0    0  0.67256095643E-01  0.11782026645E+01 -0.19630761143E-01  0.11802839776E+01  0.00000000000E+00 0.  1.
         11    1    3    3    0    0 -0.42447990266E+01 -0.13895183937E+01 -0.75375962021E+01  0.87615316532E+01  0.51100000000E-03 0. -1.
        -11    1    3    3    0    0  0.32189714966E+02  0.39361899934E+00 -0.23172311483E+02  0.39664703519E+02  0.51100000000E-03 0.  1.
         12    1    3    3    0    0 -0.28012172035E+02 -0.18230327018E+00  0.30729538446E+02  0.41581480850E+02  0.00000000000E+00 0. -1.
</event>
<event>
 7    1  0.2895479E-015  0.9000772E+02  0.7816164E-02  0.1186339E+00
        -11   -1    0    0    0    0  0.00000000000E+00  0.00000000000E+00  0.45593999997E+02  0.45594000000E+02  0.51100000000E-03 0. -1.
         11   -1    0    0    0    0 -0.00000000000E+00 -0.00000000000E+00 -0.45593999997E+02  0.45594000000E+02  0.51100000000E-03 0.  1.
    9900012    2    1    2    0    0 -0.40539712423E+00  0.10995491611E+01 -0.14038182297E+00  0.90007719422E+02  0.89999980519E+02 0.  0.
        -12    1    1    2    0    0  0.40539712423E+00 -0.10995491611E+01  0.14038182297E+00  0.11802805777E+01  0.00000000000E+00 0.  1.
         11    1    3    3    0    0  0.27156811577E+01  0.20109181162E+02  0.31747133775E+02  0.37678038622E+02  0.51100000000E-03 0. -1.
        -11    1    3    3    0    0  0.16869537113E+01  0.78891715569E+01  0.24641866124E+01  0.84354642196E+01  0.51100000000E-03 0.  1.
        -12    1    3    3    0    0 -0.48080319933E+01 -0.26898803558E+02 -0.34351702211E+02  0.43894216581E+02  0.00000000000E+00 0.  1.
</event>
<event>
 7    1  0.2895479E-015  0.9000783E+02  0.7816164E-02  0.1186339E+00
        -11   -1    0    0    0    0  0.00000000000E+00  0.00000000000E+00  0.45593999997E+02  0.45594000000E+02  0.51100000000E-03 0.  1.
         11   -1    0    0    0    0 -0.00000000000E+00 -0.00000000000E+00 -0.45593999997E+02  0.45594000000E+02  0.51100000000E-03 0. -1.
    9900012    2    1    2    0    0  0.17788759067E+00 -0.11642383313E+01 -0.75611501987E-01  0.90007825442E+02  0.90000087938E+02 0.  0.
        -12    1    1    2    0    0 -0.17788759067E+00  0.11642383313E+01  0.75611501987E-01  0.11801745576E+01  0.00000000000E+00 0.  1.
         11    1    3    3    0    0 -0.31124327445E+02  0.22874709596E+02  0.13913789608E+02  0.41055689491E+02  0.51100000000E-03 0. -1.
        -11    1    3    3    0    0  0.33832592610E+00 -0.76566998013E+01  0.49557005138E+01  0.91268003222E+01  0.51100000000E-03 0.  1.
        -12    1    3    3    0    0  0.30963889110E+02 -0.16382248126E+02 -0.18945101624E+02  0.39825335630E+02  0.00000000000E+00 0.  1.
</event>
<event>
 7    1  0.2895479E-015  0.9000776E+02  0.7816164E-02  0.1186339E+00
        -11   -1    0    0    0    0  0.00000000000E+00  0.00000000000E+00  0.45593999997E+02  0.45594000000E+02  0.51100000000E-03 0. -1.
         11   -1    0    0    0    0 -0.00000000000E+00 -0.00000000000E+00 -0.45593999997E+02  0.45594000000E+02  0.51100000000E-03 0.  1.
    9900012    2    1    2    0    0 -0.88521531867E+00  0.20227729949E+00  0.75395743164E+00  0.90007756773E+02  0.90000018362E+02 0.  0.
        -12    1    1    2    0    0  0.88521531867E+00 -0.20227729949E+00 -0.75395743164E+00  0.11802432271E+01  0.00000000000E+00 0.  1.
         11    1    3    3    0    0 -0.66880789994E+01  0.24454841347E+01  0.63521638381E+01  0.95425771698E+01  0.51100000000E-03 0. -1.
        -11    1    3    3    0    0  0.32443660478E+02 -0.27517366730E+02  0.33345799684E+01  0.42672192360E+02  0.51100000000E-03 0.  1.
         12    1    3    3    0    0 -0.26640796797E+02  0.25274159895E+02 -0.89327863748E+01  0.37792987243E+02  0.00000000000E+00 0. -1.
</event>
<event>
 7    1  0.2895479E-015  0.9000770E+02  0.7816164E-02  0.1186339E+00
        -11   -1    0    0    0    0  0.00000000000E+00  0.00000000000E+00  0.45593999997E+02  0.45594000000E+02  0.51100000000E-03 0. -1.
         11   -1    0    0    0    0 -0.00000000000E+00 -0.00000000000E+00 -0.45593999997E+02  0.45594000000E+02  0.51100000000E-03 0.  1.
    9900012    2    1    2    0    0 -0.36700889510E-01  0.11037590970E+01  0.41649356438E+00  0.90007704279E+02  0.89999965176E+02 0.  0.
        -12    1    1    2    0    0  0.36700889510E-01 -0.11037590970E+01 -0.41649356438E+00  0.11802957209E+01  0.00000000000E+00 0.  1.
         11    1    3    3    0    0 -0.60721712380E+01  0.38363795190E+01 -0.56390240668E+01  0.91316846225E+01  0.51100000000E-03 0. -1.
        -11    1    3    3    0    0  0.52179851579E+01  0.20707127599E+02 -0.30626857105E+02  0.37336535443E+02  0.51100000000E-03 0.  1.
         12    1    3    3    0    0  0.81748519064E+00 -0.23439748021E+02  0.36682374736E+02  0.43539484214E+02  0.00000000000E+00 0. -1.
</event>
<event>
 7    1  0.2895479E-015  0.9000771E+02  0.7816164E-02  0.1186339E+00
        -11   -1    0    0    0    0  0.00000000000E+00  0.00000000000E+00  0.45593999997E+02  0.45594000000E+02  0.51100000000E-03 0.  1.
         11   -1    0    0    0    0 -0.00000000000E+00 -0.00000000000E+00 -0.45593999997E+02  0.45594000000E+02  0.51100000000E-03 0. -1.
    9900012    2    1    2    0    0  0.71236359758E+00  0.93504955327E+00  0.10635776732E+00  0.90007707012E+02  0.89999967945E+02 0.  0.
        -12    1    1    2    0    0 -0.71236359758E+00 -0.93504955327E+00 -0.10635776732E+00  0.11802929877E+01  0.00000000000E+00 0.  1.
         11    1    3    3    0    0 -0.27335364901E+02 -0.21999606996E+02 -0.21934466441E+02  0.41380257377E+02  0.51100000000E-03 0. -1.
        -11    1    3    3    0    0 -0.34585264893E+01  0.72386210070E+01  0.55592531105E+01  0.97603450230E+01  0.51100000000E-03 0.  1.
        -12    1    3    3    0    0  0.31506254988E+02  0.15696035542E+02  0.16481571098E+02  0.38867104612E+02  0.00000000000E+00 0.  1.
</event>
<event>
 7    1  0.2895479E-015  0.9000776E+02  0.7816164E-02  0.1186339E+00
        -11   -1    0    0    0    0  0.00000000000E+00  0.00000000000E+00  0.45593999997E+02  0.45594000000E+02  0.51100000000E-03 0.  1.
         11   -1    0    0    0    0 -0.00000000000E+00 -0.00000000000E+00 -0.45593999997E+02  0.45594000000E+02  0.51100000000E-03 0. -1.
    9900012    2    1    2    0    0 -0.77683905884E+00  0.83691034805E+00 -0.29843916837E+00  0.90007761130E+02  0.90000022776E+02 0.  0.
        -12    1    1    2    0    0  0.77683905884E+00 -0.83691034805E+00  0.29843916837E+00  0.11802388704E+01  0.00000000000E+00 0.  1.
         11    1    3    3    0    0 -0.35533563225E+02  0.10644285230E+02 -0.54512443564E+00  0.37097602139E+02  0.51100000000E-03 0. -1.
        -11    1    3    3    0    0 -0.47728772058E+01 -0.51995935634E+00  0.10049680763E+02  0.11137629831E+02  0.51100000000E-03 0.  1.
        -12    1    3    3    0    0  0.39529601372E+02 -0.92874155254E+01 -0.98029954953E+01  0.41772529160E+02  0.00000000000E+00 0.  1.
</event>
<event>
 7    1  0.2895479E-015  0.9000781E+02  0.7816164E-02  0.1186339E+00
        -11   -1    0    0    0    0  0.00000000000E+00  0.00000000000E+00  0.45593999997E+02  0.45594000000E+02  0.51100000000E-03 0.  1.
         11   -1    0    0    0    0 -0.00000000000E+00 -0.00000000000E+00 -0.45593999997E+02  0.45594000000E+02  0.51100000000E-03 0. -1.
    9900012    2    1    2    0    0 -0.10150500724E+01  0.18730892691E+00 -0.57222810900E+00  0.90007806672E+02  0.90000068920E+02 0.  0.
        -12    1    1    2    0    0  0.10150500724E+01 -0.18730892691E+00  0.57222810900E+00  0.11801933284E+01  0.00000000000E+00 0.  1.
         11    1    3    3    0    0 -0.47872678003E+01  0.66784911853E+01 -0.29113742234E+01  0.87175843922E+01  0.51100000000E-03 0. -1.
        -11    1    3    3    0    0  0.18560918816E+02  0.30855418307E+02 -0.13014753571E+02  0.38287705037E+02  0.51100000000E-03 0.  1.
         12    1    3    3    0    0 -0.14788701088E+02 -0.37346600565E+02  0.15353899685E+02  0.43002517243E+02  0.00000000000E+00 0. -1.
</event>
<event>
 7    1  0.2895479E-015  0.9000772E+02  0.7816164E-02  0.1186339E+00
        -11   -1    0    0    0    0  0.00000000000E+00  0.00000000000E+00  0.45593999997E+02  0.45594000000E+02  0.51100000000E-03 0.  1.
         11   -1    0    0    0    0 -0.00000000000E+00 -0.00000000000E+00 -0.45593999997E+02  0.45594000000E+02  0.51100000000E-03 0. -1.
    9900012    2    1    2    0    0  0.10565795915E+01 -0.52143801997E+00  0.69299921484E-01  0.90007720151E+02  0.89999981257E+02 0.  0.
        -12    1    1    2    0    0 -0.10565795915E+01  0.52143801997E+00 -0.69299921484E-01  0.11802798485E+01  0.00000000000E+00 0.  1.
         11    1    3    3    0    0  0.28789045027E+02 -0.34479953273E+00 -0.20656794132E+02  0.35434885980E+02  0.51100000000E-03 0. -1.
        -11    1    3    3    0    0  0.95785512478E+01  0.55905250630E+01 -0.78883223182E+00  0.11118672180E+02  0.51100000000E-03 0.  1.
        -12    1    3    3    0    0 -0.37311016684E+02 -0.57671635502E+01  0.21514926286E+02  0.43454161992E+02  0.00000000000E+00 0.  1.
</event>
<event>
 7    1  0.2895479E-015  0.9000777E+02  0.7816164E-02  0.1186339E+00
        -11   -1    0    0    0    0  0.00000000000E+00  0.00000000000E+00  0.45593999997E+02  0.45594000000E+02  0.51100000000E-03 0.  1.
         11   -1    0    0    0    0 -0.00000000000E+00 -0.00000000000E+00 -0.45593999997E+02  0.45594000000E+02  0.51100000000E-03 0. -1.
    9900012    2    1    2    0    0 -0.80052097503E+00  0.31071478491E+00 -0.80966403973E+00  0.90007774019E+02  0.90000035836E+02 0.  0.
        -12    1    1    2    0    0  0.80052097503E+00 -0.31071478491E+00  0.80966403973E+00  0.11802259810E+01  0.00000000000E+00 0.  1.
         11    1    3    3    0    0 -0.19929887997E+01  0.23726579968E-01 -0.10408358727E+02  0.10597476065E+02  0.51100000000E-03 0. -1.
        -11    1    3    3    0    0 -0.25204791058E+02 -0.23689808495E+02 -0.13268081374E+02  0.37047678772E+02  0.51100000000E-03 0.  1.
         12    1    3    3    0    0  0.26397258883E+02  0.23976796699E+02  0.22866776061E+02  0.42362619182E+02  0.00000000000E+00 0. -1.
</event>
<event>
 7    1  0.2895479E-015  0.9000783E+02  0.7816164E-02  0.1186339E+00
        -11   -1    0    0    0    0  0.00000000000E+00  0.00000000000E+00  0.45593999997E+02  0.45594000000E+02  0.51100000000E-03 0.  1.
         11   -1    0    0    0    0 -0.00000000000E+00 -0.00000000000E+00 -0.45593999997E+02  0.45594000000E+02  0.51100000000E-03 0. -1.
    9900012    2    1    2    0    0  0.11147848987E+01 -0.36879638946E+00  0.11854043172E+00  0.90007827139E+02  0.90000089657E+02 0.  0.
        -12    1    1    2    0    0 -0.11147848987E+01  0.36879638946E+00 -0.11854043172E+00  0.11801728608E+01  0.00000000000E+00 0.  1.
         11    1    3    3    0    0  0.36407786451E+02 -0.75390287417E+01 -0.14439608872E+02  0.39885663756E+02  0.51100000000E-03 0. -1.
        -11    1    3    3    0    0 -0.28732541071E+01  0.90856526055E+01 -0.63923575603E+01  0.11474620162E+02  0.51100000000E-03 0.  1.
        -12    1    3    3    0    0 -0.32419747445E+02 -0.19154202532E+01  0.20950506864E+02  0.38647543221E+02  0.00000000000E+00 0.  1.
</event>
<event>
 7    1  0.2895479E-015  0.9000782E+02  0.7816164E-02  0.1186339E+00
        -11   -1    0    0    0    0  0.00000000000E+00  0.00000000000E+00  0.45593999997E+02  0.45594000000E+02  0.51100000000E-03 0.  1.
         11   -1    0    0    0    0 -0.00000000000E+00 -0.00000000000E+00 -0.45593999997E+02  0.45594000000E+02  0.51100000000E-03 0. -1.
    9900012    2    1    2    0    0  0.60618526063E+00  0.33872280801E+00 -0.95426922740E+00  0.90007820578E+02  0.90000083009E+02 0.  0.
        -12    1    1    2    0    0 -0.60618526063E+00 -0.33872280801E+00  0.95426922740E+00  0.11801794225E+01  0.00000000000E+00 0.  1.
         11    1    3    3    0    0  0.28711014823E+02 -0.20230914159E+02  0.47468624493E+01  0.35442135422E+02  0.51100000000E-03 0. -1.
        -11    1    3    3    0    0  0.32443429161E+01 -0.99383499906E+01 -0.21893703515E+01  0.10681287576E+02  0.51100000000E-03 0.  1.
        -12    1    3    3    0    0 -0.31349172479E+02  0.30507986958E+02 -0.35117613251E+01  0.43884397579E+02  0.00000000000E+00 0.  1.
</event>
<event>
 7    1  0.2895479E-015  0.9000771E+02  0.7816164E-02  0.1186339E+00
        -11   -1    0    0    0    0  0.00000000000E+00  0.00000000000E+00  0.45593999997E+02  0.45594000000E+02  0.51100000000E-03 0. -1.
         11   -1    0    0    0    0 -0.00000000000E+00 -0.00000000000E+00 -0.45593999997E+02  0.45594000000E+02  0.51100000000E-03 0.  1.
    9900012    2    1    2    0    0  0.33153594314E+00 -0.48319420625E+00  0.10245444417E+01  0.90007710190E+02  0.89999971165E+02 0.  0.
        -12    1    1    2    0    0 -0.33153594314E+00  0.48319420625E+00 -0.10245444417E+01  0.11802898100E+01  0.00000000000E+00 0.  1.
         11    1    3    3    0    0  0.56234552203E+01 -0.39107901399E+01  0.41916261763E+02  0.42472232442E+02  0.51100000000E-03 0. -1.
        -11    1    3    3    0    0  0.54232815260E+01  0.59261896973E+01 -0.38764376889E+01  0.89195558329E+01  0.51100000000E-03 0.  1.
        -12    1    3    3    0    0 -0.10715200803E+02 -0.24985937637E+01 -0.37015279633E+02  0.38615921915E+02  0.00000000000E+00 0.  1.
</event>
<event>
 7    1  0.2895479E-015  0.9000760E+02  0.7816164E-02  0.1186339E+00
        -11   -1    0    0    0    0  0.00000000000E+00  0.00000000000E+00  0.45593999997E+02  0.45594000000E+02  0.51100000000E-03 0. -1.
         11   -1    0    0    0    0 -0.00000000000E+00 -0.00000000000E+00 -0.45593999997E+02  0.45594000000E+02  0.51100000000E-03 0.  1.
    9900012    2    1    2    0    0  0.93991923691E+00  0.51855860143E+00 -0.49090179610E+00  0.90007603555E+02  0.89999863121E+02 0.  0.
        -12    1    1    2    0    0 -0.93991923691E+00 -0.51855860143E+00  0.49090179610E+00  0.11803964455E+01  0.00000000000E+00 0.  1.
         11    1    3    3    0    0 -0.67524353991E+01  0.57406359316E+01 -0.17347427149E+01  0.90310363340E+01  0.51100000000E-03 0. -1.
        -11    1    3    3    0    0  0.12107050963E+02  0.31581369178E+02 -0.18945968702E+02  0.38767425663E+02  0.51100000000E-03 0.  1.
         12    1    3    3    0    0 -0.44146963272E+01 -0.36803446508E+02  0.20189809621E+02  0.42209141558E+02  0.00000000000E+00 0. -1.
</event>
<event>
 7    1  0.2895479E-015  0.9000781E+02  0.7816164E-02  0.1186339E+00
        -11   -1    0    0    0    0  0.00000000000E+00  0.00000000000E+00  0.45593999997E+02  0.45594000000E+02  0.51100000000E-03 0.  1.
         11   -1    0    0    0    0 -0.00000000000E+00 -0.00000000000E+00 -0.45593999997E+02  0.45594000000E+02  0.51100000000E-03 0. -1.
    9900012    2    1    2    0    0  0.10267031280E+01  0.57997615418E+00  0.48523792170E-01  0.90007810943E+02  0.90000073247E+02 0.  0.
        -12    1    1    2    0    0 -0.10267031280E+01 -0.57997615418E+00 -0.48523792170E-01  0.11801890573E+01  0.00000000000E+00 0.  1.
         11    1    3    3    0    0  0.15921406246E+02  0.39142146427E+01 -0.34293093185E+02  0.38010899668E+02  0.51100000000E-03 0. -1.
        -11    1    3    3    0    0  0.40090141198E+01  0.10289825770E+02  0.68928588654E+00  0.11064710745E+02  0.51100000000E-03 0.  1.
        -12    1    3    3    0    0 -0.18903717238E+02 -0.13624064258E+02  0.33652331091E+02  0.40932200529E+02  0.00000000000E+00 0.  1.
</event>
<event>
 7    1  0.2895479E-015  0.9000793E+02  0.7816164E-02  0.1186339E+00
        -11   -1    0    0    0    0  0.00000000000E+00  0.00000000000E+00  0.45593999997E+02  0.45594000000E+02  0.51100000000E-03 0. -1.
         11   -1    0    0    0    0 -0.00000000000E+00 -0.00000000000E+00 -0.45593999997E+02  0.45594000000E+02  0.51100000000E-03 0.  1.
    9900012    2    1    2    0    0 -0.55727811455E+00 -0.10362882613E+01 -0.90027753368E-01  0.90007933369E+02  0.90000197289E+02 0.  0.
        -12    1    1    2    0    0  0.55727811455E+00  0.10362882613E+01  0.90027753368E-01  0.11800666311E+01  0.00000000000E+00 0.  1.
         11    1    3    3    0    0 -0.17497114197E+02 -0.10730860510E+01  0.28593864202E+02  0.33539671871E+02  0.51100000000E-03 0. -1.
        -11    1    3    3    0    0 -0.63140100977E+01 -0.65852431051E+01  0.82658719786E+01  0.12310840349E+02  0.51100000000E-03 0.  1.
        -12    1    3    3    0    0  0.23253846180E+02  0.66220408948E+01 -0.36949763934E+02  0.44157421150E+02  0.00000000000E+00 0.  1.
</event>
<event>
 7    1  0.2895479E-015  0.9000788E+02  0.7816164E-02  0.1186339E+00
        -11   -1    0    0    0    0  0.00000000000E+00  0.00000000000E+00  0.45593999997E+02  0.45594000000E+02  0.51100000000E-03 0.  1.
         11   -1    0    0    0    0 -0.00000000000E+00 -0.00000000000E+00 -0.45593999997E+02  0.45594000000E+02  0.51100000000E-03 0. -1.
    9900012    2    1    2    0    0  0.11607659404E+01 -0.10169357510E+00  0.18701457681E+00  0.90007875598E+02  0.90000138756E+02 0.  0.
        -12    1    1    2    0    0 -0.11607659404E+01  0.10169357510E+00 -0.18701457681E+00  0.11801244017E+01  0.00000000000E+00 0.  1.
         11    1    3    3    0    0  0.30954917156E+01  0.75417041060E+01 -0.53213886441E+01  0.97353247068E+01  0.51100000000E-03 0. -1.
        -11    1    3    3    0    0  0.18580428127E+02  0.22432938027E+02  0.25521639432E+02  0.38727549593E+02  0.51100000000E-03 0.  1.
         12    1    3    3    0    0 -0.20515153903E+02 -0.30076335708E+02 -0.20013236211E+02  0.41545001299E+02  0.00000000000E+00 0. -1.
</event>
<event>
 7    1  0.2895479E-015  0.9000819E+02  0.7816164E-02  0.1186338E+00
        -11   -1    0    0    0    0  0.00000000000E+00  0.00000000000E+00  0.45593999997E+02  0.45594000000E+02  0.51100000000E-03 0. -1.
         11   -1    0    0    0    0 -0.00000000000E+00 -0.00000000000E+00 -0.45593999997E+02  0.45594000000E+02  0.51100000000E-03 0.  1.
    9900012    2    1    2    0    0  0.69392511981E+00 -0.14672206422E-01  0.95405188004E+00  0.90008185466E+02  0.90000452713E+02 0.  0.
        -12    1    1    2    0    0 -0.69392511981E+00  0.14672206422E-01 -0.95405188004E+00  0.11798145343E+01  0.00000000000E+00 0.  1.
         11    1    3    3    0    0  0.19225372799E+01  0.58533991648E+01  0.86467450495E+01  0.10617185672E+02  0.51100000000E-03 0. -1.
        -11    1    3    3    0    0  0.25658270335E+02  0.26084393119E+02  0.15466456267E+01  0.36621503436E+02  0.51100000000E-03 0.  1.
         12    1    3    3    0    0 -0.26886882495E+02 -0.31952464490E+02 -0.92393387961E+01  0.42769496358E+02  0.00000000000E+00 0. -1.
</event>
<event>
 7    1  0.2895479E-015  0.9000777E+02  0.7816164E-02  0.1186339E+00
        -11   -1    0    0    0    0  0.00000000000E+00  0.00000000000E+00  0.45593999997E+02  0.45594000000E+02  0.51100000000E-03 0.  1.
         11   -1    0    0    0    0 -0.00000000000E+00 -0.00000000000E+00 -0.45593999997E+02  0.45594000000E+02  0.51100000000E-03 0. -1.
    9900012    2    1    2    0    0  0.24393415741E+00  0.10031878971E+01 -0.57188819240E+00  0.90007768694E+02  0.90000030441E+02 0.  0.
        -12    1    1    2    0    0 -0.24393415741E+00 -0.10031878971E+01  0.57188819240E+00  0.11802313056E+01  0.00000000000E+00 0.  1.
         11    1    3    3    0    0 -0.23567968813E+01  0.49250470030E+01 -0.59754456593E+01  0.80942282282E+01  0.51100000000E-03 0. -1.
        -11    1    3    3    0    0 -0.12456825683E+02  0.18628878076E+02  0.35135322254E+02  0.41673714433E+02  0.51100000000E-03 0.  1.
         12    1    3    3    0    0  0.15057556722E+02 -0.22550737182E+02 -0.29731764787E+02  0.40239826034E+02  0.00000000000E+00 0. -1.
</event>
<event>
 7    1  0.2895479E-015  0.9000775E+02  0.7816164E-02  0.1186339E+00
        -11   -1    0    0    0    0  0.00000000000E+00  0.00000000000E+00  0.45593999997E+02  0.45594000000E+02  0.51100000000E-03 0. -1.
         11   -1    0    0    0    0 -0.00000000000E+00 -0.00000000000E+00 -0.45593999997E+02  0.45594000000E+02  0.51100000000E-03 0.  1.
    9900012    2    1    2    0    0  0.85080258159E+00  0.77179344916E+00 -0.27103751936E+00  0.90007749392E+02  0.90000010884E+02 0.  0.
        -12    1    1    2    0    0 -0.85080258159E+00 -0.77179344916E+00  0.27103751936E+00  0.11802506081E+01  0.00000000000E+00 0.  1.
         11    1    3    3    0    0 -0.28977652151E+01  0.49394644181E+01 -0.80315848781E+01  0.98641628076E+01  0.51100000000E-03 0. -1.
        -11    1    3    3    0    0  0.70321359806E+00 -0.12617015264E+02 -0.34603137650E+02  0.36838305051E+02  0.51100000000E-03 0.  1.
         12    1    3    3    0    0  0.30453541986E+01  0.84493442954E+01  0.42363685008E+02  0.43305281534E+02  0.00000000000E+00 0. -1.
</event>
<event>
 7    1  0.2895479E-015  0.9000770E+02  0.7816164E-02  0.1186339E+00
        -11   -1    0    0    0    0  0.00000000000E+00  0.00000000000E+00  0.45593999997E+02  0.45594000000E+02  0.51100000000E-03 0. -1.
         11   -1    0    0    0    0 -0.00000000000E+00 -0.00000000000E+00 -0.45593999997E+02  0.45594000000E+02  0.51100000000E-03 0.  1.
    9900012    2    1    2    0    0 -0.64994764957E+00 -0.66165894728E+00  0.72999080150E+00  0.90007698733E+02  0.89999959557E+02 0.  0.
        -12    1    1    2    0    0  0.64994764957E+00  0.66165894728E+00 -0.72999080150E+00  0.11803012666E+01  0.00000000000E+00 0.  1.
         11    1    3    3    0    0 -0.55973106316E+01  0.93814281133E+01 -0.72290181064E+01  0.13099610025E+02  0.51100000000E-03 0. -1.
        -11    1    3    3    0    0  0.25307115175E+02  0.15743307900E+02 -0.18190478907E+02  0.34916977894E+02  0.51100000000E-03 0.  1.
         12    1    3    3    0    0 -0.20359752193E+02 -0.25786394961E+02  0.26149487815E+02  0.41991110814E+02  0.00000000000E+00 0. -1.
</event>
<event>
 7    1  0.2895479E-015  0.9000776E+02  0.7816164E-02  0.1186339E+00
        -11   -1    0    0    0    0  0.00000000000E+00  0.00000000000E+00  0.45593999997E+02  0.45594000000E+02  0.51100000000E-03 0.  1.
         11   -1    0    0    0    0 -0.00000000000E+00 -0.00000000000E+00 -0.45593999997E+02  0.45594000000E+02  0.51100000000E-03 0. -1.
    9900012    2    1    2    0    0 -0.45124185944E+00 -0.10887480248E+01  0.63119209275E-01  0.90007756164E+02  0.90000017746E+02 0.  0.
        -12    1    1    2    0    0  0.45124185944E+00  0.10887480248E+01 -0.63119209275E-01  0.11802438357E+01  0.00000000000E+00 0.  1.
         11    1    3    3    0    0  0.15811960255E+01 -0.32953191369E+02  0.22708023332E+02  0.40050809307E+02  0.51100000000E-03 0. -1.
        -11    1    3    3    0    0  0.87794278746E+01 -0.17509904109E+01 -0.24626529233E+01  0.92848791541E+01  0.51100000000E-03 0.  1.
        -12    1    3    3    0    0 -0.10811865760E+02  0.33615433755E+02 -0.20182251200E+02  0.40672067703E+02  0.00000000000E+00 0.  1.
</event>
<event>
 7    1  0.2895479E-015  0.9000771E+02  0.7816164E-02  0.1186339E+00
        -11   -1    0    0    0    0  0.00000000000E+00  0.00000000000E+00  0.45593999997E+02  0.45594000000E+02  0.51100000000E-03 0.  1.
         11   -1    0    0    0    0 -0.00000000000E+00 -0.00000000000E+00 -0.45593999997E+02  0.45594000000E+02  0.51100000000E-03 0. -1.
    9900012    2    1    2    0    0  0.91028616424E+00 -0.68969362500E+00  0.29797491751E+00  0.90007708829E+02  0.89999969785E+02 0.  0.
        -12    1    1    2    0    0 -0.91028616424E+00  0.68969362500E+00 -0.29797491751E+00  0.11802911711E+01  0.00000000000E+00 0.  1.
         11    1    3    3    0    0  0.12343422117E+02  0.26958222721E+02 -0.22946777366E+02  0.37492138290E+02  0.51100000000E-03 0. -1.
        -11    1    3    3    0    0  0.28393925864E+01  0.11942946702E+01 -0.74388580106E+01  0.80514035287E+01  0.51100000000E-03 0.  1.
        -12    1    3    3    0    0 -0.14272528539E+02 -0.28842211016E+02  0.30683610295E+02  0.44464167010E+02  0.00000000000E+00 0.  1.
</event>
<event>
 7    1  0.2895479E-015  0.9000775E+02  0.7816164E-02  0.1186339E+00
        -11   -1    0    0    0    0  0.00000000000E+00  0.00000000000E+00  0.45593999997E+02  0.45594000000E+02  0.51100000000E-03 0.  1.
         11   -1    0    0    0    0 -0.00000000000E+00 -0.00000000000E+00 -0.45593999997E+02  0.45594000000E+02  0.51100000000E-03 0. -1.
    9900012    2    1    2    0    0 -0.92351275090E+00  0.41193868874E+00 -0.60862427439E+00  0.90007748844E+02  0.90000010329E+02 0.  0.
        -12    1    1    2    0    0  0.92351275090E+00 -0.41193868874E+00  0.60862427439E+00  0.11802511562E+01  0.00000000000E+00 0.  1.
         11    1    3    3    0    0 -0.92072338749E+01 -0.25190548659E+01  0.69847910699E+01  0.11828190884E+02  0.51100000000E-03 0. -1.
        -11    1    3    3    0    0  0.15919077626E+02 -0.39095205305E+01  0.32712854131E+02  0.36590056148E+02  0.51100000000E-03 0.  1.
         12    1    3    3    0    0 -0.76353565022E+01  0.68405140852E+01 -0.40306269476E+02  0.41589501811E+02  0.00000000000E+00 0. -1.
</event>
<event>
 7    1  0.2895479E-015  0.9000770E+02  0.7816164E-02  0.1186339E+00
        -11   -1    0    0    0    0  0.00000000000E+00  0.00000000000E+00  0.45593999997E+02  0.45594000000E+02  0.51100000000E-03 0.  1.
         11   -1    0    0    0    0 -0.00000000000E+00 -0.00000000000E+00 -0.45593999997E+02  0.45594000000E+02  0.51100000000E-03 0. -1.
    9900012    2    1    2    0    0  0.13012927231E+00  0.64619287856E+00 -0.97908627144E+00  0.90007699703E+02  0.89999960539E+02 0.  0.
        -12    1    1    2    0    0 -0.13012927231E+00 -0.64619287856E+00  0.97908627144E+00  0.11803002968E+01  0.00000000000E+00 0.  1.
         11    1    3    3    0    0 -0.16438579188E+02  0.34626207795E+02 -0.41938270328E+01  0.38558907368E+02  0.51100000000E-03 0. -1.
        -11    1    3    3    0    0 -0.15986465553E+01 -0.22904383018E+01  0.13271181783E+02  0.13561933660E+02  0.51100000000E-03 0.  1.
        -12    1    3    3    0    0  0.18167355016E+02 -0.31689576614E+02 -0.10056441022E+02  0.37886858675E+02  0.00000000000E+00 0.  1.
</event>
<event>
 7    1  0.2895479E-015  0.9000788E+02  0.7816164E-02  0.1186339E+00
        -11   -1    0    0    0    0  0.00000000000E+00  0.00000000000E+00  0.45593999997E+02  0.45594000000E+02  0.51100000000E-03 0.  1.
         11   -1    0    0    0    0 -0.00000000000E+00 -0.00000000000E+00 -0.45593999997E+02  0.45594000000E+02  0.51100000000E-03 0. -1.
    9900012    2    1    2    0    0 -0.16671110205E+00 -0.10186880966E+01 -0.57198730233E+00  0.90007878183E+02  0.90000141375E+02 0.  0.
        -12    1    1    2    0    0  0.16671110205E+00  0.10186880966E+01  0.57198730233E+00  0.11801218173E+01  0.00000000000E+00 0.  1.
         11    1    3    3    0    0  0.97509247395E+01 -0.75362988936E-02 -0.19348889171E+00  0.97528471886E+01  0.51100000000E-03 0. -1.
        -11    1    3    3    0    0  0.29657097313E+02 -0.20578709740E+02  0.41569940933E+00  0.36099854873E+02  0.51100000000E-03 0.  1.
         12    1    3    3    0    0 -0.39574733155E+02  0.19567557942E+02 -0.79419781996E+00  0.44155176121E+02  0.00000000000E+00 0. -1.
</event>
<event>
 7    1  0.2895479E-015  0.9000772E+02  0.7816164E-02  0.1186339E+00
        -11   -1    0    0    0    0  0.00000000000E+00  0.00000000000E+00  0.45593999997E+02  0.45594000000E+02  0.51100000000E-03 0.  1.
         11   -1    0    0    0    0 -0.00000000000E+00 -0.00000000000E+00 -0.45593999997E+02  0.45594000000E+02  0.51100000000E-03 0. -1.
    9900012    2    1    2    0    0 -0.81313838182E+00  0.47881436319E+00  0.70895159613E+00  0.90007716310E+02  0.89999977366E+02 0.  0.
        -12    1    1    2    0    0  0.81313838182E+00 -0.47881436319E+00 -0.70895159613E+00  0.11802836896E+01  0.00000000000E+00 0.  1.
         11    1    3    3    0    0  0.22496086313E+02  0.18705680583E+02 -0.21853791439E+02  0.36518003587E+02  0.51100000000E-03 0. -1.
        -11    1    3    3    0    0  0.91374878943E+01 -0.20104093617E+01 -0.21475973262E+01  0.95993544240E+01  0.51100000000E-03 0.  1.
        -12    1    3    3    0    0 -0.32446712589E+02 -0.16216456858E+02  0.24710340361E+02  0.43890358299E+02  0.00000000000E+00 0.  1.
</event>
<event>
 7    1  0.2895479E-015  0.9000764E+02  0.7816164E-02  0.1186339E+00
        -11   -1    0    0    0    0  0.00000000000E+00  0.00000000000E+00  0.45593999997E+02  0.45594000000E+02  0.51100000000E-03 0. -1.
         11   -1    0    0    0    0 -0.00000000000E+00 -0.00000000000E+00 -0.45593999997E+02  0.45594000000E+02  0.51100000000E-03 0.  1.
    9900012    2    1    2    0    0  0.85005733134E+00  0.25278842910E+00  0.77893560298E+00  0.90007644066E+02  0.89999904168E+02 0.  0.
        -12    1    1    2    0    0 -0.85005733134E+00 -0.25278842910E+00 -0.77893560298E+00  0.11803559336E+01  0.00000000000E+00 0.  1.
         11    1    3    3    0    0 -0.30314310067E+02  0.23477110447E+02  0.13996807126E+02  0.40817186573E+02  0.51100000000E-03 0. -1.
        -11    1    3    3    0    0  0.62282623574E+01  0.57166547994E+01 -0.58598066857E+01  0.10286336994E+02  0.51100000000E-03 0.  1.
        -12    1    3    3    0    0  0.24936105041E+02 -0.28940976817E+02 -0.73580648371E+01  0.38904120500E+02  0.00000000000E+00 0.  1.
</event>
<event>
 7    1  0.2895479E-015  0.9000777E+02  0.7816164E-02  0.1186339E+00
        -11   -1    0    0    0    0  0.00000000000E+00  0.00000000000E+00  0.45593999997E+02  0.45594000000E+02  0.51100000000E-03 0.  1.
         11   -1    0    0    0    0 -0.00000000000E+00 -0.00000000000E+00 -0.45593999997E+02  0.45594000000E+02  0.51100000000E-03 0. -1.
    9900012    2    1    2    0    0 -0.89265598329E+00  0.35319359705E+00 -0.68656029423E+00  0.90007768896E+02  0.90000030645E+02 0.  0.
        -12    1    1    2    0    0  0.89265598329E+00 -0.35319359705E+00  0.68656029423E+00  0.11802311041E+01  0.00000000000E+00 0.  1.
         11    1    3    3    0    0  0.73767608224E+01 -0.17380913759E+01 -0.38135042057E+02  0.38880830686E+02  0.51100000000E-03 0. -1.
        -11    1    3    3    0    0 -0.61205396636E+01 -0.58324159671E+01 -0.36556199617E+01  0.92109521415E+01  0.51100000000E-03 0.  1.
        -12    1    3    3    0    0 -0.21488771421E+01  0.79237009400E+01  0.41104101724E+02  0.41915986069E+02  0.00000000000E+00 0.  1.
</event>
<event>
 7    1  0.2895479E-015  0.9000770E+02  0.7816164E-02  0.1186339E+00
        -11   -1    0    0    0    0  0.00000000000E+00  0.00000000000E+00  0.45593999997E+02  0.45594000000E+02  0.51100000000E-03 0. -1.
         11   -1    0    0    0    0 -0.00000000000E+00 -0.00000000000E+00 -0.45593999997E+02  0.45594000000E+02  0.51100000000E-03 0.  1.
    9900012    2    1    2    0    0 -0.93097226650E+00  0.96830919330E-01  0.71903779925E+00  0.90007703027E+02  0.89999963907E+02 0.  0.
        -12    1    1    2    0    0  0.93097226650E+00 -0.96830919330E-01 -0.71903779925E+00  0.11802969731E+01  0.00000000000E+00 0.  1.
         11    1    3    3    0    0  0.23200144108E+02  0.21798157855E+02  0.21338493989E+02  0.38324113798E+02  0.51100000000E-03 0. -1.
        -11    1    3    3    0    0  0.47402100158E+01 -0.11936916958E+02  0.29228823593E+01  0.13172046880E+02  0.51100000000E-03 0.  1.
        -12    1    3    3    0    0 -0.28871326390E+02 -0.97644099772E+01 -0.23542338549E+02  0.38511542349E+02  0.00000000000E+00 0.  1.
</event>
<event>
 7    1  0.2895479E-015  0.9000773E+02  0.7816164E-02  0.1186339E+00
        -11   -1    0    0    0    0  0.00000000000E+00  0.00000000000E+00  0.45593999997E+02  0.45594000000E+02  0.51100000000E-03 0. -1.
         11   -1    0    0    0    0 -0.00000000000E+00 -0.00000000000E+00 -0.45593999997E+02  0.45594000000E+02  0.51100000000E-03 0.  1.
    9900012    2    1    2    0    0 -0.19211443116E+00  0.71082673495E+00  0.92242060769E+00  0.90007727837E+02  0.89999989044E+02 0.  0.
        -12    1    1    2    0    0  0.19211443116E+00 -0.71082673495E+00 -0.92242060769E+00  0.11802721632E+01  0.00000000000E+00 0.  1.
         11    1    3    3    0    0 -0.25965069221E+02 -0.17739970135E+02  0.11647597932E+02  0.33534428545E+02  0.51100000000E-03 0. -1.
        -11    1    3    3    0    0 -0.86607441969E+01  0.29239007331E+01  0.98685454418E+01  0.13451612355E+02  0.51100000000E-03 0.  1.
        -12    1    3    3    0    0  0.34433698986E+02  0.15526896137E+02 -0.20593722766E+02  0.43021686937E+02  0.00000000000E+00 0.  1.
</event>
<event>
 7    1  0.2895479E-015  0.9000767E+02  0.7816164E-02  0.1186339E+00
        -11   -1    0    0    0    0  0.00000000000E+00  0.00000000000E+00  0.45593999997E+02  0.45594000000E+02  0.51100000000E-03 0. -1.
         11   -1    0    0    0    0 -0.00000000000E+00 -0.00000000000E+00 -0.45593999997E+02  0.45594000000E+02  0.51100000000E-03 0.  1.
    9900012    2    1    2    0    0 -0.11589619321E+01 -0.22237918535E+00  0.22898536471E-01  0.90007673941E+02  0.89999934437E+02 0.  0.
        -12    1    1    2    0    0  0.11589619321E+01  0.22237918535E+00 -0.22898536471E-01  0.11803260588E+01  0.00000000000E+00 0.  1.
         11    1    3    3    0    0 -0.22475207352E+02  0.33489773916E+02  0.17987861133E+01  0.40372460095E+02  0.51100000000E-03 0. -1.
        -11    1    3    3    0    0 -0.15929363692E+01 -0.39938821098E+01 -0.10295023357E+02  0.11156883381E+02  0.51100000000E-03 0.  1.
        -12    1    3    3    0    0  0.22909181789E+02 -0.29718270991E+02  0.85191357805E+01  0.38478330465E+02  0.00000000000E+00 0.  1.
</event>
<event>
 7    1  0.2895479E-015  0.9000778E+02  0.7816164E-02  0.1186339E+00
        -11   -1    0    0    0    0  0.00000000000E+00  0.00000000000E+00  0.45593999997E+02  0.45594000000E+02  0.51100000000E-03 0.  1.
         11   -1    0    0    0    0 -0.00000000000E+00 -0.00000000000E+00 -0.45593999997E+02  0.45594000000E+02  0.51100000000E-03 0. -1.
    9900012    2    1    2    0    0 -0.41797273318E+00  0.80175254549E+00 -0.75855538787E+00  0.90007781958E+02  0.90000043880E+02 0.  0.
        -12    1    1    2    0    0  0.41797273318E+00 -0.80175254549E+00  0.75855538787E+00  0.11802180419E+01  0.00000000000E+00 0.  1.
         11    1    3    3    0    0 -0.35878271338E+02 -0.10770022581E+02 -0.58247426058E+01  0.37910043092E+02  0.51100000000E-03 0. -1.
        -11    1    3    3    0    0 -0.43754430699E+01 -0.66471711111E+01 -0.31465215361E+00  0.79641943772E+01  0.51100000000E-03 0.  1.
        -12    1    3    3    0    0  0.39835741674E+02  0.18218946238E+02  0.53808393715E+01  0.44133544489E+02  0.00000000000E+00 0.  1.
</event>
<event>
 7    1  0.2895479E-015  0.9000757E+02  0.7816164E-02  0.1186339E+00
        -11   -1    0    0    0    0  0.00000000000E+00  0.00000000000E+00  0.45593999997E+02  0.45594000000E+02  0.51100000000E-03 0.  1.
         11   -1    0    0    0    0 -0.00000000000E+00 -0.00000000000E+00 -0.45593999997E+02  0.45594000000E+02  0.51100000000E-03 0. -1.
    9900012    2    1    2    0    0 -0.43930247180E+00  0.93471295485E+00  0.57161244197E+00  0.90007569674E+02  0.89999828794E+02 0.  0.
        -12    1    1    2    0    0  0.43930247180E+00 -0.93471295485E+00 -0.57161244197E+00  0.11804303256E+01  0.00000000000E+00 0.  1.
         11    1    3    3    0    0  0.12522122553E+02 -0.75126358202E+01 -0.35647866118E+01  0.15031665046E+02  0.51100000000E-03 0. -1.
        -11    1    3    3    0    0 -0.21075831251E+01 -0.31884100107E+02  0.82669471366E+01  0.33005759520E+02  0.51100000000E-03 0.  1.
         12    1    3    3    0    0 -0.10853841900E+02  0.40331448883E+02 -0.41305480828E+01  0.41970145108E+02  0.00000000000E+00 0. -1.
</event>
<event>
 7    1  0.2895479E-015  0.9000773E+02  0.7816164E-02  0.1186339E+00
        -11   -1    0    0    0    0  0.00000000000E+00  0.00000000000E+00  0.45593999997E+02  0.45594000000E+02  0.51100000000E-03 0. -1.
         11   -1    0    0    0    0 -0.00000000000E+00 -0.00000000000E+00 -0.45593999997E+02  0.45594000000E+02  0.51100000000E-03 0.  1.
    9900012    2    1    2    0    0 -0.86198658843E+00  0.69296245172E+00  0.41208705798E+00  0.90007731564E+02  0.89999992820E+02 0.  0.
        -12    1    1    2    0    0  0.86198658843E+00 -0.69296245172E+00 -0.41208705798E+00  0.11802684362E+01  0.00000000000E+00 0.  1.
         11    1    3    3    0    0 -0.34277780862E+00  0.10419210129E+02 -0.61041747569E+01  0.12080496102E+02  0.51100000000E-03 0. -1.
        -11    1    3    3    0    0 -0.10142447685E+02  0.25820115474E+02 -0.18557570701E+02  0.33375605443E+02  0.51100000000E-03 0.  1.
         12    1    3    3    0    0  0.96232389050E+01 -0.35546363151E+02  0.25073832515E+02  0.44551630019E+02  0.00000000000E+00 0. -1.
</event>
<event>
 7    1  0.2895479E-015  0.9000787E+02  0.7816164E-02  0.1186339E+00
        -11   -1    0    0    0    0  0.00000000000E+00  0.00000000000E+00  0.45593999997E+02  0.45594000000E+02  0.51100000000E-03 0.  1.
         11   -1    0    0    0    0 -0.00000000000E+00 -0.00000000000E+00 -0.45593999997E+02  0.45594000000E+02  0.51100000000E-03 0. -1.
    9900012    2    1    2    0    0  0.52206832867E+00  0.10099745871E+01  0.31640858088E+00  0.90007865094E+02  0.90000128113E+02 0.  0.
        -12    1    1    2    0    0 -0.52206832867E+00 -0.10099745871E+01 -0.31640858088E+00  0.11801349061E+01  0.00000000000E+00 0.  1.
         11    1    3    3    0    0 -0.38374905950E+01 -0.65025375187E+01 -0.38749062857E+01  0.84867088575E+01  0.51100000000E-03 0. -1.
        -11    1    3    3    0    0  0.30991757804E+01 -0.14236485143E+02  0.38340006049E+02  0.41015100437E+02  0.51100000000E-03 0.  1.
         12    1    3    3    0    0  0.12603831432E+01  0.21748997249E+02 -0.34148691182E+02  0.40506055800E+02  0.00000000000E+00 0. -1.
</event>
<event>
 7    1  0.2895479E-015  0.9000776E+02  0.7816164E-02  0.1186339E+00
        -11   -1    0    0    0    0  0.00000000000E+00  0.00000000000E+00  0.45593999997E+02  0.45594000000E+02  0.51100000000E-03 0. -1.
         11   -1    0    0    0    0 -0.00000000000E+00 -0.00000000000E+00 -0.45593999997E+02  0.45594000000E+02  0.51100000000E-03 0.  1.
    9900012    2    1    2    0    0 -0.57723531524E+00  0.82642277810E+00  0.61383110946E+00  0.90007761105E+02  0.90000022752E+02 0.  0.
        -12    1    1    2    0    0  0.57723531524E+00 -0.82642277810E+00 -0.61383110946E+00  0.11802388946E+01  0.00000000000E+00 0.  1.
         11    1    3    3    0    0  0.68608908886E+01 -0.33481845917E+00  0.11081052278E+02  0.13037394181E+02  0.51100000000E-03 0. -1.
        -11    1    3    3    0    0 -0.20255822811E+02  0.31220000194E+02 -0.20881474021E+02  0.42673442882E+02  0.51100000000E-03 0.  1.
         12    1    3    3    0    0  0.12817696607E+02 -0.30058758956E+02  0.10414252852E+02  0.34296924042E+02  0.00000000000E+00 0. -1.
</event>
<event>
 7    1  0.2895479E-015  0.9000770E+02  0.7816164E-02  0.1186339E+00
        -11   -1    0    0    0    0  0.00000000000E+00  0.00000000000E+00  0.45593999997E+02  0.45594000000E+02  0.51100000000E-03 0. -1.
         11   -1    0    0    0    0 -0.00000000000E+00 -0.00000000000E+00 -0.45593999997E+02  0.45594000000E+02  0.51100000000E-03 0.  1.
    9900012    2    1    2    0    0  0.16661290063E+00  0.51113092894E+00  0.10507566207E+01  0.90007701664E+02  0.89999962526E+02 0.  0.
        -12    1    1    2    0    0 -0.16661290063E+00 -0.51113092894E+00 -0.10507566207E+01  0.11802983356E+01  0.00000000000E+00 0.  1.
         11    1    3    3    0    0  0.36134769057E+02 -0.11228930873E+01 -0.19060668058E+02  0.40869199781E+02  0.51100000000E-03 0. -1.
        -11    1    3    3    0    0  0.16068936911E+01  0.59623681938E+01  0.64342878766E+01  0.89180716835E+01  0.51100000000E-03 0.  1.
        -12    1    3    3    0    0 -0.37575049847E+02 -0.43283441775E+01  0.13677136802E+02  0.40220430200E+02  0.00000000000E+00 0.  1.
</event>
<event>
 7    1  0.2895479E-015  0.9000764E+02  0.7816164E-02  0.1186339E+00
        -11   -1    0    0    0    0  0.00000000000E+00  0.00000000000E+00  0.45593999997E+02  0.45594000000E+02  0.51100000000E-03 0.  1.
         11   -1    0    0    0    0 -0.00000000000E+00 -0.00000000000E+00 -0.45593999997E+02  0.45594000000E+02  0.51100000000E-03 0. -1.
    9900012    2    1    2    0    0  0.10084241575E+01 -0.56636190399E+00 -0.23570926400E+00  0.90007642450E+02  0.89999902531E+02 0.  0.
        -12    1    1    2    0    0 -0.10084241575E+01  0.56636190399E+00  0.23570926400E+00  0.11803575496E+01  0.00000000000E+00 0.  1.
         11    1    3    3    0    0  0.36225855462E+01  0.58607428732E+01  0.66313794455E+01  0.95627729596E+01  0.51100000000E-03 0. -1.
        -11    1    3    3    0    0 -0.18030012312E+02  0.21814456555E+02  0.23057627964E+02  0.36504877295E+02  0.51100000000E-03 0.  1.
         12    1    3    3    0    0  0.15415850923E+02 -0.28241561332E+02 -0.29924716673E+02  0.43939992196E+02  0.00000000000E+00 0. -1.
</event>
<event>
 7    1  0.2895479E-015  0.9000774E+02  0.7816164E-02  0.1186339E+00
        -11   -1    0    0    0    0  0.00000000000E+00  0.00000000000E+00  0.45593999997E+02  0.45594000000E+02  0.51100000000E-03 0.  1.
         11   -1    0    0    0    0 -0.00000000000E+00 -0.00000000000E+00 -0.45593999997E+02  0.45594000000E+02  0.51100000000E-03 0. -1.
    9900012    2    1    2    0    0  0.76567820086E+00 -0.76312132429E+00 -0.47369571508E+00  0.90007743717E+02  0.90000005134E+02 0.  0.
        -12    1    1    2    0    0 -0.76567820086E+00  0.76312132429E+00  0.47369571508E+00  0.11802562829E+01  0.00000000000E+00 0.  1.
         11    1    3    3    0    0  0.24637906864E+02 -0.24934433719E+02  0.14539124501E+02  0.37949157844E+02  0.51100000000E-03 0. -1.
        -11    1    3    3    0    0 -0.14888824114E+01 -0.62799098885E+01  0.60042031170E+01  0.88150152793E+01  0.51100000000E-03 0.  1.
        -12    1    3    3    0    0 -0.22383346252E+02  0.30451222283E+02 -0.21017023333E+02  0.43243570594E+02  0.00000000000E+00 0.  1.
</event>
<event>
 7    1  0.2895479E-015  0.9000772E+02  0.7816164E-02  0.1186339E+00
        -11   -1    0    0    0    0  0.00000000000E+00  0.00000000000E+00  0.45593999997E+02  0.45594000000E+02  0.51100000000E-03 0. -1.
         11   -1    0    0    0    0 -0.00000000000E+00 -0.00000000000E+00 -0.45593999997E+02  0.45594000000E+02  0.51100000000E-03 0.  1.
    9900012    2    1    2    0    0 -0.10232316374E+01  0.24020571228E+00  0.53698211232E+00  0.90007723949E+02  0.89999985105E+02 0.  0.
        -12    1    1    2    0    0  0.10232316374E+01 -0.24020571228E+00 -0.53698211232E+00  0.11802760512E+01  0.00000000000E+00 0.  1.
         11    1    3    3    0    0 -0.31863417497E+02 -0.11837052905E+02 -0.39747338156E+01  0.34222678230E+02  0.51100000000E-03 0. -1.
        -11    1    3    3    0    0 -0.49202836987E+01 -0.10539597808E+02  0.66872163484E+01  0.13416824377E+02  0.51100000000E-03 0.  1.
        -12    1    3    3    0    0  0.35760469558E+02  0.22616856425E+02 -0.21755004205E+01  0.42368221342E+02  0.00000000000E+00 0.  1.
</event>
<event>
 7    1  0.2895479E-015  0.9000778E+02  0.7816164E-02  0.1186339E+00
        -11   -1    0    0    0    0  0.00000000000E+00  0.00000000000E+00  0.45593999997E+02  0.45594000000E+02  0.51100000000E-03 0. -1.
         11   -1    0    0    0    0 -0.00000000000E+00 -0.00000000000E+00 -0.45593999997E+02  0.45594000000E+02  0.51100000000E-03 0.  1.
    9900012    2    1    2    0    0  0.50989820830E+00 -0.10421425863E+01  0.21649907219E+00  0.90007775783E+02  0.90000037624E+02 0.  0.
        -12    1    1    2    0    0 -0.50989820830E+00  0.10421425863E+01 -0.21649907219E+00  0.11802242165E+01  0.00000000000E+00 0.  1.
         11    1    3    3    0    0 -0.30448568960E+02  0.16636777347E+02 -0.14958857689E+02  0.37784456273E+02  0.51100000000E-03 0. -1.
        -11    1    3    3    0    0 -0.72234233268E+01 -0.63381428533E+01  0.28370227345E-01  0.96099273941E+01  0.51100000000E-03 0.  1.
        -12    1    3    3    0    0  0.38181890496E+02 -0.11340777080E+02  0.15146986534E+02  0.42613392116E+02  0.00000000000E+00 0.  1.
</event>
<event>
 7    1  0.2895479E-015  0.9000775E+02  0.7816164E-02  0.1186339E+00
        -11   -1    0    0    0    0  0.00000000000E+00  0.00000000000E+00  0.45593999997E+02  0.45594000000E+02  0.51100000000E-03 0. -1.
         11   -1    0    0    0    0 -0.00000000000E+00 -0.00000000000E+00 -0.45593999997E+02  0.45594000000E+02  0.51100000000E-03 0.  1.
    9900012    2    1    2    0    0  0.60115711355E+00  0.92286212965E+00 -0.42418147495E+00  0.90007748201E+02  0.90000009677E+02 0.  0.
        -12    1    1    2    0    0 -0.60115711355E+00 -0.92286212965E+00  0.42418147495E+00  0.11802517991E+01  0.00000000000E+00 0.  1.
         11    1    3    3    0    0 -0.42786576508E+01 -0.30618663873E+01  0.49421141806E+01  0.72184783647E+01  0.51100000000E-03 0. -1.
        -11    1    3    3    0    0 -0.64346157148E+01  0.39919998812E+02 -0.16243740776E+02  0.43576022067E+02  0.51100000000E-03 0.  1.
         12    1    3    3    0    0  0.11314430479E+02 -0.35935270295E+02  0.10877445121E+02  0.39213247769E+02  0.00000000000E+00 0. -1.
</event>
<event>
 7    1  0.5896116E-015  0.9000776E+02  0.7816164E-02  0.1186339E+00
        -11   -1    0    0    0    0  0.00000000000E+00  0.00000000000E+00  0.45593999997E+02  0.45594000000E+02  0.51100000000E-03 0. -1.
         11   -1    0    0    0    0 -0.00000000000E+00 -0.00000000000E+00 -0.45593999997E+02  0.45594000000E+02  0.51100000000E-03 0.  1.
    9900012    2    1    2    0    0  0.15255162624E+00 -0.57491790592E+00  0.10193967009E+01  0.90007757554E+02  0.90000019154E+02 0.  0.
        -12    1    1    2    0    0 -0.15255162624E+00  0.57491790592E+00 -0.10193967009E+01  0.11802424458E+01  0.00000000000E+00 0.  1.
         11    1    3    3    0    0  0.84152799712E+01 -0.53781905624E+01  0.10916121750E+01  0.10046565987E+02  0.51100000000E-03 0. -1.
        -11    1    3    3    0    0 -0.68842982237E+01  0.46988167879E+01 -0.39570459168E+02  0.40438764574E+02  0.51100000000E-03 0.  1.
         12    1    3    3    0    0 -0.13784301213E+01  0.10445586857E+00  0.39498243694E+02  0.39522426994E+02  0.00000000000E+00 0. -1.
</event>
<event>
 7    1  0.2895479E-015  0.9000757E+02  0.7816164E-02  0.1186339E+00
        -11   -1    0    0    0    0  0.00000000000E+00  0.00000000000E+00  0.45593999997E+02  0.45594000000E+02  0.51100000000E-03 0. -1.
         11   -1    0    0    0    0 -0.00000000000E+00 -0.00000000000E+00 -0.45593999997E+02  0.45594000000E+02  0.51100000000E-03 0.  1.
    9900012    2    1    2    0    0 -0.36734093990E+00  0.10976464410E+01 -0.23161349618E+00  0.90007571312E+02  0.89999830453E+02 0.  0.
        -12    1    1    2    0    0  0.36734093990E+00 -0.10976464410E+01  0.23161349618E+00  0.11804286879E+01  0.00000000000E+00 0.  1.
         11    1    3    3    0    0 -0.10374251445E+02  0.30501282223E+02  0.28427722062E+02  0.42966134248E+02  0.51100000000E-03 0. -1.
        -11    1    3    3    0    0 -0.62471495961E+01 -0.51705813332E+01 -0.67822240315E+01  0.10571676900E+02  0.51100000000E-03 0.  1.
        -12    1    3    3    0    0  0.16254060101E+02 -0.24233054449E+02 -0.21877111527E+02  0.36469760164E+02  0.00000000000E+00 0.  1.
</event>
<event>
 7    1  0.3834712E-015  0.9000765E+02  0.7816164E-02  0.1186339E+00
        -11   -1    0    0    0    0  0.00000000000E+00  0.00000000000E+00  0.45593999997E+02  0.45594000000E+02  0.51100000000E-03 0. -1.
         11   -1    0    0    0    0 -0.00000000000E+00 -0.00000000000E+00 -0.45593999997E+02  0.45594000000E+02  0.51100000000E-03 0.  1.
    9900012    2    1    2    0    0 -0.73467732164E+00  0.51685532389E+00  0.76573241819E+00  0.90007645676E+02  0.89999905799E+02 0.  0.
        -12    1    1    2    0    0  0.73467732164E+00 -0.51685532389E+00 -0.76573241819E+00  0.11803543235E+01  0.00000000000E+00 0.  1.
         11    1    3    3    0    0  0.57228427597E+01  0.79704042718E+01  0.54402091708E+00  0.98272189620E+01  0.51100000000E-03 0. -1.
        -11    1    3    3    0    0 -0.14130418336E+02  0.98606927174E+01 -0.35661592145E+02  0.39606200750E+02  0.51100000000E-03 0.  1.
         12    1    3    3    0    0  0.76728982550E+01 -0.17314241665E+02  0.35883303646E+02  0.40574225965E+02  0.00000000000E+00 0. -1.
</event>
<event>
 7    1  0.2895479E-015  0.9000771E+02  0.7816164E-02  0.1186339E+00
        -11   -1    0    0    0    0  0.00000000000E+00  0.00000000000E+00  0.45593999997E+02  0.45594000000E+02  0.51100000000E-03 0.  1.
         11   -1    0    0    0    0 -0.00000000000E+00 -0.00000000000E+00 -0.45593999997E+02  0.45594000000E+02  0.51100000000E-03 0. -1.
    9900012    2    1    2    0    0 -0.60627273411E+00  0.67619073197E+00 -0.75383880943E+00  0.90007714660E+02  0.89999975693E+02 0.  0.
        -12    1    1    2    0    0  0.60627273411E+00 -0.67619073197E+00  0.75383880943E+00  0.11802853404E+01  0.00000000000E+00 0.  1.
         11    1    3    3    0    0  0.18637742391E+02  0.22625296418E+02 -0.16655400916E+02  0.33714564500E+02  0.51100000000E-03 0. -1.
        -11    1    3    3    0    0 -0.67566640992E+01  0.12442429811E+02  0.13600222562E+02  0.19632438039E+02  0.51100000000E-03 0.  1.
         12    1    3    3    0    0 -0.12487351026E+02 -0.34391535497E+02  0.23013395443E+01  0.36660712121E+02  0.00000000000E+00 0. -1.
</event>
<event>
 7    1  0.2895479E-015  0.9000775E+02  0.7816164E-02  0.1186339E+00
        -11   -1    0    0    0    0  0.00000000000E+00  0.00000000000E+00  0.45593999997E+02  0.45594000000E+02  0.51100000000E-03 0. -1.
         11   -1    0    0    0    0 -0.00000000000E+00 -0.00000000000E+00 -0.45593999997E+02  0.45594000000E+02  0.51100000000E-03 0.  1.
    9900012    2    1    2    0    0 -0.78306227694E+00  0.52089062766E+00  0.71308116589E+00  0.90007746500E+02  0.90000007954E+02 0.  0.
        -12    1    1    2    0    0  0.78306227694E+00 -0.52089062766E+00 -0.71308116589E+00  0.11802535002E+01  0.00000000000E+00 0.  1.
         11    1    3    3    0    0  0.17404071545E+02  0.44171949445E+01  0.33793455497E+02  0.38267622767E+02  0.51100000000E-03 0. -1.
        -11    1    3    3    0    0  0.36812633658E+01 -0.39623047579E+01  0.52964039851E+01  0.75699045171E+01  0.51100000000E-03 0.  1.
        -12    1    3    3    0    0 -0.21868397188E+02  0.66000441050E-01 -0.38376778316E+02  0.44170219216E+02  0.00000000000E+00 0.  1.
</event>
<event>
 7    1  0.2895479E-015  0.9000770E+02  0.7816164E-02  0.1186339E+00
        -11   -1    0    0    0    0  0.00000000000E+00  0.00000000000E+00  0.45593999997E+02  0.45594000000E+02  0.51100000000E-03 0.  1.
         11   -1    0    0    0    0 -0.00000000000E+00 -0.00000000000E+00 -0.45593999997E+02  0.45594000000E+02  0.51100000000E-03 0. -1.
    9900012    2    1    2    0    0 -0.10142398771E+01 -0.60310623150E+00  0.26037271487E-01  0.90007704446E+02  0.89999965345E+02 0.  0.
        -12    1    1    2    0    0  0.10142398771E+01  0.60310623150E+00 -0.26037271487E-01  0.11802955538E+01  0.00000000000E+00 0.  1.
         11    1    3    3    0    0  0.37200792817E+02  0.95991175333E+01 -0.48337532750E+01  0.38722179879E+02  0.51100000000E-03 0. -1.
        -11    1    3    3    0    0  0.25582458217E+01 -0.76503036686E+01 -0.46901585303E+01  0.93310961417E+01  0.51100000000E-03 0.  1.
        -12    1    3    3    0    0 -0.40773278516E+02 -0.25519200962E+01  0.95499490768E+01  0.41954428425E+02  0.00000000000E+00 0.  1.
</event>
<event>
 7    1  0.2895479E-015  0.9000779E+02  0.7816164E-02  0.1186339E+00
        -11   -1    0    0    0    0  0.00000000000E+00  0.00000000000E+00  0.45593999997E+02  0.45594000000E+02  0.51100000000E-03 0.  1.
         11   -1    0    0    0    0 -0.00000000000E+00 -0.00000000000E+00 -0.45593999997E+02  0.45594000000E+02  0.51100000000E-03 0. -1.
    9900012    2    1    2    0    0 -0.10984729435E+01 -0.30080741579E+00 -0.30946174232E+00  0.90007790494E+02  0.90000052528E+02 0.  0.
        -12    1    1    2    0    0  0.10984729435E+01  0.30080741579E+00  0.30946174232E+00  0.11802095064E+01  0.00000000000E+00 0.  1.
         11    1    3    3    0    0  0.76792757553E+01 -0.27431282119E+01  0.71595145735E+01  0.10851482742E+02  0.51100000000E-03 0. -1.
        -11    1    3    3    0    0  0.25729478645E+01 -0.30664324301E+02  0.18202130573E+02  0.35752460100E+02  0.51100000000E-03 0.  1.
         12    1    3    3    0    0 -0.11350696563E+02  0.33106645097E+02 -0.25671106889E+02  0.43403847651E+02  0.00000000000E+00 0. -1.
</event>
<event>
 7    1  0.2895479E-015  0.9000782E+02  0.7816164E-02  0.1186339E+00
        -11   -1    0    0    0    0  0.00000000000E+00  0.00000000000E+00  0.45593999997E+02  0.45594000000E+02  0.51100000000E-03 0. -1.
         11   -1    0    0    0    0 -0.00000000000E+00 -0.00000000000E+00 -0.45593999997E+02  0.45594000000E+02  0.51100000000E-03 0.  1.
    9900012    2    1    2    0    0  0.43218976308E+00 -0.27556025490E+00  0.10630603048E+01  0.90007822616E+02  0.90000085075E+02 0.  0.
        -12    1    1    2    0    0 -0.43218976308E+00  0.27556025490E+00 -0.10630603048E+01  0.11801773837E+01  0.00000000000E+00 0.  1.
         11    1    3    3    0    0  0.81344694920E+01  0.21659671027E+01 -0.13958062174E+01  0.85328355582E+01  0.51100000000E-03 0. -1.
        -11    1    3    3    0    0  0.14762858467E+02 -0.37054631192E+02  0.46211604841E+01  0.40153988686E+02  0.51100000000E-03 0.  1.
         12    1    3    3    0    0 -0.22465138196E+02  0.34613103835E+02 -0.21622939620E+01  0.41320998372E+02  0.00000000000E+00 0. -1.
</event>
<event>
 7    1  0.2895479E-015  0.9000774E+02  0.7816164E-02  0.1186339E+00
        -11   -1    0    0    0    0  0.00000000000E+00  0.00000000000E+00  0.45593999997E+02  0.45594000000E+02  0.51100000000E-03 0.  1.
         11   -1    0    0    0    0 -0.00000000000E+00 -0.00000000000E+00 -0.45593999997E+02  0.45594000000E+02  0.51100000000E-03 0. -1.
    9900012    2    1    2    0    0  0.66794254184E+00 -0.82945457044E+00  0.50880225552E+00  0.90007736530E+02  0.89999997852E+02 0.  0.
        -12    1    1    2    0    0 -0.66794254184E+00  0.82945457044E+00 -0.50880225552E+00  0.11802634701E+01  0.00000000000E+00 0.  1.
         11    1    3    3    0    0 -0.78050049666E+01 -0.33917323675E+02  0.15559983305E+02  0.38123693794E+02  0.51100000000E-03 0. -1.
        -11    1    3    3    0    0 -0.55818480741E+01 -0.15539108436E+01  0.65201153689E+01  0.87225897253E+01  0.51100000000E-03 0.  1.
        -12    1    3    3    0    0  0.14054795582E+02  0.34641779948E+02 -0.21571296419E+02  0.43161453011E+02  0.00000000000E+00 0.  1.
</event>
<event>
 7    1  0.2895479E-015  0.9000778E+02  0.7816164E-02  0.1186339E+00
        -11   -1    0    0    0    0  0.00000000000E+00  0.00000000000E+00  0.45593999997E+02  0.45594000000E+02  0.51100000000E-03 0.  1.
         11   -1    0    0    0    0 -0.00000000000E+00 -0.00000000000E+00 -0.45593999997E+02  0.45594000000E+02  0.51100000000E-03 0. -1.
    9900012    2    1    2    0    0 -0.67749718915E+00  0.93640607356E+00  0.23887187132E+00  0.90007780297E+02  0.90000042197E+02 0.  0.
        -12    1    1    2    0    0  0.67749718915E+00 -0.93640607356E+00 -0.23887187132E+00  0.11802197028E+01  0.00000000000E+00 0.  1.
         11    1    3    3    0    0 -0.18902998311E+02  0.29807168359E+02  0.15591214638E+02  0.38585963832E+02  0.51100000000E-03 0. -1.
        -11    1    3    3    0    0  0.68933360843E+01  0.57923285180E+01  0.43190805531E+01  0.99861708936E+01  0.51100000000E-03 0.  1.
        -12    1    3    3    0    0  0.11332165038E+02 -0.34663090804E+02 -0.19671423319E+02  0.41435645571E+02  0.00000000000E+00 0.  1.
</event>
<event>
 7    1  0.2895479E-015  0.9000784E+02  0.7816164E-02  0.1186339E+00
        -11   -1    0    0    0    0  0.00000000000E+00  0.00000000000E+00  0.45593999997E+02  0.45594000000E+02  0.51100000000E-03 0. -1.
         11   -1    0    0    0    0 -0.00000000000E+00 -0.00000000000E+00 -0.45593999997E+02  0.45594000000E+02  0.51100000000E-03 0.  1.
    9900012    2    1    2    0    0 -0.68351495831E+00  0.71087753809E+00 -0.64826057856E+00  0.90007838422E+02  0.90000101089E+02 0.  0.
        -12    1    1    2    0    0  0.68351495831E+00 -0.71087753809E+00  0.64826057856E+00  0.11801615780E+01  0.00000000000E+00 0.  1.
         11    1    3    3    0    0  0.27133000532E+02  0.28585646228E+02  0.15519225717E+02  0.42357824015E+02  0.51100000000E-03 0. -1.
        -11    1    3    3    0    0 -0.79004630555E+01  0.26467498304E+01 -0.38660498768E+01  0.91852568319E+01  0.51100000000E-03 0.  1.
        -12    1    3    3    0    0 -0.19916052435E+02 -0.30521518520E+02 -0.12301436419E+02  0.38464757575E+02  0.00000000000E+00 0.  1.
</event>
<event>
 7    1  0.2895479E-015  0.9000767E+02  0.7816164E-02  0.1186339E+00
        -11   -1    0    0    0    0  0.00000000000E+00  0.00000000000E+00  0.45593999997E+02  0.45594000000E+02  0.51100000000E-03 0. -1.
         11   -1    0    0    0    0 -0.00000000000E+00 -0.00000000000E+00 -0.45593999997E+02  0.45594000000E+02  0.51100000000E-03 0.  1.
    9900012    2    1    2    0    0  0.57675265120E+00  0.65251153169E+00  0.79672632818E+00  0.90007666250E+02  0.89999926644E+02 0.  0.
        -12    1    1    2    0    0 -0.57675265120E+00 -0.65251153169E+00 -0.79672632818E+00  0.11803337501E+01  0.00000000000E+00 0.  1.
         11    1    3    3    0    0  0.22357262849E+02 -0.18040706118E+02  0.32367762458E+01  0.28910050157E+02  0.51100000000E-03 0. -1.
        -11    1    3    3    0    0  0.10353141896E+02 -0.12523251038E+02 -0.57940785662E+00  0.16258999889E+02  0.51100000000E-03 0.  1.
        -12    1    3    3    0    0 -0.32133652094E+02  0.31216468688E+02 -0.18606420610E+01  0.44838616204E+02  0.00000000000E+00 0.  1.
</event>
<event>
 7    1  0.2895479E-015  0.9000751E+02  0.7816164E-02  0.1186339E+00
        -11   -1    0    0    0    0  0.00000000000E+00  0.00000000000E+00  0.45593999997E+02  0.45594000000E+02  0.51100000000E-03 0. -1.
         11   -1    0    0    0    0 -0.00000000000E+00 -0.00000000000E+00 -0.45593999997E+02  0.45594000000E+02  0.51100000000E-03 0.  1.
    9900012    2    1    2    0    0  0.97642873543E+00  0.43098613114E+00 -0.50436633082E+00  0.90007513864E+02  0.89999772247E+02 0.  0.
        -12    1    1    2    0    0 -0.97642873543E+00 -0.43098613114E+00  0.50436633082E+00  0.11804861356E+01  0.00000000000E+00 0.  1.
         11    1    3    3    0    0 -0.10331341859E+02 -0.95239505778E+01 -0.99648507792E+01  0.17226157742E+02  0.51100000000E-03 0. -1.
        -11    1    3    3    0    0 -0.10708599038E+02 -0.26966356369E+02  0.62061687139E+01  0.29671113891E+02  0.51100000000E-03 0.  1.
         12    1    3    3    0    0  0.22016369633E+02  0.36921293078E+02  0.32543157344E+01  0.43110242232E+02  0.00000000000E+00 0. -1.
</event>
<event>
 7    1  0.2895479E-015  0.9000773E+02  0.7816164E-02  0.1186339E+00
        -11   -1    0    0    0    0  0.00000000000E+00  0.00000000000E+00  0.45593999997E+02  0.45594000000E+02  0.51100000000E-03 0. -1.
         11   -1    0    0    0    0 -0.00000000000E+00 -0.00000000000E+00 -0.45593999997E+02  0.45594000000E+02  0.51100000000E-03 0.  1.
    9900012    2    1    2    0    0  0.97187221742E+00 -0.28467566707E+00  0.60617769014E+00  0.90007734253E+02  0.89999995545E+02 0.  0.
        -12    1    1    2    0    0 -0.97187221742E+00  0.28467566707E+00 -0.60617769014E+00  0.11802657474E+01  0.00000000000E+00 0.  1.
         11    1    3    3    0    0 -0.16495983285E+02 -0.33364555259E+02  0.14363413378E+02  0.39895095642E+02  0.51100000000E-03 0. -1.
        -11    1    3    3    0    0  0.39745540848E+01  0.23035931389E+01  0.86003707191E+01  0.97503845201E+01  0.51100000000E-03 0.  1.
        -12    1    3    3    0    0  0.13493301417E+02  0.30776286453E+02 -0.22357606407E+02  0.40362254090E+02  0.00000000000E+00 0.  1.
</event>
<event>
 7    1  0.2895479E-015  0.9000778E+02  0.7816164E-02  0.1186339E+00
        -11   -1    0    0    0    0  0.00000000000E+00  0.00000000000E+00  0.45593999997E+02  0.45594000000E+02  0.51100000000E-03 0. -1.
         11   -1    0    0    0    0 -0.00000000000E+00 -0.00000000000E+00 -0.45593999997E+02  0.45594000000E+02  0.51100000000E-03 0.  1.
    9900012    2    1    2    0    0 -0.80634836414E+00 -0.47439988418E+00  0.71949166577E+00  0.90007779177E+02  0.90000041062E+02 0.  0.
        -12    1    1    2    0    0  0.80634836414E+00  0.47439988418E+00 -0.71949166577E+00  0.11802208232E+01  0.00000000000E+00 0.  1.
         11    1    3    3    0    0  0.19333211479E+01 -0.75215525401E+01 -0.69350592177E+01  0.10411845652E+02  0.51100000000E-03 0. -1.
        -11    1    3    3    0    0  0.21138136300E+02  0.23486065856E+02 -0.21706392017E+02  0.38335147715E+02  0.51100000000E-03 0.  1.
         12    1    3    3    0    0 -0.23877805813E+02 -0.16438913200E+02  0.29360942901E+02  0.41260785810E+02  0.00000000000E+00 0. -1.
</event>
<event>
 7    1  0.2895479E-015  0.9000773E+02  0.7816164E-02  0.1186339E+00
        -11   -1    0    0    0    0  0.00000000000E+00  0.00000000000E+00  0.45593999997E+02  0.45594000000E+02  0.51100000000E-03 0. -1.
         11   -1    0    0    0    0 -0.00000000000E+00 -0.00000000000E+00 -0.45593999997E+02  0.45594000000E+02  0.51100000000E-03 0.  1.
    9900012    2    1    2    0    0 -0.11530531396E+01  0.11814752928E-01  0.25171109458E+00  0.90007733248E+02  0.89999994527E+02 0.  0.
        -12    1    1    2    0    0  0.11530531396E+01 -0.11814752928E-01 -0.25171109458E+00  0.11802667521E+01  0.00000000000E+00 0.  1.
         11    1    3    3    0    0 -0.81789570324E+01 -0.29761230507E+01 -0.10534412532E+01  0.87671195547E+01  0.51100000000E-03 0. -1.
        -11    1    3    3    0    0  0.71325772156E+00  0.35510706766E+02 -0.21037749560E+02  0.41280818044E+02  0.51100000000E-03 0.  1.
         12    1    3    3    0    0  0.63126461713E+01 -0.32522768962E+02  0.22342901908E+02  0.39959795649E+02  0.00000000000E+00 0. -1.
</event>
<event>
 7    1  0.2895479E-015  0.9000778E+02  0.7816164E-02  0.1186339E+00
        -11   -1    0    0    0    0  0.00000000000E+00  0.00000000000E+00  0.45593999997E+02  0.45594000000E+02  0.51100000000E-03 0.  1.
         11   -1    0    0    0    0 -0.00000000000E+00 -0.00000000000E+00 -0.45593999997E+02  0.45594000000E+02  0.51100000000E-03 0. -1.
    9900012    2    1    2    0    0  0.10698389748E+00 -0.11326288636E+01 -0.31405415437E+00  0.90007778110E+02  0.90000039981E+02 0.  0.
        -12    1    1    2    0    0 -0.10698389748E+00  0.11326288636E+01  0.31405415437E+00  0.11802218897E+01  0.00000000000E+00 0.  1.
         11    1    3    3    0    0  0.14537140444E+01 -0.39241535965E+02  0.81377718612E+01  0.40102802402E+02  0.51100000000E-03 0. -1.
        -11    1    3    3    0    0  0.77221745260E+01  0.22195944110E+01  0.61432194055E+01  0.10114233717E+02  0.51100000000E-03 0.  1.
        -12    1    3    3    0    0 -0.90689046729E+01  0.35889312690E+02 -0.14595045421E+02  0.39790741991E+02  0.00000000000E+00 0.  1.
</event>
<event>
 7    1  0.2895479E-015  0.9000726E+02  0.7816164E-02  0.1186340E+00
        -11   -1    0    0    0    0  0.00000000000E+00  0.00000000000E+00  0.45593999997E+02  0.45594000000E+02  0.51100000000E-03 0.  1.
         11   -1    0    0    0    0 -0.00000000000E+00 -0.00000000000E+00 -0.45593999997E+02  0.45594000000E+02  0.51100000000E-03 0. -1.
    9900012    2    1    2    0    0 -0.41562943838E+00  0.53332967922E+00 -0.96796078148E+00  0.90007264445E+02  0.89999519534E+02 0.  0.
        -12    1    1    2    0    0  0.41562943838E+00 -0.53332967922E+00  0.96796078148E+00  0.11807355552E+01  0.00000000000E+00 0.  1.
         11    1    3    3    0    0 -0.19231613168E+02  0.23491755847E+02  0.10120575567E+02  0.32002243482E+02  0.51100000000E-03 0. -1.
        -11    1    3    3    0    0 -0.14487171794E+02  0.13905424603E+01 -0.80660078759E+01  0.16639478304E+02  0.51100000000E-03 0.  1.
        -12    1    3    3    0    0  0.33303155523E+02 -0.24348968628E+02 -0.30225284724E+01  0.41365542659E+02  0.00000000000E+00 0.  1.
</event>
<event>
 7    1  0.2895479E-015  0.9000773E+02  0.7816164E-02  0.1186339E+00
        -11   -1    0    0    0    0  0.00000000000E+00  0.00000000000E+00  0.45593999997E+02  0.45594000000E+02  0.51100000000E-03 0.  1.
         11   -1    0    0    0    0 -0.00000000000E+00 -0.00000000000E+00 -0.45593999997E+02  0.45594000000E+02  0.51100000000E-03 0. -1.
    9900012    2    1    2    0    0  0.60387528635E+00 -0.10018742337E+01 -0.15688844965E+00  0.90007732519E+02  0.89999993788E+02 0.  0.
        -12    1    1    2    0    0 -0.60387528635E+00  0.10018742337E+01  0.15688844965E+00  0.11802674812E+01  0.00000000000E+00 0.  1.
         11    1    3    3    0    0  0.33520789728E+02 -0.17873180728E+02  0.10355278849E+02  0.39374175974E+02  0.51100000000E-03 0. -1.
        -11    1    3    3    0    0 -0.62376835446E+00  0.95765790676E+01  0.81838355572E+01  0.12612498495E+02  0.51100000000E-03 0.  1.
        -12    1    3    3    0    0 -0.32293146087E+02  0.72947274264E+01 -0.18696002856E+02  0.38021058050E+02  0.00000000000E+00 0.  1.
</event>
<event>
 7    1  0.2895479E-015  0.9000773E+02  0.7816164E-02  0.1186339E+00
        -11   -1    0    0    0    0  0.00000000000E+00  0.00000000000E+00  0.45593999997E+02  0.45594000000E+02  0.51100000000E-03 0.  1.
         11   -1    0    0    0    0 -0.00000000000E+00 -0.00000000000E+00 -0.45593999997E+02  0.45594000000E+02  0.51100000000E-03 0. -1.
    9900012    2    1    2    0    0  0.74494197592E+00 -0.24344434883E+00 -0.88251261556E+00  0.90007732143E+02  0.89999993407E+02 0.  0.
        -12    1    1    2    0    0 -0.74494197592E+00  0.24344434883E+00  0.88251261556E+00  0.11802678573E+01  0.00000000000E+00 0.  1.
         11    1    3    3    0    0  0.63300860135E+01  0.88797472431E+01 -0.43269266929E+02  0.44622296679E+02  0.51100000000E-03 0. -1.
        -11    1    3    3    0    0 -0.32213966974E+01 -0.56777427060E+01  0.63489785602E+01  0.91062444474E+01  0.51100000000E-03 0.  1.
        -12    1    3    3    0    0 -0.23637473402E+01 -0.34454488860E+01  0.36037775754E+02  0.36279191016E+02  0.00000000000E+00 0.  1.
</event>
<event>
 7    1  0.2895479E-015  0.9000790E+02  0.7816164E-02  0.1186339E+00
        -11   -1    0    0    0    0  0.00000000000E+00  0.00000000000E+00  0.45593999997E+02  0.45594000000E+02  0.51100000000E-03 0.  1.
         11   -1    0    0    0    0 -0.00000000000E+00 -0.00000000000E+00 -0.45593999997E+02  0.45594000000E+02  0.51100000000E-03 0. -1.
    9900012    2    1    2    0    0 -0.14662399879E+00  0.35886980402E+00 -0.11146112550E+01  0.90007896452E+02  0.90000159885E+02 0.  0.
        -12    1    1    2    0    0  0.14662399879E+00 -0.35886980402E+00  0.11146112550E+01  0.11801035476E+01  0.00000000000E+00 0.  1.
         11    1    3    3    0    0  0.21786727971E+02  0.23535581362E+02 -0.94784083611E+01  0.33442866669E+02  0.51100000000E-03 0. -1.
        -11    1    3    3    0    0  0.14303354591E+02 -0.47718959373E+01  0.45180357632E+01  0.15740698549E+02  0.51100000000E-03 0.  1.
        -12    1    3    3    0    0 -0.36236706561E+02 -0.18404815620E+02  0.38457613429E+01  0.40824331234E+02  0.00000000000E+00 0.  1.
</event>
<event>
 7    1  0.2895479E-015  0.9000772E+02  0.7816164E-02  0.1186339E+00
        -11   -1    0    0    0    0  0.00000000000E+00  0.00000000000E+00  0.45593999997E+02  0.45594000000E+02  0.51100000000E-03 0. -1.
         11   -1    0    0    0    0 -0.00000000000E+00 -0.00000000000E+00 -0.45593999997E+02  0.45594000000E+02  0.51100000000E-03 0.  1.
    9900012    2    1    2    0    0 -0.81709794939E+00  0.76855019935E+00  0.36707612940E+00  0.90007718952E+02  0.89999980042E+02 0.  0.
        -12    1    1    2    0    0  0.81709794939E+00 -0.76855019935E+00 -0.36707612940E+00  0.11802810481E+01  0.00000000000E+00 0.  1.
         11    1    3    3    0    0 -0.29237011601E+02  0.22811061131E+02  0.33914591426E+01  0.37237740971E+02  0.51100000000E-03 0. -1.
        -11    1    3    3    0    0 -0.11195229364E+01  0.78094320988E+01  0.58803554812E+01  0.98396718521E+01  0.51100000000E-03 0.  1.
        -12    1    3    3    0    0  0.29539436588E+02 -0.29851943031E+02 -0.89047384945E+01  0.42930306128E+02  0.00000000000E+00 0.  1.
</event>
<event>
 7    1  0.2994669E-015  0.9000771E+02  0.7816164E-02  0.1186339E+00
        -11   -1    0    0    0    0  0.00000000000E+00  0.00000000000E+00  0.45593999997E+02  0.45594000000E+02  0.51100000000E-03 0.  1.
         11   -1    0    0    0    0 -0.00000000000E+00 -0.00000000000E+00 -0.45593999997E+02  0.45594000000E+02  0.51100000000E-03 0. -1.
    9900012    2    1    2    0    0  0.65640436523E+00 -0.84297217573E+00 -0.50161459575E+00  0.90007709365E+02  0.89999970329E+02 0.  0.
        -12    1    1    2    0    0 -0.65640436523E+00  0.84297217573E+00  0.50161459575E+00  0.11802906347E+01  0.00000000000E+00 0.  1.
         11    1    3    3    0    0  0.16928722446E+01  0.84200367396E+01  0.47500520633E+01  0.98145723289E+01  0.51100000000E-03 0. -1.
        -11    1    3    3    0    0  0.12458781212E+02  0.28808436513E+01  0.34336666990E+02  0.36640512956E+02  0.51100000000E-03 0.  1.
         12    1    3    3    0    0 -0.13495249091E+02 -0.12143852567E+02 -0.39588333649E+02  0.43552624081E+02  0.00000000000E+00 0. -1.
</event>
<event>
 7    1  0.2895479E-015  0.9000774E+02  0.7816164E-02  0.1186339E+00
        -11   -1    0    0    0    0  0.00000000000E+00  0.00000000000E+00  0.45593999997E+02  0.45594000000E+02  0.51100000000E-03 0. -1.
         11   -1    0    0    0    0 -0.00000000000E+00 -0.00000000000E+00 -0.45593999997E+02  0.45594000000E+02  0.51100000000E-03 0.  1.
    9900012    2    1    2    0    0 -0.63087153976E+00  0.97226095457E+00  0.22299909380E+00  0.90007737801E+02  0.89999999140E+02 0.  0.
        -12    1    1    2    0    0  0.63087153976E+00 -0.97226095457E+00 -0.22299909380E+00  0.11802621994E+01  0.00000000000E+00 0.  1.
         11    1    3    3    0    0 -0.27053379957E+02 -0.22039116731E+02 -0.43182777855E+01  0.35160426002E+02  0.51100000000E-03 0. -1.
        -11    1    3    3    0    0 -0.62363437102E+01 -0.69416514770E+01  0.48817786965E+01  0.10531394571E+02  0.51100000000E-03 0.  1.
        -12    1    3    3    0    0  0.32658852127E+02  0.29953029162E+02 -0.34050181730E+00  0.44315917228E+02  0.00000000000E+00 0.  1.
</event>
<event>
 7    1  0.2895479E-015  0.9000763E+02  0.7816164E-02  0.1186339E+00
        -11   -1    0    0    0    0  0.00000000000E+00  0.00000000000E+00  0.45593999997E+02  0.45594000000E+02  0.51100000000E-03 0.  1.
         11   -1    0    0    0    0 -0.00000000000E+00 -0.00000000000E+00 -0.45593999997E+02  0.45594000000E+02  0.51100000000E-03 0. -1.
    9900012    2    1    2    0    0  0.17853112952E+00  0.73377756587E+00 -0.90717279082E+00  0.90007633382E+02  0.89999893343E+02 0.  0.
        -12    1    1    2    0    0 -0.17853112952E+00 -0.73377756587E+00  0.90717279082E+00  0.11803666180E+01  0.00000000000E+00 0.  1.
         11    1    3    3    0    0 -0.14921116240E+02  0.14375850345E+02 -0.29673421566E+02  0.36191390284E+02  0.51100000000E-03 0. -1.
        -11    1    3    3    0    0 -0.10200864862E+02  0.64052221441E+01  0.27447554012E+01  0.12353873770E+02  0.51100000000E-03 0.  1.
        -12    1    3    3    0    0  0.25300512231E+02 -0.20047294923E+02  0.26021493374E+02  0.41462369328E+02  0.00000000000E+00 0.  1.
</event>
<event>
 7    1  0.2895479E-015  0.9000765E+02  0.7816164E-02  0.1186339E+00
        -11   -1    0    0    0    0  0.00000000000E+00  0.00000000000E+00  0.45593999997E+02  0.45594000000E+02  0.51100000000E-03 0.  1.
         11   -1    0    0    0    0 -0.00000000000E+00 -0.00000000000E+00 -0.45593999997E+02  0.45594000000E+02  0.51100000000E-03 0. -1.
    9900012    2    1    2    0    0 -0.11052502302E+00 -0.11576340946E+01 -0.20221833971E+00  0.90007650588E+02  0.89999910776E+02 0.  0.
        -12    1    1    2    0    0  0.11052502302E+00  0.11576340946E+01  0.20221833971E+00  0.11803494121E+01  0.00000000000E+00 0.  1.
         11    1    3    3    0    0  0.12604688784E+02 -0.10039378082E+02  0.31851194248E+01  0.16425963522E+02  0.51100000000E-03 0. -1.
        -11    1    3    3    0    0 -0.12327433466E+02  0.17946857289E+02  0.31075780606E+02  0.37944162172E+02  0.51100000000E-03 0.  1.
         12    1    3    3    0    0 -0.38778034061E+00 -0.90651133017E+01 -0.34463118370E+02  0.35637524894E+02  0.00000000000E+00 0. -1.
</event>
<event>
 7    1  0.2895479E-015  0.9000775E+02  0.7816164E-02  0.1186339E+00
        -11   -1    0    0    0    0  0.00000000000E+00  0.00000000000E+00  0.45593999997E+02  0.45594000000E+02  0.51100000000E-03 0.  1.
         11   -1    0    0    0    0 -0.00000000000E+00 -0.00000000000E+00 -0.45593999997E+02  0.45594000000E+02  0.51100000000E-03 0. -1.
    9900012    2    1    2    0    0 -0.19844670968E+00 -0.55401478491E+00 -0.10230693023E+01  0.90007752451E+02  0.90000013984E+02 0.  0.
        -12    1    1    2    0    0  0.19844670968E+00  0.55401478491E+00  0.10230693023E+01  0.11802475486E+01  0.00000000000E+00 0.  1.
         11    1    3    3    0    0  0.39962250066E+01  0.36043583556E+02 -0.12983244208E+02  0.38518493743E+02  0.51100000000E-03 0. -1.
        -11    1    3    3    0    0 -0.85646921334E-01  0.20664226862E+01 -0.76623754431E+01  0.79365884236E+01  0.51100000000E-03 0.  1.
        -12    1    3    3    0    0 -0.41090247950E+01 -0.38664021027E+02  0.19622550348E+02  0.43552670284E+02  0.00000000000E+00 0.  1.
</event>
<event>
 7    1  0.2895479E-015  0.9000761E+02  0.7816164E-02  0.1186339E+00
        -11   -1    0    0    0    0  0.00000000000E+00  0.00000000000E+00  0.45593999997E+02  0.45594000000E+02  0.51100000000E-03 0. -1.
         11   -1    0    0    0    0 -0.00000000000E+00 -0.00000000000E+00 -0.45593999997E+02  0.45594000000E+02  0.51100000000E-03 0.  1.
    9900012    2    1    2    0    0  0.22108391010E+00 -0.11503116964E+01 -0.14571260376E+00  0.90007607160E+02  0.89999866774E+02 0.  0.
        -12    1    1    2    0    0 -0.22108391010E+00  0.11503116964E+01  0.14571260376E+00  0.11803928401E+01  0.00000000000E+00 0.  1.
         11    1    3    3    0    0 -0.34280199933E+01 -0.61260539771E+01 -0.80179409315E+01  0.10656792925E+02  0.51100000000E-03 0. -1.
        -11    1    3    3    0    0  0.18248178195E+02  0.20068064983E+02 -0.27238446493E+02  0.38440294058E+02  0.51100000000E-03 0.  1.
         12    1    3    3    0    0 -0.14599074292E+02 -0.15092322703E+02  0.35110674821E+02  0.40910520177E+02  0.00000000000E+00 0. -1.
</event>
<event>
 7    1  0.2895479E-015  0.9000775E+02  0.7816164E-02  0.1186339E+00
        -11   -1    0    0    0    0  0.00000000000E+00  0.00000000000E+00  0.45593999997E+02  0.45594000000E+02  0.51100000000E-03 0.  1.
         11   -1    0    0    0    0 -0.00000000000E+00 -0.00000000000E+00 -0.45593999997E+02  0.45594000000E+02  0.51100000000E-03 0. -1.
    9900012    2    1    2    0    0 -0.62354728845E+00 -0.97488146274E+00 -0.23193233401E+00  0.90007746767E+02  0.90000008224E+02 0.  0.
        -12    1    1    2    0    0  0.62354728845E+00  0.97488146274E+00  0.23193233401E+00  0.11802532334E+01  0.00000000000E+00 0.  1.
         11    1    3    3    0    0 -0.55319484038E+01 -0.29824793126E+01 -0.56228237485E+01  0.84328988587E+01  0.51100000000E-03 0. -1.
        -11    1    3    3    0    0  0.14884046577E+02 -0.36243983996E+02  0.13072666027E+02  0.41304428525E+02  0.51100000000E-03 0.  1.
         12    1    3    3    0    0 -0.99756454614E+01  0.38251581846E+02 -0.76817746127E+01  0.40270419383E+02  0.00000000000E+00 0. -1.
</event>
<event>
 7    1  0.2895479E-015  0.9000765E+02  0.7816164E-02  0.1186339E+00
        -11   -1    0    0    0    0  0.00000000000E+00  0.00000000000E+00  0.45593999997E+02  0.45594000000E+02  0.51100000000E-03 0.  1.
         11   -1    0    0    0    0 -0.00000000000E+00 -0.00000000000E+00 -0.45593999997E+02  0.45594000000E+02  0.51100000000E-03 0. -1.
    9900012    2    1    2    0    0 -0.31179574297E+00  0.10796267322E+01  0.36112134967E+00  0.90007652977E+02  0.89999913196E+02 0.  0.
        -12    1    1    2    0    0  0.31179574297E+00 -0.10796267322E+01 -0.36112134967E+00  0.11803470233E+01  0.00000000000E+00 0.  1.
         11    1    3    3    0    0  0.96002245872E+01 -0.20901755417E+02 -0.31474528082E+02  0.38983247810E+02  0.51100000000E-03 0. -1.
        -11    1    3    3    0    0 -0.74052072767E+01 -0.63534738089E+01  0.23130194056E+01  0.10027650935E+02  0.51100000000E-03 0.  1.
        -12    1    3    3    0    0 -0.25068130534E+01  0.28334855958E+02  0.29522630026E+02  0.40996754231E+02  0.00000000000E+00 0.  1.
</event>
<event>
 7    1  0.2895479E-015  0.9000780E+02  0.7816164E-02  0.1186339E+00
        -11   -1    0    0    0    0  0.00000000000E+00  0.00000000000E+00  0.45593999997E+02  0.45594000000E+02  0.51100000000E-03 0.  1.
         11   -1    0    0    0    0 -0.00000000000E+00 -0.00000000000E+00 -0.45593999997E+02  0.45594000000E+02  0.51100000000E-03 0. -1.
    9900012    2    1    2    0    0 -0.53313630779E+00  0.78437859259E+00 -0.70242387861E+00  0.90007795185E+02  0.90000057282E+02 0.  0.
        -12    1    1    2    0    0  0.53313630779E+00 -0.78437859259E+00  0.70242387861E+00  0.11802048146E+01  0.00000000000E+00 0.  1.
         11    1    3    3    0    0 -0.13662139222E+02  0.86418792399E+01 -0.85969999538E+00  0.16188737112E+02  0.51100000000E-03 0. -1.
        -11    1    3    3    0    0 -0.13947151844E+02  0.54813322212E+01  0.28636640635E+02  0.32320662657E+02  0.51100000000E-03 0.  1.
         12    1    3    3    0    0  0.27076154758E+02 -0.13338832869E+02 -0.28479364518E+02  0.41498395417E+02  0.00000000000E+00 0. -1.
</event>
<event>
 7    1  0.2895479E-015  0.9000774E+02  0.7816164E-02  0.1186339E+00
        -11   -1    0    0    0    0  0.00000000000E+00  0.00000000000E+00  0.45593999997E+02  0.45594000000E+02  0.51100000000E-03 0.  1.
         11   -1    0    0    0    0 -0.00000000000E+00 -0.00000000000E+00 -0.45593999997E+02  0.45594000000E+02  0.51100000000E-03 0. -1.
    9900012    2    1    2    0    0  0.17174610245E+00 -0.11668341141E+01 -0.44881736956E-01  0.90007740307E+02  0.90000001679E+02 0.  0.
        -12    1    1    2    0    0 -0.17174610245E+00  0.11668341141E+01  0.44881736956E-01  0.11802596933E+01  0.00000000000E+00 0.  1.
         11    1    3    3    0    0 -0.15441902259E+02  0.14339204732E+02 -0.37131368574E+02  0.42694304892E+02  0.51100000000E-03 0. -1.
        -11    1    3    3    0    0  0.90026388025E+01 -0.27287067014E+01  0.23214045203E+01  0.96892860871E+01  0.51100000000E-03 0.  1.
        -12    1    3    3    0    0  0.66110095592E+01 -0.12777332145E+02  0.34765082317E+02  0.37624149328E+02  0.00000000000E+00 0.  1.
</event>
<event>
 7    1  0.2895479E-015  0.9000794E+02  0.7816164E-02  0.1186339E+00
        -11   -1    0    0    0    0  0.00000000000E+00  0.00000000000E+00  0.45593999997E+02  0.45594000000E+02  0.51100000000E-03 0.  1.
         11   -1    0    0    0    0 -0.00000000000E+00 -0.00000000000E+00 -0.45593999997E+02  0.45594000000E+02  0.51100000000E-03 0. -1.
    9900012    2    1    2    0    0  0.43506310711E+00 -0.92023210783E+00  0.59702353542E+00  0.90007938925E+02  0.90000202918E+02 0.  0.
        -12    1    1    2    0    0 -0.43506310711E+00  0.92023210783E+00 -0.59702353542E+00  0.11800610752E+01  0.00000000000E+00 0.  1.
         11    1    3    3    0    0 -0.56892685763E+00  0.61709135777E+01  0.46326360321E+01  0.77372584951E+01  0.51100000000E-03 0. -1.
        -11    1    3    3    0    0 -0.15338840403E+02 -0.35436165887E+01  0.35777452183E+02  0.39087892350E+02  0.51100000000E-03 0.  1.
         12    1    3    3    0    0  0.16342830368E+02 -0.35475290968E+01 -0.39813064679E+02  0.43182788079E+02  0.00000000000E+00 0. -1.
</event>
<event>
 7    1  0.2895479E-015  0.9000775E+02  0.7816164E-02  0.1186339E+00
        -11   -1    0    0    0    0  0.00000000000E+00  0.00000000000E+00  0.45593999997E+02  0.45594000000E+02  0.51100000000E-03 0. -1.
         11   -1    0    0    0    0 -0.00000000000E+00 -0.00000000000E+00 -0.45593999997E+02  0.45594000000E+02  0.51100000000E-03 0.  1.
    9900012    2    1    2    0    0  0.39376104877E+00 -0.32700028011E+00  0.10634879599E+01  0.90007752743E+02  0.90000014279E+02 0.  0.
        -12    1    1    2    0    0 -0.39376104877E+00  0.32700028011E+00 -0.10634879599E+01  0.11802472569E+01  0.00000000000E+00 0.  1.
         11    1    3    3    0    0  0.14757498737E+02  0.20787345845E+02  0.25757952647E+02  0.36240442065E+02  0.51100000000E-03 0. -1.
        -11    1    3    3    0    0  0.52072904855E+01 -0.13664489640E+01  0.87512169735E+01  0.10274573264E+02  0.51100000000E-03 0.  1.
        -12    1    3    3    0    0 -0.19571028173E+02 -0.19747897161E+02 -0.33445681660E+02  0.43492737414E+02  0.00000000000E+00 0.  1.
</event>
<event>
 7    1  0.2895479E-015  0.9000772E+02  0.7816164E-02  0.1186339E+00
        -11   -1    0    0    0    0  0.00000000000E+00  0.00000000000E+00  0.45593999997E+02  0.45594000000E+02  0.51100000000E-03 0. -1.
         11   -1    0    0    0    0 -0.00000000000E+00 -0.00000000000E+00 -0.45593999997E+02  0.45594000000E+02  0.51100000000E-03 0.  1.
    9900012    2    1    2    0    0 -0.77229712886E+00 -0.47988930004E+00  0.75255298531E+00  0.90007715038E+02  0.89999976077E+02 0.  0.
        -12    1    1    2    0    0  0.77229712886E+00  0.47988930004E+00 -0.75255298531E+00  0.11802849619E+01  0.00000000000E+00 0.  1.
         11    1    3    3    0    0 -0.36771419834E+02  0.12176207069E+01  0.89058008828E+01  0.37854104222E+02  0.51100000000E-03 0. -1.
        -11    1    3    3    0    0  0.19485024374E+01 -0.79322067228E+00  0.12262283653E+02  0.12441441292E+02  0.51100000000E-03 0.  1.
        -12    1    3    3    0    0  0.34050620268E+02 -0.90428933469E+00 -0.20415531550E+02  0.39712169524E+02  0.00000000000E+00 0.  1.
</event>
<event>
 7    1  0.2895479E-015  0.9000761E+02  0.7816164E-02  0.1186339E+00
        -11   -1    0    0    0    0  0.00000000000E+00  0.00000000000E+00  0.45593999997E+02  0.45594000000E+02  0.51100000000E-03 0. -1.
         11   -1    0    0    0    0 -0.00000000000E+00 -0.00000000000E+00 -0.45593999997E+02  0.45594000000E+02  0.51100000000E-03 0.  1.
    9900012    2    1    2    0    0  0.11167370054E+01  0.25663515670E+00 -0.28345760487E+00  0.90007613895E+02  0.89999873598E+02 0.  0.
        -12    1    1    2    0    0 -0.11167370054E+01 -0.25663515670E+00  0.28345760487E+00  0.11803861049E+01  0.00000000000E+00 0.  1.
         11    1    3    3    0    0 -0.31795394816E+02 -0.16845578464E+02 -0.13849533313E+02  0.38555547183E+02  0.51100000000E-03 0. -1.
        -11    1    3    3    0    0 -0.59461415932E+01  0.73394649603E+01  0.12033781939E+01  0.95222090446E+01  0.51100000000E-03 0.  1.
        -12    1    3    3    0    0  0.38858273415E+02  0.97627486608E+01  0.12362697514E+02  0.41929857668E+02  0.00000000000E+00 0.  1.
</event>
<event>
 7    1  0.2895479E-015  0.9000820E+02  0.7816164E-02  0.1186338E+00
        -11   -1    0    0    0    0  0.00000000000E+00  0.00000000000E+00  0.45593999997E+02  0.45594000000E+02  0.51100000000E-03 0. -1.
         11   -1    0    0    0    0 -0.00000000000E+00 -0.00000000000E+00 -0.45593999997E+02  0.45594000000E+02  0.51100000000E-03 0.  1.
    9900012    2    1    2    0    0  0.11036964299E+01 -0.41358117707E-01  0.41482523016E+00  0.90008196510E+02  0.90000463903E+02 0.  0.
        -12    1    1    2    0    0 -0.11036964299E+01  0.41358117707E-01 -0.41482523016E+00  0.11798034900E+01  0.00000000000E+00 0.  1.
         11    1    3    3    0    0  0.20277500520E+02 -0.77582940176E+01  0.27360370122E+02  0.34927897259E+02  0.51100000000E-03 0. -1.
        -11    1    3    3    0    0  0.11085845600E+02 -0.33202203744E+01  0.20375066446E+01  0.11750373168E+02  0.51100000000E-03 0.  1.
        -12    1    3    3    0    0 -0.30259649690E+02  0.11037156274E+02 -0.28983051537E+02  0.43329926083E+02  0.00000000000E+00 0.  1.
</event>
<event>
 7    1  0.2895479E-015  0.9000809E+02  0.7816164E-02  0.1186338E+00
        -11   -1    0    0    0    0  0.00000000000E+00  0.00000000000E+00  0.45593999997E+02  0.45594000000E+02  0.51100000000E-03 0. -1.
         11   -1    0    0    0    0 -0.00000000000E+00 -0.00000000000E+00 -0.45593999997E+02  0.45594000000E+02  0.51100000000E-03 0.  1.
    9900012    2    1    2    0    0  0.86374466956E+00  0.62097107503E+00 -0.51042835413E+00  0.90008086005E+02  0.90000351940E+02 0.  0.
        -12    1    1    2    0    0 -0.86374466956E+00 -0.62097107503E+00  0.51042835413E+00  0.11799139947E+01  0.00000000000E+00 0.  1.
         11    1    3    3    0    0  0.77422474298E+01 -0.17793267649E+01 -0.50092699688E+01  0.93915485881E+01  0.51100000000E-03 0. -1.
        -11    1    3    3    0    0  0.13463858958E+02 -0.59974647290E+01 -0.33559307996E+02  0.36653406862E+02  0.51100000000E-03 0.  1.
         12    1    3    3    0    0 -0.20342361718E+02  0.83977625689E+01  0.38058149610E+02  0.43963130555E+02  0.00000000000E+00 0. -1.
</event>
<event>
 7    1  0.2895479E-015  0.9000779E+02  0.7816164E-02  0.1186339E+00
        -11   -1    0    0    0    0  0.00000000000E+00  0.00000000000E+00  0.45593999997E+02  0.45594000000E+02  0.51100000000E-03 0. -1.
         11   -1    0    0    0    0 -0.00000000000E+00 -0.00000000000E+00 -0.45593999997E+02  0.45594000000E+02  0.51100000000E-03 0.  1.
    9900012    2    1    2    0    0  0.12609805604E+00 -0.23779921466E+00  0.11491071584E+01  0.90007789660E+02  0.90000051683E+02 0.  0.
        -12    1    1    2    0    0 -0.12609805604E+00  0.23779921466E+00 -0.11491071584E+01  0.11802103405E+01  0.00000000000E+00 0.  1.
         11    1    3    3    0    0  0.96330591170E+01  0.59147300199E+01 -0.12354313629E+02  0.16745415034E+02  0.51100000000E-03 0. -1.
        -11    1    3    3    0    0  0.21850811380E+02  0.20473575878E+02 -0.70117861780E-01  0.29943783728E+02  0.51100000000E-03 0.  1.
         12    1    3    3    0    0 -0.31357772441E+02 -0.26626105112E+02  0.13573538649E+02  0.43318590898E+02  0.00000000000E+00 0. -1.
</event>
<event>
 7    1  0.2895479E-015  0.9000774E+02  0.7816164E-02  0.1186339E+00
        -11   -1    0    0    0    0  0.00000000000E+00  0.00000000000E+00  0.45593999997E+02  0.45594000000E+02  0.51100000000E-03 0. -1.
         11   -1    0    0    0    0 -0.00000000000E+00 -0.00000000000E+00 -0.45593999997E+02  0.45594000000E+02  0.51100000000E-03 0.  1.
    9900012    2    1    2    0    0  0.23519364847E+00  0.17028234500E+00  0.11439879873E+01  0.90007737044E+02  0.89999998373E+02 0.  0.
        -12    1    1    2    0    0 -0.23519364847E+00 -0.17028234500E+00 -0.11439879873E+01  0.11802629556E+01  0.00000000000E+00 0.  1.
         11    1    3    3    0    0 -0.22135134835E+02  0.28839888408E+02 -0.85552206724E+01  0.37348295256E+02  0.51100000000E-03 0. -1.
        -11    1    3    3    0    0  0.25037819568E+01  0.80911499536E+01 -0.30023423024E+01  0.89860831969E+01  0.51100000000E-03 0.  1.
        -12    1    3    3    0    0  0.19866546527E+02 -0.36760756016E+02  0.12701550962E+02  0.43673358591E+02  0.00000000000E+00 0.  1.
</event>
<event>
 7    1  0.2895479E-015  0.9000776E+02  0.7816164E-02  0.1186339E+00
        -11   -1    0    0    0    0  0.00000000000E+00  0.00000000000E+00  0.45593999997E+02  0.45594000000E+02  0.51100000000E-03 0.  1.
         11   -1    0    0    0    0 -0.00000000000E+00 -0.00000000000E+00 -0.45593999997E+02  0.45594000000E+02  0.51100000000E-03 0. -1.
    9900012    2    1    2    0    0  0.35026667446E+00 -0.23290472586E+00 -0.11027389422E+01  0.90007760817E+02  0.90000022460E+02 0.  0.
        -12    1    1    2    0    0 -0.35026667446E+00  0.23290472586E+00  0.11027389422E+01  0.11802391830E+01  0.00000000000E+00 0.  1.
         11    1    3    3    0    0  0.46578882725E+01 -0.30349909679E+01  0.62127776653E+01  0.83370078514E+01  0.51100000000E-03 0. -1.
        -11    1    3    3    0    0  0.19271391339E+02 -0.29500130029E+02  0.12044528714E+02  0.37238620652E+02  0.51100000000E-03 0.  1.
         12    1    3    3    0    0 -0.23579012938E+02  0.32302216271E+02 -0.19360045321E+02  0.44432132314E+02  0.00000000000E+00 0. -1.
</event>
<event>
 7    1  0.2895479E-015  0.9000738E+02  0.7816164E-02  0.1186340E+00
        -11   -1    0    0    0    0  0.00000000000E+00  0.00000000000E+00  0.45593999997E+02  0.45594000000E+02  0.51100000000E-03 0.  1.
         11   -1    0    0    0    0 -0.00000000000E+00 -0.00000000000E+00 -0.45593999997E+02  0.45594000000E+02  0.51100000000E-03 0. -1.
    9900012    2    1    2    0    0 -0.25608302778E+00  0.11448659833E+01  0.13257368940E+00  0.90007376258E+02  0.89999632824E+02 0.  0.
        -12    1    1    2    0    0  0.25608302778E+00 -0.11448659833E+01 -0.13257368940E+00  0.11806237419E+01  0.00000000000E+00 0.  1.
         11    1    3    3    0    0  0.28495069212E+02 -0.98761732799E+01  0.20503048100E+02  0.36467557496E+02  0.51100000000E-03 0. -1.
        -11    1    3    3    0    0  0.71505982695E+01  0.29756592409E+01  0.46615195023E+01  0.90396552955E+01  0.51100000000E-03 0.  1.
        -12    1    3    3    0    0 -0.35901750509E+02  0.80453800223E+01 -0.25031993913E+02  0.44500163467E+02  0.00000000000E+00 0.  1.
</event>
<event>
 7    1  0.2895479E-015  0.9000778E+02  0.7816164E-02  0.1186339E+00
        -11   -1    0    0    0    0  0.00000000000E+00  0.00000000000E+00  0.45593999997E+02  0.45594000000E+02  0.51100000000E-03 0. -1.
         11   -1    0    0    0    0 -0.00000000000E+00 -0.00000000000E+00 -0.45593999997E+02  0.45594000000E+02  0.51100000000E-03 0.  1.
    9900012    2    1    2    0    0 -0.24342309042E+00  0.74360861663E+00  0.88357811183E+00  0.90007780167E+02  0.90000042065E+02 0.  0.
        -12    1    1    2    0    0  0.24342309042E+00 -0.74360861663E+00 -0.88357811183E+00  0.11802198335E+01  0.00000000000E+00 0.  1.
         11    1    3    3    0    0  0.33347687987E+01 -0.43611929992E+00 -0.94556051249E+01  0.10035903124E+02  0.51100000000E-03 0. -1.
        -11    1    3    3    0    0  0.17661202786E+02  0.29881343018E+01 -0.29658946447E+02  0.34648234227E+02  0.51100000000E-03 0.  1.
         12    1    3    3    0    0 -0.21239394675E+02 -0.18084063852E+01  0.39998129684E+02  0.45323642815E+02  0.00000000000E+00 0. -1.
</event>
<event>
 7    1  0.4494057E-015  0.9000772E+02  0.7816164E-02  0.1186339E+00
        -11   -1    0    0    0    0  0.00000000000E+00  0.00000000000E+00  0.45593999997E+02  0.45594000000E+02  0.51100000000E-03 0.  1.
         11   -1    0    0    0    0 -0.00000000000E+00 -0.00000000000E+00 -0.45593999997E+02  0.45594000000E+02  0.51100000000E-03 0. -1.
    9900012    2    1    2    0    0  0.83721180891E+00 -0.19876294025E-01 -0.83170638899E+00  0.90007722830E+02  0.89999983972E+02 0.  0.
        -12    1    1    2    0    0 -0.83721180891E+00  0.19876294025E-01  0.83170638899E+00  0.11802771698E+01  0.00000000000E+00 0.  1.
         11    1    3    3    0    0  0.63073315272E+01  0.82682643552E+00  0.73700320878E+01  0.97356790305E+01  0.51100000000E-03 0. -1.
        -11    1    3    3    0    0  0.15493945836E+02 -0.26523987894E+02  0.20079704156E+02  0.36698485127E+02  0.51100000000E-03 0.  1.
         12    1    3    3    0    0 -0.20964065554E+02  0.25677285165E+02 -0.28281442633E+02  0.43573558672E+02  0.00000000000E+00 0. -1.
</event>
<event>
 7    1  0.3702122E-015  0.9000775E+02  0.7816164E-02  0.1186339E+00
        -11   -1    0    0    0    0  0.00000000000E+00  0.00000000000E+00  0.45593999997E+02  0.45594000000E+02  0.51100000000E-03 0. -1.
         11   -1    0    0    0    0 -0.00000000000E+00 -0.00000000000E+00 -0.45593999997E+02  0.45594000000E+02  0.51100000000E-03 0.  1.
    9900012    2    1    2    0    0  0.11327515092E+00 -0.86866081940E+00  0.79093540740E+00  0.90007753544E+02  0.90000015090E+02 0.  0.
        -12    1    1    2    0    0 -0.11327515092E+00  0.86866081940E+00 -0.79093540740E+00  0.11802464563E+01  0.00000000000E+00 0.  1.
         11    1    3    3    0    0  0.49766527500E+01 -0.22794222686E+01 -0.73330277270E+01  0.91507450177E+01  0.51100000000E-03 0. -1.
        -11    1    3    3    0    0 -0.33910862210E+01  0.15852110048E+02 -0.33260402758E+02  0.37000584463E+02  0.51100000000E-03 0.  1.
         12    1    3    3    0    0 -0.14722913781E+01 -0.14441348599E+02  0.41384365892E+02  0.43856424063E+02  0.00000000000E+00 0. -1.
</event>
<event>
 7    1  0.2895479E-015  0.9000767E+02  0.7816164E-02  0.1186339E+00
        -11   -1    0    0    0    0  0.00000000000E+00  0.00000000000E+00  0.45593999997E+02  0.45594000000E+02  0.51100000000E-03 0.  1.
         11   -1    0    0    0    0 -0.00000000000E+00 -0.00000000000E+00 -0.45593999997E+02  0.45594000000E+02  0.51100000000E-03 0. -1.
    9900012    2    1    2    0    0  0.91591697508E+00 -0.41835725331E+00  0.61583321279E+00  0.90007670706E+02  0.89999931159E+02 0.  0.
        -12    1    1    2    0    0 -0.91591697508E+00  0.41835725331E+00 -0.61583321279E+00  0.11803292941E+01  0.00000000000E+00 0.  1.
         11    1    3    3    0    0 -0.50209700590E+01  0.31960159886E+02  0.20378934721E+02  0.38235623977E+02  0.51100000000E-03 0. -1.
        -11    1    3    3    0    0  0.16560647703E+01 -0.10006488452E+01  0.88698643195E+01  0.90784548213E+01  0.51100000000E-03 0.  1.
        -12    1    3    3    0    0  0.42808222638E+01 -0.31377868294E+02 -0.28632965828E+02  0.42693591908E+02  0.00000000000E+00 0.  1.
</event>
<event>
 7    1  0.2895479E-015  0.9000770E+02  0.7816164E-02  0.1186339E+00
        -11   -1    0    0    0    0  0.00000000000E+00  0.00000000000E+00  0.45593999997E+02  0.45594000000E+02  0.51100000000E-03 0. -1.
         11   -1    0    0    0    0 -0.00000000000E+00 -0.00000000000E+00 -0.45593999997E+02  0.45594000000E+02  0.51100000000E-03 0.  1.
    9900012    2    1    2    0    0  0.86478170132E+00 -0.13103806124E-01  0.80317995331E+00  0.90007696167E+02  0.89999956956E+02 0.  0.
        -12    1    1    2    0    0 -0.86478170132E+00  0.13103806124E-01 -0.80317995331E+00  0.11803038329E+01  0.00000000000E+00 0.  1.
         11    1    3    3    0    0 -0.43764700287E+01  0.28051800360E+01  0.75719810599E+01  0.91846296811E+01  0.51100000000E-03 0. -1.
        -11    1    3    3    0    0  0.30394395528E+02 -0.28415788492E+02  0.73598930787E+01  0.42254518593E+02  0.51100000000E-03 0.  1.
         12    1    3    3    0    0 -0.25153143798E+02  0.25597504650E+02 -0.14128694185E+02  0.38568547893E+02  0.00000000000E+00 0. -1.
</event>
<event>
 7    1  0.2895479E-015  0.9000779E+02  0.7816164E-02  0.1186339E+00
        -11   -1    0    0    0    0  0.00000000000E+00  0.00000000000E+00  0.45593999997E+02  0.45594000000E+02  0.51100000000E-03 0.  1.
         11   -1    0    0    0    0 -0.00000000000E+00 -0.00000000000E+00 -0.45593999997E+02  0.45594000000E+02  0.51100000000E-03 0. -1.
    9900012    2    1    2    0    0 -0.96231540144E+00  0.43515601309E+00  0.52676123207E+00  0.90007792780E+02  0.90000054844E+02 0.  0.
        -12    1    1    2    0    0  0.96231540144E+00 -0.43515601309E+00 -0.52676123207E+00  0.11802072204E+01  0.00000000000E+00 0.  1.
         11    1    3    3    0    0 -0.25265992852E+01  0.25984798853E+02  0.13047138444E+02  0.29185977750E+02  0.51100000000E-03 0. -1.
        -11    1    3    3    0    0 -0.23607576419E+02 -0.44610139405E+01  0.35087874322E+01  0.24280236804E+02  0.51100000000E-03 0.  1.
         12    1    3    3    0    0  0.25171860303E+02 -0.21088628900E+02 -0.16029164644E+02  0.36541578225E+02  0.00000000000E+00 0. -1.
</event>
<event>
 7    1  0.2895479E-015  0.9000776E+02  0.7816164E-02  0.1186339E+00
        -11   -1    0    0    0    0  0.00000000000E+00  0.00000000000E+00  0.45593999997E+02  0.45594000000E+02  0.51100000000E-03 0.  1.
         11   -1    0    0    0    0 -0.00000000000E+00 -0.00000000000E+00 -0.45593999997E+02  0.45594000000E+02  0.51100000000E-03 0. -1.
    9900012    2    1    2    0    0  0.19767023580E-01 -0.10981245560E+01 -0.43207970470E+00  0.90007762250E+02  0.90000023912E+02 0.  0.
        -12    1    1    2    0    0 -0.19767023580E-01  0.10981245560E+01  0.43207970470E+00  0.11802377502E+01  0.00000000000E+00 0.  1.
         11    1    3    3    0    0 -0.99643970648E+00 -0.10980929210E+02 -0.39403468170E+01  0.11708972273E+02  0.51100000000E-03 0. -1.
        -11    1    3    3    0    0 -0.28591341798E+02  0.22417950793E+02  0.20724844396E+02  0.41827604749E+02  0.51100000000E-03 0.  1.
         12    1    3    3    0    0  0.29607548528E+02 -0.12535146139E+02 -0.17216577284E+02  0.36471185228E+02  0.00000000000E+00 0. -1.
</event>
<event>
 7    1  0.2895479E-015  0.9000776E+02  0.7816164E-02  0.1186339E+00
        -11   -1    0    0    0    0  0.00000000000E+00  0.00000000000E+00  0.45593999997E+02  0.45594000000E+02  0.51100000000E-03 0.  1.
         11   -1    0    0    0    0 -0.00000000000E+00 -0.00000000000E+00 -0.45593999997E+02  0.45594000000E+02  0.51100000000E-03 0. -1.
    9900012    2    1    2    0    0  0.61312788109E+00  0.10064611748E+01  0.63843834546E-01  0.90007760223E+02  0.90000021858E+02 0.  0.
        -12    1    1    2    0    0 -0.61312788109E+00 -0.10064611748E+01 -0.63843834546E-01  0.11802397765E+01  0.00000000000E+00 0.  1.
         11    1    3    3    0    0 -0.35922087559E+02  0.10926543585E+02  0.54229072970E+01  0.37936705881E+02  0.51100000000E-03 0. -1.
        -11    1    3    3    0    0 -0.51939761594E+01 -0.84033233127E+01  0.57056744405E+00  0.98953917816E+01  0.51100000000E-03 0.  1.
        -12    1    3    3    0    0  0.41729191600E+02 -0.15167590975E+01 -0.59296309065E+01  0.42175662560E+02  0.00000000000E+00 0.  1.
</event>
<event>
 7    1  0.2895479E-015  0.9000751E+02  0.7816164E-02  0.1186340E+00
        -11   -1    0    0    0    0  0.00000000000E+00  0.00000000000E+00  0.45593999997E+02  0.45594000000E+02  0.51100000000E-03 0.  1.
         11   -1    0    0    0    0 -0.00000000000E+00 -0.00000000000E+00 -0.45593999997E+02  0.45594000000E+02  0.51100000000E-03 0. -1.
    9900012    2    1    2    0    0  0.69560503723E+00  0.80049584121E+00 -0.51855345098E+00  0.90007509576E+02  0.89999767902E+02 0.  0.
        -12    1    1    2    0    0 -0.69560503723E+00 -0.80049584121E+00  0.51855345098E+00  0.11804904240E+01  0.00000000000E+00 0.  1.
         11    1    3    3    0    0  0.26579522959E+02 -0.56973393443E+01  0.26001952078E+02  0.37616914127E+02  0.51100000000E-03 0. -1.
        -11    1    3    3    0    0  0.81968194369E+01  0.50080355192E+01 -0.74517433035E+00  0.96344981025E+01  0.51100000000E-03 0.  1.
        -12    1    3    3    0    0 -0.34080737358E+02  0.14897996663E+01 -0.25775331198E+02  0.42756097347E+02  0.00000000000E+00 0.  1.
</event>
<event>
 7    1  0.2895479E-015  0.9000766E+02  0.7816164E-02  0.1186339E+00
        -11   -1    0    0    0    0  0.00000000000E+00  0.00000000000E+00  0.45593999997E+02  0.45594000000E+02  0.51100000000E-03 0.  1.
         11   -1    0    0    0    0 -0.00000000000E+00 -0.00000000000E+00 -0.45593999997E+02  0.45594000000E+02  0.51100000000E-03 0. -1.
    9900012    2    1    2    0    0  0.54145387088E+00 -0.10002746039E+01  0.31540640817E+00  0.90007659888E+02  0.89999920199E+02 0.  0.
        -12    1    1    2    0    0 -0.54145387088E+00  0.10002746039E+01 -0.31540640817E+00  0.11803401119E+01  0.00000000000E+00 0.  1.
         11    1    3    3    0    0 -0.68841092495E+01  0.68226412010E+01  0.27752981805E+01  0.10081749519E+02  0.51100000000E-03 0. -1.
        -11    1    3    3    0    0 -0.23953852744E+02 -0.22894972675E+02  0.19805099994E+02  0.38603222937E+02  0.51100000000E-03 0.  1.
         12    1    3    3    0    0  0.31379415864E+02  0.15072056870E+02 -0.22264991766E+02  0.41322687432E+02  0.00000000000E+00 0. -1.
</event>
<event>
 7    1  0.2895479E-015  0.9000758E+02  0.7816164E-02  0.1186339E+00
        -11   -1    0    0    0    0  0.00000000000E+00  0.00000000000E+00  0.45593999997E+02  0.45594000000E+02  0.51100000000E-03 0. -1.
         11   -1    0    0    0    0 -0.00000000000E+00 -0.00000000000E+00 -0.45593999997E+02  0.45594000000E+02  0.51100000000E-03 0.  1.
    9900012    2    1    2    0    0  0.63606098453E+00  0.88803400788E+00  0.44745421957E+00  0.90007579205E+02  0.89999838450E+02 0.  0.
        -12    1    1    2    0    0 -0.63606098453E+00 -0.88803400788E+00 -0.44745421957E+00  0.11804207952E+01  0.00000000000E+00 0.  1.
         11    1    3    3    0    0  0.31392158169E+02 -0.14244769714E+02  0.21678852761E+02  0.40722889338E+02  0.51100000000E-03 0. -1.
        -11    1    3    3    0    0 -0.55458108760E+01  0.15474932802E+01  0.70050298408E+01  0.90675904769E+01  0.51100000000E-03 0.  1.
        -12    1    3    3    0    0 -0.25210286309E+02  0.13585310442E+02 -0.28236428382E+02  0.40217099390E+02  0.00000000000E+00 0.  1.
</event>
<event>
 7    1  0.2895479E-015  0.9000783E+02  0.7816164E-02  0.1186339E+00
        -11   -1    0    0    0    0  0.00000000000E+00  0.00000000000E+00  0.45593999997E+02  0.45594000000E+02  0.51100000000E-03 0.  1.
         11   -1    0    0    0    0 -0.00000000000E+00 -0.00000000000E+00 -0.45593999997E+02  0.45594000000E+02  0.51100000000E-03 0. -1.
    9900012    2    1    2    0    0  0.96307758109E+00 -0.65300701385E+00  0.19715862270E+00  0.90007827085E+02  0.90000089602E+02 0.  0.
        -12    1    1    2    0    0 -0.96307758109E+00  0.65300701385E+00 -0.19715862270E+00  0.11801729152E+01  0.00000000000E+00 0.  1.
         11    1    3    3    0    0  0.59974095775E+01 -0.56291690623E+01 -0.55055774894E+01  0.98978709693E+01  0.51100000000E-03 0. -1.
        -11    1    3    3    0    0  0.33872989894E+02 -0.13930488955E+02  0.16523693474E+01  0.36662900752E+02  0.51100000000E-03 0.  1.
         12    1    3    3    0    0 -0.38907321890E+02  0.18906651003E+02  0.40503667647E+01  0.43447055363E+02  0.00000000000E+00 0. -1.
</event>
<event>
 7    1  0.2895479E-015  0.9000774E+02  0.7816164E-02  0.1186339E+00
        -11   -1    0    0    0    0  0.00000000000E+00  0.00000000000E+00  0.45593999997E+02  0.45594000000E+02  0.51100000000E-03 0.  1.
         11   -1    0    0    0    0 -0.00000000000E+00 -0.00000000000E+00 -0.45593999997E+02  0.45594000000E+02  0.51100000000E-03 0. -1.
    9900012    2    1    2    0    0 -0.42052486205E+00  0.90423803892E+00 -0.63128560509E+00  0.90007741933E+02  0.90000003326E+02 0.  0.
        -12    1    1    2    0    0  0.42052486205E+00 -0.90423803892E+00  0.63128560509E+00  0.11802580675E+01  0.00000000000E+00 0.  1.
         11    1    3    3    0    0  0.15593640840E+01 -0.10751040718E+02  0.16752711947E+01  0.10991952816E+02  0.51100000000E-03 0. -1.
        -11    1    3    3    0    0  0.18363218155E+02  0.28798013190E+02  0.23889450080E+02  0.41680201176E+02  0.51100000000E-03 0.  1.
         12    1    3    3    0    0 -0.20343107101E+02 -0.17142734433E+02 -0.26196006880E+02  0.37335587940E+02  0.00000000000E+00 0. -1.
</event>
<event>
 7    1  0.2895479E-015  0.9000784E+02  0.7816164E-02  0.1186339E+00
        -11   -1    0    0    0    0  0.00000000000E+00  0.00000000000E+00  0.45593999997E+02  0.45594000000E+02  0.51100000000E-03 0. -1.
         11   -1    0    0    0    0 -0.00000000000E+00 -0.00000000000E+00 -0.45593999997E+02  0.45594000000E+02  0.51100000000E-03 0.  1.
    9900012    2    1    2    0    0  0.18162475807E-01  0.11464831639E+00  0.11744337714E+01  0.90007843741E+02  0.90000106478E+02 0.  0.
        -12    1    1    2    0    0 -0.18162475807E-01 -0.11464831639E+00 -0.11744337714E+01  0.11801562589E+01  0.00000000000E+00 0.  1.
         11    1    3    3    0    0  0.96011861327E+01  0.35384430629E+02  0.51738028778E+01  0.37027137921E+02  0.51100000000E-03 0. -1.
        -11    1    3    3    0    0 -0.55149440407E+01  0.48324860801E+01 -0.98188640050E+01  0.12254697879E+02  0.51100000000E-03 0.  1.
        -12    1    3    3    0    0 -0.40680796162E+01 -0.40102268393E+02  0.58194948986E+01  0.40726007942E+02  0.00000000000E+00 0.  1.
</event>
<event>
 7    1  0.2895479E-015  0.9000774E+02  0.7816164E-02  0.1186339E+00
        -11   -1    0    0    0    0  0.00000000000E+00  0.00000000000E+00  0.45593999997E+02  0.45594000000E+02  0.51100000000E-03 0.  1.
         11   -1    0    0    0    0 -0.00000000000E+00 -0.00000000000E+00 -0.45593999997E+02  0.45594000000E+02  0.51100000000E-03 0. -1.
    9900012    2    1    2    0    0 -0.11491239130E+01  0.74617186044E-01 -0.25878452007E+00  0.90007736080E+02  0.89999997397E+02 0.  0.
        -12    1    1    2    0    0  0.11491239130E+01 -0.74617186044E-01  0.25878452007E+00  0.11802639196E+01  0.00000000000E+00 0.  1.
         11    1    3    3    0    0  0.30869353470E+02 -0.14591734056E+02 -0.10759455454E+02  0.35799463241E+02  0.51100000000E-03 0. -1.
        -11    1    3    3    0    0  0.55967485854E+01 -0.75895185828E+01  0.10134845685E+01  0.94842784796E+01  0.51100000000E-03 0.  1.
        -12    1    3    3    0    0 -0.37615225969E+02  0.22255869825E+02  0.94871863658E+01  0.44723994360E+02  0.00000000000E+00 0.  1.
</event>
<event>
 7    1  0.2895479E-015  0.9000780E+02  0.7816164E-02  0.1186339E+00
        -11   -1    0    0    0    0  0.00000000000E+00  0.00000000000E+00  0.45593999997E+02  0.45594000000E+02  0.51100000000E-03 0. -1.
         11   -1    0    0    0    0 -0.00000000000E+00 -0.00000000000E+00 -0.45593999997E+02  0.45594000000E+02  0.51100000000E-03 0.  1.
    9900012    2    1    2    0    0  0.52102615046E-01  0.74418867965E+00  0.91452019096E+00  0.90007797198E+02  0.90000059321E+02 0.  0.
        -12    1    1    2    0    0 -0.52102615046E-01 -0.74418867965E+00 -0.91452019096E+00  0.11802028017E+01  0.00000000000E+00 0.  1.
         11    1    3    3    0    0  0.30903291332E+02  0.30325195208E+02 -0.69696538812E+01  0.43854383533E+02  0.51100000000E-03 0. -1.
        -11    1    3    3    0    0 -0.13865952338E+02 -0.39110714166E+01  0.49485624009E+01  0.15233167233E+02  0.51100000000E-03 0.  1.
        -12    1    3    3    0    0 -0.16985236379E+02 -0.25669935112E+02  0.29356116712E+01  0.30920246432E+02  0.00000000000E+00 0.  1.
</event>
<event>
 7    1  0.2895479E-015  0.9000774E+02  0.7816164E-02  0.1186339E+00
        -11   -1    0    0    0    0  0.00000000000E+00  0.00000000000E+00  0.45593999997E+02  0.45594000000E+02  0.51100000000E-03 0.  1.
         11   -1    0    0    0    0 -0.00000000000E+00 -0.00000000000E+00 -0.45593999997E+02  0.45594000000E+02  0.51100000000E-03 0. -1.
    9900012    2    1    2    0    0  0.11396405281E+01  0.51574476840E-01 -0.30259786705E+00  0.90007743278E+02  0.90000004690E+02 0.  0.
        -12    1    1    2    0    0 -0.11396405281E+01 -0.51574476840E-01  0.30259786705E+00  0.11802567217E+01  0.00000000000E+00 0.  1.
         11    1    3    3    0    0  0.33687767939E+02  0.10702950930E+02 -0.10511378163E+02  0.36876929624E+02  0.51100000000E-03 0. -1.
        -11    1    3    3    0    0  0.75807518559E+01 -0.42847856802E+01 -0.46458912864E+01  0.98697260921E+01  0.51100000000E-03 0.  1.
        -12    1    3    3    0    0 -0.40128879267E+02 -0.63665907732E+01  0.14854671582E+02  0.43261087563E+02  0.00000000000E+00 0.  1.
</event>
<event>
 7    1  0.2895479E-015  0.9000779E+02  0.7816164E-02  0.1186339E+00
        -11   -1    0    0    0    0  0.00000000000E+00  0.00000000000E+00  0.45593999997E+02  0.45594000000E+02  0.51100000000E-03 0.  1.
         11   -1    0    0    0    0 -0.00000000000E+00 -0.00000000000E+00 -0.45593999997E+02  0.45594000000E+02  0.51100000000E-03 0. -1.
    9900012    2    1    2    0    0 -0.15469642076E+00 -0.11687970619E+01 -0.53594767786E-01  0.90007792411E+02  0.90000054471E+02 0.  0.
        -12    1    1    2    0    0  0.15469642076E+00  0.11687970619E+01  0.53594767786E-01  0.11802075893E+01  0.00000000000E+00 0.  1.
         11    1    3    3    0    0 -0.22246443771E+01  0.12593170390E+02 -0.43330966292E+01  0.13502322383E+02  0.51100000000E-03 0. -1.
        -11    1    3    3    0    0 -0.33346871201E+02 -0.68900755692E+01  0.17245039145E+02  0.38169075645E+02  0.51100000000E-03 0.  1.
         12    1    3    3    0    0  0.35416819157E+02 -0.68718918823E+01 -0.12965537283E+02  0.38336394383E+02  0.00000000000E+00 0. -1.
</event>
<event>
 7    1  0.2895479E-015  0.9000776E+02  0.7816164E-02  0.1186339E+00
        -11   -1    0    0    0    0  0.00000000000E+00  0.00000000000E+00  0.45593999997E+02  0.45594000000E+02  0.51100000000E-03 0.  1.
         11   -1    0    0    0    0 -0.00000000000E+00 -0.00000000000E+00 -0.45593999997E+02  0.45594000000E+02  0.51100000000E-03 0. -1.
    9900012    2    1    2    0    0  0.14061779336E+00 -0.90141794116E+00 -0.74875966227E+00  0.90007759050E+02  0.90000020669E+02 0.  0.
        -12    1    1    2    0    0 -0.14061779336E+00  0.90141794116E+00  0.74875966227E+00  0.11802409501E+01  0.00000000000E+00 0.  1.
         11    1    3    3    0    0 -0.55355012546E+00  0.39375035578E+00 -0.96885233475E+01  0.97123087884E+01  0.51100000000E-03 0. -1.
        -11    1    3    3    0    0 -0.24841872301E+02  0.26188303679E+02 -0.11097861184E+02  0.37763850335E+02  0.51100000000E-03 0.  1.
         12    1    3    3    0    0  0.25536040220E+02 -0.27483471976E+02  0.20037624869E+02  0.42531599927E+02  0.00000000000E+00 0. -1.
</event>
<event>
 7    1  0.2895479E-015  0.9000780E+02  0.7816164E-02  0.1186339E+00
        -11   -1    0    0    0    0  0.00000000000E+00  0.00000000000E+00  0.45593999997E+02  0.45594000000E+02  0.51100000000E-03 0. -1.
         11   -1    0    0    0    0 -0.00000000000E+00 -0.00000000000E+00 -0.45593999997E+02  0.45594000000E+02  0.51100000000E-03 0.  1.
    9900012    2    1    2    0    0  0.10227843156E+01 -0.23617480710E+00  0.53944088558E+00  0.90007803930E+02  0.90000066141E+02 0.  0.
        -12    1    1    2    0    0 -0.10227843156E+01  0.23617480710E+00 -0.53944088558E+00  0.11801960705E+01  0.00000000000E+00 0.  1.
         11    1    3    3    0    0  0.37980941197E+02 -0.87743170167E+01 -0.31225308294E+01  0.39106146990E+02  0.51100000000E-03 0. -1.
        -11    1    3    3    0    0 -0.70423905702E+00 -0.10017490884E+02  0.84647051624E+00  0.10077826594E+02  0.51100000000E-03 0.  1.
        -12    1    3    3    0    0 -0.36253917825E+02  0.18555633093E+02  0.28155011987E+01  0.40823830346E+02  0.00000000000E+00 0.  1.
</event>
<event>
 7    1  0.2895479E-015  0.9000781E+02  0.7816164E-02  0.1186339E+00
        -11   -1    0    0    0    0  0.00000000000E+00  0.00000000000E+00  0.45593999997E+02  0.45594000000E+02  0.51100000000E-03 0. -1.
         11   -1    0    0    0    0 -0.00000000000E+00 -0.00000000000E+00 -0.45593999997E+02  0.45594000000E+02  0.51100000000E-03 0.  1.
    9900012    2    1    2    0    0  0.40423948861E-01  0.11692925562E+01 -0.15482616264E+00  0.90007809203E+02  0.90000071484E+02 0.  0.
        -12    1    1    2    0    0 -0.40423948861E-01 -0.11692925562E+01  0.15482616264E+00  0.11801907974E+01  0.00000000000E+00 0.  1.
         11    1    3    3    0    0 -0.38259808686E+01  0.13680101372E+01 -0.10114175297E+02  0.10899822179E+02  0.51100000000E-03 0. -1.
        -11    1    3    3    0    0 -0.24408664732E+02  0.22868150946E+02 -0.13123046376E+02  0.35929786920E+02  0.51100000000E-03 0.  1.
         12    1    3    3    0    0  0.28275069549E+02 -0.23066868527E+02  0.23082395511E+02  0.43178200103E+02  0.00000000000E+00 0. -1.
</event>
<event>
 7    1  0.2895479E-015  0.9000769E+02  0.7816164E-02  0.1186339E+00
        -11   -1    0    0    0    0  0.00000000000E+00  0.00000000000E+00  0.45593999997E+02  0.45594000000E+02  0.51100000000E-03 0.  1.
         11   -1    0    0    0    0 -0.00000000000E+00 -0.00000000000E+00 -0.45593999997E+02  0.45594000000E+02  0.51100000000E-03 0. -1.
    9900012    2    1    2    0    0  0.79068478337E+00 -0.57767636166E-01 -0.87442123842E+00  0.90007689859E+02  0.89999950565E+02 0.  0.
        -12    1    1    2    0    0 -0.79068478337E+00  0.57767636166E-01  0.87442123842E+00  0.11803101409E+01  0.00000000000E+00 0.  1.
         11    1    3    3    0    0  0.29488940102E+01 -0.92211284541E+01  0.49453028988E+01  0.10871118014E+02  0.51100000000E-03 0. -1.
        -11    1    3    3    0    0 -0.68039456225E+01 -0.15350380518E+02  0.30650653593E+02  0.34948396587E+02  0.51100000000E-03 0.  1.
         12    1    3    3    0    0  0.46457363957E+01  0.24513741336E+02 -0.36470377730E+02  0.44188175259E+02  0.00000000000E+00 0. -1.
</event>
<event>
 7    1  0.2895479E-015  0.9000785E+02  0.7816164E-02  0.1186339E+00
        -11   -1    0    0    0    0  0.00000000000E+00  0.00000000000E+00  0.45593999997E+02  0.45594000000E+02  0.51100000000E-03 0.  1.
         11   -1    0    0    0    0 -0.00000000000E+00 -0.00000000000E+00 -0.45593999997E+02  0.45594000000E+02  0.51100000000E-03 0. -1.
    9900012    2    1    2    0    0  0.10122631341E+01 -0.59146881110E+00  0.13502672881E+00  0.90007854151E+02  0.90000117026E+02 0.  0.
        -12    1    1    2    0    0 -0.10122631341E+01  0.59146881110E+00 -0.13502672881E+00  0.11801458489E+01  0.00000000000E+00 0.  1.
         11    1    3    3    0    0  0.30365279560E+02 -0.98453710453E+00  0.28261373271E+02  0.41493671029E+02  0.51100000000E-03 0. -1.
        -11    1    3    3    0    0 -0.27656152462E+01  0.85901327342E+01 -0.10281368990E+00  0.90249420495E+01  0.51100000000E-03 0.  1.
        -12    1    3    3    0    0 -0.26587401180E+02 -0.81970644407E+01 -0.28023532852E+02  0.39489241072E+02  0.00000000000E+00 0.  1.
</event>
<event>
 7    1  0.2895479E-015  0.9000772E+02  0.7816164E-02  0.1186339E+00
        -11   -1    0    0    0    0  0.00000000000E+00  0.00000000000E+00  0.45593999997E+02  0.45594000000E+02  0.51100000000E-03 0. -1.
         11   -1    0    0    0    0 -0.00000000000E+00 -0.00000000000E+00 -0.45593999997E+02  0.45594000000E+02  0.51100000000E-03 0.  1.
    9900012    2    1    2    0    0  0.32239149217E-01 -0.11787309404E+01  0.51021645819E-01  0.90007724947E+02  0.89999986116E+02 0.  0.
        -12    1    1    2    0    0 -0.32239149217E-01  0.11787309404E+01 -0.51021645819E-01  0.11802750531E+01  0.00000000000E+00 0.  1.
         11    1    3    3    0    0  0.11276996100E+01  0.35329980817E+02  0.87495383344E+01  0.36414745259E+02  0.51100000000E-03 0. -1.
        -11    1    3    3    0    0  0.38325921936E+01  0.74612591982E+01  0.49512574886E+00  0.84026365810E+01  0.51100000000E-03 0.  1.
        -12    1    3    3    0    0 -0.49280526543E+01 -0.43969970956E+02 -0.91936424375E+01  0.45190343107E+02  0.00000000000E+00 0.  1.
</event>
<event>
 7    1  0.2895479E-015  0.9000796E+02  0.7816164E-02  0.1186339E+00
        -11   -1    0    0    0    0  0.00000000000E+00  0.00000000000E+00  0.45593999997E+02  0.45594000000E+02  0.51100000000E-03 0.  1.
         11   -1    0    0    0    0 -0.00000000000E+00 -0.00000000000E+00 -0.45593999997E+02  0.45594000000E+02  0.51100000000E-03 0. -1.
    9900012    2    1    2    0    0  0.68772214089E+00 -0.93361105970E+00 -0.21884573783E+00  0.90007964064E+02  0.90000228389E+02 0.  0.
        -12    1    1    2    0    0 -0.68772214089E+00  0.93361105970E+00  0.21884573783E+00  0.11800359362E+01  0.00000000000E+00 0.  1.
         11    1    3    3    0    0  0.11344946082E+02  0.59438254771E+01 -0.40738339743E+01  0.13439977173E+02  0.51100000000E-03 0. -1.
        -11    1    3    3    0    0  0.91306316845E+01 -0.93856591965E+01  0.36240119898E+02  0.38533171735E+02  0.51100000000E-03 0.  1.
         12    1    3    3    0    0 -0.19787855626E+02  0.25082226597E+01 -0.32385131661E+02  0.38034815155E+02  0.00000000000E+00 0. -1.
</event>
<event>
 7    1  0.2895479E-015  0.9000771E+02  0.7816164E-02  0.1186339E+00
        -11   -1    0    0    0    0  0.00000000000E+00  0.00000000000E+00  0.45593999997E+02  0.45594000000E+02  0.51100000000E-03 0.  1.
         11   -1    0    0    0    0 -0.00000000000E+00 -0.00000000000E+00 -0.45593999997E+02  0.45594000000E+02  0.51100000000E-03 0. -1.
    9900012    2    1    2    0    0 -0.62835134906E+00 -0.97372985145E+00  0.22386776674E+00  0.90007706808E+02  0.89999967738E+02 0.  0.
        -12    1    1    2    0    0  0.62835134906E+00  0.97372985145E+00 -0.22386776674E+00  0.11802931917E+01  0.00000000000E+00 0.  1.
         11    1    3    3    0    0 -0.91653817836E+01 -0.22804805296E+00  0.30484403586E+01  0.96617399072E+01  0.51100000000E-03 0. -1.
        -11    1    3    3    0    0  0.28767495828E+02 -0.31414189283E+02  0.46638073772E+01  0.42850568305E+02  0.51100000000E-03 0.  1.
         12    1    3    3    0    0 -0.20230465393E+02  0.30668507484E+02 -0.74883799691E+01  0.37495398597E+02  0.00000000000E+00 0. -1.
</event>
<event>
 7    1  0.2895479E-015  0.9000760E+02  0.7816164E-02  0.1186339E+00
        -11   -1    0    0    0    0  0.00000000000E+00  0.00000000000E+00  0.45593999997E+02  0.45594000000E+02  0.51100000000E-03 0. -1.
         11   -1    0    0    0    0 -0.00000000000E+00 -0.00000000000E+00 -0.45593999997E+02  0.45594000000E+02  0.51100000000E-03 0.  1.
    9900012    2    1    2    0    0 -0.41718227107E+00  0.86721785398E+00  0.68354073648E+00  0.90007603545E+02  0.89999863111E+02 0.  0.
        -12    1    1    2    0    0  0.41718227107E+00 -0.86721785398E+00 -0.68354073648E+00  0.11803964554E+01  0.00000000000E+00 0.  1.
         11    1    3    3    0    0  0.10433428847E+02 -0.67398633618E-01 -0.17503233325E+01  0.10579442902E+02  0.51100000000E-03 0. -1.
        -11    1    3    3    0    0  0.25549143447E+02  0.20667852499E+02 -0.12860626658E+02  0.35289014950E+02  0.51100000000E-03 0.  1.
         12    1    3    3    0    0 -0.36399754565E+02 -0.19733236012E+02  0.15294490727E+02  0.44139145693E+02  0.00000000000E+00 0. -1.
</event>
<event>
 7    1  0.3102794E-015  0.9000771E+02  0.7816164E-02  0.1186339E+00
        -11   -1    0    0    0    0  0.00000000000E+00  0.00000000000E+00  0.45593999997E+02  0.45594000000E+02  0.51100000000E-03 0. -1.
         11   -1    0    0    0    0 -0.00000000000E+00 -0.00000000000E+00 -0.45593999997E+02  0.45594000000E+02  0.51100000000E-03 0.  1.
    9900012    2    1    2    0    0 -0.65051422411E+00 -0.94327965266E+00  0.28307353272E+00  0.90007713643E+02  0.89999974663E+02 0.  0.
        -12    1    1    2    0    0  0.65051422411E+00  0.94327965266E+00 -0.28307353272E+00  0.11802863567E+01  0.00000000000E+00 0.  1.
         11    1    3    3    0    0  0.40125429966E+01  0.14438421788E+00 -0.85020718188E+01  0.94024769914E+01  0.51100000000E-03 0. -1.
        -11    1    3    3    0    0  0.34832554459E+02 -0.40643262529E+01 -0.10423972522E+02  0.36585308547E+02  0.51100000000E-03 0.  1.
         12    1    3    3    0    0 -0.39495611680E+02  0.29766623824E+01  0.19209117874E+02  0.44019928105E+02  0.00000000000E+00 0. -1.
</event>
<event>
 7    1  0.2895479E-015  0.9000783E+02  0.7816164E-02  0.1186339E+00
        -11   -1    0    0    0    0  0.00000000000E+00  0.00000000000E+00  0.45593999997E+02  0.45594000000E+02  0.51100000000E-03 0.  1.
         11   -1    0    0    0    0 -0.00000000000E+00 -0.00000000000E+00 -0.45593999997E+02  0.45594000000E+02  0.51100000000E-03 0. -1.
    9900012    2    1    2    0    0  0.11175796792E+01 -0.35721832052E+00 -0.12730123192E+00  0.90007832693E+02  0.90000095285E+02 0.  0.
        -12    1    1    2    0    0 -0.11175796792E+01  0.35721832052E+00  0.12730123192E+00  0.11801673066E+01  0.00000000000E+00 0.  1.
         11    1    3    3    0    0 -0.33649353799E+02 -0.22679422662E+01 -0.20266411727E+02  0.39346537557E+02  0.51100000000E-03 0. -1.
        -11    1    3    3    0    0 -0.41813253297E+01 -0.48285143719E+01  0.57575726559E+01  0.85992834412E+01  0.51100000000E-03 0.  1.
        -12    1    3    3    0    0  0.38948258807E+02  0.67392383176E+01  0.14381537839E+02  0.42062011695E+02  0.00000000000E+00 0.  1.
</event>
<event>
 7    1  0.2895479E-015  0.9000778E+02  0.7816164E-02  0.1186339E+00
        -11   -1    0    0    0    0  0.00000000000E+00  0.00000000000E+00  0.45593999997E+02  0.45594000000E+02  0.51100000000E-03 0. -1.
         11   -1    0    0    0    0 -0.00000000000E+00 -0.00000000000E+00 -0.45593999997E+02  0.45594000000E+02  0.51100000000E-03 0.  1.
    9900012    2    1    2    0    0  0.89905858619E+00 -0.76364578883E+00 -0.38060844984E-01  0.90007783977E+02  0.90000045926E+02 0.  0.
        -12    1    1    2    0    0 -0.89905858619E+00  0.76364578883E+00  0.38060844984E-01  0.11802160227E+01  0.00000000000E+00 0.  1.
         11    1    3    3    0    0  0.29654435969E+02  0.63071955206E+01  0.21996358954E+02  0.37456722968E+02  0.51100000000E-03 0. -1.
        -11    1    3    3    0    0  0.89348913231E+01 -0.32571614442E+01 -0.20824797864E+01  0.97354047657E+01  0.51100000000E-03 0.  1.
        -12    1    3    3    0    0 -0.37690268706E+02 -0.38136798653E+01 -0.19951940013E+02  0.42815656243E+02  0.00000000000E+00 0.  1.
</event>
<event>
 7    1  0.2895479E-015  0.9000774E+02  0.7816164E-02  0.1186339E+00
        -11   -1    0    0    0    0  0.00000000000E+00  0.00000000000E+00  0.45593999997E+02  0.45594000000E+02  0.51100000000E-03 0. -1.
         11   -1    0    0    0    0 -0.00000000000E+00 -0.00000000000E+00 -0.45593999997E+02  0.45594000000E+02  0.51100000000E-03 0.  1.
    9900012    2    1    2    0    0 -0.74218310355E+00 -0.88946800582E+00 -0.22587642624E+00  0.90007741870E+02  0.90000003263E+02 0.  0.
        -12    1    1    2    0    0  0.74218310355E+00  0.88946800582E+00  0.22587642624E+00  0.11802581296E+01  0.00000000000E+00 0.  1.
         11    1    3    3    0    0 -0.22023189568E+02  0.19134507902E+02  0.31892057208E+02  0.43223299095E+02  0.51100000000E-03 0. -1.
        -11    1    3    3    0    0  0.12355914125E+02 -0.17512264303E+01 -0.64830018433E+01  0.14062884520E+02  0.51100000000E-03 0.  1.
        -12    1    3    3    0    0  0.89250923400E+01 -0.18272749478E+02 -0.25634931791E+02  0.32721558255E+02  0.00000000000E+00 0.  1.
</event>
<event>
 7    1  0.2895479E-015  0.9000776E+02  0.7816164E-02  0.1186339E+00
        -11   -1    0    0    0    0  0.00000000000E+00  0.00000000000E+00  0.45593999997E+02  0.45594000000E+02  0.51100000000E-03 0. -1.
         11   -1    0    0    0    0 -0.00000000000E+00 -0.00000000000E+00 -0.45593999997E+02  0.45594000000E+02  0.51100000000E-03 0.  1.
    9900012    2    1    2    0    0  0.91228515198E-01  0.10004340242E+01  0.61949669514E+00  0.90007759756E+02  0.90000021385E+02 0.  0.
        -12    1    1    2    0    0 -0.91228515198E-01 -0.10004340242E+01 -0.61949669514E+00  0.11802402442E+01  0.00000000000E+00 0.  1.
         11    1    3    3    0    0  0.18826484050E+02  0.48002612537E+01  0.35785089707E+02  0.40719180436E+02  0.51100000000E-03 0. -1.
        -11    1    3    3    0    0 -0.59295940958E+01 -0.49986195696E+01  0.35230334288E+01  0.85181012288E+01  0.51100000000E-03 0.  1.
        -12    1    3    3    0    0 -0.12805661439E+02  0.11987923402E+01 -0.38688626440E+02  0.40770478091E+02  0.00000000000E+00 0.  1.
</event>
<event>
 7    1  0.2895479E-015  0.9000783E+02  0.7816164E-02  0.1186339E+00
        -11   -1    0    0    0    0  0.00000000000E+00  0.00000000000E+00  0.45593999997E+02  0.45594000000E+02  0.51100000000E-03 0. -1.
         11   -1    0    0    0    0 -0.00000000000E+00 -0.00000000000E+00 -0.45593999997E+02  0.45594000000E+02  0.51100000000E-03 0.  1.
    9900012    2    1    2    0    0 -0.11199703622E+01 -0.36898536422E+00 -0.48057130542E-01  0.90007833360E+02  0.90000095960E+02 0.  0.
        -12    1    1    2    0    0  0.11199703622E+01  0.36898536422E+00  0.48057130542E-01  0.11801666403E+01  0.00000000000E+00 0.  1.
         11    1    3    3    0    0 -0.68565637404E+01  0.16977363623E+02  0.11099298891E+02  0.21411160129E+02  0.51100000000E-03 0. -1.
        -11    1    3    3    0    0  0.22688126824E+02  0.84478367985E+01 -0.24967861014E+02  0.34778026529E+02  0.51100000000E-03 0.  1.
         12    1    3    3    0    0 -0.16951533446E+02 -0.25794185786E+02  0.13820504992E+02  0.33818646702E+02  0.00000000000E+00 0. -1.
</event>
<event>
 7    1  0.2895479E-015  0.9000809E+02  0.7816164E-02  0.1186338E+00
        -11   -1    0    0    0    0  0.00000000000E+00  0.00000000000E+00  0.45593999997E+02  0.45594000000E+02  0.51100000000E-03 0.  1.
         11   -1    0    0    0    0 -0.00000000000E+00 -0.00000000000E+00 -0.45593999997E+02  0.45594000000E+02  0.51100000000E-03 0. -1.
    9900012    2    1    2    0    0  0.35257408982E+00 -0.11047916477E+00 -0.11205677834E+01  0.90008090558E+02  0.90000356552E+02 0.  0.
        -12    1    1    2    0    0 -0.35257408982E+00  0.11047916477E+00  0.11205677834E+01  0.11799094422E+01  0.00000000000E+00 0.  1.
         11    1    3    3    0    0 -0.30090788251E+02 -0.11217225318E+02  0.16901981930E+02  0.36289925253E+02  0.51100000000E-03 0. -1.
        -11    1    3    3    0    0 -0.39611832027E+01  0.79760916912E+01  0.67777416413E+01  0.11191371366E+02  0.51100000000E-03 0.  1.
        -12    1    3    3    0    0  0.34404545544E+02  0.31306544624E+01 -0.24800291355E+02  0.42526793939E+02  0.00000000000E+00 0.  1.
</event>
<event>
 7    1  0.2895479E-015  0.9000773E+02  0.7816164E-02  0.1186339E+00
        -11   -1    0    0    0    0  0.00000000000E+00  0.00000000000E+00  0.45593999997E+02  0.45594000000E+02  0.51100000000E-03 0.  1.
         11   -1    0    0    0    0 -0.00000000000E+00 -0.00000000000E+00 -0.45593999997E+02  0.45594000000E+02  0.51100000000E-03 0. -1.
    9900012    2    1    2    0    0  0.19450375328E+00 -0.77652628062E+00 -0.86729861813E+00  0.90007732375E+02  0.89999993642E+02 0.  0.
        -12    1    1    2    0    0 -0.19450375328E+00  0.77652628062E+00  0.86729861813E+00  0.11802676254E+01  0.00000000000E+00 0.  1.
         11    1    3    3    0    0  0.65536638411E+01 -0.32852406927E+01 -0.84081092056E+01  0.11155250639E+02  0.51100000000E-03 0. -1.
        -11    1    3    3    0    0 -0.21228778938E+02 -0.83176003200E+01  0.37388791054E+02  0.43792296434E+02  0.51100000000E-03 0.  1.
         12    1    3    3    0    0  0.14869618850E+02  0.10826314732E+02 -0.29847980466E+02  0.35060185301E+02  0.00000000000E+00 0. -1.
</event>
<event>
 7    1  0.2895479E-015  0.9000770E+02  0.7816164E-02  0.1186339E+00
        -11   -1    0    0    0    0  0.00000000000E+00  0.00000000000E+00  0.45593999997E+02  0.45594000000E+02  0.51100000000E-03 0. -1.
         11   -1    0    0    0    0 -0.00000000000E+00 -0.00000000000E+00 -0.45593999997E+02  0.45594000000E+02  0.51100000000E-03 0.  1.
    9900012    2    1    2    0    0  0.38967060898E+00  0.93045181390E+00  0.61279482411E+00  0.90007702894E+02  0.89999963772E+02 0.  0.
        -12    1    1    2    0    0 -0.38967060898E+00 -0.93045181390E+00 -0.61279482411E+00  0.11802971058E+01  0.00000000000E+00 0.  1.
         11    1    3    3    0    0 -0.31200609589E+02 -0.18604355328E+02  0.62177412164E+01  0.36854584274E+02  0.51100000000E-03 0. -1.
        -11    1    3    3    0    0 -0.57087073753E+01 -0.34316440094E+01 -0.65479757011E+01  0.93403161910E+01  0.51100000000E-03 0.  1.
        -12    1    3    3    0    0  0.37298987573E+02  0.22966451152E+02  0.94302930883E+00  0.43812802430E+02  0.00000000000E+00 0.  1.
</event>
<event>
 7    1  0.2895479E-015  0.9000769E+02  0.7816164E-02  0.1186339E+00
        -11   -1    0    0    0    0  0.00000000000E+00  0.00000000000E+00  0.45593999997E+02  0.45594000000E+02  0.51100000000E-03 0.  1.
         11   -1    0    0    0    0 -0.00000000000E+00 -0.00000000000E+00 -0.45593999997E+02  0.45594000000E+02  0.51100000000E-03 0. -1.
    9900012    2    1    2    0    0 -0.85332009623E+00 -0.55636773834E+00 -0.59618108467E+00  0.90007689815E+02  0.89999950521E+02 0.  0.
        -12    1    1    2    0    0  0.85332009623E+00  0.55636773834E+00  0.59618108467E+00  0.11803101849E+01  0.00000000000E+00 0.  1.
         11    1    3    3    0    0 -0.15531836897E+01  0.83805471725E+00  0.10892339236E+02  0.11034390313E+02  0.51100000000E-03 0. -1.
        -11    1    3    3    0    0 -0.35519494918E+02  0.63192012549E+01  0.82515983084E+01  0.37008859732E+02  0.51100000000E-03 0.  1.
         12    1    3    3    0    0  0.36219358512E+02 -0.77136237105E+01 -0.19740118629E+02  0.41964439770E+02  0.00000000000E+00 0. -1.
</event>
<event>
 7    1  0.2895479E-015  0.9000780E+02  0.7816164E-02  0.1186339E+00
        -11   -1    0    0    0    0  0.00000000000E+00  0.00000000000E+00  0.45593999997E+02  0.45594000000E+02  0.51100000000E-03 0. -1.
         11   -1    0    0    0    0 -0.00000000000E+00 -0.00000000000E+00 -0.45593999997E+02  0.45594000000E+02  0.51100000000E-03 0.  1.
    9900012    2    1    2    0    0 -0.49131631487E+00 -0.29647206776E+00  0.10313042549E+01  0.90007798375E+02  0.90000060514E+02 0.  0.
        -12    1    1    2    0    0  0.49131631487E+00  0.29647206776E+00 -0.10313042549E+01  0.11802016245E+01  0.00000000000E+00 0.  1.
         11    1    3    3    0    0  0.74818828859E+01  0.34523130288E+02  0.13581180589E+02  0.37845390246E+02  0.51100000000E-03 0. -1.
        -11    1    3    3    0    0 -0.15090929150E+01 -0.80937813311E+00  0.10456578487E+02  0.10595871286E+02  0.51100000000E-03 0.  1.
        -12    1    3    3    0    0 -0.64641062858E+01 -0.34010224223E+02 -0.23006454821E+02  0.41566536844E+02  0.00000000000E+00 0.  1.
</event>
<event>
 7    1  0.2895479E-015  0.9000775E+02  0.7816164E-02  0.1186339E+00
        -11   -1    0    0    0    0  0.00000000000E+00  0.00000000000E+00  0.45593999997E+02  0.45594000000E+02  0.51100000000E-03 0. -1.
         11   -1    0    0    0    0 -0.00000000000E+00 -0.00000000000E+00 -0.45593999997E+02  0.45594000000E+02  0.51100000000E-03 0.  1.
    9900012    2    1    2    0    0 -0.58562652141E+00 -0.56706578809E+00  0.85350779914E+00  0.90007746809E+02  0.90000008267E+02 0.  0.
        -12    1    1    2    0    0  0.58562652141E+00  0.56706578809E+00 -0.85350779914E+00  0.11802531905E+01  0.00000000000E+00 0.  1.
         11    1    3    3    0    0 -0.59093636750E+01  0.32233460186E+02  0.12047541724E+01  0.32792803593E+02  0.51100000000E-03 0. -1.
        -11    1    3    3    0    0  0.90183617598E+01  0.10314975270E+02  0.21504765197E+01  0.13869178533E+02  0.51100000000E-03 0.  1.
        -12    1    3    3    0    0 -0.36946246062E+01 -0.43115501245E+02 -0.25017228929E+01  0.43345764683E+02  0.00000000000E+00 0.  1.
</event>
<event>
 7    1  0.2895479E-015  0.9000778E+02  0.7816164E-02  0.1186339E+00
        -11   -1    0    0    0    0  0.00000000000E+00  0.00000000000E+00  0.45593999997E+02  0.45594000000E+02  0.51100000000E-03 0.  1.
         11   -1    0    0    0    0 -0.00000000000E+00 -0.00000000000E+00 -0.45593999997E+02  0.45594000000E+02  0.51100000000E-03 0. -1.
    9900012    2    1    2    0    0  0.71955268855E+00  0.93419244864E+00  0.49533889090E-01  0.90007777475E+02  0.90000039338E+02 0.  0.
        -12    1    1    2    0    0 -0.71955268855E+00 -0.93419244864E+00 -0.49533889090E-01  0.11802225251E+01  0.00000000000E+00 0.  1.
         11    1    3    3    0    0 -0.15329414763E+02 -0.22750720270E+02 -0.28968358645E+02  0.39896767195E+02  0.51100000000E-03 0. -1.
        -11    1    3    3    0    0  0.67550410566E+01  0.61707749889E+01 -0.52294058932E+01  0.10538298245E+02  0.51100000000E-03 0.  1.
        -12    1    3    3    0    0  0.92939263952E+01  0.17514137730E+02  0.34247298427E+02  0.39572712035E+02  0.00000000000E+00 0.  1.
</event>
<event>
 7    1  0.2895479E-015  0.9000771E+02  0.7816164E-02  0.1186339E+00
        -11   -1    0    0    0    0  0.00000000000E+00  0.00000000000E+00  0.45593999997E+02  0.45594000000E+02  0.51100000000E-03 0. -1.
         11   -1    0    0    0    0 -0.00000000000E+00 -0.00000000000E+00 -0.45593999997E+02  0.45594000000E+02  0.51100000000E-03 0.  1.
    9900012    2    1    2    0    0  0.66698962646E+00 -0.63751404062E+00  0.73606745278E+00  0.90007705711E+02  0.89999966626E+02 0.  0.
        -12    1    1    2    0    0 -0.66698962646E+00  0.63751404062E+00 -0.73606745278E+00  0.11802942891E+01  0.00000000000E+00 0.  1.
         11    1    3    3    0    0  0.33695961307E+01  0.84221769053E+01  0.41727082039E+02  0.42701716800E+02  0.51100000000E-03 0. -1.
        -11    1    3    3    0    0 -0.69841269972E+00 -0.80791710718E+01 -0.21345641521E+01  0.83855321767E+01  0.51100000000E-03 0.  1.
        -12    1    3    3    0    0 -0.20041938045E+01 -0.98051987414E+00 -0.38856450434E+02  0.38920456734E+02  0.00000000000E+00 0.  1.
</event>
<event>
 7    1  0.2895479E-015  0.9000780E+02  0.7816164E-02  0.1186339E+00
        -11   -1    0    0    0    0  0.00000000000E+00  0.00000000000E+00  0.45593999997E+02  0.45594000000E+02  0.51100000000E-03 0.  1.
         11   -1    0    0    0    0 -0.00000000000E+00 -0.00000000000E+00 -0.45593999997E+02  0.45594000000E+02  0.51100000000E-03 0. -1.
    9900012    2    1    2    0    0  0.88735678909E+00  0.56619524511E+00  0.53375515416E+00  0.90007799300E+02  0.90000061451E+02 0.  0.
        -12    1    1    2    0    0 -0.88735678909E+00 -0.56619524511E+00 -0.53375515416E+00  0.11802006996E+01  0.00000000000E+00 0.  1.
         11    1    3    3    0    0  0.28100244391E+02  0.29763915200E+02 -0.13031469944E+02  0.42957346194E+02  0.51100000000E-03 0. -1.
        -11    1    3    3    0    0 -0.50472927815E+01 -0.53127833641E+01 -0.56215617613E+01  0.92359508657E+01  0.51100000000E-03 0.  1.
        -12    1    3    3    0    0 -0.22165594821E+02 -0.23884936591E+02  0.19186786860E+02  0.37814502241E+02  0.00000000000E+00 0.  1.
</event>
<event>
 7    1  0.2895479E-015  0.9000764E+02  0.7816164E-02  0.1186339E+00
        -11   -1    0    0    0    0  0.00000000000E+00  0.00000000000E+00  0.45593999997E+02  0.45594000000E+02  0.51100000000E-03 0.  1.
         11   -1    0    0    0    0 -0.00000000000E+00 -0.00000000000E+00 -0.45593999997E+02  0.45594000000E+02  0.51100000000E-03 0. -1.
    9900012    2    1    2    0    0  0.49672640144E+00 -0.10463253609E+01 -0.22743664661E+00  0.90007635096E+02  0.89999895079E+02 0.  0.
        -12    1    1    2    0    0 -0.49672640144E+00  0.10463253609E+01  0.22743664661E+00  0.11803649041E+01  0.00000000000E+00 0.  1.
         11    1    3    3    0    0  0.20218641176E+02  0.24821867289E+02 -0.18094000494E+02  0.36773786871E+02  0.51100000000E-03 0. -1.
        -11    1    3    3    0    0  0.13078314715E-01  0.19355484709E+00 -0.10167201702E+02  0.10169052327E+02  0.51100000000E-03 0.  1.
        -12    1    3    3    0    0 -0.19734993089E+02 -0.26061747497E+02  0.28033765549E+02  0.43064795898E+02  0.00000000000E+00 0.  1.
</event>
<event>
 7    1  0.2895479E-015  0.9000767E+02  0.7816164E-02  0.1186339E+00
        -11   -1    0    0    0    0  0.00000000000E+00  0.00000000000E+00  0.45593999997E+02  0.45594000000E+02  0.51100000000E-03 0.  1.
         11   -1    0    0    0    0 -0.00000000000E+00 -0.00000000000E+00 -0.45593999997E+02  0.45594000000E+02  0.51100000000E-03 0. -1.
    9900012    2    1    2    0    0 -0.86186581094E+00  0.12074306466E-01 -0.80635740233E+00  0.90007673467E+02  0.89999933956E+02 0.  0.
        -12    1    1    2    0    0  0.86186581094E+00 -0.12074306466E-01  0.80635740233E+00  0.11803265333E+01  0.00000000000E+00 0.  1.
         11    1    3    3    0    0  0.22074637628E+02 -0.30076571251E+02 -0.15195444897E+02  0.40283884004E+02  0.51100000000E-03 0. -1.
        -11    1    3    3    0    0  0.35784985885E+01  0.41958617837E+01 -0.53936783600E+01  0.77137976878E+01  0.51100000000E-03 0.  1.
        -12    1    3    3    0    0 -0.26515002027E+02  0.25892783773E+02  0.19782765855E+02  0.42009991775E+02  0.00000000000E+00 0.  1.
</event>
<event>
 7    1  0.2895479E-015  0.9000773E+02  0.7816164E-02  0.1186339E+00
        -11   -1    0    0    0    0  0.00000000000E+00  0.00000000000E+00  0.45593999997E+02  0.45594000000E+02  0.51100000000E-03 0. -1.
         11   -1    0    0    0    0 -0.00000000000E+00 -0.00000000000E+00 -0.45593999997E+02  0.45594000000E+02  0.51100000000E-03 0.  1.
    9900012    2    1    2    0    0 -0.28371329944E+00  0.40249685390E+00  0.10726279840E+01  0.90007734036E+02  0.89999995325E+02 0.  0.
        -12    1    1    2    0    0  0.28371329944E+00 -0.40249685390E+00 -0.10726279840E+01  0.11802659640E+01  0.00000000000E+00 0.  1.
         11    1    3    3    0    0  0.31094904898E+01 -0.51605946498E+01  0.62925785689E+01  0.87119006854E+01  0.51100000000E-03 0. -1.
        -11    1    3    3    0    0  0.29720840313E+02 -0.17220886372E+01 -0.27659674483E+02  0.40636824814E+02  0.51100000000E-03 0.  1.
         12    1    3    3    0    0 -0.33114044103E+02  0.72851801409E+01  0.22439723898E+02  0.40659008536E+02  0.00000000000E+00 0. -1.
</event>
<event>
 7    1  0.2895479E-015  0.9000778E+02  0.7816164E-02  0.1186339E+00
        -11   -1    0    0    0    0  0.00000000000E+00  0.00000000000E+00  0.45593999997E+02  0.45594000000E+02  0.51100000000E-03 0.  1.
         11   -1    0    0    0    0 -0.00000000000E+00 -0.00000000000E+00 -0.45593999997E+02  0.45594000000E+02  0.51100000000E-03 0. -1.
    9900012    2    1    2    0    0 -0.12913164261E+00 -0.57021395264E+00 -0.10252316524E+01  0.90007780159E+02  0.90000042057E+02 0.  0.
        -12    1    1    2    0    0  0.12913164261E+00  0.57021395264E+00  0.10252316524E+01  0.11802198414E+01  0.00000000000E+00 0.  1.
         11    1    3    3    0    0 -0.28640778670E+01 -0.29040997710E+02 -0.25966907468E+02  0.39062293503E+02  0.51100000000E-03 0. -1.
        -11    1    3    3    0    0  0.20068602208E+01 -0.39019270833E+00 -0.73505148649E+01  0.76295351979E+01  0.51100000000E-03 0.  1.
        -12    1    3    3    0    0  0.72808600354E+00  0.28860976465E+02  0.32292190680E+02  0.43315951458E+02  0.00000000000E+00 0.  1.
</event>
<event>
 7    1  0.2895479E-015  0.9000774E+02  0.7816164E-02  0.1186339E+00
        -11   -1    0    0    0    0  0.00000000000E+00  0.00000000000E+00  0.45593999997E+02  0.45594000000E+02  0.51100000000E-03 0.  1.
         11   -1    0    0    0    0 -0.00000000000E+00 -0.00000000000E+00 -0.45593999997E+02  0.45594000000E+02  0.51100000000E-03 0. -1.
    9900012    2    1    2    0    0 -0.54101384364E-02 -0.92290259121E+00 -0.73568848714E+00  0.90007739007E+02  0.90000000361E+02 0.  0.
        -12    1    1    2    0    0  0.54101384364E-02  0.92290259121E+00  0.73568848714E+00  0.11802609934E+01  0.00000000000E+00 0.  1.
         11    1    3    3    0    0 -0.55702334077E+01 -0.57594111501E+01 -0.71484487012E+01  0.10737720247E+02  0.51100000000E-03 0. -1.
        -11    1    3    3    0    0 -0.33108124907E+02  0.15594584680E+02  0.12493304129E+02  0.38670682105E+02  0.51100000000E-03 0.  1.
         12    1    3    3    0    0  0.38672948176E+02 -0.10758076121E+02 -0.60805439154E+01  0.40599336654E+02  0.00000000000E+00 0. -1.
</event>
<event>
 7    1  0.2895479E-015  0.9000780E+02  0.7816164E-02  0.1186339E+00
        -11   -1    0    0    0    0  0.00000000000E+00  0.00000000000E+00  0.45593999997E+02  0.45594000000E+02  0.51100000000E-03 0. -1.
         11   -1    0    0    0    0 -0.00000000000E+00 -0.00000000000E+00 -0.45593999997E+02  0.45594000000E+02  0.51100000000E-03 0.  1.
    9900012    2    1    2    0    0 -0.99966692386E+00  0.36455328826E+00  0.51051822266E+00  0.90007804290E+02  0.90000066506E+02 0.  0.
        -12    1    1    2    0    0  0.99966692386E+00 -0.36455328826E+00 -0.51051822266E+00  0.11801957102E+01  0.00000000000E+00 0.  1.
         11    1    3    3    0    0  0.83634904774E+01  0.32374171476E+02  0.16687001909E+02  0.37369653259E+02  0.51100000000E-03 0. -1.
        -11    1    3    3    0    0  0.30658606399E+01  0.35929424583E+01  0.69490551660E+01  0.84022678447E+01  0.51100000000E-03 0.  1.
        -12    1    3    3    0    0 -0.12429018041E+02 -0.35602560646E+02 -0.23125538852E+02  0.44235883186E+02  0.00000000000E+00 0.  1.
</event>
<event>
 7    1  0.2895479E-015  0.9000779E+02  0.7816164E-02  0.1186339E+00
        -11   -1    0    0    0    0  0.00000000000E+00  0.00000000000E+00  0.45593999997E+02  0.45594000000E+02  0.51100000000E-03 0. -1.
         11   -1    0    0    0    0 -0.00000000000E+00 -0.00000000000E+00 -0.45593999997E+02  0.45594000000E+02  0.51100000000E-03 0.  1.
    9900012    2    1    2    0    0  0.49537797472E+00  0.67329079731E+00  0.83316719789E+00  0.90007793486E+02  0.90000055560E+02 0.  0.
        -12    1    1    2    0    0 -0.49537797472E+00 -0.67329079731E+00 -0.83316719789E+00  0.11802065138E+01  0.00000000000E+00 0.  1.
         11    1    3    3    0    0 -0.17056691541E+02 -0.24686628393E+02  0.29830283182E+02  0.42310827724E+02  0.51100000000E-03 0. -1.
        -11    1    3    3    0    0 -0.16623430123E+01  0.81693390815E+01  0.70438306724E+00  0.83664592921E+01  0.51100000000E-03 0.  1.
        -12    1    3    3    0    0  0.19214412528E+02  0.17190580109E+02 -0.29701499051E+02  0.39330506470E+02  0.00000000000E+00 0.  1.
</event>
<event>
 7    1  0.2895479E-015  0.9000775E+02  0.7816164E-02  0.1186339E+00
        -11   -1    0    0    0    0  0.00000000000E+00  0.00000000000E+00  0.45593999997E+02  0.45594000000E+02  0.51100000000E-03 0. -1.
         11   -1    0    0    0    0 -0.00000000000E+00 -0.00000000000E+00 -0.45593999997E+02  0.45594000000E+02  0.51100000000E-03 0.  1.
    9900012    2    1    2    0    0 -0.11571102302E+01  0.23003525687E+00  0.34290890157E-01  0.90007747413E+02  0.90000008879E+02 0.  0.
        -12    1    1    2    0    0  0.11571102302E+01 -0.23003525687E+00 -0.34290890157E-01  0.11802525871E+01  0.00000000000E+00 0.  1.
         11    1    3    3    0    0  0.19572276818E+02  0.43040881952E+01  0.37884919935E+02  0.42858678862E+02  0.51100000000E-03 0. -1.
        -11    1    3    3    0    0 -0.22491066825E+01  0.56800039899E+01 -0.37900051692E+01  0.71892326182E+01  0.51100000000E-03 0.  1.
        -12    1    3    3    0    0 -0.18480280366E+02 -0.97540569282E+01 -0.34060623876E+02  0.39959835933E+02  0.00000000000E+00 0.  1.
</event>
<event>
 7    1  0.2895479E-015  0.9000774E+02  0.7816164E-02  0.1186339E+00
        -11   -1    0    0    0    0  0.00000000000E+00  0.00000000000E+00  0.45593999997E+02  0.45594000000E+02  0.51100000000E-03 0. -1.
         11   -1    0    0    0    0 -0.00000000000E+00 -0.00000000000E+00 -0.45593999997E+02  0.45594000000E+02  0.51100000000E-03 0.  1.
    9900012    2    1    2    0    0 -0.11375137747E+01  0.67846847431E-01 -0.30737627956E+00  0.90007736911E+02  0.89999998238E+02 0.  0.
        -12    1    1    2    0    0  0.11375137747E+01 -0.67846847431E-01  0.30737627956E+00  0.11802630891E+01  0.00000000000E+00 0.  1.
         11    1    3    3    0    0  0.19114887221E+02 -0.30959315792E+02  0.36452148785E+01  0.36567003426E+02  0.51100000000E-03 0. -1.
        -11    1    3    3    0    0 -0.25651093200E+02  0.46011153691E+01  0.70324179677E+00  0.26069971122E+02  0.51100000000E-03 0.  1.
        -12    1    3    3    0    0  0.53986922042E+01  0.26426047270E+02 -0.46558329549E+01  0.27370762363E+02  0.00000000000E+00 0.  1.
</event>
<event>
 7    1  0.2895479E-015  0.9000775E+02  0.7816164E-02  0.1186339E+00
        -11   -1    0    0    0    0  0.00000000000E+00  0.00000000000E+00  0.45593999997E+02  0.45594000000E+02  0.51100000000E-03 0.  1.
         11   -1    0    0    0    0 -0.00000000000E+00 -0.00000000000E+00 -0.45593999997E+02  0.45594000000E+02  0.51100000000E-03 0. -1.
    9900012    2    1    2    0    0 -0.54894301958E+00 -0.13889366815E+00 -0.10355487394E+01  0.90007749568E+02  0.90000011063E+02 0.  0.
        -12    1    1    2    0    0  0.54894301958E+00  0.13889366815E+00  0.10355487394E+01  0.11802504317E+01  0.00000000000E+00 0.  1.
         11    1    3    3    0    0  0.16886264732E+02  0.66070471339E+01  0.65826350008E+00  0.18144760112E+02  0.51100000000E-03 0. -1.
        -11    1    3    3    0    0  0.26524037814E+02 -0.64161894773E+01  0.38312005839E+01  0.27556671924E+02  0.51100000000E-03 0.  1.
         12    1    3    3    0    0 -0.43959245565E+02 -0.32975132474E+00 -0.55250128233E+01  0.44306317532E+02  0.00000000000E+00 0. -1.
</event>
<event>
 7    1  0.2895479E-015  0.9000778E+02  0.7816164E-02  0.1186339E+00
        -11   -1    0    0    0    0  0.00000000000E+00  0.00000000000E+00  0.45593999997E+02  0.45594000000E+02  0.51100000000E-03 0.  1.
         11   -1    0    0    0    0 -0.00000000000E+00 -0.00000000000E+00 -0.45593999997E+02  0.45594000000E+02  0.51100000000E-03 0. -1.
    9900012    2    1    2    0    0  0.70761395434E+00 -0.91993700552E+00 -0.21428182577E+00  0.90007780400E+02  0.90000042302E+02 0.  0.
        -12    1    1    2    0    0 -0.70761395434E+00  0.91993700552E+00  0.21428182577E+00  0.11802195996E+01  0.00000000000E+00 0.  1.
         11    1    3    3    0    0  0.23237356970E+02  0.24495960961E+02  0.28149020938E+02  0.43959006385E+02  0.51100000000E-03 0. -1.
        -11    1    3    3    0    0 -0.77427749907E+01 -0.47065075913E+01 -0.17516521346E+01  0.92287628491E+01  0.51100000000E-03 0.  1.
        -12    1    3    3    0    0 -0.14786968025E+02 -0.20709390375E+02 -0.26611650629E+02  0.36820011166E+02  0.00000000000E+00 0.  1.
</event>
<event>
 7    1  0.2895479E-015  0.9000774E+02  0.7816164E-02  0.1186339E+00
        -11   -1    0    0    0    0  0.00000000000E+00  0.00000000000E+00  0.45593999997E+02  0.45594000000E+02  0.51100000000E-03 0. -1.
         11   -1    0    0    0    0 -0.00000000000E+00 -0.00000000000E+00 -0.45593999997E+02  0.45594000000E+02  0.51100000000E-03 0.  1.
    9900012    2    1    2    0    0  0.23977973409E+00  0.43915222909E+00  0.10689583621E+01  0.90007736902E+02  0.89999998229E+02 0.  0.
        -12    1    1    2    0    0 -0.23977973409E+00 -0.43915222909E+00 -0.10689583621E+01  0.11802630982E+01  0.00000000000E+00 0.  1.
         11    1    3    3    0    0  0.10358228430E+02 -0.76335112979E+01 -0.34267540871E+01  0.13315631220E+02  0.51100000000E-03 0. -1.
        -11    1    3    3    0    0  0.31502520086E+02  0.61719974865E+01 -0.82078168479E+01  0.33134130174E+02  0.51100000000E-03 0.  1.
         12    1    3    3    0    0 -0.41620968782E+02  0.19006660405E+01  0.12703529297E+02  0.43557975508E+02  0.00000000000E+00 0. -1.
</event>
<event>
 7    1  0.2895479E-015  0.9000766E+02  0.7816164E-02  0.1186339E+00
        -11   -1    0    0    0    0  0.00000000000E+00  0.00000000000E+00  0.45593999997E+02  0.45594000000E+02  0.51100000000E-03 0. -1.
         11   -1    0    0    0    0 -0.00000000000E+00 -0.00000000000E+00 -0.45593999997E+02  0.45594000000E+02  0.51100000000E-03 0.  1.
    9900012    2    1    2    0    0  0.96715489977E+00 -0.50155552504E-01  0.67475208695E+00  0.90007663371E+02  0.89999923727E+02 0.  0.
        -12    1    1    2    0    0 -0.96715489977E+00  0.50155552504E-01 -0.67475208695E+00  0.11803366293E+01  0.00000000000E+00 0.  1.
         11    1    3    3    0    0 -0.79481947075E+01  0.21177526499E+01  0.27214353739E+01  0.86639994316E+01  0.51100000000E-03 0. -1.
        -11    1    3    3    0    0 -0.15971278097E+02  0.23022824138E+02 -0.26295241308E+02  0.38426187308E+02  0.51100000000E-03 0.  1.
         12    1    3    3    0    0  0.24886627704E+02 -0.25190732340E+02  0.24248558021E+02  0.42917476631E+02  0.00000000000E+00 0. -1.
</event>
<event>
 7    1  0.2895479E-015  0.9000776E+02  0.7816164E-02  0.1186339E+00
        -11   -1    0    0    0    0  0.00000000000E+00  0.00000000000E+00  0.45593999997E+02  0.45594000000E+02  0.51100000000E-03 0. -1.
         11   -1    0    0    0    0 -0.00000000000E+00 -0.00000000000E+00 -0.45593999997E+02  0.45594000000E+02  0.51100000000E-03 0.  1.
    9900012    2    1    2    0    0 -0.19511031230E-01 -0.96156083432E+00  0.68409173419E+00  0.90007762134E+02  0.90000023795E+02 0.  0.
        -12    1    1    2    0    0  0.19511031230E-01  0.96156083432E+00 -0.68409173419E+00  0.11802378655E+01  0.00000000000E+00 0.  1.
         11    1    3    3    0    0 -0.59573973055E+00  0.56587233130E+01  0.73459369385E+01  0.92918698401E+01  0.51100000000E-03 0. -1.
        -11    1    3    3    0    0 -0.36507105716E+02 -0.13311810747E+02 -0.15789747442E+02  0.41943881528E+02  0.51100000000E-03 0.  1.
         12    1    3    3    0    0  0.37083334415E+02  0.66915265992E+01  0.91279022376E+01  0.38772010766E+02  0.00000000000E+00 0. -1.
</event>
<event>
 7    1  0.2895479E-015  0.9000774E+02  0.7816164E-02  0.1186339E+00
        -11   -1    0    0    0    0  0.00000000000E+00  0.00000000000E+00  0.45593999997E+02  0.45594000000E+02  0.51100000000E-03 0. -1.
         11   -1    0    0    0    0 -0.00000000000E+00 -0.00000000000E+00 -0.45593999997E+02  0.45594000000E+02  0.51100000000E-03 0.  1.
    9900012    2    1    2    0    0  0.85391998768E+00  0.60568691985E+00  0.54495334712E+00  0.90007741494E+02  0.90000002882E+02 0.  0.
        -12    1    1    2    0    0 -0.85391998768E+00 -0.60568691985E+00 -0.54495334712E+00  0.11802585059E+01  0.00000000000E+00 0.  1.
         11    1    3    3    0    0  0.98204956173E+00 -0.30955609135E+02  0.53050538230E+01  0.31422249356E+02  0.51100000000E-03 0. -1.
        -11    1    3    3    0    0  0.14530797432E+02 -0.72045186373E+01  0.27944980501E+01  0.16457775743E+02  0.51100000000E-03 0.  1.
        -12    1    3    3    0    0 -0.14658927006E+02  0.38765814693E+02 -0.75545985260E+01  0.42127716395E+02  0.00000000000E+00 0.  1.
</event>
<event>
 7    1  0.2895479E-015  0.9000769E+02  0.7816164E-02  0.1186339E+00
        -11   -1    0    0    0    0  0.00000000000E+00  0.00000000000E+00  0.45593999997E+02  0.45594000000E+02  0.51100000000E-03 0.  1.
         11   -1    0    0    0    0 -0.00000000000E+00 -0.00000000000E+00 -0.45593999997E+02  0.45594000000E+02  0.51100000000E-03 0. -1.
    9900012    2    1    2    0    0 -0.88566600625E+00 -0.52982662602E+00  0.57271524249E+00  0.90007693566E+02  0.89999954321E+02 0.  0.
        -12    1    1    2    0    0  0.88566600625E+00  0.52982662602E+00 -0.57271524249E+00  0.11803064336E+01  0.00000000000E+00 0.  1.
         11    1    3    3    0    0  0.12046134625E+02  0.78724326406E+01 -0.36607562227E+02  0.39334439968E+02  0.51100000000E-03 0. -1.
        -11    1    3    3    0    0 -0.25158377884E+00  0.93308732693E+01  0.24207395861E+01  0.96430529798E+01  0.51100000000E-03 0.  1.
        -12    1    3    3    0    0 -0.12680216852E+02 -0.17733132536E+02  0.34759537884E+02  0.41030200619E+02  0.00000000000E+00 0.  1.
</event>
<event>
 7    1  0.2895479E-015  0.9000777E+02  0.7816164E-02  0.1186339E+00
        -11   -1    0    0    0    0  0.00000000000E+00  0.00000000000E+00  0.45593999997E+02  0.45594000000E+02  0.51100000000E-03 0. -1.
         11   -1    0    0    0    0 -0.00000000000E+00 -0.00000000000E+00 -0.45593999997E+02  0.45594000000E+02  0.51100000000E-03 0.  1.
    9900012    2    1    2    0    0  0.57140292045E+00 -0.62110192923E+00  0.82502260341E+00  0.90007774937E+02  0.90000036766E+02 0.  0.
        -12    1    1    2    0    0 -0.57140292045E+00  0.62110192923E+00 -0.82502260341E+00  0.11802250633E+01  0.00000000000E+00 0.  1.
         11    1    3    3    0    0 -0.34092969539E+02  0.49313719119E+01  0.19149772034E+02  0.39412723455E+02  0.51100000000E-03 0. -1.
        -11    1    3    3    0    0 -0.49123938912E+01 -0.41967256313E+01 -0.67371583551E+01  0.93345285220E+01  0.51100000000E-03 0.  1.
        -12    1    3    3    0    0  0.39576766350E+02 -0.13557482098E+01 -0.11587591076E+02  0.41260522960E+02  0.00000000000E+00 0.  1.
</event>
<event>
 7    1  0.2895479E-015  0.9000786E+02  0.7816164E-02  0.1186339E+00
        -11   -1    0    0    0    0  0.00000000000E+00  0.00000000000E+00  0.45593999997E+02  0.45594000000E+02  0.51100000000E-03 0.  1.
         11   -1    0    0    0    0 -0.00000000000E+00 -0.00000000000E+00 -0.45593999997E+02  0.45594000000E+02  0.51100000000E-03 0. -1.
    9900012    2    1    2    0    0  0.18318432234E+00 -0.67383015753E+00 -0.95137596407E+00  0.90007864498E+02  0.90000127510E+02 0.  0.
        -12    1    1    2    0    0 -0.18318432234E+00  0.67383015753E+00  0.95137596407E+00  0.11801355016E+01  0.00000000000E+00 0.  1.
         11    1    3    3    0    0  0.62985830074E+01  0.19202211492E+02 -0.35407710323E+02  0.40768897761E+02  0.51100000000E-03 0. -1.
        -11    1    3    3    0    0  0.79113831468E+01  0.27251068914E+01  0.60710640655E+01  0.10337988683E+02  0.51100000000E-03 0.  1.
        -12    1    3    3    0    0 -0.14026781832E+02 -0.22601148541E+02  0.28385270293E+02  0.38900978054E+02  0.00000000000E+00 0.  1.
</event>
<event>
 7    1  0.2895479E-015  0.9000769E+02  0.7816164E-02  0.1186339E+00
        -11   -1    0    0    0    0  0.00000000000E+00  0.00000000000E+00  0.45593999997E+02  0.45594000000E+02  0.51100000000E-03 0. -1.
         11   -1    0    0    0    0 -0.00000000000E+00 -0.00000000000E+00 -0.45593999997E+02  0.45594000000E+02  0.51100000000E-03 0.  1.
    9900012    2    1    2    0    0  0.87221175706E+00 -0.77258320787E+00  0.18837588169E+00  0.90007693415E+02  0.89999954168E+02 0.  0.
        -12    1    1    2    0    0 -0.87221175706E+00  0.77258320787E+00 -0.18837588169E+00  0.11803065852E+01  0.00000000000E+00 0.  1.
         11    1    3    3    0    0 -0.23324757487E+02  0.32944107350E+02 -0.12607709772E+01  0.40384998014E+02  0.51100000000E-03 0. -1.
        -11    1    3    3    0    0  0.40936699477E+01 -0.41046896438E+01 -0.10412164957E+02  0.11917205632E+02  0.51100000000E-03 0.  1.
        -12    1    3    3    0    0  0.20103299296E+02 -0.29612000914E+02  0.11861311816E+02  0.37705489769E+02  0.00000000000E+00 0.  1.
</event>
<event>
 7    1  0.2895479E-015  0.9000780E+02  0.7816164E-02  0.1186339E+00
        -11   -1    0    0    0    0  0.00000000000E+00  0.00000000000E+00  0.45593999997E+02  0.45594000000E+02  0.51100000000E-03 0. -1.
         11   -1    0    0    0    0 -0.00000000000E+00 -0.00000000000E+00 -0.45593999997E+02  0.45594000000E+02  0.51100000000E-03 0.  1.
    9900012    2    1    2    0    0  0.75333223870E+00 -0.73551352011E+00 -0.53327820547E+00  0.90007798642E+02  0.90000060784E+02 0.  0.
        -12    1    1    2    0    0 -0.75333223870E+00  0.73551352011E+00  0.53327820547E+00  0.11802013576E+01  0.00000000000E+00 0.  1.
         11    1    3    3    0    0 -0.59058253014E+01  0.37498487071E+02  0.18307980282E+01  0.38004830309E+02  0.51100000000E-03 0. -1.
        -11    1    3    3    0    0  0.80357738528E+01  0.43519307104E+01  0.13306022504E+01  0.92349047061E+01  0.51100000000E-03 0.  1.
        -12    1    3    3    0    0 -0.13766163126E+01 -0.42585931302E+02 -0.36946784840E+01  0.42768063627E+02  0.00000000000E+00 0.  1.
</event>
<event>
 7    1  0.2895479E-015  0.9000772E+02  0.7816164E-02  0.1186339E+00
        -11   -1    0    0    0    0  0.00000000000E+00  0.00000000000E+00  0.45593999997E+02  0.45594000000E+02  0.51100000000E-03 0.  1.
         11   -1    0    0    0    0 -0.00000000000E+00 -0.00000000000E+00 -0.45593999997E+02  0.45594000000E+02  0.51100000000E-03 0. -1.
    9900012    2    1    2    0    0 -0.27242489402E+00 -0.11047568040E+01  0.31361158652E+00  0.90007722428E+02  0.89999983564E+02 0.  0.
        -12    1    1    2    0    0  0.27242489402E+00  0.11047568040E+01 -0.31361158652E+00  0.11802775716E+01  0.00000000000E+00 0.  1.
         11    1    3    3    0    0  0.22972436875E+02  0.59718501759E+01  0.97732059884E+01  0.25669269683E+02  0.51100000000E-03 0. -1.
        -11    1    3    3    0    0  0.15250201617E+02  0.12224996208E+02 -0.83688910325E+01  0.21261644316E+02  0.51100000000E-03 0.  1.
         12    1    3    3    0    0 -0.38495063385E+02 -0.19301603188E+02 -0.10907033694E+01  0.43076808430E+02  0.00000000000E+00 0. -1.
</event>
<event>
 7    1  0.2895479E-015  0.9000776E+02  0.7816164E-02  0.1186339E+00
        -11   -1    0    0    0    0  0.00000000000E+00  0.00000000000E+00  0.45593999997E+02  0.45594000000E+02  0.51100000000E-03 0.  1.
         11   -1    0    0    0    0 -0.00000000000E+00 -0.00000000000E+00 -0.45593999997E+02  0.45594000000E+02  0.51100000000E-03 0. -1.
    9900012    2    1    2    0    0  0.10018195290E+01  0.23877732700E+00 -0.57646858958E+00  0.90007757222E+02  0.90000018817E+02 0.  0.
        -12    1    1    2    0    0 -0.10018195290E+01 -0.23877732700E+00  0.57646858958E+00  0.11802427781E+01  0.00000000000E+00 0.  1.
         11    1    3    3    0    0 -0.80248981139E+01  0.41147641479E+01 -0.18078980425E+01  0.91977589294E+01  0.51100000000E-03 0. -1.
        -11    1    3    3    0    0 -0.11989910644E+02 -0.37967421845E+02  0.67460890395E+01  0.40383075618E+02  0.51100000000E-03 0.  1.
         12    1    3    3    0    0  0.21016628287E+02  0.34091435024E+02 -0.55146595866E+01  0.40426922674E+02  0.00000000000E+00 0. -1.
</event>
<event>
 7    1  0.2895479E-015  0.9000767E+02  0.7816164E-02  0.1186339E+00
        -11   -1    0    0    0    0  0.00000000000E+00  0.00000000000E+00  0.45593999997E+02  0.45594000000E+02  0.51100000000E-03 0.  1.
         11   -1    0    0    0    0 -0.00000000000E+00 -0.00000000000E+00 -0.45593999997E+02  0.45594000000E+02  0.51100000000E-03 0. -1.
    9900012    2    1    2    0    0 -0.35424171340E+00 -0.73624777339E+00 -0.85184101437E+00  0.90007669076E+02  0.89999929508E+02 0.  0.
        -12    1    1    2    0    0  0.35424171340E+00  0.73624777339E+00  0.85184101437E+00  0.11803309236E+01  0.00000000000E+00 0.  1.
         11    1    3    3    0    0 -0.65925916605E+00  0.10605741615E+02 -0.80194096050E+00  0.10656429393E+02  0.51100000000E-03 0. -1.
        -11    1    3    3    0    0  0.12133601921E+02 -0.42046353924E+02  0.10109351013E+02  0.44914576164E+02  0.51100000000E-03 0.  1.
         12    1    3    3    0    0 -0.11828584468E+02  0.30704364536E+02 -0.10159251067E+02  0.34436663519E+02  0.00000000000E+00 0. -1.
</event>
<event>
 7    1  0.2895479E-015  0.9000774E+02  0.7816164E-02  0.1186339E+00
        -11   -1    0    0    0    0  0.00000000000E+00  0.00000000000E+00  0.45593999997E+02  0.45594000000E+02  0.51100000000E-03 0. -1.
         11   -1    0    0    0    0 -0.00000000000E+00 -0.00000000000E+00 -0.45593999997E+02  0.45594000000E+02  0.51100000000E-03 0.  1.
    9900012    2    1    2    0    0 -0.36577974981E+00 -0.56487903247E+00  0.96960064847E+00  0.90007742162E+02  0.90000003559E+02 0.  0.
        -12    1    1    2    0    0  0.36577974981E+00  0.56487903247E+00 -0.96960064847E+00  0.11802578380E+01  0.00000000000E+00 0.  1.
         11    1    3    3    0    0  0.38607295953E+01  0.34979616137E+01  0.65651319896E+01  0.83810456842E+01  0.51100000000E-03 0. -1.
        -11    1    3    3    0    0 -0.21078075953E+02 -0.13824132169E+02  0.31130832245E+02  0.40056468050E+02  0.51100000000E-03 0.  1.
         12    1    3    3    0    0  0.16851566608E+02  0.97612915227E+01 -0.36726363586E+02  0.41570228428E+02  0.00000000000E+00 0. -1.
</event>
<event>
 7    1  0.2895479E-015  0.9000748E+02  0.7816164E-02  0.1186340E+00
        -11   -1    0    0    0    0  0.00000000000E+00  0.00000000000E+00  0.45593999997E+02  0.45594000000E+02  0.51100000000E-03 0.  1.
         11   -1    0    0    0    0 -0.00000000000E+00 -0.00000000000E+00 -0.45593999997E+02  0.45594000000E+02  0.51100000000E-03 0. -1.
    9900012    2    1    2    0    0  0.91112482389E-02 -0.11786536400E+01  0.65813894267E-01  0.90007475165E+02  0.89999733037E+02 0.  0.
        -12    1    1    2    0    0 -0.91112482389E-02  0.11786536400E+01 -0.65813894267E-01  0.11805248352E+01  0.00000000000E+00 0.  1.
         11    1    3    3    0    0 -0.18093892643E+02  0.15534961912E+02 -0.31226445544E+02  0.39291409928E+02  0.51100000000E-03 0. -1.
        -11    1    3    3    0    0  0.72100596732E+01 -0.29797558067E+01 -0.57793464835E+01  0.97090036150E+01  0.51100000000E-03 0.  1.
        -12    1    3    3    0    0  0.10892944218E+02 -0.13733859745E+02  0.37071605922E+02  0.41007061622E+02  0.00000000000E+00 0.  1.
</event>
<event>
 7    1  0.2895479E-015  0.9000766E+02  0.7816164E-02  0.1186339E+00
        -11   -1    0    0    0    0  0.00000000000E+00  0.00000000000E+00  0.45593999997E+02  0.45594000000E+02  0.51100000000E-03 0.  1.
         11   -1    0    0    0    0 -0.00000000000E+00 -0.00000000000E+00 -0.45593999997E+02  0.45594000000E+02  0.51100000000E-03 0. -1.
    9900012    2    1    2    0    0 -0.77589289594E+00  0.49816680386E+00 -0.73689654908E+00  0.90007662559E+02  0.89999922905E+02 0.  0.
        -12    1    1    2    0    0  0.77589289594E+00 -0.49816680386E+00  0.73689654908E+00  0.11803374409E+01  0.00000000000E+00 0.  1.
         11    1    3    3    0    0  0.37941785730E+01 -0.51815313837E+01  0.71917097266E+01  0.96418228348E+01  0.51100000000E-03 0. -1.
        -11    1    3    3    0    0 -0.11417159215E+02 -0.21069308907E+02  0.26830722916E+02  0.35974365802E+02  0.51100000000E-03 0.  1.
         12    1    3    3    0    0  0.68470877465E+01  0.26749007095E+02 -0.34759329191E+02  0.44391473923E+02  0.00000000000E+00 0. -1.
</event>
<event>
 7    1  0.2895479E-015  0.9000775E+02  0.7816164E-02  0.1186339E+00
        -11   -1    0    0    0    0  0.00000000000E+00  0.00000000000E+00  0.45593999997E+02  0.45594000000E+02  0.51100000000E-03 0.  1.
         11   -1    0    0    0    0 -0.00000000000E+00 -0.00000000000E+00 -0.45593999997E+02  0.45594000000E+02  0.51100000000E-03 0. -1.
    9900012    2    1    2    0    0  0.83367221789E+00  0.18963126498E+00 -0.81364112411E+00  0.90007753728E+02  0.90000015277E+02 0.  0.
        -12    1    1    2    0    0 -0.83367221789E+00 -0.18963126498E+00  0.81364112411E+00  0.11802462719E+01  0.00000000000E+00 0.  1.
         11    1    3    3    0    0 -0.12383824725E+01  0.73559480419E+00 -0.96971722498E+01  0.98035626568E+01  0.51100000000E-03 0. -1.
        -11    1    3    3    0    0 -0.22315179242E+02 -0.31341986191E+02 -0.44254034720E+01  0.38728174746E+02  0.51100000000E-03 0.  1.
         12    1    3    3    0    0  0.24387233932E+02  0.30796022652E+02  0.13308934598E+02  0.41476016325E+02  0.00000000000E+00 0. -1.
</event>
<event>
 7    1  0.2895479E-015  0.9000776E+02  0.7816164E-02  0.1186339E+00
        -11   -1    0    0    0    0  0.00000000000E+00  0.00000000000E+00  0.45593999997E+02  0.45594000000E+02  0.51100000000E-03 0. -1.
         11   -1    0    0    0    0 -0.00000000000E+00 -0.00000000000E+00 -0.45593999997E+02  0.45594000000E+02  0.51100000000E-03 0.  1.
    9900012    2    1    2    0    0 -0.68610208105E+00 -0.76468345267E+00  0.58093921150E+00  0.90007759679E+02  0.90000021307E+02 0.  0.
        -12    1    1    2    0    0  0.68610208105E+00  0.76468345267E+00 -0.58093921150E+00  0.11802403212E+01  0.00000000000E+00 0.  1.
         11    1    3    3    0    0 -0.23463049131E+01 -0.83570397571E+01  0.54600047681E+01  0.10254604457E+02  0.51100000000E-03 0. -1.
        -11    1    3    3    0    0  0.38892961431E+02  0.14403166302E+02  0.78176133087E+00  0.41481620019E+02  0.51100000000E-03 0.  1.
         12    1    3    3    0    0 -0.37232758599E+02 -0.68108099980E+01 -0.56608268875E+01  0.38271535202E+02  0.00000000000E+00 0. -1.
</event>
<event>
 7    1  0.2895479E-015  0.9000774E+02  0.7816164E-02  0.1186339E+00
        -11   -1    0    0    0    0  0.00000000000E+00  0.00000000000E+00  0.45593999997E+02  0.45594000000E+02  0.51100000000E-03 0.  1.
         11   -1    0    0    0    0 -0.00000000000E+00 -0.00000000000E+00 -0.45593999997E+02  0.45594000000E+02  0.51100000000E-03 0. -1.
    9900012    2    1    2    0    0 -0.51144400062E+00 -0.68626462994E+00 -0.81269861135E+00  0.90007740223E+02  0.90000001594E+02 0.  0.
        -12    1    1    2    0    0  0.51144400062E+00  0.68626462994E+00  0.81269861135E+00  0.11802597769E+01  0.00000000000E+00 0.  1.
         11    1    3    3    0    0  0.18611183100E+01  0.27354971342E+02 -0.79233071602E+01  0.28540094869E+02  0.51100000000E-03 0. -1.
        -11    1    3    3    0    0  0.10060189993E+02  0.13839401670E+02 -0.52851233327E+00  0.17117703900E+02  0.51100000000E-03 0.  1.
        -12    1    3    3    0    0 -0.12432752304E+02 -0.41880637642E+02  0.76391208822E+01  0.44349941454E+02  0.00000000000E+00 0.  1.
</event>
<event>
 7    1  0.2895479E-015  0.9000870E+02  0.7816164E-02  0.1186337E+00
        -11   -1    0    0    0    0  0.00000000000E+00  0.00000000000E+00  0.45593999997E+02  0.45594000000E+02  0.51100000000E-03 0.  1.
         11   -1    0    0    0    0 -0.00000000000E+00 -0.00000000000E+00 -0.45593999997E+02  0.45594000000E+02  0.51100000000E-03 0. -1.
    9900012    2    1    2    0    0 -0.38825741975E+00  0.10346835842E+01 -0.41163811128E+00  0.90008695172E+02  0.90000969143E+02 0.  0.
        -12    1    1    2    0    0  0.38825741975E+00 -0.10346835842E+01  0.41163811128E+00  0.11793048283E+01  0.00000000000E+00 0.  1.
         11    1    3    3    0    0 -0.80653823928E+01 -0.52688687708E+01  0.30809271496E+01  0.10114518458E+02  0.51100000000E-03 0. -1.
        -11    1    3    3    0    0 -0.60788530096E+01 -0.17533111210E+02  0.30778892886E+02  0.35940265583E+02  0.51100000000E-03 0.  1.
         12    1    3    3    0    0  0.13755977983E+02  0.23836663565E+02 -0.34271458147E+02  0.43953911131E+02  0.00000000000E+00 0. -1.
</event>
<event>
 7    1  0.2895479E-015  0.9000759E+02  0.7816164E-02  0.1186339E+00
        -11   -1    0    0    0    0  0.00000000000E+00  0.00000000000E+00  0.45593999997E+02  0.45594000000E+02  0.51100000000E-03 0. -1.
         11   -1    0    0    0    0 -0.00000000000E+00 -0.00000000000E+00 -0.45593999997E+02  0.45594000000E+02  0.51100000000E-03 0.  1.
    9900012    2    1    2    0    0 -0.96854464141E+00  0.53165305825E+00  0.41548992195E+00  0.90007590930E+02  0.89999850330E+02 0.  0.
        -12    1    1    2    0    0  0.96854464141E+00 -0.53165305825E+00 -0.41548992195E+00  0.11804090698E+01  0.00000000000E+00 0.  1.
         11    1    3    3    0    0 -0.19074207352E+01 -0.17536279735E+02  0.30243250941E+02  0.35011620764E+02  0.51100000000E-03 0. -1.
        -11    1    3    3    0    0 -0.86043969952E+00 -0.57726819888E+01  0.82071615289E+01  0.10070834843E+02  0.51100000000E-03 0.  1.
        -12    1    3    3    0    0  0.17993157933E+01  0.23840614782E+02 -0.38034922548E+02  0.44925135322E+02  0.00000000000E+00 0.  1.
</event>
<event>
 7    1  0.2895479E-015  0.9000784E+02  0.7816164E-02  0.1186339E+00
        -11   -1    0    0    0    0  0.00000000000E+00  0.00000000000E+00  0.45593999997E+02  0.45594000000E+02  0.51100000000E-03 0. -1.
         11   -1    0    0    0    0 -0.00000000000E+00 -0.00000000000E+00 -0.45593999997E+02  0.45594000000E+02  0.51100000000E-03 0.  1.
    9900012    2    1    2    0    0 -0.50439563238E+00  0.57004343838E+00  0.90189666652E+00  0.90007838116E+02  0.90000100779E+02 0.  0.
        -12    1    1    2    0    0  0.50439563238E+00 -0.57004343838E+00 -0.90189666652E+00  0.11801618841E+01  0.00000000000E+00 0.  1.
         11    1    3    3    0    0  0.14989249052E+02 -0.27835496153E+02  0.18864983171E+02  0.36815486192E+02  0.51100000000E-03 0. -1.
        -11    1    3    3    0    0 -0.38748090707E+01 -0.82940667039E+01  0.26440407260E+01  0.95287270632E+01  0.51100000000E-03 0.  1.
        -12    1    3    3    0    0 -0.11618835614E+02  0.36699606295E+02 -0.20607127231E+02  0.43663624861E+02  0.00000000000E+00 0.  1.
</event>
<event>
 7    1  0.2895479E-015  0.9000775E+02  0.7816164E-02  0.1186339E+00
        -11   -1    0    0    0    0  0.00000000000E+00  0.00000000000E+00  0.45593999997E+02  0.45594000000E+02  0.51100000000E-03 0. -1.
         11   -1    0    0    0    0 -0.00000000000E+00 -0.00000000000E+00 -0.45593999997E+02  0.45594000000E+02  0.51100000000E-03 0.  1.
    9900012    2    1    2    0    0  0.10801821686E+01  0.47554069033E+00 -0.69223448328E-02  0.90007754100E+02  0.90000015654E+02 0.  0.
        -12    1    1    2    0    0 -0.10801821686E+01 -0.47554069033E+00  0.69223448328E-02  0.11802459000E+01  0.00000000000E+00 0.  1.
         11    1    3    3    0    0 -0.15208583738E+02  0.34538861431E+02  0.21270853149E+02  0.43320701313E+02  0.51100000000E-03 0. -1.
        -11    1    3    3    0    0  0.14007837420E+01 -0.11703218832E+02  0.94329044129E+00  0.11824437544E+02  0.51100000000E-03 0.  1.
        -12    1    3    3    0    0  0.14887982164E+02 -0.22360101908E+02 -0.22221065935E+02  0.34862615243E+02  0.00000000000E+00 0.  1.
</event>
<event>
 7    1  0.2895479E-015  0.9000760E+02  0.7816164E-02  0.1186339E+00
        -11   -1    0    0    0    0  0.00000000000E+00  0.00000000000E+00  0.45593999997E+02  0.45594000000E+02  0.51100000000E-03 0.  1.
         11   -1    0    0    0    0 -0.00000000000E+00 -0.00000000000E+00 -0.45593999997E+02  0.45594000000E+02  0.51100000000E-03 0. -1.
    9900012    2    1    2    0    0 -0.80678388860E+00  0.70803670469E+00  0.49105830823E+00  0.90007595629E+02  0.89999855091E+02 0.  0.
        -12    1    1    2    0    0  0.80678388860E+00 -0.70803670469E+00 -0.49105830823E+00  0.11804043715E+01  0.00000000000E+00 0.  1.
         11    1    3    3    0    0  0.95091159017E+01 -0.72375461394E+01  0.10437452879E+02  0.15866498738E+02  0.51100000000E-03 0. -1.
        -11    1    3    3    0    0  0.29272694518E+02 -0.80242310053E+01 -0.80910764169E+01  0.31412488685E+02  0.51100000000E-03 0.  1.
         12    1    3    3    0    0 -0.39588594308E+02  0.15969813849E+02 -0.18553181536E+01  0.42728608205E+02  0.00000000000E+00 0. -1.
</event>
<event>
 7    1  0.2895479E-015  0.9000760E+02  0.7816164E-02  0.1186339E+00
        -11   -1    0    0    0    0  0.00000000000E+00  0.00000000000E+00  0.45593999997E+02  0.45594000000E+02  0.51100000000E-03 0. -1.
         11   -1    0    0    0    0 -0.00000000000E+00 -0.00000000000E+00 -0.45593999997E+02  0.45594000000E+02  0.51100000000E-03 0.  1.
    9900012    2    1    2    0    0 -0.63215458268E+00 -0.97990102865E+00  0.18310619302E+00  0.90007596120E+02  0.89999855589E+02 0.  0.
        -12    1    1    2    0    0  0.63215458268E+00  0.97990102865E+00 -0.18310619302E+00  0.11804038801E+01  0.00000000000E+00 0.  1.
         11    1    3    3    0    0 -0.35268792334E+01  0.30269439492E+01  0.89538150948E+01  0.10088214501E+02  0.51100000000E-03 0. -1.
        -11    1    3    3    0    0 -0.17265195342E+02  0.33029056197E+02 -0.41087732534E+01  0.37495166907E+02  0.51100000000E-03 0.  1.
         12    1    3    3    0    0  0.20159919993E+02 -0.37035901175E+02 -0.46619356484E+01  0.42424214712E+02  0.00000000000E+00 0. -1.
</event>
<event>
 7    1  0.2895479E-015  0.9000776E+02  0.7816164E-02  0.1186339E+00
        -11   -1    0    0    0    0  0.00000000000E+00  0.00000000000E+00  0.45593999997E+02  0.45594000000E+02  0.51100000000E-03 0. -1.
         11   -1    0    0    0    0 -0.00000000000E+00 -0.00000000000E+00 -0.45593999997E+02  0.45594000000E+02  0.51100000000E-03 0.  1.
    9900012    2    1    2    0    0 -0.42130537250E+00  0.35609592116E+00 -0.10433881481E+01  0.90007762164E+02  0.90000023825E+02 0.  0.
        -12    1    1    2    0    0  0.42130537250E+00 -0.35609592116E+00  0.10433881481E+01  0.11802378360E+01  0.00000000000E+00 0.  1.
         11    1    3    3    0    0  0.36946335762E+00  0.10015641870E+02 -0.35056677114E+01  0.10617876040E+02  0.51100000000E-03 0. -1.
        -11    1    3    3    0    0 -0.14806720160E+01  0.94734880072E+01 -0.35554289962E+02  0.36824542083E+02  0.51100000000E-03 0.  1.
         12    1    3    3    0    0  0.68990328583E+00 -0.19133033956E+02  0.38016569525E+02  0.42565344041E+02  0.00000000000E+00 0. -1.
</event>
<event>
 7    1  0.2895479E-015  0.9000762E+02  0.7816164E-02  0.1186339E+00
        -11   -1    0    0    0    0  0.00000000000E+00  0.00000000000E+00  0.45593999997E+02  0.45594000000E+02  0.51100000000E-03 0.  1.
         11   -1    0    0    0    0 -0.00000000000E+00 -0.00000000000E+00 -0.45593999997E+02  0.45594000000E+02  0.51100000000E-03 0. -1.
    9900012    2    1    2    0    0  0.27679034794E+00 -0.83731731614E+00 -0.78458630399E+00  0.90007623427E+02  0.89999883257E+02 0.  0.
        -12    1    1    2    0    0 -0.27679034794E+00  0.83731731614E+00  0.78458630399E+00  0.11803765726E+01  0.00000000000E+00 0.  1.
         11    1    3    3    0    0  0.12867064969E+02 -0.26838765027E+01  0.25634236306E+01  0.13391627794E+02  0.51100000000E-03 0. -1.
        -11    1    3    3    0    0  0.19352912200E+02  0.54625895439E+01  0.26148755537E+02  0.32986853616E+02  0.51100000000E-03 0.  1.
         12    1    3    3    0    0 -0.31943186821E+02 -0.36160303573E+01 -0.29496765471E+02  0.43629142017E+02  0.00000000000E+00 0. -1.
</event>
<event>
 7    1  0.2895479E-015  0.9000882E+02  0.7816164E-02  0.1186337E+00
        -11   -1    0    0    0    0  0.00000000000E+00  0.00000000000E+00  0.45593999997E+02  0.45594000000E+02  0.51100000000E-03 0.  1.
         11   -1    0    0    0    0 -0.00000000000E+00 -0.00000000000E+00 -0.45593999997E+02  0.45594000000E+02  0.51100000000E-03 0. -1.
    9900012    2    1    2    0    0  0.51205986631E+00 -0.91793984449E+00 -0.53446871227E+00  0.90008815676E+02  0.90001091237E+02 0.  0.
        -12    1    1    2    0    0 -0.51205986631E+00  0.91793984449E+00  0.53446871227E+00  0.11791843237E+01  0.00000000000E+00 0.  1.
         11    1    3    3    0    0 -0.14653089937E+02 -0.43549552751E+01 -0.35682825250E+02  0.38819359838E+02  0.51100000000E-03 0. -1.
        -11    1    3    3    0    0 -0.29291907074E+01  0.72214125556E+01 -0.33503665623E+01  0.84825652878E+01  0.51100000000E-03 0.  1.
        -12    1    3    3    0    0  0.18094340511E+02 -0.37843971250E+01  0.38498723100E+02  0.42706890550E+02  0.00000000000E+00 0.  1.
</event>
<event>
 7    1  0.2895479E-015  0.9000776E+02  0.7816164E-02  0.1186339E+00
        -11   -1    0    0    0    0  0.00000000000E+00  0.00000000000E+00  0.45593999997E+02  0.45594000000E+02  0.51100000000E-03 0.  1.
         11   -1    0    0    0    0 -0.00000000000E+00 -0.00000000000E+00 -0.45593999997E+02  0.45594000000E+02  0.51100000000E-03 0. -1.
    9900012    2    1    2    0    0 -0.29507331965E+00 -0.11326623369E+01 -0.15155972633E+00  0.90007761641E+02  0.90000023295E+02 0.  0.
        -12    1    1    2    0    0  0.29507331965E+00  0.11326623369E+01  0.15155972633E+00  0.11802383589E+01  0.00000000000E+00 0.  1.
         11    1    3    3    0    0  0.11394458448E+02  0.31935926138E+02 -0.18433104222E+02  0.38594253369E+02  0.51100000000E-03 0. -1.
        -11    1    3    3    0    0 -0.73131497587E+01  0.43554936833E+01 -0.18249836446E+01  0.87053460691E+01  0.51100000000E-03 0.  1.
        -12    1    3    3    0    0 -0.43763820087E+01 -0.37424082158E+02  0.20106528141E+02  0.42708162203E+02  0.00000000000E+00 0.  1.
</event>
<event>
 7    1  0.2895479E-015  0.9000766E+02  0.7816164E-02  0.1186339E+00
        -11   -1    0    0    0    0  0.00000000000E+00  0.00000000000E+00  0.45593999997E+02  0.45594000000E+02  0.51100000000E-03 0.  1.
         11   -1    0    0    0    0 -0.00000000000E+00 -0.00000000000E+00 -0.45593999997E+02  0.45594000000E+02  0.51100000000E-03 0. -1.
    9900012    2    1    2    0    0 -0.40861745595E+00  0.10803780336E+01 -0.24294568583E+00  0.90007657877E+02  0.89999918161E+02 0.  0.
        -12    1    1    2    0    0  0.40861745595E+00 -0.10803780336E+01  0.24294568583E+00  0.11803421229E+01  0.00000000000E+00 0.  1.
         11    1    3    3    0    0  0.31465522280E+02  0.27935497094E+02 -0.13935483089E+02  0.44324584368E+02  0.51100000000E-03 0. -1.
        -11    1    3    3    0    0 -0.33107981425E+01 -0.88052525084E+01  0.53232486371E+00  0.94221667411E+01  0.51100000000E-03 0.  1.
        -12    1    3    3    0    0 -0.28563341594E+02 -0.18049866552E+02  0.13160212539E+02  0.36260906768E+02  0.00000000000E+00 0.  1.
</event>
<event>
 7    1  0.2895479E-015  0.9000733E+02  0.7816164E-02  0.1186340E+00
        -11   -1    0    0    0    0  0.00000000000E+00  0.00000000000E+00  0.45593999997E+02  0.45594000000E+02  0.51100000000E-03 0.  1.
         11   -1    0    0    0    0 -0.00000000000E+00 -0.00000000000E+00 -0.45593999997E+02  0.45594000000E+02  0.51100000000E-03 0. -1.
    9900012    2    1    2    0    0  0.19710505275E+00  0.11553377426E+01 -0.14260466389E+00  0.90007325705E+02  0.89999581603E+02 0.  0.
        -12    1    1    2    0    0 -0.19710505275E+00 -0.11553377426E+01  0.14260466389E+00  0.11806742953E+01  0.00000000000E+00 0.  1.
         11    1    3    3    0    0  0.34286971263E+01 -0.39204376983E+01 -0.79546814089E+01  0.95080361962E+01  0.51100000000E-03 0. -1.
        -11    1    3    3    0    0 -0.18991962002E+02 -0.26829498022E+02 -0.17107012531E+02  0.37056260777E+02  0.51100000000E-03 0.  1.
         12    1    3    3    0    0  0.15760369929E+02  0.31905273463E+02  0.24919089276E+02  0.43443028731E+02  0.00000000000E+00 0. -1.
</event>
<event>
 7    1  0.2895479E-015  0.9000771E+02  0.7816164E-02  0.1186339E+00
        -11   -1    0    0    0    0  0.00000000000E+00  0.00000000000E+00  0.45593999997E+02  0.45594000000E+02  0.51100000000E-03 0. -1.
         11   -1    0    0    0    0 -0.00000000000E+00 -0.00000000000E+00 -0.45593999997E+02  0.45594000000E+02  0.51100000000E-03 0.  1.
    9900012    2    1    2    0    0 -0.10975966700E+01  0.41900767145E+00 -0.11317819716E+00  0.90007705468E+02  0.89999966380E+02 0.  0.
        -12    1    1    2    0    0  0.10975966700E+01 -0.41900767145E+00  0.11317819716E+00  0.11802945323E+01  0.00000000000E+00 0.  1.
         11    1    3    3    0    0 -0.75170941575E+01 -0.71116140620E+01 -0.84003119651E+01  0.13328428284E+02  0.51100000000E-03 0. -1.
        -11    1    3    3    0    0  0.11442594580E+02 -0.21851015541E+02  0.30702791975E+02  0.39383515412E+02  0.51100000000E-03 0.  1.
         12    1    3    3    0    0 -0.50230970923E+01  0.29381637275E+02 -0.22415658207E+02  0.37295761772E+02  0.00000000000E+00 0. -1.
</event>
<event>
 7    1  0.2895479E-015  0.9000771E+02  0.7816164E-02  0.1186339E+00
        -11   -1    0    0    0    0  0.00000000000E+00  0.00000000000E+00  0.45593999997E+02  0.45594000000E+02  0.51100000000E-03 0.  1.
         11   -1    0    0    0    0 -0.00000000000E+00 -0.00000000000E+00 -0.45593999997E+02  0.45594000000E+02  0.51100000000E-03 0. -1.
    9900012    2    1    2    0    0 -0.10691100717E+01 -0.57677712831E-02 -0.50005562779E+00  0.90007709678E+02  0.89999970646E+02 0.  0.
        -12    1    1    2    0    0  0.10691100717E+01  0.57677712831E-02  0.50005562779E+00  0.11802903217E+01  0.00000000000E+00 0.  1.
         11    1    3    3    0    0  0.30382558763E+01  0.10965347737E+02  0.85757896310E+01  0.14248298769E+02  0.51100000000E-03 0. -1.
        -11    1    3    3    0    0 -0.19152409218E+02 -0.35434544069E+01  0.28550479253E+02  0.34561549645E+02  0.51100000000E-03 0.  1.
         12    1    3    3    0    0  0.15045043270E+02 -0.74276611014E+01 -0.37626324512E+02  0.41197861264E+02  0.00000000000E+00 0. -1.
</event>
<event>
 7    1  0.2895479E-015  0.9000785E+02  0.7816164E-02  0.1186339E+00
        -11   -1    0    0    0    0  0.00000000000E+00  0.00000000000E+00  0.45593999997E+02  0.45594000000E+02  0.51100000000E-03 0. -1.
         11   -1    0    0    0    0 -0.00000000000E+00 -0.00000000000E+00 -0.45593999997E+02  0.45594000000E+02  0.51100000000E-03 0.  1.
    9900012    2    1    2    0    0 -0.57880764042E+00  0.75625931143E+00  0.69699203411E+00  0.90007854108E+02  0.90000116982E+02 0.  0.
        -12    1    1    2    0    0  0.57880764042E+00 -0.75625931143E+00 -0.69699203411E+00  0.11801458920E+01  0.00000000000E+00 0.  1.
         11    1    3    3    0    0  0.31105301551E+02 -0.18984854648E+02  0.12067776033E+02  0.38387442077E+02  0.51100000000E-03 0. -1.
        -11    1    3    3    0    0  0.49167308102E+01  0.70514995261E+01  0.45640613786E+01  0.97328589816E+01  0.51100000000E-03 0.  1.
        -12    1    3    3    0    0 -0.36600840001E+02  0.12689614433E+02 -0.15934845377E+02  0.41887553050E+02  0.00000000000E+00 0.  1.
</event>
<event>
 7    1  0.2895479E-015  0.9000767E+02  0.7816164E-02  0.1186339E+00
        -11   -1    0    0    0    0  0.00000000000E+00  0.00000000000E+00  0.45593999997E+02  0.45594000000E+02  0.51100000000E-03 0.  1.
         11   -1    0    0    0    0 -0.00000000000E+00 -0.00000000000E+00 -0.45593999997E+02  0.45594000000E+02  0.51100000000E-03 0. -1.
    9900012    2    1    2    0    0  0.61376068879E+00 -0.26799595789E+00 -0.97193008521E+00  0.90007672881E+02  0.89999933363E+02 0.  0.
        -12    1    1    2    0    0 -0.61376068879E+00  0.26799595789E+00  0.97193008521E+00  0.11803271187E+01  0.00000000000E+00 0.  1.
         11    1    3    3    0    0  0.21427796940E+01  0.81845895176E+01 -0.53893854780E+00  0.84775860602E+01  0.51100000000E-03 0. -1.
        -11    1    3    3    0    0 -0.11544786509E+02 -0.21994250117E+02  0.34638025143E+02  0.42624194067E+02  0.51100000000E-03 0.  1.
         12    1    3    3    0    0  0.10015767504E+02  0.13541664642E+02 -0.35071016681E+02  0.38905892754E+02  0.00000000000E+00 0. -1.
</event>
<event>
 7    1  0.2895479E-015  0.9000768E+02  0.7816164E-02  0.1186339E+00
        -11   -1    0    0    0    0  0.00000000000E+00  0.00000000000E+00  0.45593999997E+02  0.45594000000E+02  0.51100000000E-03 0. -1.
         11   -1    0    0    0    0 -0.00000000000E+00 -0.00000000000E+00 -0.45593999997E+02  0.45594000000E+02  0.51100000000E-03 0.  1.
    9900012    2    1    2    0    0  0.58065238976E+00 -0.48322033194E+00  0.90691338400E+00  0.90007681834E+02  0.89999942434E+02 0.  0.
        -12    1    1    2    0    0 -0.58065238976E+00  0.48322033194E+00 -0.90691338400E+00  0.11803181660E+01  0.00000000000E+00 0.  1.
         11    1    3    3    0    0  0.85944979816E+01 -0.46542690179E+01  0.43475302822E+02  0.44560403627E+02  0.51100000000E-03 0. -1.
        -11    1    3    3    0    0  0.16195163458E+01  0.57802125312E+01 -0.13289383506E+02  0.14582229059E+02  0.51100000000E-03 0.  1.
        -12    1    3    3    0    0 -0.96333619377E+01 -0.16091638453E+01 -0.29279005932E+02  0.30865049148E+02  0.00000000000E+00 0.  1.
</event>
<event>
 7    1  0.2895479E-015  0.9000771E+02  0.7816164E-02  0.1186339E+00
        -11   -1    0    0    0    0  0.00000000000E+00  0.00000000000E+00  0.45593999997E+02  0.45594000000E+02  0.51100000000E-03 0.  1.
         11   -1    0    0    0    0 -0.00000000000E+00 -0.00000000000E+00 -0.45593999997E+02  0.45594000000E+02  0.51100000000E-03 0. -1.
    9900012    2    1    2    0    0 -0.25752896338E+00  0.45466522033E+00 -0.10583229054E+01  0.90007708086E+02  0.89999969033E+02 0.  0.
        -12    1    1    2    0    0  0.25752896338E+00 -0.45466522033E+00  0.10583229054E+01  0.11802919137E+01  0.00000000000E+00 0.  1.
         11    1    3    3    0    0  0.11216314321E+02 -0.31161455299E+02 -0.16246684583E+02  0.36888978890E+02  0.51100000000E-03 0. -1.
        -11    1    3    3    0    0  0.69028148511E+01 -0.58402093854E+01  0.42281245234E+01  0.99816800079E+01  0.51100000000E-03 0.  1.
        -12    1    3    3    0    0 -0.18376658136E+02  0.37456329905E+02  0.10960237155E+02  0.43137049188E+02  0.00000000000E+00 0.  1.
</event>
<event>
 7    1  0.2895479E-015  0.9000770E+02  0.7816164E-02  0.1186339E+00
        -11   -1    0    0    0    0  0.00000000000E+00  0.00000000000E+00  0.45593999997E+02  0.45594000000E+02  0.51100000000E-03 0.  1.
         11   -1    0    0    0    0 -0.00000000000E+00 -0.00000000000E+00 -0.45593999997E+02  0.45594000000E+02  0.51100000000E-03 0. -1.
    9900012    2    1    2    0    0 -0.49958997010E+00  0.63136368655E+00 -0.86307538653E+00  0.90007699460E+02  0.89999960292E+02 0.  0.
        -12    1    1    2    0    0  0.49958997010E+00 -0.63136368655E+00  0.86307538653E+00  0.11803005404E+01  0.00000000000E+00 0.  1.
         11    1    3    3    0    0 -0.31998653044E+01  0.40930169168E+01 -0.88772860487E+01  0.10285821955E+02  0.51100000000E-03 0. -1.
        -11    1    3    3    0    0  0.13625153200E+02  0.35608856610E+02 -0.10962837596E+01  0.38142329597E+02  0.51100000000E-03 0.  1.
         12    1    3    3    0    0 -0.10924877865E+02 -0.39070509840E+02  0.91104944218E+01  0.41579547907E+02  0.00000000000E+00 0. -1.
</event>
<event>
 7    1  0.2895479E-015  0.9000767E+02  0.7816164E-02  0.1186339E+00
        -11   -1    0    0    0    0  0.00000000000E+00  0.00000000000E+00  0.45593999997E+02  0.45594000000E+02  0.51100000000E-03 0.  1.
         11   -1    0    0    0    0 -0.00000000000E+00 -0.00000000000E+00 -0.45593999997E+02  0.45594000000E+02  0.51100000000E-03 0. -1.
    9900012    2    1    2    0    0  0.27543150353E-01 -0.58909624710E+00 -0.10224363484E+01  0.90007674155E+02  0.89999934654E+02 0.  0.
        -12    1    1    2    0    0 -0.27543150353E-01  0.58909624710E+00  0.10224363484E+01  0.11803258448E+01  0.00000000000E+00 0.  1.
         11    1    3    3    0    0  0.29045051452E+02 -0.10278608790E+02  0.26089308480E+02  0.40372228446E+02  0.51100000000E-03 0. -1.
        -11    1    3    3    0    0  0.50517643319E+01 -0.21739256884E+01 -0.34471652278E+01  0.64907028998E+01  0.51100000000E-03 0.  1.
        -12    1    3    3    0    0 -0.34069272633E+02  0.11863438231E+02 -0.23664579601E+02  0.43144742809E+02  0.00000000000E+00 0.  1.
</event>
<event>
 7    1  0.2895479E-015  0.9000791E+02  0.7816164E-02  0.1186339E+00
        -11   -1    0    0    0    0  0.00000000000E+00  0.00000000000E+00  0.45593999997E+02  0.45594000000E+02  0.51100000000E-03 0.  1.
         11   -1    0    0    0    0 -0.00000000000E+00 -0.00000000000E+00 -0.45593999997E+02  0.45594000000E+02  0.51100000000E-03 0. -1.
    9900012    2    1    2    0    0 -0.86958609449E+00 -0.63963511803E+00  0.47675775365E+00  0.90007910590E+02  0.90000174210E+02 0.  0.
        -12    1    1    2    0    0  0.86958609449E+00  0.63963511803E+00 -0.47675775365E+00  0.11800894100E+01  0.00000000000E+00 0.  1.
         11    1    3    3    0    0  0.40698688087E+02  0.14493386773E+02  0.61449573372E-01  0.43202375496E+02  0.51100000000E-03 0. -1.
        -11    1    3    3    0    0 -0.81994325147E+01  0.91309008769E+00 -0.45921118719E+01  0.94420293781E+01  0.51100000000E-03 0.  1.
        -12    1    3    3    0    0 -0.33368841667E+02 -0.16046111979E+02  0.50074200522E+01  0.37363505716E+02  0.00000000000E+00 0.  1.
</event>
<event>
 7    1  0.2895479E-015  0.9000774E+02  0.7816164E-02  0.1186339E+00
        -11   -1    0    0    0    0  0.00000000000E+00  0.00000000000E+00  0.45593999997E+02  0.45594000000E+02  0.51100000000E-03 0.  1.
         11   -1    0    0    0    0 -0.00000000000E+00 -0.00000000000E+00 -0.45593999997E+02  0.45594000000E+02  0.51100000000E-03 0. -1.
    9900012    2    1    2    0    0  0.96061593585E-01  0.10462368601E+01 -0.53775042799E+00  0.90007739469E+02  0.90000000830E+02 0.  0.
        -12    1    1    2    0    0 -0.96061593585E-01 -0.10462368601E+01  0.53775042799E+00  0.11802605306E+01  0.00000000000E+00 0.  1.
         11    1    3    3    0    0 -0.30944045818E+02 -0.56082623474E+01  0.23042243612E+02  0.38986299762E+02  0.51100000000E-03 0. -1.
        -11    1    3    3    0    0  0.66934897872E+01 -0.82093004059E+01  0.40200745320E+01  0.11329449157E+02  0.51100000000E-03 0.  1.
        -12    1    3    3    0    0  0.24346617625E+02  0.14863799613E+02 -0.27600068572E+02  0.39691990551E+02  0.00000000000E+00 0.  1.
</event>
<event>
 7    1  0.2895479E-015  0.9000775E+02  0.7816164E-02  0.1186339E+00
        -11   -1    0    0    0    0  0.00000000000E+00  0.00000000000E+00  0.45593999997E+02  0.45594000000E+02  0.51100000000E-03 0. -1.
         11   -1    0    0    0    0 -0.00000000000E+00 -0.00000000000E+00 -0.45593999997E+02  0.45594000000E+02  0.51100000000E-03 0.  1.
    9900012    2    1    2    0    0 -0.93787485918E+00 -0.55501463532E+00  0.45313609648E+00  0.90007753069E+02  0.90000014609E+02 0.  0.
        -12    1    1    2    0    0  0.93787485918E+00  0.55501463532E+00 -0.45313609648E+00  0.11802469313E+01  0.00000000000E+00 0.  1.
         11    1    3    3    0    0 -0.40308317614E+01 -0.82050773179E+01 -0.83356878816E+00  0.91796370117E+01  0.51100000000E-03 0. -1.
        -11    1    3    3    0    0 -0.21432242449E+02  0.30778641280E+02 -0.18414807070E+02  0.41782423280E+02  0.51100000000E-03 0.  1.
         12    1    3    3    0    0  0.24525199351E+02 -0.23128578598E+02  0.19701511955E+02  0.39045692777E+02  0.00000000000E+00 0. -1.
</event>
<event>
 7    1  0.2895479E-015  0.9000762E+02  0.7816164E-02  0.1186339E+00
        -11   -1    0    0    0    0  0.00000000000E+00  0.00000000000E+00  0.45593999997E+02  0.45594000000E+02  0.51100000000E-03 0.  1.
         11   -1    0    0    0    0 -0.00000000000E+00 -0.00000000000E+00 -0.45593999997E+02  0.45594000000E+02  0.51100000000E-03 0. -1.
    9900012    2    1    2    0    0  0.42674364935E+00  0.90828428663E+00 -0.62145491081E+00  0.90007620106E+02  0.89999879891E+02 0.  0.
        -12    1    1    2    0    0 -0.42674364935E+00 -0.90828428663E+00  0.62145491081E+00  0.11803798938E+01  0.00000000000E+00 0.  1.
         11    1    3    3    0    0  0.22404054689E+02 -0.86309039324E+01 -0.19348158549E+02  0.30834808394E+02  0.51100000000E-03 0. -1.
        -11    1    3    3    0    0  0.68636176460E+01  0.20243060026E+02 -0.28966759370E+01  0.21570383820E+02  0.51100000000E-03 0.  1.
        -12    1    3    3    0    0 -0.28840928686E+02 -0.10703871807E+02  0.21623379575E+02  0.37602427892E+02  0.00000000000E+00 0.  1.
</event>
<event>
 7    1  0.2895479E-015  0.9000780E+02  0.7816164E-02  0.1186339E+00
        -11   -1    0    0    0    0  0.00000000000E+00  0.00000000000E+00  0.45593999997E+02  0.45594000000E+02  0.51100000000E-03 0. -1.
         11   -1    0    0    0    0 -0.00000000000E+00 -0.00000000000E+00 -0.45593999997E+02  0.45594000000E+02  0.51100000000E-03 0.  1.
    9900012    2    1    2    0    0  0.65174355266E+00 -0.73741007923E+00  0.65140157591E+00  0.90007802010E+02  0.90000064196E+02 0.  0.
        -12    1    1    2    0    0 -0.65174355266E+00  0.73741007923E+00 -0.65140157591E+00  0.11801979904E+01  0.00000000000E+00 0.  1.
         11    1    3    3    0    0 -0.58433614093E+00  0.41751509841E+02  0.26365759832E+01  0.41838756625E+02  0.51100000000E-03 0. -1.
        -11    1    3    3    0    0  0.12545858843E+01 -0.60619391248E+01 -0.91468535926E+01  0.11044728272E+02  0.51100000000E-03 0.  1.
        -12    1    3    3    0    0 -0.18506190704E-01 -0.36426980795E+02  0.71616791853E+01  0.37124317113E+02  0.00000000000E+00 0.  1.
</event>
<event>
 7    1  0.2895479E-015  0.9000773E+02  0.7816164E-02  0.1186339E+00
        -11   -1    0    0    0    0  0.00000000000E+00  0.00000000000E+00  0.45593999997E+02  0.45594000000E+02  0.51100000000E-03 0. -1.
         11   -1    0    0    0    0 -0.00000000000E+00 -0.00000000000E+00 -0.45593999997E+02  0.45594000000E+02  0.51100000000E-03 0.  1.
    9900012    2    1    2    0    0  0.19290562814E+00 -0.11407677075E+01 -0.23339154417E+00  0.90007730896E+02  0.89999992144E+02 0.  0.
        -12    1    1    2    0    0 -0.19290562814E+00  0.11407677075E+01  0.23339154417E+00  0.11802691035E+01  0.00000000000E+00 0.  1.
         11    1    3    3    0    0 -0.18837894443E+02  0.30329236967E+02 -0.15297600776E+02  0.38842572929E+02  0.51100000000E-03 0. -1.
        -11    1    3    3    0    0  0.41881211632E+01  0.66184731659E+01  0.41072005628E+01  0.88438477288E+01  0.51100000000E-03 0.  1.
        -12    1    3    3    0    0  0.14842678908E+02 -0.38088477840E+02  0.10957008669E+02  0.42321310238E+02  0.00000000000E+00 0.  1.
</event>
<event>
 7    1  0.2895479E-015  0.9000776E+02  0.7816164E-02  0.1186339E+00
        -11   -1    0    0    0    0  0.00000000000E+00  0.00000000000E+00  0.45593999997E+02  0.45594000000E+02  0.51100000000E-03 0.  1.
         11   -1    0    0    0    0 -0.00000000000E+00 -0.00000000000E+00 -0.45593999997E+02  0.45594000000E+02  0.51100000000E-03 0. -1.
    9900012    2    1    2    0    0 -0.32754052902E+00  0.67603337723E+00 -0.91031483615E+00  0.90007755523E+02  0.90000017096E+02 0.  0.
        -12    1    1    2    0    0  0.32754052902E+00 -0.67603337723E+00  0.91031483615E+00  0.11802444773E+01  0.00000000000E+00 0.  1.
         11    1    3    3    0    0  0.26837270216E+02  0.12553099273E+02 -0.13771161750E+02  0.32672071716E+02  0.51100000000E-03 0. -1.
        -11    1    3    3    0    0  0.99103244308E+01 -0.11451120396E+02  0.13448398493E+02  0.20253446890E+02  0.51100000000E-03 0.  1.
        -12    1    3    3    0    0 -0.37075135176E+02 -0.42594549928E+00 -0.58755157850E+00  0.37082236917E+02  0.00000000000E+00 0.  1.
</event>
<event>
 7    1  0.2895479E-015  0.9000779E+02  0.7816164E-02  0.1186339E+00
        -11   -1    0    0    0    0  0.00000000000E+00  0.00000000000E+00  0.45593999997E+02  0.45594000000E+02  0.51100000000E-03 0.  1.
         11   -1    0    0    0    0 -0.00000000000E+00 -0.00000000000E+00 -0.45593999997E+02  0.45594000000E+02  0.51100000000E-03 0. -1.
    9900012    2    1    2    0    0  0.79275089237E+00  0.84536800157E+00 -0.22314430008E+00  0.90007790521E+02  0.90000052556E+02 0.  0.
        -12    1    1    2    0    0 -0.79275089237E+00 -0.84536800157E+00  0.22314430008E+00  0.11802094789E+01  0.00000000000E+00 0.  1.
         11    1    3    3    0    0 -0.36313328147E+02 -0.84007581652E+01 -0.12688296124E+02  0.39372876421E+02  0.51100000000E-03 0. -1.
        -11    1    3    3    0    0 -0.22280788091E+01 -0.39444420442E+01  0.76214045011E+01  0.88661584155E+01  0.51100000000E-03 0.  1.
        -12    1    3    3    0    0  0.39334157848E+02  0.13190568211E+02  0.48437473230E+01  0.41768755685E+02  0.00000000000E+00 0.  1.
</event>
<event>
 7    1  0.2895479E-015  0.9000736E+02  0.7816164E-02  0.1186340E+00
        -11   -1    0    0    0    0  0.00000000000E+00  0.00000000000E+00  0.45593999997E+02  0.45594000000E+02  0.51100000000E-03 0.  1.
         11   -1    0    0    0    0 -0.00000000000E+00 -0.00000000000E+00 -0.45593999997E+02  0.45594000000E+02  0.51100000000E-03 0. -1.
    9900012    2    1    2    0    0  0.96377604402E-01 -0.31101867560E+00 -0.11348514623E+01  0.90007360724E+02  0.89999617084E+02 0.  0.
        -12    1    1    2    0    0 -0.96377604402E-01  0.31101867560E+00  0.11348514623E+01  0.11806392763E+01  0.00000000000E+00 0.  1.
         11    1    3    3    0    0 -0.12269505298E+02 -0.10528483009E+02 -0.13256616743E+02  0.20907596764E+02  0.51100000000E-03 0. -1.
        -11    1    3    3    0    0  0.91839537679E+00 -0.26454462840E+02  0.15261088275E+02  0.30554588359E+02  0.51100000000E-03 0.  1.
         12    1    3    3    0    0  0.11447487525E+02  0.36671927173E+02 -0.31393229938E+01  0.38545175601E+02  0.00000000000E+00 0. -1.
</event>
<event>
 7    1  0.2895479E-015  0.9000790E+02  0.7816164E-02  0.1186339E+00
        -11   -1    0    0    0    0  0.00000000000E+00  0.00000000000E+00  0.45593999997E+02  0.45594000000E+02  0.51100000000E-03 0.  1.
         11   -1    0    0    0    0 -0.00000000000E+00 -0.00000000000E+00 -0.45593999997E+02  0.45594000000E+02  0.51100000000E-03 0. -1.
    9900012    2    1    2    0    0 -0.66523656364E+00 -0.97107994717E+00 -0.84309181654E-01  0.90007896620E+02  0.90000160055E+02 0.  0.
        -12    1    1    2    0    0  0.66523656364E+00  0.97107994717E+00  0.84309181654E-01  0.11801033800E+01  0.00000000000E+00 0.  1.
         11    1    3    3    0    0 -0.17108826354E+02  0.10422197841E+02 -0.32673333116E+02  0.38325981321E+02  0.51100000000E-03 0. -1.
        -11    1    3    3    0    0 -0.86822757851E+01  0.16462236569E+01  0.44242754800E+00  0.88480341056E+01  0.51100000000E-03 0.  1.
        -12    1    3    3    0    0  0.25125865576E+02 -0.13039501445E+02  0.32146596386E+02  0.42833881193E+02  0.00000000000E+00 0.  1.
</event>
<event>
 7    1  0.2895479E-015  0.9000779E+02  0.7816164E-02  0.1186339E+00
        -11   -1    0    0    0    0  0.00000000000E+00  0.00000000000E+00  0.45593999997E+02  0.45594000000E+02  0.51100000000E-03 0. -1.
         11   -1    0    0    0    0 -0.00000000000E+00 -0.00000000000E+00 -0.45593999997E+02  0.45594000000E+02  0.51100000000E-03 0.  1.
    9900012    2    1    2    0    0 -0.69327037717E+00  0.81431743278E+00  0.49915669084E+00  0.90007790655E+02  0.90000052691E+02 0.  0.
        -12    1    1    2    0    0  0.69327037717E+00 -0.81431743278E+00 -0.49915669084E+00  0.11802093455E+01  0.00000000000E+00 0.  1.
         11    1    3    3    0    0 -0.29043737746E+01 -0.12875967066E+02  0.81374291479E+01  0.15506246106E+02  0.51100000000E-03 0. -1.
        -11    1    3    3    0    0  0.23861806794E+01 -0.30160821511E+02 -0.28218396005E+01  0.30386375096E+02  0.51100000000E-03 0.  1.
         12    1    3    3    0    0 -0.17507728197E+00  0.43851106010E+02 -0.48164328566E+01  0.44115169453E+02  0.00000000000E+00 0. -1.
</event>
<event>
 7    1  0.2895479E-015  0.9000768E+02  0.7816164E-02  0.1186339E+00
        -11   -1    0    0    0    0  0.00000000000E+00  0.00000000000E+00  0.45593999997E+02  0.45594000000E+02  0.51100000000E-03 0. -1.
         11   -1    0    0    0    0 -0.00000000000E+00 -0.00000000000E+00 -0.45593999997E+02  0.45594000000E+02  0.51100000000E-03 0.  1.
    9900012    2    1    2    0    0  0.65274763216E+00 -0.81089578112E+00  0.55635748884E+00  0.90007675852E+02  0.89999936373E+02 0.  0.
        -12    1    1    2    0    0 -0.65274763216E+00  0.81089578112E+00 -0.55635748884E+00  0.11803241481E+01  0.00000000000E+00 0.  1.
         11    1    3    3    0    0 -0.89634602022E+01  0.11628784856E+01  0.10587106961E+01  0.91003721775E+01  0.51100000000E-03 0. -1.
        -11    1    3    3    0    0 -0.30825508064E+02  0.30061812289E+01 -0.18810018722E+02  0.36236250876E+02  0.51100000000E-03 0.  1.
         12    1    3    3    0    0  0.40441715898E+02 -0.49799554956E+01  0.18307665515E+02  0.44671052798E+02  0.00000000000E+00 0. -1.
</event>
<event>
 7    1  0.2895479E-015  0.9000773E+02  0.7816164E-02  0.1186339E+00
        -11   -1    0    0    0    0  0.00000000000E+00  0.00000000000E+00  0.45593999997E+02  0.45594000000E+02  0.51100000000E-03 0.  1.
         11   -1    0    0    0    0 -0.00000000000E+00 -0.00000000000E+00 -0.45593999997E+02  0.45594000000E+02  0.51100000000E-03 0. -1.
    9900012    2    1    2    0    0 -0.93852455388E+00  0.70241642842E+00 -0.13714474402E+00  0.90007734836E+02  0.89999996136E+02 0.  0.
        -12    1    1    2    0    0  0.93852455388E+00 -0.70241642842E+00  0.13714474402E+00  0.11802651643E+01  0.00000000000E+00 0.  1.
         11    1    3    3    0    0  0.92794488239E+01 -0.39173934976E+02 -0.18815140541E+01  0.40301928581E+02  0.51100000000E-03 0. -1.
        -11    1    3    3    0    0  0.62344411826E+01  0.29159257062E+01  0.58610563378E+01  0.90400697585E+01  0.51100000000E-03 0.  1.
        -12    1    3    3    0    0 -0.16452414560E+02  0.36960425698E+02 -0.41166870277E+01  0.40665736496E+02  0.00000000000E+00 0.  1.
</event>
<event>
 7    1  0.2895479E-015  0.9000778E+02  0.7816164E-02  0.1186339E+00
        -11   -1    0    0    0    0  0.00000000000E+00  0.00000000000E+00  0.45593999997E+02  0.45594000000E+02  0.51100000000E-03 0. -1.
         11   -1    0    0    0    0 -0.00000000000E+00 -0.00000000000E+00 -0.45593999997E+02  0.45594000000E+02  0.51100000000E-03 0.  1.
    9900012    2    1    2    0    0  0.96827792283E+00  0.43373298918E+00  0.51694483323E+00  0.90007780358E+02  0.90000042259E+02 0.  0.
        -12    1    1    2    0    0 -0.96827792283E+00 -0.43373298918E+00 -0.51694483323E+00  0.11802196416E+01  0.00000000000E+00 0.  1.
         11    1    3    3    0    0 -0.85880527316E+01 -0.77271450516E+01 -0.33468618513E+01  0.12027672463E+02  0.51100000000E-03 0. -1.
        -11    1    3    3    0    0 -0.13182448346E+02 -0.15567998869E+02 -0.26359295808E+02  0.33330946715E+02  0.51100000000E-03 0.  1.
         12    1    3    3    0    0  0.22738779000E+02  0.23728876909E+02  0.30223102493E+02  0.44649161180E+02  0.00000000000E+00 0. -1.
</event>
<event>
 7    1  0.2895479E-015  0.9000772E+02  0.7816164E-02  0.1186339E+00
        -11   -1    0    0    0    0  0.00000000000E+00  0.00000000000E+00  0.45593999997E+02  0.45594000000E+02  0.51100000000E-03 0.  1.
         11   -1    0    0    0    0 -0.00000000000E+00 -0.00000000000E+00 -0.45593999997E+02  0.45594000000E+02  0.51100000000E-03 0. -1.
    9900012    2    1    2    0    0 -0.64952829789E+00 -0.23558014991E+00 -0.95691052921E+00  0.90007719195E+02  0.89999980289E+02 0.  0.
        -12    1    1    2    0    0  0.64952829789E+00  0.23558014991E+00  0.95691052921E+00  0.11802808046E+01  0.00000000000E+00 0.  1.
         11    1    3    3    0    0 -0.27437880132E+02 -0.18867143819E+02 -0.20285644344E+02  0.38991200915E+02  0.51100000000E-03 0. -1.
        -11    1    3    3    0    0 -0.69474733029E+01  0.34849905492E+01 -0.23882391052E+01  0.81311887635E+01  0.51100000000E-03 0.  1.
        -12    1    3    3    0    0  0.33735825137E+02  0.15146573120E+02  0.21716972920E+02  0.42885329517E+02  0.00000000000E+00 0.  1.
</event>
<event>
 7    1  0.2895479E-015  0.9000771E+02  0.7816164E-02  0.1186339E+00
        -11   -1    0    0    0    0  0.00000000000E+00  0.00000000000E+00  0.45593999997E+02  0.45594000000E+02  0.51100000000E-03 0.  1.
         11   -1    0    0    0    0 -0.00000000000E+00 -0.00000000000E+00 -0.45593999997E+02  0.45594000000E+02  0.51100000000E-03 0. -1.
    9900012    2    1    2    0    0  0.64854329204E+00 -0.35732723029E+00 -0.91913102492E+00  0.90007706396E+02  0.89999967320E+02 0.  0.
        -12    1    1    2    0    0 -0.64854329204E+00  0.35732723029E+00  0.91913102492E+00  0.11802936042E+01  0.00000000000E+00 0.  1.
         11    1    3    3    0    0  0.26832183772E+01 -0.83263171496E+01  0.51179018161E+01  0.10135094346E+02  0.51100000000E-03 0. -1.
        -11    1    3    3    0    0  0.62704334579E+01 -0.17502296332E+02  0.29802659723E+02  0.35126161752E+02  0.51100000000E-03 0.  1.
         12    1    3    3    0    0 -0.83051085431E+01  0.25471286251E+02 -0.35839692564E+02  0.44746450298E+02  0.00000000000E+00 0. -1.
</event>
<event>
 7    1  0.2895479E-015  0.9000797E+02  0.7816164E-02  0.1186339E+00
        -11   -1    0    0    0    0  0.00000000000E+00  0.00000000000E+00  0.45593999997E+02  0.45594000000E+02  0.51100000000E-03 0.  1.
         11   -1    0    0    0    0 -0.00000000000E+00 -0.00000000000E+00 -0.45593999997E+02  0.45594000000E+02  0.51100000000E-03 0. -1.
    9900012    2    1    2    0    0  0.92342952311E+00 -0.71354936137E+00 -0.17490416425E+00  0.90007971932E+02  0.90000236361E+02 0.  0.
        -12    1    1    2    0    0 -0.92342952311E+00  0.71354936137E+00  0.17490416425E+00  0.11800280683E+01  0.00000000000E+00 0.  1.
         11    1    3    3    0    0  0.25380052029E+02  0.26423300181E+02 -0.74420736171E+01  0.37386124344E+02  0.51100000000E-03 0. -1.
        -11    1    3    3    0    0  0.50312182819E+01  0.47195601739E+01  0.60816495812E+01  0.91964051414E+01  0.51100000000E-03 0.  1.
        -12    1    3    3    0    0 -0.29487840788E+02 -0.31856409716E+02  0.11855198716E+01  0.43425442447E+02  0.00000000000E+00 0.  1.
</event>
<event>
 7    1  0.2895479E-015  0.9000772E+02  0.7816164E-02  0.1186339E+00
        -11   -1    0    0    0    0  0.00000000000E+00  0.00000000000E+00  0.45593999997E+02  0.45594000000E+02  0.51100000000E-03 0.  1.
         11   -1    0    0    0    0 -0.00000000000E+00 -0.00000000000E+00 -0.45593999997E+02  0.45594000000E+02  0.51100000000E-03 0. -1.
    9900012    2    1    2    0    0  0.92371683636E+00  0.30128031091E+00 -0.67010627759E+00  0.90007718236E+02  0.89999979317E+02 0.  0.
        -12    1    1    2    0    0 -0.92371683636E+00 -0.30128031091E+00  0.67010627759E+00  0.11802817641E+01  0.00000000000E+00 0.  1.
         11    1    3    3    0    0 -0.22261813085E+01 -0.63422036505E+01  0.86007174198E+01  0.10915666299E+02  0.51100000000E-03 0. -1.
        -11    1    3    3    0    0  0.28284760483E+02 -0.14195284330E+02  0.18126091294E+02  0.36470384680E+02  0.51100000000E-03 0.  1.
         12    1    3    3    0    0 -0.25134862338E+02  0.20838768292E+02 -0.27396914992E+02  0.42621667257E+02  0.00000000000E+00 0. -1.
</event>
<event>
 7    1  0.2895479E-015  0.9000775E+02  0.7816164E-02  0.1186339E+00
        -11   -1    0    0    0    0  0.00000000000E+00  0.00000000000E+00  0.45593999997E+02  0.45594000000E+02  0.51100000000E-03 0.  1.
         11   -1    0    0    0    0 -0.00000000000E+00 -0.00000000000E+00 -0.45593999997E+02  0.45594000000E+02  0.51100000000E-03 0. -1.
    9900012    2    1    2    0    0 -0.73939325935E+00 -0.91621905851E+00 -0.82696170354E-01  0.90007746463E+02  0.90000007916E+02 0.  0.
        -12    1    1    2    0    0  0.73939325935E+00  0.91621905851E+00  0.82696170354E-01  0.11802535371E+01  0.00000000000E+00 0.  1.
         11    1    3    3    0    0  0.51044214796E+01 -0.31106887424E+02 -0.30238996089E+02  0.43681694663E+02  0.51100000000E-03 0. -1.
        -11    1    3    3    0    0  0.58896497746E+01  0.98129439362E+01  0.75729431193E+01  0.13723385548E+02  0.51100000000E-03 0.  1.
        -12    1    3    3    0    0 -0.11733464514E+02  0.20377724430E+02  0.22583356799E+02  0.32602666252E+02  0.00000000000E+00 0.  1.
</event>
<event>
 7    1  0.2895479E-015  0.9000776E+02  0.7816164E-02  0.1186339E+00
        -11   -1    0    0    0    0  0.00000000000E+00  0.00000000000E+00  0.45593999997E+02  0.45594000000E+02  0.51100000000E-03 0. -1.
         11   -1    0    0    0    0 -0.00000000000E+00 -0.00000000000E+00 -0.45593999997E+02  0.45594000000E+02  0.51100000000E-03 0.  1.
    9900012    2    1    2    0    0 -0.22838597710E+00 -0.11577942615E+01 -0.18123350997E-01  0.90007755889E+02  0.90000017466E+02 0.  0.
        -12    1    1    2    0    0  0.22838597710E+00  0.11577942615E+01  0.18123350997E-01  0.11802441114E+01  0.00000000000E+00 0.  1.
         11    1    3    3    0    0 -0.62068926889E+01  0.68765906900E+01 -0.42571357856E+01  0.10194911561E+02  0.51100000000E-03 0. -1.
        -11    1    3    3    0    0  0.29015309088E+01 -0.41478223134E+02 -0.10883141743E+02  0.42980282112E+02  0.51100000000E-03 0.  1.
         12    1    3    3    0    0  0.30769758030E+01  0.33443838182E+02  0.15122154178E+02  0.36832562216E+02  0.00000000000E+00 0. -1.
</event>
<event>
 7    1  0.2895479E-015  0.9000777E+02  0.7816164E-02  0.1186339E+00
        -11   -1    0    0    0    0  0.00000000000E+00  0.00000000000E+00  0.45593999997E+02  0.45594000000E+02  0.51100000000E-03 0.  1.
         11   -1    0    0    0    0 -0.00000000000E+00 -0.00000000000E+00 -0.45593999997E+02  0.45594000000E+02  0.51100000000E-03 0. -1.
    9900012    2    1    2    0    0 -0.85158142010E+00 -0.65404435001E+00 -0.48987356236E+00  0.90007770771E+02  0.90000032545E+02 0.  0.
        -12    1    1    2    0    0  0.85158142010E+00  0.65404435001E+00  0.48987356236E+00  0.11802292294E+01  0.00000000000E+00 0.  1.
         11    1    3    3    0    0  0.28020928267E+01  0.11176662431E+02  0.40691290162E+00  0.11529747858E+02  0.51100000000E-03 0. -1.
        -11    1    3    3    0    0 -0.98835392865E+01  0.23120013521E+01  0.36568222628E+02  0.37950818246E+02  0.51100000000E-03 0.  1.
         12    1    3    3    0    0  0.62298650397E+01 -0.14142708133E+02 -0.37465009092E+02  0.40527204666E+02  0.00000000000E+00 0. -1.
</event>
<event>
 7    1  0.2895479E-015  0.9000781E+02  0.7816164E-02  0.1186339E+00
        -11   -1    0    0    0    0  0.00000000000E+00  0.00000000000E+00  0.45593999997E+02  0.45594000000E+02  0.51100000000E-03 0.  1.
         11   -1    0    0    0    0 -0.00000000000E+00 -0.00000000000E+00 -0.45593999997E+02  0.45594000000E+02  0.51100000000E-03 0. -1.
    9900012    2    1    2    0    0  0.11371096810E+01 -0.15873735679E+00 -0.27320872999E+00  0.90007805531E+02  0.90000067764E+02 0.  0.
        -12    1    1    2    0    0 -0.11371096810E+01  0.15873735679E+00  0.27320872999E+00  0.11801944692E+01  0.00000000000E+00 0.  1.
         11    1    3    3    0    0  0.32707741505E+02  0.25214124974E+02 -0.11095763851E+02  0.42762886108E+02  0.51100000000E-03 0. -1.
        -11    1    3    3    0    0 -0.19354673130E+01 -0.83358139553E+01 -0.46314983411E+01  0.97304987109E+01  0.51100000000E-03 0.  1.
        -12    1    3    3    0    0 -0.29635164511E+02 -0.17037048375E+02  0.15454053462E+02  0.37514420712E+02  0.00000000000E+00 0.  1.
</event>
<event>
 7    1  0.2895479E-015  0.9000750E+02  0.7816164E-02  0.1186340E+00
        -11   -1    0    0    0    0  0.00000000000E+00  0.00000000000E+00  0.45593999997E+02  0.45594000000E+02  0.51100000000E-03 0.  1.
         11   -1    0    0    0    0 -0.00000000000E+00 -0.00000000000E+00 -0.45593999997E+02  0.45594000000E+02  0.51100000000E-03 0. -1.
    9900012    2    1    2    0    0  0.12822899874E+00 -0.11361665402E+01  0.29369539379E+00  0.90007502619E+02  0.89999760853E+02 0.  0.
        -12    1    1    2    0    0 -0.12822899874E+00  0.11361665402E+01 -0.29369539379E+00  0.11804973814E+01  0.00000000000E+00 0.  1.
         11    1    3    3    0    0  0.24331325924E+01  0.61071453421E+01  0.70590119774E+01  0.96460877458E+01  0.51100000000E-03 0. -1.
        -11    1    3    3    0    0  0.12527003658E+02  0.11450735887E+02  0.31201087020E+02  0.35518347434E+02  0.51100000000E-03 0.  1.
         12    1    3    3    0    0 -0.14831907252E+02 -0.18694047770E+02 -0.37966403603E+02  0.44843067438E+02  0.00000000000E+00 0. -1.
</event>
<event>
 7    1  0.2895479E-015  0.9000859E+02  0.7816164E-02  0.1186337E+00
        -11   -1    0    0    0    0  0.00000000000E+00  0.00000000000E+00  0.45593999997E+02  0.45594000000E+02  0.51100000000E-03 0.  1.
         11   -1    0    0    0    0 -0.00000000000E+00 -0.00000000000E+00 -0.45593999997E+02  0.45594000000E+02  0.51100000000E-03 0. -1.
    9900012    2    1    2    0    0  0.93865151592E+00 -0.49316650979E+00 -0.51646633335E+00  0.90008586015E+02  0.90000858546E+02 0.  0.
        -12    1    1    2    0    0 -0.93865151592E+00  0.49316650979E+00  0.51646633335E+00  0.11794139851E+01  0.00000000000E+00 0.  1.
         11    1    3    3    0    0 -0.26341541210E+02 -0.24850345275E+02 -0.65999055918E+01  0.36809987879E+02  0.51100000000E-03 0. -1.
        -11    1    3    3    0    0  0.92684977434E+00 -0.93797344744E+01 -0.19924991709E+01  0.96337180009E+01  0.51100000000E-03 0.  1.
        -12    1    3    3    0    0  0.26353342951E+02  0.33736913240E+02  0.80759384294E+01  0.43564880135E+02  0.00000000000E+00 0.  1.
</event>
<event>
 7    1  0.2895479E-015  0.9000784E+02  0.7816164E-02  0.1186339E+00
        -11   -1    0    0    0    0  0.00000000000E+00  0.00000000000E+00  0.45593999997E+02  0.45594000000E+02  0.51100000000E-03 0. -1.
         11   -1    0    0    0    0 -0.00000000000E+00 -0.00000000000E+00 -0.45593999997E+02  0.45594000000E+02  0.51100000000E-03 0.  1.
    9900012    2    1    2    0    0  0.24938300654E+00 -0.10576860454E+01  0.46031831173E+00  0.90007837044E+02  0.90000099693E+02 0.  0.
        -12    1    1    2    0    0 -0.24938300654E+00  0.10576860454E+01 -0.46031831173E+00  0.11801629560E+01  0.00000000000E+00 0.  1.
         11    1    3    3    0    0 -0.52723911519E+01 -0.12082602787E+00 -0.85775186803E+01  0.10069088060E+02  0.51100000000E-03 0. -1.
        -11    1    3    3    0    0 -0.25000888909E+02 -0.23406608197E+02 -0.12365081487E+02  0.36411660138E+02  0.51100000000E-03 0.  1.
         12    1    3    3    0    0  0.30522663068E+02  0.22469748179E+02  0.21402918479E+02  0.43527088846E+02  0.00000000000E+00 0. -1.
</event>
<event>
 7    1  0.2895479E-015  0.9000744E+02  0.7816164E-02  0.1186340E+00
        -11   -1    0    0    0    0  0.00000000000E+00  0.00000000000E+00  0.45593999997E+02  0.45594000000E+02  0.51100000000E-03 0. -1.
         11   -1    0    0    0    0 -0.00000000000E+00 -0.00000000000E+00 -0.45593999997E+02  0.45594000000E+02  0.51100000000E-03 0.  1.
    9900012    2    1    2    0    0 -0.50865742033E+00 -0.95753601495E+00  0.46703461568E+00  0.90007437031E+02  0.89999694399E+02 0.  0.
        -12    1    1    2    0    0  0.50865742033E+00  0.95753601495E+00 -0.46703461568E+00  0.11805629689E+01  0.00000000000E+00 0.  1.
         11    1    3    3    0    0 -0.20769554022E+02 -0.29881477837E+02  0.35929477705E+01  0.36567558928E+02  0.51100000000E-03 0. -1.
        -11    1    3    3    0    0 -0.47669159637E+01 -0.67152591270E+01  0.42550423068E+01  0.92694971946E+01  0.51100000000E-03 0.  1.
        -12    1    3    3    0    0  0.25027812566E+02  0.35639200949E+02 -0.73809554616E+01  0.44170380909E+02  0.00000000000E+00 0.  1.
</event>
<event>
 7    1  0.2895479E-015  0.9000763E+02  0.7816164E-02  0.1186339E+00
        -11   -1    0    0    0    0  0.00000000000E+00  0.00000000000E+00  0.45593999997E+02  0.45594000000E+02  0.51100000000E-03 0.  1.
         11   -1    0    0    0    0 -0.00000000000E+00 -0.00000000000E+00 -0.45593999997E+02  0.45594000000E+02  0.51100000000E-03 0. -1.
    9900012    2    1    2    0    0  0.67327497372E+00  0.14423442621E+00 -0.95873832664E+00  0.90007626356E+02  0.89999886224E+02 0.  0.
        -12    1    1    2    0    0 -0.67327497372E+00 -0.14423442621E+00  0.95873832664E+00  0.11803736438E+01  0.00000000000E+00 0.  1.
         11    1    3    3    0    0 -0.22328040116E+02  0.20537417586E+02 -0.24239256162E+02  0.38831281669E+02  0.51100000000E-03 0. -1.
        -11    1    3    3    0    0  0.65088988375E+01  0.41336682644E+01 -0.58491582917E+01  0.96781005564E+01  0.51100000000E-03 0.  1.
        -12    1    3    3    0    0  0.16492416253E+02 -0.24526851424E+02  0.29129676127E+02  0.41498244130E+02  0.00000000000E+00 0.  1.
</event>
<event>
 7    1  0.2895479E-015  0.9000772E+02  0.7816164E-02  0.1186339E+00
        -11   -1    0    0    0    0  0.00000000000E+00  0.00000000000E+00  0.45593999997E+02  0.45594000000E+02  0.51100000000E-03 0. -1.
         11   -1    0    0    0    0 -0.00000000000E+00 -0.00000000000E+00 -0.45593999997E+02  0.45594000000E+02  0.51100000000E-03 0.  1.
    9900012    2    1    2    0    0  0.10472524064E+01 -0.28811147943E+00  0.46186694054E+00  0.90007717450E+02  0.89999978520E+02 0.  0.
        -12    1    1    2    0    0 -0.10472524064E+01  0.28811147943E+00 -0.46186694054E+00  0.11802825501E+01  0.00000000000E+00 0.  1.
         11    1    3    3    0    0  0.25230312825E+02  0.15398942850E+02 -0.32846469305E+01  0.29740293069E+02  0.51100000000E-03 0. -1.
        -11    1    3    3    0    0 -0.33537048177E+02 -0.85606338635E+00 -0.13039944514E+02  0.35993146544E+02  0.51100000000E-03 0.  1.
         12    1    3    3    0    0  0.93539877590E+01 -0.14830990943E+02  0.16786458385E+02  0.24274277836E+02  0.00000000000E+00 0. -1.
</event>
<event>
 7    1  0.2895479E-015  0.9000783E+02  0.7816164E-02  0.1186339E+00
        -11   -1    0    0    0    0  0.00000000000E+00  0.00000000000E+00  0.45593999997E+02  0.45594000000E+02  0.51100000000E-03 0.  1.
         11   -1    0    0    0    0 -0.00000000000E+00 -0.00000000000E+00 -0.45593999997E+02  0.45594000000E+02  0.51100000000E-03 0. -1.
    9900012    2    1    2    0    0  0.89047020884E+00  0.72549287492E+00 -0.27113926048E+00  0.90007833231E+02  0.90000095829E+02 0.  0.
        -12    1    1    2    0    0 -0.89047020884E+00 -0.72549287492E+00  0.27113926048E+00  0.11801667691E+01  0.00000000000E+00 0.  1.
         11    1    3    3    0    0 -0.25735503486E+01  0.60249744627E+01 -0.65886532675E+01  0.92916000137E+01  0.51100000000E-03 0. -1.
        -11    1    3    3    0    0  0.24312412332E+02  0.14420306254E+02  0.31651519173E+02  0.42436508952E+02  0.51100000000E-03 0.  1.
         12    1    3    3    0    0 -0.20848391774E+02 -0.19719787841E+02 -0.25334005166E+02  0.38279724265E+02  0.00000000000E+00 0. -1.
</event>
<event>
 7    1  0.2895479E-015  0.9000717E+02  0.7816164E-02  0.1186340E+00
        -11   -1    0    0    0    0  0.00000000000E+00  0.00000000000E+00  0.45593999997E+02  0.45594000000E+02  0.51100000000E-03 0. -1.
         11   -1    0    0    0    0 -0.00000000000E+00 -0.00000000000E+00 -0.45593999997E+02  0.45594000000E+02  0.51100000000E-03 0.  1.
    9900012    2    1    2    0    0  0.26670309336E+00 -0.60527558056E+00 -0.97819672568E+00  0.90007170672E+02  0.89999424523E+02 0.  0.
        -12    1    1    2    0    0 -0.26670309336E+00  0.60527558056E+00  0.97819672568E+00  0.11808293283E+01  0.00000000000E+00 0.  1.
         11    1    3    3    0    0  0.62053983023E+01  0.33757424175E+01 -0.55191127859E+01  0.89645530377E+01  0.51100000000E-03 0. -1.
        -11    1    3    3    0    0 -0.34021271737E+02 -0.12121841666E+02 -0.21378501029E+02  0.41969349321E+02  0.51100000000E-03 0.  1.
         12    1    3    3    0    0  0.28082576528E+02  0.81408236674E+01  0.25919417089E+02  0.39073268313E+02  0.00000000000E+00 0. -1.
</event>
<event>
 7    1  0.2895479E-015  0.9000772E+02  0.7816164E-02  0.1186339E+00
        -11   -1    0    0    0    0  0.00000000000E+00  0.00000000000E+00  0.45593999997E+02  0.45594000000E+02  0.51100000000E-03 0. -1.
         11   -1    0    0    0    0 -0.00000000000E+00 -0.00000000000E+00 -0.45593999997E+02  0.45594000000E+02  0.51100000000E-03 0.  1.
    9900012    2    1    2    0    0  0.17560435300E+00 -0.91680447540E-01  0.11635386120E+01  0.90007718553E+02  0.89999979638E+02 0.  0.
        -12    1    1    2    0    0 -0.17560435300E+00  0.91680447540E-01 -0.11635386120E+01  0.11802814473E+01  0.00000000000E+00 0.  1.
         11    1    3    3    0    0 -0.31427795010E+02  0.73166393172E+01  0.18318258287E+02  0.37105230049E+02  0.51100000000E-03 0. -1.
        -11    1    3    3    0    0 -0.68297306486E+01 -0.67089626966E+01  0.22621490351E+01  0.98373126267E+01  0.51100000000E-03 0.  1.
        -12    1    3    3    0    0  0.38433130012E+02 -0.69935706815E+00 -0.19416868710E+02  0.43065175877E+02  0.00000000000E+00 0.  1.
</event>
<event>
 7    1  0.2895479E-015  0.9000775E+02  0.7816164E-02  0.1186339E+00
        -11   -1    0    0    0    0  0.00000000000E+00  0.00000000000E+00  0.45593999997E+02  0.45594000000E+02  0.51100000000E-03 0.  1.
         11   -1    0    0    0    0 -0.00000000000E+00 -0.00000000000E+00 -0.45593999997E+02  0.45594000000E+02  0.51100000000E-03 0. -1.
    9900012    2    1    2    0    0  0.37484419361E-01  0.54653924654E+00  0.10454126009E+01  0.90007746749E+02  0.90000008206E+02 0.  0.
        -12    1    1    2    0    0 -0.37484419361E-01 -0.54653924654E+00 -0.10454126009E+01  0.11802532507E+01  0.00000000000E+00 0.  1.
         11    1    3    3    0    0 -0.96875716006E+01  0.24990172131E+01 -0.27561678788E+02  0.29321327876E+02  0.51100000000E-03 0. -1.
        -11    1    3    3    0    0 -0.49808140092E+00 -0.78360520735E+01 -0.14231377452E+02  0.16253735006E+02  0.51100000000E-03 0.  1.
        -12    1    3    3    0    0  0.10223137421E+02  0.58835741069E+01  0.42838468841E+02  0.44432683867E+02  0.00000000000E+00 0.  1.
</event>
<event>
 7    1  0.2895479E-015  0.9000780E+02  0.7816164E-02  0.1186339E+00
        -11   -1    0    0    0    0  0.00000000000E+00  0.00000000000E+00  0.45593999997E+02  0.45594000000E+02  0.51100000000E-03 0.  1.
         11   -1    0    0    0    0 -0.00000000000E+00 -0.00000000000E+00 -0.45593999997E+02  0.45594000000E+02  0.51100000000E-03 0. -1.
    9900012    2    1    2    0    0  0.70753676701E+00 -0.91684172787E+00 -0.22730806806E+00  0.90007798327E+02  0.90000060465E+02 0.  0.
        -12    1    1    2    0    0 -0.70753676701E+00  0.91684172787E+00  0.22730806806E+00  0.11802016728E+01  0.00000000000E+00 0.  1.
         11    1    3    3    0    0  0.22046738609E+01 -0.27448973070E+02 -0.22687957131E+02  0.35679827753E+02  0.51100000000E-03 0. -1.
        -11    1    3    3    0    0  0.63532381826E+01 -0.72690090974E+01 -0.42394377908E+01  0.10543953799E+02  0.51100000000E-03 0.  1.
        -12    1    3    3    0    0 -0.78503752764E+01  0.33801140439E+02  0.26700086854E+02  0.43784016776E+02  0.00000000000E+00 0.  1.
</event>
<event>
 7    1  0.2895479E-015  0.9000769E+02  0.7816164E-02  0.1186339E+00
        -11   -1    0    0    0    0  0.00000000000E+00  0.00000000000E+00  0.45593999997E+02  0.45594000000E+02  0.51100000000E-03 0.  1.
         11   -1    0    0    0    0 -0.00000000000E+00 -0.00000000000E+00 -0.45593999997E+02  0.45594000000E+02  0.51100000000E-03 0. -1.
    9900012    2    1    2    0    0  0.35007124634E+00 -0.93967593157E+00 -0.62257241855E+00  0.90007687690E+02  0.89999948367E+02 0.  0.
        -12    1    1    2    0    0 -0.35007124634E+00  0.93967593157E+00  0.62257241855E+00  0.11803123105E+01  0.00000000000E+00 0.  1.
         11    1    3    3    0    0  0.31925628713E+02 -0.25589126696E+02 -0.73322492420E+01  0.41566946640E+02  0.51100000000E-03 0. -1.
        -11    1    3    3    0    0 -0.19995060021E+01  0.84379544290E+01 -0.78571830753E+01  0.11701812908E+02  0.51100000000E-03 0.  1.
        -12    1    3    3    0    0 -0.29576051464E+02  0.16211496336E+02  0.14566859899E+02  0.36738928141E+02  0.00000000000E+00 0.  1.
</event>
<event>
 7    1  0.2895479E-015  0.9000771E+02  0.7816164E-02  0.1186339E+00
        -11   -1    0    0    0    0  0.00000000000E+00  0.00000000000E+00  0.45593999997E+02  0.45594000000E+02  0.51100000000E-03 0. -1.
         11   -1    0    0    0    0 -0.00000000000E+00 -0.00000000000E+00 -0.45593999997E+02  0.45594000000E+02  0.51100000000E-03 0.  1.
    9900012    2    1    2    0    0  0.74130103072E+00 -0.73589697241E-01  0.91550516026E+00  0.90007706664E+02  0.89999967591E+02 0.  0.
        -12    1    1    2    0    0 -0.74130103072E+00  0.73589697241E-01 -0.91550516026E+00  0.11802933365E+01  0.00000000000E+00 0.  1.
         11    1    3    3    0    0  0.32041354201E+02  0.22058094914E+02  0.10037292151E+02  0.40174060839E+02  0.51100000000E-03 0. -1.
        -11    1    3    3    0    0  0.48227955889E+01 -0.75054941375E+01 -0.59703254493E+01  0.10734830496E+02  0.51100000000E-03 0.  1.
        -12    1    3    3    0    0 -0.36122848760E+02 -0.14626190474E+02 -0.31514615412E+01  0.39098815329E+02  0.00000000000E+00 0.  1.
</event>
<event>
 7    1  0.2895479E-015  0.9000781E+02  0.7816164E-02  0.1186339E+00
        -11   -1    0    0    0    0  0.00000000000E+00  0.00000000000E+00  0.45593999997E+02  0.45594000000E+02  0.51100000000E-03 0.  1.
         11   -1    0    0    0    0 -0.00000000000E+00 -0.00000000000E+00 -0.45593999997E+02  0.45594000000E+02  0.51100000000E-03 0. -1.
    9900012    2    1    2    0    0  0.10379964269E+01  0.43800574413E+00 -0.35152954019E+00  0.90007805680E+02  0.90000067915E+02 0.  0.
        -12    1    1    2    0    0 -0.10379964269E+01 -0.43800574413E+00  0.35152954019E+00  0.11801943195E+01  0.00000000000E+00 0.  1.
         11    1    3    3    0    0 -0.22605384318E+01  0.85544475662E+01 -0.63081886819E+01  0.10866547376E+02  0.51100000000E-03 0. -1.
        -11    1    3    3    0    0 -0.34108076900E+02  0.23553659530E+00  0.18513153883E+02  0.38809190332E+02  0.51100000000E-03 0.  1.
         12    1    3    3    0    0  0.37406611758E+02 -0.83519784173E+01 -0.12556494742E+02  0.40332067972E+02  0.00000000000E+00 0. -1.
</event>
<event>
 7    1  0.2895479E-015  0.9000772E+02  0.7816164E-02  0.1186339E+00
        -11   -1    0    0    0    0  0.00000000000E+00  0.00000000000E+00  0.45593999997E+02  0.45594000000E+02  0.51100000000E-03 0. -1.
         11   -1    0    0    0    0 -0.00000000000E+00 -0.00000000000E+00 -0.45593999997E+02  0.45594000000E+02  0.51100000000E-03 0.  1.
    9900012    2    1    2    0    0 -0.39899950020E+00 -0.91748133873E+00  0.62617127372E+00  0.90007719071E+02  0.89999980162E+02 0.  0.
        -12    1    1    2    0    0  0.39899950020E+00  0.91748133873E+00 -0.62617127372E+00  0.11802809293E+01  0.00000000000E+00 0.  1.
         11    1    3    3    0    0 -0.28657030775E+02  0.50104219234E+01  0.19153239602E+02  0.34830680846E+02  0.51100000000E-03 0. -1.
        -11    1    3    3    0    0  0.12254360072E+01 -0.16808948610E+02  0.51580043275E+01  0.17625193777E+02  0.51100000000E-03 0.  1.
        -12    1    3    3    0    0  0.27032595267E+02  0.10881045347E+02 -0.23685072656E+02  0.37551844448E+02  0.00000000000E+00 0.  1.
</event>
<event>
 7    1  0.2895479E-015  0.9000773E+02  0.7816164E-02  0.1186339E+00
        -11   -1    0    0    0    0  0.00000000000E+00  0.00000000000E+00  0.45593999997E+02  0.45594000000E+02  0.51100000000E-03 0. -1.
         11   -1    0    0    0    0 -0.00000000000E+00 -0.00000000000E+00 -0.45593999997E+02  0.45594000000E+02  0.51100000000E-03 0.  1.
    9900012    2    1    2    0    0  0.57197498453E+00  0.70529290803E+00  0.75394553033E+00  0.90007734211E+02  0.89999995503E+02 0.  0.
        -12    1    1    2    0    0 -0.57197498453E+00 -0.70529290803E+00 -0.75394553033E+00  0.11802657886E+01  0.00000000000E+00 0.  1.
         11    1    3    3    0    0  0.25233279865E+01  0.49660270575E+01 -0.42343262713E+01  0.69970085106E+01  0.51100000000E-03 0. -1.
        -11    1    3    3    0    0 -0.13973393800E+02  0.26863524975E+02 -0.24135583977E+02  0.38722488589E+02  0.51100000000E-03 0.  1.
         12    1    3    3    0    0  0.12022040798E+02 -0.31124259124E+02  0.29123855779E+02  0.44288237111E+02  0.00000000000E+00 0. -1.
</event>
<event>
 7    1  0.2895479E-015  0.9000816E+02  0.7816164E-02  0.1186338E+00
        -11   -1    0    0    0    0  0.00000000000E+00  0.00000000000E+00  0.45593999997E+02  0.45594000000E+02  0.51100000000E-03 0. -1.
         11   -1    0    0    0    0 -0.00000000000E+00 -0.00000000000E+00 -0.45593999997E+02  0.45594000000E+02  0.51100000000E-03 0.  1.
    9900012    2    1    2    0    0 -0.65995868372E+00  0.82890018095E+00  0.51903205798E+00  0.90008163040E+02  0.90000429991E+02 0.  0.
        -12    1    1    2    0    0  0.65995868372E+00 -0.82890018095E+00 -0.51903205798E+00  0.11798369597E+01  0.00000000000E+00 0.  1.
         11    1    3    3    0    0 -0.54026988036E+01 -0.13152431221E+02  0.35463931044E+02  0.38208192927E+02  0.51100000000E-03 0. -1.
        -11    1    3    3    0    0  0.48622192982E+01 -0.78096484697E+01  0.15157854604E+01  0.93235932745E+01  0.51100000000E-03 0.  1.
        -12    1    3    3    0    0 -0.11947917832E+00  0.21790979872E+02 -0.36460684447E+02  0.42476376839E+02  0.00000000000E+00 0.  1.
</event>
<event>
 7    1  0.2895479E-015  0.9000766E+02  0.7816164E-02  0.1186339E+00
        -11   -1    0    0    0    0  0.00000000000E+00  0.00000000000E+00  0.45593999997E+02  0.45594000000E+02  0.51100000000E-03 0. -1.
         11   -1    0    0    0    0 -0.00000000000E+00 -0.00000000000E+00 -0.45593999997E+02  0.45594000000E+02  0.51100000000E-03 0.  1.
    9900012    2    1    2    0    0  0.62490129692E+00  0.10013059032E+01  0.90674815459E-02  0.90007662183E+02  0.89999922524E+02 0.  0.
        -12    1    1    2    0    0 -0.62490129692E+00 -0.10013059032E+01 -0.90674815459E-02  0.11803378168E+01  0.00000000000E+00 0.  1.
         11    1    3    3    0    0 -0.64024543210E+01  0.97180668857E+01 -0.27715349950E+01  0.11963011820E+02  0.51100000000E-03 0. -1.
        -11    1    3    3    0    0 -0.19694873403E+02 -0.35222869283E+02  0.11955209946E+01  0.40372860063E+02  0.51100000000E-03 0.  1.
         12    1    3    3    0    0  0.26722229021E+02  0.26506108301E+02  0.15850814819E+01  0.37671790300E+02  0.00000000000E+00 0. -1.
</event>
<event>
 7    1  0.2895479E-015  0.9000777E+02  0.7816164E-02  0.1186339E+00
        -11   -1    0    0    0    0  0.00000000000E+00  0.00000000000E+00  0.45593999997E+02  0.45594000000E+02  0.51100000000E-03 0. -1.
         11   -1    0    0    0    0 -0.00000000000E+00 -0.00000000000E+00 -0.45593999997E+02  0.45594000000E+02  0.51100000000E-03 0.  1.
    9900012    2    1    2    0    0 -0.64932084347E+00 -0.88845885798E+00  0.42658625677E+00  0.90007765898E+02  0.90000027608E+02 0.  0.
        -12    1    1    2    0    0  0.64932084347E+00  0.88845885798E+00 -0.42658625677E+00  0.11802341016E+01  0.00000000000E+00 0.  1.
         11    1    3    3    0    0 -0.22180069751E+02  0.28216511878E+01  0.29491831871E+02  0.37009260422E+02  0.51100000000E-03 0. -1.
        -11    1    3    3    0    0 -0.24269585680E+01 -0.48322045880E+01  0.75140499182E+01  0.92574983395E+01  0.51100000000E-03 0.  1.
        -12    1    3    3    0    0  0.23957707476E+02  0.11220945422E+01 -0.36579295533E+02  0.43741007137E+02  0.00000000000E+00 0.  1.
</event>
<event>
 7    1  0.2895479E-015  0.9000775E+02  0.7816164E-02  0.1186339E+00
        -11   -1    0    0    0    0  0.00000000000E+00  0.00000000000E+00  0.45593999997E+02  0.45594000000E+02  0.51100000000E-03 0. -1.
         11   -1    0    0    0    0 -0.00000000000E+00 -0.00000000000E+00 -0.45593999997E+02  0.45594000000E+02  0.51100000000E-03 0.  1.
    9900012    2    1    2    0    0 -0.10588360057E+01 -0.29886747817E+00  0.42725312936E+00  0.90007745497E+02  0.90000006937E+02 0.  0.
        -12    1    1    2    0    0  0.10588360057E+01  0.29886747817E+00 -0.42725312936E+00  0.11802545035E+01  0.00000000000E+00 0.  1.
         11    1    3    3    0    0  0.28208178121E+02 -0.16827548449E+02  0.15515305755E+02  0.36326194580E+02  0.51100000000E-03 0. -1.
        -11    1    3    3    0    0  0.87620210932E+01  0.60301123268E+01  0.17633814068E+01  0.10781687371E+02  0.51100000000E-03 0.  1.
        -12    1    3    3    0    0 -0.38029035220E+02  0.10498568644E+02 -0.16851434032E+02  0.42899863546E+02  0.00000000000E+00 0.  1.
</event>
<event>
 7    1  0.2895479E-015  0.9000775E+02  0.7816164E-02  0.1186339E+00
        -11   -1    0    0    0    0  0.00000000000E+00  0.00000000000E+00  0.45593999997E+02  0.45594000000E+02  0.51100000000E-03 0. -1.
         11   -1    0    0    0    0 -0.00000000000E+00 -0.00000000000E+00 -0.45593999997E+02  0.45594000000E+02  0.51100000000E-03 0.  1.
    9900012    2    1    2    0    0 -0.10352132498E+01 -0.14581251344E+00 -0.54777351051E+00  0.90007752746E+02  0.90000014282E+02 0.  0.
        -12    1    1    2    0    0  0.10352132498E+01  0.14581251344E+00  0.54777351051E+00  0.11802472540E+01  0.00000000000E+00 0.  1.
         11    1    3    3    0    0 -0.68896034103E+01  0.10051928699E+02  0.17212161230E+01  0.12307334843E+02  0.51100000000E-03 0. -1.
        -11    1    3    3    0    0 -0.27418222699E+02 -0.17865337937E+02  0.18640990202E+02  0.37661860702E+02  0.51100000000E-03 0.  1.
         12    1    3    3    0    0  0.33272612860E+02  0.76675967249E+01 -0.20909979835E+02  0.40038557201E+02  0.00000000000E+00 0. -1.
</event>
<event>
 7    1  0.2895479E-015  0.9000772E+02  0.7816164E-02  0.1186339E+00
        -11   -1    0    0    0    0  0.00000000000E+00  0.00000000000E+00  0.45593999997E+02  0.45594000000E+02  0.51100000000E-03 0. -1.
         11   -1    0    0    0    0 -0.00000000000E+00 -0.00000000000E+00 -0.45593999997E+02  0.45594000000E+02  0.51100000000E-03 0.  1.
    9900012    2    1    2    0    0  0.11783889235E+01 -0.37213330860E-01  0.55403033420E-01  0.90007722582E+02  0.89999983720E+02 0.  0.
        -12    1    1    2    0    0 -0.11783889235E+01  0.37213330860E-01 -0.55403033420E-01  0.11802774178E+01  0.00000000000E+00 0.  1.
         11    1    3    3    0    0  0.19917064294E+02  0.70914916167E+01 -0.23536749409E+01  0.21272481976E+02  0.51100000000E-03 0. -1.
        -11    1    3    3    0    0 -0.26009355191E+00  0.21998286879E+02 -0.18201051178E+02  0.28552942730E+02  0.51100000000E-03 0.  1.
         12    1    3    3    0    0 -0.18478581819E+02 -0.29126991827E+02  0.20610129153E+02  0.40182297876E+02  0.00000000000E+00 0. -1.
</event>
<event>
 7    1  0.2895479E-015  0.9000777E+02  0.7816164E-02  0.1186339E+00
        -11   -1    0    0    0    0  0.00000000000E+00  0.00000000000E+00  0.45593999997E+02  0.45594000000E+02  0.51100000000E-03 0.  1.
         11   -1    0    0    0    0 -0.00000000000E+00 -0.00000000000E+00 -0.45593999997E+02  0.45594000000E+02  0.51100000000E-03 0. -1.
    9900012    2    1    2    0    0 -0.10779180513E+01 -0.20738986668E+00  0.43362559393E+00  0.90007767380E+02  0.90000029109E+02 0.  0.
        -12    1    1    2    0    0  0.10779180513E+01  0.20738986668E+00 -0.43362559393E+00  0.11802326202E+01  0.00000000000E+00 0.  1.
         11    1    3    3    0    0  0.22969473181E+02  0.28349111466E+02  0.73285069313E+01  0.37215263445E+02  0.51100000000E-03 0. -1.
        -11    1    3    3    0    0 -0.57875834343E+00  0.48931355080E+01  0.79206009298E+01  0.93281110451E+01  0.51100000000E-03 0.  1.
        -12    1    3    3    0    0 -0.23468632889E+02 -0.33449636841E+02 -0.14815482267E+02  0.43464392890E+02  0.00000000000E+00 0.  1.
</event>
<event>
 7    1  0.2895479E-015  0.9000772E+02  0.7816164E-02  0.1186339E+00
        -11   -1    0    0    0    0  0.00000000000E+00  0.00000000000E+00  0.45593999997E+02  0.45594000000E+02  0.51100000000E-03 0. -1.
         11   -1    0    0    0    0 -0.00000000000E+00 -0.00000000000E+00 -0.45593999997E+02  0.45594000000E+02  0.51100000000E-03 0.  1.
    9900012    2    1    2    0    0  0.33736929663E-01  0.48568505422E+00  0.10751844961E+01  0.90007724671E+02  0.89999985836E+02 0.  0.
        -12    1    1    2    0    0 -0.33736929663E-01 -0.48568505422E+00 -0.10751844961E+01  0.11802753293E+01  0.00000000000E+00 0.  1.
         11    1    3    3    0    0  0.10295920297E+01  0.10679901270E+02  0.40512299963E+02  0.41909030047E+02  0.51100000000E-03 0. -1.
        -11    1    3    3    0    0 -0.60680719547E+01 -0.52041761963E+01  0.31215975398E-01  0.79941179518E+01  0.51100000000E-03 0.  1.
        -12    1    3    3    0    0  0.50722168546E+01 -0.49900400192E+01 -0.39468331442E+02  0.40104576672E+02  0.00000000000E+00 0.  1.
</event>
<event>
 7    1  0.3469436E-015  0.9000777E+02  0.7816164E-02  0.1186339E+00
        -11   -1    0    0    0    0  0.00000000000E+00  0.00000000000E+00  0.45593999997E+02  0.45594000000E+02  0.51100000000E-03 0. -1.
         11   -1    0    0    0    0 -0.00000000000E+00 -0.00000000000E+00 -0.45593999997E+02  0.45594000000E+02  0.51100000000E-03 0.  1.
    9900012    2    1    2    0    0 -0.28599379378E+00 -0.10383348226E+01  0.48270618935E+00  0.90007772514E+02  0.90000034311E+02 0.  0.
        -12    1    1    2    0    0  0.28599379378E+00  0.10383348226E+01 -0.48270618935E+00  0.11802274862E+01  0.00000000000E+00 0.  1.
         11    1    3    3    0    0  0.43557334860E+01  0.87057583248E+01 -0.15372068337E+01  0.98552345138E+01  0.51100000000E-03 0. -1.
        -11    1    3    3    0    0  0.26049261940E+02  0.44533813233E+01 -0.25371479251E+02  0.36634800566E+02  0.51100000000E-03 0.  1.
         12    1    3    3    0    0 -0.30690989220E+02 -0.14197474471E+02  0.27391392274E+02  0.43517737434E+02  0.00000000000E+00 0. -1.
</event>
<event>
 7    1  0.2895479E-015  0.9000774E+02  0.7816164E-02  0.1186339E+00
        -11   -1    0    0    0    0  0.00000000000E+00  0.00000000000E+00  0.45593999997E+02  0.45594000000E+02  0.51100000000E-03 0. -1.
         11   -1    0    0    0    0 -0.00000000000E+00 -0.00000000000E+00 -0.45593999997E+02  0.45594000000E+02  0.51100000000E-03 0.  1.
    9900012    2    1    2    0    0 -0.19530941537E+00  0.36171982875E+00  0.11063525518E+01  0.90007744531E+02  0.90000005959E+02 0.  0.
        -12    1    1    2    0    0  0.19530941537E+00 -0.36171982875E+00 -0.11063525518E+01  0.11802554686E+01  0.00000000000E+00 0.  1.
         11    1    3    3    0    0 -0.10190459859E+02  0.14546910142E+01  0.50273144550E+00  0.10306034022E+02  0.51100000000E-03 0. -1.
        -11    1    3    3    0    0  0.17183721836E+02  0.20073474378E+02  0.31785810065E+02  0.41334760087E+02  0.51100000000E-03 0.  1.
         12    1    3    3    0    0 -0.71885713921E+01 -0.21166445564E+02 -0.31182188958E+02  0.38366950422E+02  0.00000000000E+00 0. -1.
</event>
<event>
 7    1  0.2895479E-015  0.9000778E+02  0.7816164E-02  0.1186339E+00
        -11   -1    0    0    0    0  0.00000000000E+00  0.00000000000E+00  0.45593999997E+02  0.45594000000E+02  0.51100000000E-03 0.  1.
         11   -1    0    0    0    0 -0.00000000000E+00 -0.00000000000E+00 -0.45593999997E+02  0.45594000000E+02  0.51100000000E-03 0. -1.
    9900012    2    1    2    0    0 -0.79270398401E+00  0.16630016649E+00 -0.85842438880E+00  0.90007776384E+02  0.90000038233E+02 0.  0.
        -12    1    1    2    0    0  0.79270398401E+00 -0.16630016649E+00  0.85842438880E+00  0.11802236156E+01  0.00000000000E+00 0.  1.
         11    1    3    3    0    0  0.32782599096E+02  0.46442618386E+01  0.21380558852E+02  0.39413148423E+02  0.51100000000E-03 0. -1.
        -11    1    3    3    0    0 -0.65742573391E-01 -0.95927613253E+01  0.77266892051E+00  0.96240536912E+01  0.51100000000E-03 0.  1.
        -12    1    3    3    0    0 -0.33509560507E+02  0.51147996532E+01 -0.23011652161E+02  0.40970574270E+02  0.00000000000E+00 0.  1.
</event>
<event>
 7    1  0.2895479E-015  0.9000776E+02  0.7816164E-02  0.1186339E+00
        -11   -1    0    0    0    0  0.00000000000E+00  0.00000000000E+00  0.45593999997E+02  0.45594000000E+02  0.51100000000E-03 0. -1.
         11   -1    0    0    0    0 -0.00000000000E+00 -0.00000000000E+00 -0.45593999997E+02  0.45594000000E+02  0.51100000000E-03 0.  1.
    9900012    2    1    2    0    0 -0.11311729681E+01  0.26180697672E+00  0.21184432904E+00  0.90007757145E+02  0.90000018739E+02 0.  0.
        -12    1    1    2    0    0  0.11311729681E+01 -0.26180697672E+00 -0.21184432904E+00  0.11802428549E+01  0.00000000000E+00 0.  1.
         11    1    3    3    0    0  0.34387968351E+01 -0.55914891317E+01  0.11968986113E+02  0.13650886536E+02  0.51100000000E-03 0. -1.
        -11    1    3    3    0    0  0.26314565141E+02  0.17319962079E+02  0.14063385780E+02  0.34499510791E+02  0.51100000000E-03 0.  1.
         12    1    3    3    0    0 -0.30884534944E+02 -0.11466665971E+02 -0.25820527565E+02  0.41857359818E+02  0.00000000000E+00 0. -1.
</event>
<event>
 7    1  0.2895479E-015  0.9000776E+02  0.7816164E-02  0.1186339E+00
        -11   -1    0    0    0    0  0.00000000000E+00  0.00000000000E+00  0.45593999997E+02  0.45594000000E+02  0.51100000000E-03 0.  1.
         11   -1    0    0    0    0 -0.00000000000E+00 -0.00000000000E+00 -0.45593999997E+02  0.45594000000E+02  0.51100000000E-03 0. -1.
    9900012    2    1    2    0    0  0.95609116230E+00  0.76532514183E-01 -0.68775076372E+00  0.90007759071E+02  0.90000020691E+02 0.  0.
        -12    1    1    2    0    0 -0.95609116230E+00 -0.76532514183E-01  0.68775076372E+00  0.11802409285E+01  0.00000000000E+00 0.  1.
         11    1    3    3    0    0  0.24435171972E+01 -0.15739850041E+02 -0.62872491998E+01  0.17124344028E+02  0.51100000000E-03 0. -1.
        -11    1    3    3    0    0  0.34262763431E+02  0.97988366080E+01 -0.25434364181E+01  0.35727065733E+02  0.51100000000E-03 0.  1.
         12    1    3    3    0    0 -0.35750189466E+02  0.60175459474E+01  0.81429348542E+01  0.37156349311E+02  0.00000000000E+00 0. -1.
</event>
<event>
 7    1  0.2895479E-015  0.9000773E+02  0.7816164E-02  0.1186339E+00
        -11   -1    0    0    0    0  0.00000000000E+00  0.00000000000E+00  0.45593999997E+02  0.45594000000E+02  0.51100000000E-03 0. -1.
         11   -1    0    0    0    0 -0.00000000000E+00 -0.00000000000E+00 -0.45593999997E+02  0.45594000000E+02  0.51100000000E-03 0.  1.
    9900012    2    1    2    0    0 -0.47198700423E+00  0.10249839579E+01 -0.34594595955E+00  0.90007727806E+02  0.89999989013E+02 0.  0.
        -12    1    1    2    0    0  0.47198700423E+00 -0.10249839579E+01  0.34594595955E+00  0.11802721945E+01  0.00000000000E+00 0.  1.
         11    1    3    3    0    0  0.31386182091E+02 -0.19926914708E+02  0.21544315079E+02  0.42968964015E+02  0.51100000000E-03 0. -1.
        -11    1    3    3    0    0 -0.79770977907E+01 -0.15152504266E+01 -0.10487983222E+01  0.81871882353E+01  0.51100000000E-03 0.  1.
        -12    1    3    3    0    0 -0.23881071304E+02  0.22467149092E+02 -0.20841462716E+02  0.38851575555E+02  0.00000000000E+00 0.  1.
</event>
<event>
 7    1  0.2895479E-015  0.9000841E+02  0.7816164E-02  0.1186338E+00
        -11   -1    0    0    0    0  0.00000000000E+00  0.00000000000E+00  0.45593999997E+02  0.45594000000E+02  0.51100000000E-03 0. -1.
         11   -1    0    0    0    0 -0.00000000000E+00 -0.00000000000E+00 -0.45593999997E+02  0.45594000000E+02  0.51100000000E-03 0.  1.
    9900012    2    1    2    0    0  0.10158435193E+01 -0.42314198190E+00  0.42477852038E+00  0.90008413639E+02  0.90000683896E+02 0.  0.
        -12    1    1    2    0    0 -0.10158435193E+01  0.42314198190E+00 -0.42477852038E+00  0.11795863614E+01  0.00000000000E+00 0.  1.
         11    1    3    3    0    0  0.28410924055E+01  0.31254552800E+01  0.66908664513E+01  0.79125198827E+01  0.51100000000E-03 0. -1.
        -11    1    3    3    0    0 -0.39926702095E+02 -0.12703736707E+02 -0.88551339857E+01  0.42824524103E+02  0.51100000000E-03 0.  1.
         12    1    3    3    0    0  0.38101453209E+02  0.91551394448E+01  0.25890460548E+01  0.39271369652E+02  0.00000000000E+00 0. -1.
</event>
<event>
 7    1  0.2895479E-015  0.9000776E+02  0.7816164E-02  0.1186339E+00
        -11   -1    0    0    0    0  0.00000000000E+00  0.00000000000E+00  0.45593999997E+02  0.45594000000E+02  0.51100000000E-03 0.  1.
         11   -1    0    0    0    0 -0.00000000000E+00 -0.00000000000E+00 -0.45593999997E+02  0.45594000000E+02  0.51100000000E-03 0. -1.
    9900012    2    1    2    0    0  0.20426535443E+00  0.11149720150E+01 -0.32877158045E+00  0.90007755245E+02  0.90000016814E+02 0.  0.
        -12    1    1    2    0    0 -0.20426535443E+00 -0.11149720150E+01  0.32877158045E+00  0.11802447548E+01  0.00000000000E+00 0.  1.
         11    1    3    3    0    0 -0.75032415469E+00 -0.30872887695E+02 -0.24134921102E+02  0.39194292924E+02  0.51100000000E-03 0. -1.
        -11    1    3    3    0    0 -0.73613359169E+01  0.16822701147E+00 -0.34192513584E+01  0.81184263821E+01  0.51100000000E-03 0.  1.
        -12    1    3    3    0    0  0.83159254261E+01  0.31819632698E+02  0.27225400880E+02  0.42695035939E+02  0.00000000000E+00 0.  1.
</event>
<event>
 7    1  0.2895479E-015  0.9000766E+02  0.7816164E-02  0.1186339E+00
        -11   -1    0    0    0    0  0.00000000000E+00  0.00000000000E+00  0.45593999997E+02  0.45594000000E+02  0.51100000000E-03 0. -1.
         11   -1    0    0    0    0 -0.00000000000E+00 -0.00000000000E+00 -0.45593999997E+02  0.45594000000E+02  0.51100000000E-03 0.  1.
    9900012    2    1    2    0    0  0.44108573204E+00  0.96101152373E+00 -0.52450351071E+00  0.90007659496E+02  0.89999919802E+02 0.  0.
        -12    1    1    2    0    0 -0.44108573204E+00 -0.96101152373E+00  0.52450351071E+00  0.11803405036E+01  0.00000000000E+00 0.  1.
         11    1    3    3    0    0  0.25995061810E+02 -0.17569261774E+02  0.22052528637E+02  0.38350178844E+02  0.51100000000E-03 0. -1.
        -11    1    3    3    0    0 -0.71226264696E+01  0.24322068512E+01  0.89842960067E+01  0.11720282121E+02  0.51100000000E-03 0.  1.
        -12    1    3    3    0    0 -0.18431349609E+02  0.16098066447E+02 -0.31561328154E+02  0.39937198532E+02  0.00000000000E+00 0.  1.
</event>
<event>
 7    1  0.2895479E-015  0.9000775E+02  0.7816164E-02  0.1186339E+00
        -11   -1    0    0    0    0  0.00000000000E+00  0.00000000000E+00  0.45593999997E+02  0.45594000000E+02  0.51100000000E-03 0.  1.
         11   -1    0    0    0    0 -0.00000000000E+00 -0.00000000000E+00 -0.45593999997E+02  0.45594000000E+02  0.51100000000E-03 0. -1.
    9900012    2    1    2    0    0 -0.66221577583E+00 -0.62937973143E+00 -0.74722736550E+00  0.90007746927E+02  0.90000008387E+02 0.  0.
        -12    1    1    2    0    0  0.66221577583E+00  0.62937973143E+00  0.74722736550E+00  0.11802530728E+01  0.00000000000E+00 0.  1.
         11    1    3    3    0    0 -0.10089181987E+02  0.27912829041E+02  0.13538581094E+02  0.32622243892E+02  0.51100000000E-03 0. -1.
        -11    1    3    3    0    0  0.35002472511E+00  0.12666990331E+02 -0.72701232156E+01  0.14609238625E+02  0.51100000000E-03 0.  1.
        -12    1    3    3    0    0  0.90769414860E+01 -0.41209199104E+02 -0.70156852438E+01  0.42776264411E+02  0.00000000000E+00 0.  1.
</event>
<event>
 7    1  0.2895479E-015  0.9000773E+02  0.7816164E-02  0.1186339E+00
        -11   -1    0    0    0    0  0.00000000000E+00  0.00000000000E+00  0.45593999997E+02  0.45594000000E+02  0.51100000000E-03 0.  1.
         11   -1    0    0    0    0 -0.00000000000E+00 -0.00000000000E+00 -0.45593999997E+02  0.45594000000E+02  0.51100000000E-03 0. -1.
    9900012    2    1    2    0    0 -0.74855323731E+00 -0.10247386859E-02 -0.91252046497E+00  0.90007734522E+02  0.89999995818E+02 0.  0.
        -12    1    1    2    0    0  0.74855323731E+00  0.10247386859E-02  0.91252046497E+00  0.11802654778E+01  0.00000000000E+00 0.  1.
         11    1    3    3    0    0 -0.99688275211E+00  0.74989272764E+01 -0.51862299953E+01  0.91719500295E+01  0.51100000000E-03 0. -1.
        -11    1    3    3    0    0 -0.39842561456E+02 -0.42238522697E+01 -0.20450477626E+01  0.40117986639E+02  0.51100000000E-03 0.  1.
         12    1    3    3    0    0  0.40090890970E+02 -0.32760997453E+01  0.63187572929E+01  0.40717797854E+02  0.00000000000E+00 0. -1.
</event>
<event>
 7    1  0.2895479E-015  0.9000763E+02  0.7816164E-02  0.1186339E+00
        -11   -1    0    0    0    0  0.00000000000E+00  0.00000000000E+00  0.45593999997E+02  0.45594000000E+02  0.51100000000E-03 0.  1.
         11   -1    0    0    0    0 -0.00000000000E+00 -0.00000000000E+00 -0.45593999997E+02  0.45594000000E+02  0.51100000000E-03 0. -1.
    9900012    2    1    2    0    0  0.32149416890E+00  0.82561825851E+00  0.77991324022E+00  0.90007631976E+02  0.89999891918E+02 0.  0.
        -12    1    1    2    0    0 -0.32149416890E+00 -0.82561825851E+00 -0.77991324022E+00  0.11803680238E+01  0.00000000000E+00 0.  1.
         11    1    3    3    0    0 -0.54194385555E+01  0.73497058620E+01 -0.51360683344E+01  0.10477007622E+02  0.51100000000E-03 0. -1.
        -11    1    3    3    0    0 -0.10763348801E+02 -0.14839659975E+02  0.38177476042E+02  0.42350736272E+02  0.51100000000E-03 0.  1.
         12    1    3    3    0    0  0.16504281525E+02  0.83155723720E+01 -0.32261494467E+02  0.37179888082E+02  0.00000000000E+00 0. -1.
</event>
<event>
 7    1  0.2895479E-015  0.9000773E+02  0.7816164E-02  0.1186339E+00
        -11   -1    0    0    0    0  0.00000000000E+00  0.00000000000E+00  0.45593999997E+02  0.45594000000E+02  0.51100000000E-03 0. -1.
         11   -1    0    0    0    0 -0.00000000000E+00 -0.00000000000E+00 -0.45593999997E+02  0.45594000000E+02  0.51100000000E-03 0.  1.
    9900012    2    1    2    0    0 -0.28812124082E+00 -0.34668258352E+00  0.10907908755E+01  0.90007734184E+02  0.89999995475E+02 0.  0.
        -12    1    1    2    0    0  0.28812124082E+00  0.34668258352E+00 -0.10907908755E+01  0.11802658164E+01  0.00000000000E+00 0.  1.
         11    1    3    3    0    0  0.86041666355E+01 -0.10273860079E+02 -0.67289636399E+01  0.14995427181E+02  0.51100000000E-03 0. -1.
        -11    1    3    3    0    0 -0.74574513471E+00 -0.25384317449E+02 -0.17467661719E+02  0.30822701283E+02  0.51100000000E-03 0.  1.
         12    1    3    3    0    0 -0.81465427417E+01  0.35311494944E+02  0.25287416235E+02  0.44189605720E+02  0.00000000000E+00 0. -1.
</event>
<event>
 7    1  0.2895479E-015  0.9000769E+02  0.7816164E-02  0.1186339E+00
        -11   -1    0    0    0    0  0.00000000000E+00  0.00000000000E+00  0.45593999997E+02  0.45594000000E+02  0.51100000000E-03 0. -1.
         11   -1    0    0    0    0 -0.00000000000E+00 -0.00000000000E+00 -0.45593999997E+02  0.45594000000E+02  0.51100000000E-03 0.  1.
    9900012    2    1    2    0    0  0.34896397022E-01 -0.10706581037E+00  0.11749238764E+01  0.90007692006E+02  0.89999952740E+02 0.  0.
        -12    1    1    2    0    0 -0.34896397022E-01  0.10706581037E+00 -0.11749238764E+01  0.11803079944E+01  0.00000000000E+00 0.  1.
         11    1    3    3    0    0 -0.22246449011E+01 -0.25830474955E+01 -0.78298639226E+01  0.85397862156E+01  0.51100000000E-03 0. -1.
        -11    1    3    3    0    0 -0.10875567226E+02 -0.12374512306E+02 -0.31960820029E+02  0.35956926099E+02  0.51100000000E-03 0.  1.
         12    1    3    3    0    0  0.13135108524E+02  0.14850493991E+02  0.40965607828E+02  0.45510979691E+02  0.00000000000E+00 0. -1.
</event>
<event>
 7    1  0.2895479E-015  0.9000760E+02  0.7816164E-02  0.1186339E+00
        -11   -1    0    0    0    0  0.00000000000E+00  0.00000000000E+00  0.45593999997E+02  0.45594000000E+02  0.51100000000E-03 0.  1.
         11   -1    0    0    0    0 -0.00000000000E+00 -0.00000000000E+00 -0.45593999997E+02  0.45594000000E+02  0.51100000000E-03 0. -1.
    9900012    2    1    2    0    0 -0.80261030193E+00  0.18601835500E-01 -0.86534327414E+00  0.90007598243E+02  0.89999857740E+02 0.  0.
        -12    1    1    2    0    0  0.80261030193E+00 -0.18601835500E-01  0.86534327414E+00  0.11804017567E+01  0.00000000000E+00 0.  1.
         11    1    3    3    0    0 -0.21708119259E+01  0.76769223579E+01  0.38264443389E+00  0.79871132664E+01  0.51100000000E-03 0. -1.
        -11    1    3    3    0    0 -0.30276982624E+02  0.19972402410E+02  0.11614184446E+02  0.38085191551E+02  0.51100000000E-03 0.  1.
         12    1    3    3    0    0  0.31645184248E+02 -0.27630722933E+02 -0.12862172154E+02  0.43935293426E+02  0.00000000000E+00 0. -1.
</event>
<event>
 7    1  0.2895479E-015  0.9000770E+02  0.7816164E-02  0.1186339E+00
        -11   -1    0    0    0    0  0.00000000000E+00  0.00000000000E+00  0.45593999997E+02  0.45594000000E+02  0.51100000000E-03 0.  1.
         11   -1    0    0    0    0 -0.00000000000E+00 -0.00000000000E+00 -0.45593999997E+02  0.45594000000E+02  0.51100000000E-03 0. -1.
    9900012    2    1    2    0    0 -0.94200721237E+00  0.69698176321E-02 -0.71111576542E+00  0.90007698429E+02  0.89999959248E+02 0.  0.
        -12    1    1    2    0    0  0.94200721237E+00 -0.69698176321E-02  0.71111576542E+00  0.11803015709E+01  0.00000000000E+00 0.  1.
         11    1    3    3    0    0 -0.17858513151E+02  0.30182281864E+02  0.98110465325E+01  0.36416387311E+02  0.51100000000E-03 0. -1.
        -11    1    3    3    0    0 -0.78088139847E+01  0.41342327064E+01 -0.67768108792E+01  0.11135287238E+02  0.51100000000E-03 0.  1.
        -12    1    3    3    0    0  0.24725319924E+02 -0.34309544752E+02 -0.37453514187E+01  0.42456023880E+02  0.00000000000E+00 0.  1.
</event>
<event>
 7    1  0.2895479E-015  0.9000774E+02  0.7816164E-02  0.1186339E+00
        -11   -1    0    0    0    0  0.00000000000E+00  0.00000000000E+00  0.45593999997E+02  0.45594000000E+02  0.51100000000E-03 0. -1.
         11   -1    0    0    0    0 -0.00000000000E+00 -0.00000000000E+00 -0.45593999997E+02  0.45594000000E+02  0.51100000000E-03 0.  1.
    9900012    2    1    2    0    0  0.27731193613E+00  0.23214646424E-02  0.11472210970E+01  0.90007735816E+02  0.89999997129E+02 0.  0.
        -12    1    1    2    0    0 -0.27731193613E+00 -0.23214646424E-02 -0.11472210970E+01  0.11802641843E+01  0.00000000000E+00 0.  1.
         11    1    3    3    0    0  0.21452890255E+02 -0.87278123025E+01  0.66097512611E+01  0.24085058021E+02  0.51100000000E-03 0. -1.
        -11    1    3    3    0    0 -0.25137206780E+02 -0.16137019010E+02 -0.20835853489E+02  0.36419985421E+02  0.51100000000E-03 0.  1.
        -12    1    3    3    0    0  0.39616284613E+01  0.24867152777E+02  0.15373323325E+02  0.29502692374E+02  0.00000000000E+00 0.  1.
</event>
<event>
 7    1  0.2895479E-015  0.9000767E+02  0.7816164E-02  0.1186339E+00
        -11   -1    0    0    0    0  0.00000000000E+00  0.00000000000E+00  0.45593999997E+02  0.45594000000E+02  0.51100000000E-03 0. -1.
         11   -1    0    0    0    0 -0.00000000000E+00 -0.00000000000E+00 -0.45593999997E+02  0.45594000000E+02  0.51100000000E-03 0.  1.
    9900012    2    1    2    0    0 -0.13981089492E+00  0.94295876528E+00  0.69603243305E+00  0.90007669763E+02  0.89999930204E+02 0.  0.
        -12    1    1    2    0    0  0.13981089492E+00 -0.94295876528E+00 -0.69603243305E+00  0.11803302365E+01  0.00000000000E+00 0.  1.
         11    1    3    3    0    0  0.82200219809E+01 -0.62875803188E+01  0.44510249621E+01  0.11265613659E+02  0.51100000000E-03 0. -1.
        -11    1    3    3    0    0  0.32034777869E+02  0.17505432390E+02 -0.60241536076E+01  0.36999426796E+02  0.51100000000E-03 0.  1.
         12    1    3    3    0    0 -0.40394610744E+02 -0.10274893306E+02  0.22691610785E+01  0.41742629309E+02  0.00000000000E+00 0. -1.
</event>
<event>
 7    1  0.2895479E-015  0.9000774E+02  0.7816164E-02  0.1186339E+00
        -11   -1    0    0    0    0  0.00000000000E+00  0.00000000000E+00  0.45593999997E+02  0.45594000000E+02  0.51100000000E-03 0. -1.
         11   -1    0    0    0    0 -0.00000000000E+00 -0.00000000000E+00 -0.45593999997E+02  0.45594000000E+02  0.51100000000E-03 0.  1.
    9900012    2    1    2    0    0  0.26961199616E+00  0.50528334324E+00  0.10319956032E+01  0.90007738669E+02  0.90000000019E+02 0.  0.
        -12    1    1    2    0    0 -0.26961199616E+00 -0.50528334324E+00 -0.10319956032E+01  0.11802613314E+01  0.00000000000E+00 0.  1.
         11    1    3    3    0    0 -0.15245902477E+02  0.31569580796E+02  0.23012592568E+02  0.41936325434E+02  0.51100000000E-03 0. -1.
        -11    1    3    3    0    0  0.77851581778E+01  0.22913722057E+01 -0.17509340132E+01  0.83020988080E+01  0.51100000000E-03 0.  1.
        -12    1    3    3    0    0  0.77303562953E+01 -0.33355669659E+02 -0.20229662951E+02  0.39769314426E+02  0.00000000000E+00 0.  1.
</event>
<event>
 7    1  0.2895479E-015  0.9000779E+02  0.7816164E-02  0.1186339E+00
        -11   -1    0    0    0    0  0.00000000000E+00  0.00000000000E+00  0.45593999997E+02  0.45594000000E+02  0.51100000000E-03 0. -1.
         11   -1    0    0    0    0 -0.00000000000E+00 -0.00000000000E+00 -0.45593999997E+02  0.45594000000E+02  0.51100000000E-03 0.  1.
    9900012    2    1    2    0    0 -0.57044915756E+00  0.10331161411E+01  0.12703642987E-01  0.90007787059E+02  0.90000049049E+02 0.  0.
        -12    1    1    2    0    0  0.57044915756E+00 -0.10331161411E+01 -0.12703642987E-01  0.11802129405E+01  0.00000000000E+00 0.  1.
         11    1    3    3    0    0 -0.94914115508E+01 -0.16065066350E+02  0.33012883850E+02  0.37921283608E+02  0.51100000000E-03 0. -1.
        -11    1    3    3    0    0 -0.80539821796E+01 -0.19056967486E+01  0.22631303635E+01  0.85802137706E+01  0.51100000000E-03 0.  1.
        -12    1    3    3    0    0  0.16974944573E+02  0.19003879240E+02 -0.35263310571E+02  0.43506289681E+02  0.00000000000E+00 0.  1.
</event>
<event>
 7    1  0.2895479E-015  0.9000780E+02  0.7816164E-02  0.1186339E+00
        -11   -1    0    0    0    0  0.00000000000E+00  0.00000000000E+00  0.45593999997E+02  0.45594000000E+02  0.51100000000E-03 0. -1.
         11   -1    0    0    0    0 -0.00000000000E+00 -0.00000000000E+00 -0.45593999997E+02  0.45594000000E+02  0.51100000000E-03 0.  1.
    9900012    2    1    2    0    0  0.98378657183E+00  0.65193074661E+00 -0.49509439737E-02  0.90007799073E+02  0.90000061220E+02 0.  0.
        -12    1    1    2    0    0 -0.98378657183E+00 -0.65193074661E+00  0.49509439737E-02  0.11802009274E+01  0.00000000000E+00 0.  1.
         11    1    3    3    0    0 -0.27023461734E+02  0.94299567499E+01  0.27917272474E+02  0.39982066868E+02  0.51100000000E-03 0. -1.
        -11    1    3    3    0    0  0.54120396161E+01 -0.62993378805E+01  0.52408481279E+01  0.98203014159E+01  0.51100000000E-03 0.  1.
        -12    1    3    3    0    0  0.22595208689E+02 -0.24786881228E+01 -0.33163071546E+02  0.40205430789E+02  0.00000000000E+00 0.  1.
</event>
<event>
 7    1  0.2895479E-015  0.9000774E+02  0.7816164E-02  0.1186339E+00
        -11   -1    0    0    0    0  0.00000000000E+00  0.00000000000E+00  0.45593999997E+02  0.45594000000E+02  0.51100000000E-03 0.  1.
         11   -1    0    0    0    0 -0.00000000000E+00 -0.00000000000E+00 -0.45593999997E+02  0.45594000000E+02  0.51100000000E-03 0. -1.
    9900012    2    1    2    0    0  0.86240546941E+00  0.25299487239E+00 -0.76502682406E+00  0.90007739164E+02  0.90000000521E+02 0.  0.
        -12    1    1    2    0    0 -0.86240546941E+00 -0.25299487239E+00  0.76502682406E+00  0.11802608359E+01  0.00000000000E+00 0.  1.
         11    1    3    3    0    0 -0.47639658504E+01 -0.39843612404E+01 -0.87203009505E+01  0.10705800019E+02  0.51100000000E-03 0. -1.
        -11    1    3    3    0    0 -0.20946566330E+02 -0.27209717340E+02 -0.78107985560E+01  0.35215563790E+02  0.51100000000E-03 0.  1.
         12    1    3    3    0    0  0.26572937650E+02  0.31447073453E+02  0.15766072683E+02  0.44086375355E+02  0.00000000000E+00 0. -1.
</event>
<event>
 7    1  0.2895479E-015  0.9000773E+02  0.7816164E-02  0.1186339E+00
        -11   -1    0    0    0    0  0.00000000000E+00  0.00000000000E+00  0.45593999997E+02  0.45594000000E+02  0.51100000000E-03 0.  1.
         11   -1    0    0    0    0 -0.00000000000E+00 -0.00000000000E+00 -0.45593999997E+02  0.45594000000E+02  0.51100000000E-03 0. -1.
    9900012    2    1    2    0    0  0.62448983495E+00  0.95535501695E+00  0.30059186925E+00  0.90007726204E+02  0.89999987390E+02 0.  0.
        -12    1    1    2    0    0 -0.62448983495E+00 -0.95535501695E+00 -0.30059186925E+00  0.11802737963E+01  0.00000000000E+00 0.  1.
         11    1    3    3    0    0 -0.20135005026E+01 -0.88704475146E+01 -0.36596754293E+01  0.98047053955E+01  0.51100000000E-03 0. -1.
        -11    1    3    3    0    0 -0.31988871457E+02  0.21828354836E+02  0.15600251364E+02  0.41750842085E+02  0.51100000000E-03 0.  1.
         12    1    3    3    0    0  0.34626861794E+02 -0.12002552304E+02 -0.11639984065E+02  0.38452178723E+02  0.00000000000E+00 0. -1.
</event>
<event>
 7    1  0.2895479E-015  0.9000774E+02  0.7816164E-02  0.1186339E+00
        -11   -1    0    0    0    0  0.00000000000E+00  0.00000000000E+00  0.45593999997E+02  0.45594000000E+02  0.51100000000E-03 0. -1.
         11   -1    0    0    0    0 -0.00000000000E+00 -0.00000000000E+00 -0.45593999997E+02  0.45594000000E+02  0.51100000000E-03 0.  1.
    9900012    2    1    2    0    0  0.79464272611E+00 -0.39373237003E+00 -0.77880472605E+00  0.90007737723E+02  0.89999999061E+02 0.  0.
        -12    1    1    2    0    0 -0.79464272611E+00  0.39373237003E+00  0.77880472605E+00  0.11802622771E+01  0.00000000000E+00 0.  1.
         11    1    3    3    0    0  0.28655275954E+02  0.43012513418E+01  0.26433045291E+02  0.39221569152E+02  0.51100000000E-03 0. -1.
        -11    1    3    3    0    0 -0.20560665877E+01  0.85680043262E+01  0.25996978081E+01  0.91867587811E+01  0.51100000000E-03 0.  1.
        -12    1    3    3    0    0 -0.25804566640E+02 -0.13262988038E+02 -0.29811547825E+02  0.41599409790E+02  0.00000000000E+00 0.  1.
</event>
<event>
 7    1  0.2895479E-015  0.9000775E+02  0.7816164E-02  0.1186339E+00
        -11   -1    0    0    0    0  0.00000000000E+00  0.00000000000E+00  0.45593999997E+02  0.45594000000E+02  0.51100000000E-03 0.  1.
         11   -1    0    0    0    0 -0.00000000000E+00 -0.00000000000E+00 -0.45593999997E+02  0.45594000000E+02  0.51100000000E-03 0. -1.
    9900012    2    1    2    0    0 -0.35538833170E+00  0.11081774482E+01  0.19657250471E+00  0.90007746268E+02  0.90000007718E+02 0.  0.
        -12    1    1    2    0    0  0.35538833170E+00 -0.11081774482E+01 -0.19657250471E+00  0.11802537323E+01  0.00000000000E+00 0.  1.
         11    1    3    3    0    0  0.70580774980E+01  0.55574729264E+01  0.51816647077E+01  0.10370709363E+02  0.51100000000E-03 0. -1.
        -11    1    3    3    0    0  0.20584987654E+01  0.20204864451E+02  0.29737684193E+02  0.36011162520E+02  0.51100000000E-03 0.  1.
         12    1    3    3    0    0 -0.94719645951E+01 -0.24654159929E+02 -0.34722776396E+02  0.43625874384E+02  0.00000000000E+00 0. -1.
</event>
<event>
 7    1  0.2895479E-015  0.9000773E+02  0.7816164E-02  0.1186339E+00
        -11   -1    0    0    0    0  0.00000000000E+00  0.00000000000E+00  0.45593999997E+02  0.45594000000E+02  0.51100000000E-03 0. -1.
         11   -1    0    0    0    0 -0.00000000000E+00 -0.00000000000E+00 -0.45593999997E+02  0.45594000000E+02  0.51100000000E-03 0.  1.
    9900012    2    1    2    0    0 -0.41525064806E+00 -0.36115809370E+00  0.10441083236E+01  0.90007732886E+02  0.89999994160E+02 0.  0.
        -12    1    1    2    0    0  0.41525064806E+00  0.36115809370E+00 -0.10441083236E+01  0.11802671142E+01  0.00000000000E+00 0.  1.
         11    1    3    3    0    0 -0.11608000321E+01 -0.78916922672E+01 -0.15279015180E+01  0.81216221819E+01  0.51100000000E-03 0. -1.
        -11    1    3    3    0    0  0.34921168287E+02 -0.16550446614E+02  0.87548888011E+01  0.39623898796E+02  0.51100000000E-03 0.  1.
         12    1    3    3    0    0 -0.34175618903E+02  0.24080980787E+02 -0.61828789595E+01  0.42262211907E+02  0.00000000000E+00 0. -1.
</event>
<event>
 7    1  0.2895479E-015  0.9000785E+02  0.7816164E-02  0.1186339E+00
        -11   -1    0    0    0    0  0.00000000000E+00  0.00000000000E+00  0.45593999997E+02  0.45594000000E+02  0.51100000000E-03 0. -1.
         11   -1    0    0    0    0 -0.00000000000E+00 -0.00000000000E+00 -0.45593999997E+02  0.45594000000E+02  0.51100000000E-03 0.  1.
    9900012    2    1    2    0    0 -0.71806154662E-01 -0.11779175856E+01  0.98313457976E-02  0.90007854832E+02  0.90000117716E+02 0.  0.
        -12    1    1    2    0    0  0.71806154662E-01  0.11779175856E+01 -0.98313457976E-02  0.11801451680E+01  0.00000000000E+00 0.  1.
         11    1    3    3    0    0  0.34373599860E+01 -0.58530227481E+01 -0.41286774526E+01  0.79447653667E+01  0.51100000000E-03 0. -1.
        -11    1    3    3    0    0  0.27329555126E+02 -0.38274137134E+01 -0.26143789114E+02  0.38013831544E+02  0.51100000000E-03 0.  1.
         12    1    3    3    0    0 -0.30838721266E+02  0.85025188760E+01  0.30282297913E+02  0.44049257922E+02  0.00000000000E+00 0. -1.
</event>
<event>
 7    1  0.2895479E-015  0.9000800E+02  0.7816164E-02  0.1186339E+00
        -11   -1    0    0    0    0  0.00000000000E+00  0.00000000000E+00  0.45593999997E+02  0.45594000000E+02  0.51100000000E-03 0. -1.
         11   -1    0    0    0    0 -0.00000000000E+00 -0.00000000000E+00 -0.45593999997E+02  0.45594000000E+02  0.51100000000E-03 0.  1.
    9900012    2    1    2    0    0  0.64482573900E+00 -0.98426779993E+00 -0.88348034060E-01  0.90008004784E+02  0.90000269646E+02 0.  0.
        -12    1    1    2    0    0 -0.64482573900E+00  0.98426779993E+00  0.88348034060E-01  0.11799952164E+01  0.00000000000E+00 0.  1.
         11    1    3    3    0    0 -0.38651458204E+01 -0.81262361028E+01 -0.65137349462E+01  0.11108726688E+02  0.51100000000E-03 0. -1.
        -11    1    3    3    0    0 -0.20332653870E+02 -0.23555582150E+02 -0.14362123792E+02  0.34271750231E+02  0.51100000000E-03 0.  1.
         12    1    3    3    0    0  0.24842625429E+02  0.30697550453E+02  0.20787510705E+02  0.44627527865E+02  0.00000000000E+00 0. -1.
</event>
<event>
 7    1  0.2895479E-015  0.9000770E+02  0.7816164E-02  0.1186339E+00
        -11   -1    0    0    0    0  0.00000000000E+00  0.00000000000E+00  0.45593999997E+02  0.45594000000E+02  0.51100000000E-03 0. -1.
         11   -1    0    0    0    0 -0.00000000000E+00 -0.00000000000E+00 -0.45593999997E+02  0.45594000000E+02  0.51100000000E-03 0.  1.
    9900012    2    1    2    0    0  0.10070475930E+00  0.11054911789E+01  0.40108035935E+00  0.90007695950E+02  0.89999956737E+02 0.  0.
        -12    1    1    2    0    0 -0.10070475930E+00 -0.11054911789E+01 -0.40108035935E+00  0.11803040497E+01  0.00000000000E+00 0.  1.
         11    1    3    3    0    0  0.12763314135E+02 -0.36452672203E+02 -0.37759715411E+01  0.38806667723E+02  0.51100000000E-03 0. -1.
        -11    1    3    3    0    0 -0.80924712971E+01 -0.40870017280E+01  0.17672360144E+01  0.92366010096E+01  0.51100000000E-03 0.  1.
        -12    1    3    3    0    0 -0.45701380788E+01  0.41645165110E+02  0.24098158860E+01  0.41964427217E+02  0.00000000000E+00 0.  1.
</event>
<event>
 7    1  0.2895479E-015  0.9000777E+02  0.7816164E-02  0.1186339E+00
        -11   -1    0    0    0    0  0.00000000000E+00  0.00000000000E+00  0.45593999997E+02  0.45594000000E+02  0.51100000000E-03 0. -1.
         11   -1    0    0    0    0 -0.00000000000E+00 -0.00000000000E+00 -0.45593999997E+02  0.45594000000E+02  0.51100000000E-03 0.  1.
    9900012    2    1    2    0    0  0.10369043476E+01  0.41052704596E+00 -0.38632748191E+00  0.90007766123E+02  0.90000027836E+02 0.  0.
        -12    1    1    2    0    0 -0.10369043476E+01 -0.41052704596E+00  0.38632748191E+00  0.11802338772E+01  0.00000000000E+00 0.  1.
         11    1    3    3    0    0 -0.64230037831E+01  0.10665495780E+02  0.41970214072E+01  0.13138598357E+02  0.51100000000E-03 0. -1.
        -11    1    3    3    0    0  0.62089689469E+01  0.30691704786E+02 -0.14820572427E+02  0.34643634413E+02  0.51100000000E-03 0.  1.
         12    1    3    3    0    0  0.12509391838E+01 -0.40946673520E+02  0.10237223538E+02  0.42225533353E+02  0.00000000000E+00 0. -1.
</event>
<event>
 7    1  0.2895479E-015  0.9000773E+02  0.7816164E-02  0.1186339E+00
        -11   -1    0    0    0    0  0.00000000000E+00  0.00000000000E+00  0.45593999997E+02  0.45594000000E+02  0.51100000000E-03 0.  1.
         11   -1    0    0    0    0 -0.00000000000E+00 -0.00000000000E+00 -0.45593999997E+02  0.45594000000E+02  0.51100000000E-03 0. -1.
    9900012    2    1    2    0    0 -0.18338756670E+00 -0.56064020945E+00 -0.10222962896E+01  0.90007729629E+02  0.89999990860E+02 0.  0.
        -12    1    1    2    0    0  0.18338756670E+00  0.56064020945E+00  0.10222962896E+01  0.11802703706E+01  0.00000000000E+00 0.  1.
         11    1    3    3    0    0  0.30994802258E+02  0.19756612184E+02 -0.18768342684E+02  0.41270475880E+02  0.51100000000E-03 0. -1.
        -11    1    3    3    0    0  0.16440217940E+01 -0.10670951594E+01 -0.43251905528E+01  0.47485548662E+01  0.51100000000E-03 0.  1.
        -12    1    3    3    0    0 -0.32822211618E+02 -0.19250157234E+02  0.22071236948E+02  0.43988698883E+02  0.00000000000E+00 0.  1.
</event>
<event>
 7    1  0.2895479E-015  0.9000769E+02  0.7816164E-02  0.1186339E+00
        -11   -1    0    0    0    0  0.00000000000E+00  0.00000000000E+00  0.45593999997E+02  0.45594000000E+02  0.51100000000E-03 0. -1.
         11   -1    0    0    0    0 -0.00000000000E+00 -0.00000000000E+00 -0.45593999997E+02  0.45594000000E+02  0.51100000000E-03 0.  1.
    9900012    2    1    2    0    0 -0.21478078358E+00  0.98472762744E+00  0.61425112338E+00  0.90007693376E+02  0.89999954128E+02 0.  0.
        -12    1    1    2    0    0  0.21478078358E+00 -0.98472762744E+00 -0.61425112338E+00  0.11803066245E+01  0.00000000000E+00 0.  1.
         11    1    3    3    0    0  0.41290772402E+01 -0.84006033808E+01  0.29638510683E+01  0.98185451790E+01  0.51100000000E-03 0. -1.
        -11    1    3    3    0    0  0.11215361311E+02 -0.25406823360E+02 -0.23694406632E+02  0.36506381750E+02  0.51100000000E-03 0.  1.
         12    1    3    3    0    0 -0.15559219335E+02  0.34792154368E+02  0.21344806687E+02  0.43682766446E+02  0.00000000000E+00 0. -1.
</event>
<event>
 7    1  0.2895479E-015  0.9000775E+02  0.7816164E-02  0.1186339E+00
        -11   -1    0    0    0    0  0.00000000000E+00  0.00000000000E+00  0.45593999997E+02  0.45594000000E+02  0.51100000000E-03 0. -1.
         11   -1    0    0    0    0 -0.00000000000E+00 -0.00000000000E+00 -0.45593999997E+02  0.45594000000E+02  0.51100000000E-03 0.  1.
    9900012    2    1    2    0    0 -0.39888038449E+00  0.10908674007E+01  0.20952551770E+00  0.90007746557E+02  0.90000008012E+02 0.  0.
        -12    1    1    2    0    0  0.39888038449E+00 -0.10908674007E+01 -0.20952551770E+00  0.11802534430E+01  0.00000000000E+00 0.  1.
         11    1    3    3    0    0  0.30665028912E+02  0.57724689057E+01  0.22259573340E+02  0.38329544753E+02  0.51100000000E-03 0. -1.
        -11    1    3    3    0    0 -0.23642545065E+02  0.95320946228E+00  0.40128792206E+01  0.23999619691E+02  0.51100000000E-03 0.  1.
        -12    1    3    3    0    0 -0.74213642311E+01 -0.56348109673E+01 -0.26062927043E+02  0.27678582112E+02  0.00000000000E+00 0.  1.
</event>
<event>
 7    1  0.2895479E-015  0.9000775E+02  0.7816164E-02  0.1186339E+00
        -11   -1    0    0    0    0  0.00000000000E+00  0.00000000000E+00  0.45593999997E+02  0.45594000000E+02  0.51100000000E-03 0. -1.
         11   -1    0    0    0    0 -0.00000000000E+00 -0.00000000000E+00 -0.45593999997E+02  0.45594000000E+02  0.51100000000E-03 0.  1.
    9900012    2    1    2    0    0  0.80223349157E+00  0.16030364007E+00  0.85071625688E+00  0.90007748340E+02  0.90000009818E+02 0.  0.
        -12    1    1    2    0    0 -0.80223349157E+00 -0.16030364007E+00 -0.85071625688E+00  0.11802516603E+01  0.00000000000E+00 0.  1.
         11    1    3    3    0    0  0.33001684626E+02  0.28338458983E+02 -0.27497299438E+01  0.43586012214E+02  0.51100000000E-03 0. -1.
        -11    1    3    3    0    0 -0.20076038776E+01 -0.79918583769E+01 -0.42393004620E+01  0.92667115156E+01  0.51100000000E-03 0.  1.
        -12    1    3    3    0    0 -0.30191847257E+02 -0.20186296966E+02  0.78397466627E+01  0.37155024610E+02  0.00000000000E+00 0.  1.
</event>
<event>
 7    1  0.2895479E-015  0.9000740E+02  0.7816164E-02  0.1186340E+00
        -11   -1    0    0    0    0  0.00000000000E+00  0.00000000000E+00  0.45593999997E+02  0.45594000000E+02  0.51100000000E-03 0.  1.
         11   -1    0    0    0    0 -0.00000000000E+00 -0.00000000000E+00 -0.45593999997E+02  0.45594000000E+02  0.51100000000E-03 0. -1.
    9900012    2    1    2    0    0  0.72857292024E+00 -0.59193916833E+00 -0.71596619227E+00  0.90007399277E+02  0.89999656147E+02 0.  0.
        -12    1    1    2    0    0 -0.72857292024E+00  0.59193916833E+00  0.71596619227E+00  0.11806007232E+01  0.00000000000E+00 0.  1.
         11    1    3    3    0    0 -0.74246306754E+01  0.44382635917E+00 -0.64480783065E+01  0.98437714628E+01  0.51100000000E-03 0. -1.
        -11    1    3    3    0    0 -0.64651616655E+01  0.33953277658E+02 -0.14149737804E+02  0.37347536188E+02  0.51100000000E-03 0.  1.
         12    1    3    3    0    0  0.14618365261E+02 -0.34989043186E+02  0.19881849919E+02  0.42816091626E+02  0.00000000000E+00 0. -1.
</event>
<event>
 7    1  0.2895479E-015  0.9000775E+02  0.7816164E-02  0.1186339E+00
        -11   -1    0    0    0    0  0.00000000000E+00  0.00000000000E+00  0.45593999997E+02  0.45594000000E+02  0.51100000000E-03 0.  1.
         11   -1    0    0    0    0 -0.00000000000E+00 -0.00000000000E+00 -0.45593999997E+02  0.45594000000E+02  0.51100000000E-03 0. -1.
    9900012    2    1    2    0    0 -0.82757835895E+00  0.19709425636E+00 -0.81808355874E+00  0.90007748842E+02  0.90000010327E+02 0.  0.
        -12    1    1    2    0    0  0.82757835895E+00 -0.19709425636E+00  0.81808355874E+00  0.11802511577E+01  0.00000000000E+00 0.  1.
         11    1    3    3    0    0  0.27786864850E+01  0.31658255899E+02 -0.16415045342E+02  0.35768980681E+02  0.51100000000E-03 0. -1.
        -11    1    3    3    0    0  0.28743369127E+00  0.69237765263E+01 -0.67320177291E+01  0.96613333696E+01  0.51100000000E-03 0.  1.
        -12    1    3    3    0    0 -0.38936985352E+01 -0.38384938169E+02  0.22328979513E+02  0.44577434791E+02  0.00000000000E+00 0.  1.
</event>
<event>
 7    1  0.2895479E-015  0.9000770E+02  0.7816164E-02  0.1186339E+00
        -11   -1    0    0    0    0  0.00000000000E+00  0.00000000000E+00  0.45593999997E+02  0.45594000000E+02  0.51100000000E-03 0. -1.
         11   -1    0    0    0    0 -0.00000000000E+00 -0.00000000000E+00 -0.45593999997E+02  0.45594000000E+02  0.51100000000E-03 0.  1.
    9900012    2    1    2    0    0 -0.98215406474E+00  0.11980765315E-01  0.65448216214E+00  0.90007696206E+02  0.89999956996E+02 0.  0.
        -12    1    1    2    0    0  0.98215406474E+00 -0.11980765315E-01 -0.65448216214E+00  0.11803037940E+01  0.00000000000E+00 0.  1.
         11    1    3    3    0    0  0.59993142005E+01 -0.11741504704E+01  0.71759706244E+01  0.94268210372E+01  0.51100000000E-03 0. -1.
        -11    1    3    3    0    0  0.34939202186E+02 -0.10480319772E+02  0.63399631149E+00  0.36482693205E+02  0.51100000000E-03 0.  1.
         12    1    3    3    0    0 -0.41920670451E+02  0.11666451008E+02 -0.71554847738E+01  0.44098181964E+02  0.00000000000E+00 0. -1.
</event>
<event>
 7    1  0.3288590E-015  0.9000771E+02  0.7816164E-02  0.1186339E+00
        -11   -1    0    0    0    0  0.00000000000E+00  0.00000000000E+00  0.45593999997E+02  0.45594000000E+02  0.51100000000E-03 0. -1.
         11   -1    0    0    0    0 -0.00000000000E+00 -0.00000000000E+00 -0.45593999997E+02  0.45594000000E+02  0.51100000000E-03 0.  1.
    9900012    2    1    2    0    0  0.57567189731E+00  0.76960111708E+00  0.68513061688E+00  0.90007708521E+02  0.89999969474E+02 0.  0.
        -12    1    1    2    0    0 -0.57567189731E+00 -0.76960111708E+00 -0.68513061688E+00  0.11802914788E+01  0.00000000000E+00 0.  1.
         11    1    3    3    0    0  0.15355078627E+01 -0.59447323347E+01 -0.79275394460E+01  0.10027138618E+02  0.51100000000E-03 0. -1.
        -11    1    3    3    0    0  0.25842333058E+02 -0.24591881562E+02 -0.61590862599E+01  0.36201120984E+02  0.51100000000E-03 0.  1.
         12    1    3    3    0    0 -0.26802169023E+02  0.31306215014E+02  0.14771756323E+02  0.43779448920E+02  0.00000000000E+00 0. -1.
</event>
<event>
 7    1  0.2895479E-015  0.9000767E+02  0.7816164E-02  0.1186339E+00
        -11   -1    0    0    0    0  0.00000000000E+00  0.00000000000E+00  0.45593999997E+02  0.45594000000E+02  0.51100000000E-03 0. -1.
         11   -1    0    0    0    0 -0.00000000000E+00 -0.00000000000E+00 -0.45593999997E+02  0.45594000000E+02  0.51100000000E-03 0.  1.
    9900012    2    1    2    0    0  0.97991480218E+00  0.62974147064E+00  0.19069544047E+00  0.90007672888E+02  0.89999933370E+02 0.  0.
        -12    1    1    2    0    0 -0.97991480218E+00 -0.62974147064E+00 -0.19069544047E+00  0.11803271116E+01  0.00000000000E+00 0.  1.
         11    1    3    3    0    0 -0.13497564904E+02 -0.39322579294E+02  0.69761683023E+01  0.42155858729E+02  0.51100000000E-03 0. -1.
        -11    1    3    3    0    0  0.52577872464E+01 -0.69424016078E+00 -0.27604677147E+01  0.59788358728E+01  0.51100000000E-03 0.  1.
        -12    1    3    3    0    0  0.92196924603E+01  0.40646560926E+02 -0.40250051471E+01  0.41872978287E+02  0.00000000000E+00 0.  1.
</event>
<event>
 7    1  0.2895479E-015  0.9000783E+02  0.7816164E-02  0.1186339E+00
        -11   -1    0    0    0    0  0.00000000000E+00  0.00000000000E+00  0.45593999997E+02  0.45594000000E+02  0.51100000000E-03 0.  1.
         11   -1    0    0    0    0 -0.00000000000E+00 -0.00000000000E+00 -0.45593999997E+02  0.45594000000E+02  0.51100000000E-03 0. -1.
    9900012    2    1    2    0    0  0.72754151977E-01 -0.33641128155E+00 -0.11288606643E+01  0.90007833861E+02  0.90000096468E+02 0.  0.
        -12    1    1    2    0    0 -0.72754151977E-01  0.33641128155E+00  0.11288606643E+01  0.11801661393E+01  0.00000000000E+00 0.  1.
         11    1    3    3    0    0  0.68434289120E+01  0.40138715811E+02 -0.20662047343E+01  0.40770310626E+02  0.51100000000E-03 0. -1.
        -11    1    3    3    0    0 -0.52680891000E+01 -0.98867211707E+00 -0.71173319335E+01  0.89099185986E+01  0.51100000000E-03 0.  1.
        -12    1    3    3    0    0 -0.15025856600E+01 -0.39486454976E+02  0.80546760035E+01  0.40327604637E+02  0.00000000000E+00 0.  1.
</event>
<event>
 7    1  0.2895479E-015  0.9000766E+02  0.7816164E-02  0.1186339E+00
        -11   -1    0    0    0    0  0.00000000000E+00  0.00000000000E+00  0.45593999997E+02  0.45594000000E+02  0.51100000000E-03 0. -1.
         11   -1    0    0    0    0 -0.00000000000E+00 -0.00000000000E+00 -0.45593999997E+02  0.45594000000E+02  0.51100000000E-03 0.  1.
    9900012    2    1    2    0    0  0.12798998168E-01  0.11640321122E+01  0.19511241956E+00  0.90007659613E+02  0.89999919920E+02 0.  0.
        -12    1    1    2    0    0 -0.12798998168E-01 -0.11640321122E+01 -0.19511241956E+00  0.11803403869E+01  0.00000000000E+00 0.  1.
         11    1    3    3    0    0  0.12196689219E+02  0.25904826438E+01  0.14943244991E+01  0.12557978906E+02  0.51100000000E-03 0. -1.
        -11    1    3    3    0    0  0.14546239623E+02  0.92969897265E+01 -0.31373094217E+02  0.35809190806E+02  0.51100000000E-03 0.  1.
         12    1    3    3    0    0 -0.26730129844E+02 -0.10723440258E+02  0.30073882137E+02  0.41640489902E+02  0.00000000000E+00 0. -1.
</event>
<event>
 7    1  0.2895479E-015  0.9000771E+02  0.7816164E-02  0.1186339E+00
        -11   -1    0    0    0    0  0.00000000000E+00  0.00000000000E+00  0.45593999997E+02  0.45594000000E+02  0.51100000000E-03 0.  1.
         11   -1    0    0    0    0 -0.00000000000E+00 -0.00000000000E+00 -0.45593999997E+02  0.45594000000E+02  0.51100000000E-03 0. -1.
    9900012    2    1    2    0    0 -0.60607918324E+00 -0.17428894532E+00 -0.99768036725E+00  0.90007714133E+02  0.89999975159E+02 0.  0.
        -12    1    1    2    0    0  0.60607918324E+00  0.17428894532E+00  0.99768036725E+00  0.11802858671E+01  0.00000000000E+00 0.  1.
         11    1    3    3    0    0 -0.29777414900E+02  0.20556369596E+02  0.18960293160E+01  0.36233323012E+02  0.51100000000E-03 0. -1.
        -11    1    3    3    0    0 -0.65556094825E+01  0.47846167440E+01 -0.54845464391E+01  0.97953470065E+01  0.51100000000E-03 0.  1.
        -12    1    3    3    0    0  0.35726945199E+02 -0.25515275285E+02  0.25908367558E+01  0.43979044114E+02  0.00000000000E+00 0.  1.
</event>
<event>
 7    1  0.2895479E-015  0.9000732E+02  0.7816164E-02  0.1186340E+00
        -11   -1    0    0    0    0  0.00000000000E+00  0.00000000000E+00  0.45593999997E+02  0.45594000000E+02  0.51100000000E-03 0. -1.
         11   -1    0    0    0    0 -0.00000000000E+00 -0.00000000000E+00 -0.45593999997E+02  0.45594000000E+02  0.51100000000E-03 0.  1.
    9900012    2    1    2    0    0  0.74769878456E+00 -0.18468194892E+00 -0.89489826258E+00  0.90007320621E+02  0.89999576453E+02 0.  0.
        -12    1    1    2    0    0 -0.74769878456E+00  0.18468194892E+00  0.89489826258E+00  0.11806793786E+01  0.00000000000E+00 0.  1.
         11    1    3    3    0    0 -0.10141399146E+02  0.44982486314E+01 -0.12115922545E+02  0.16427957778E+02  0.51100000000E-03 0. -1.
        -11    1    3    3    0    0 -0.29381111778E+02  0.36073011772E+01 -0.37189251306E+01  0.29834422325E+02  0.51100000000E-03 0.  1.
         12    1    3    3    0    0  0.40270209708E+02 -0.82902317575E+01  0.14939949413E+02  0.43744940519E+02  0.00000000000E+00 0. -1.
</event>
<event>
 7    1  0.2895479E-015  0.9000770E+02  0.7816164E-02  0.1186339E+00
        -11   -1    0    0    0    0  0.00000000000E+00  0.00000000000E+00  0.45593999997E+02  0.45594000000E+02  0.51100000000E-03 0.  1.
         11   -1    0    0    0    0 -0.00000000000E+00 -0.00000000000E+00 -0.45593999997E+02  0.45594000000E+02  0.51100000000E-03 0. -1.
    9900012    2    1    2    0    0 -0.53658917240E+00  0.46480338035E+00 -0.94293896613E+00  0.90007701726E+02  0.89999962589E+02 0.  0.
        -12    1    1    2    0    0  0.53658917240E+00 -0.46480338035E+00  0.94293896613E+00  0.11802982742E+01  0.00000000000E+00 0.  1.
         11    1    3    3    0    0 -0.14074879538E+01 -0.24905662492E+01  0.78622195617E+01  0.83665069939E+01  0.51100000000E-03 0. -1.
        -11    1    3    3    0    0  0.25783067446E+02 -0.25554092495E+02 -0.20910038823E+02  0.41892814826E+02  0.51100000000E-03 0.  1.
         12    1    3    3    0    0 -0.24912168665E+02  0.28509462124E+02  0.12104880295E+02  0.39748379906E+02  0.00000000000E+00 0. -1.
</event>
<event>
 7    1  0.2895479E-015  0.9000787E+02  0.7816164E-02  0.1186339E+00
        -11   -1    0    0    0    0  0.00000000000E+00  0.00000000000E+00  0.45593999997E+02  0.45594000000E+02  0.51100000000E-03 0.  1.
         11   -1    0    0    0    0 -0.00000000000E+00 -0.00000000000E+00 -0.45593999997E+02  0.45594000000E+02  0.51100000000E-03 0. -1.
    9900012    2    1    2    0    0 -0.57988519955E+00  0.86245660354E+00  0.55911206037E+00  0.90007870967E+02  0.90000134064E+02 0.  0.
        -12    1    1    2    0    0  0.57988519955E+00 -0.86245660354E+00 -0.55911206037E+00  0.11801290326E+01  0.00000000000E+00 0.  1.
         11    1    3    3    0    0  0.29578175288E+02  0.15587765998E+02 -0.12192753627E+02  0.35588061811E+02  0.51100000000E-03 0. -1.
        -11    1    3    3    0    0  0.68975437156E+01  0.27851969125E+01 -0.57993948890E+01  0.94322008296E+01  0.51100000000E-03 0.  1.
        -12    1    3    3    0    0 -0.37055604203E+02 -0.17510506307E+02  0.18551260576E+02  0.44987608327E+02  0.00000000000E+00 0.  1.
</event>
<event>
 7    1  0.2895479E-015  0.9000773E+02  0.7816164E-02  0.1186339E+00
        -11   -1    0    0    0    0  0.00000000000E+00  0.00000000000E+00  0.45593999997E+02  0.45594000000E+02  0.51100000000E-03 0. -1.
         11   -1    0    0    0    0 -0.00000000000E+00 -0.00000000000E+00 -0.45593999997E+02  0.45594000000E+02  0.51100000000E-03 0.  1.
    9900012    2    1    2    0    0 -0.14707051421E+00 -0.47164876527E+00  0.10718909872E+01  0.90007731987E+02  0.89999993249E+02 0.  0.
        -12    1    1    2    0    0  0.14707051421E+00  0.47164876527E+00 -0.10718909872E+01  0.11802680129E+01  0.00000000000E+00 0.  1.
         11    1    3    3    0    0  0.17988707998E+01 -0.83573715254E+01  0.71705763512E+01  0.11157901256E+02  0.51100000000E-03 0. -1.
        -11    1    3    3    0    0  0.15477092305E+02  0.31062239627E+02 -0.26272112901E+02  0.43527313647E+02  0.51100000000E-03 0.  1.
         12    1    3    3    0    0 -0.17423033619E+02 -0.23176516867E+02  0.20173427537E+02  0.35322517084E+02  0.00000000000E+00 0. -1.
</event>
<event>
 7    1  0.2895479E-015  0.9000774E+02  0.7816164E-02  0.1186339E+00
        -11   -1    0    0    0    0  0.00000000000E+00  0.00000000000E+00  0.45593999997E+02  0.45594000000E+02  0.51100000000E-03 0.  1.
         11   -1    0    0    0    0 -0.00000000000E+00 -0.00000000000E+00 -0.45593999997E+02  0.45594000000E+02  0.51100000000E-03 0. -1.
    9900012    2    1    2    0    0  0.45272610681E+00 -0.10838989218E+01  0.11493304640E+00  0.90007742653E+02  0.90000004056E+02 0.  0.
        -12    1    1    2    0    0 -0.45272610681E+00  0.10838989218E+01 -0.11493304640E+00  0.11802573472E+01  0.00000000000E+00 0.  1.
         11    1    3    3    0    0 -0.91267715437E+01 -0.80601292468E-01 -0.15392661889E+01  0.92560140471E+01  0.51100000000E-03 0. -1.
        -11    1    3    3    0    0 -0.24752721971E+02  0.11488474035E+02  0.25316827694E+02  0.37223971381E+02  0.51100000000E-03 0.  1.
         12    1    3    3    0    0  0.34332219622E+02 -0.12491771664E+02 -0.23662628459E+02  0.43527757225E+02  0.00000000000E+00 0. -1.
</event>
<event>
 7    1  0.2895479E-015  0.9000777E+02  0.7816164E-02  0.1186339E+00
        -11   -1    0    0    0    0  0.00000000000E+00  0.00000000000E+00  0.45593999997E+02  0.45594000000E+02  0.51100000000E-03 0. -1.
         11   -1    0    0    0    0 -0.00000000000E+00 -0.00000000000E+00 -0.45593999997E+02  0.45594000000E+02  0.51100000000E-03 0.  1.
    9900012    2    1    2    0    0 -0.85033995526E-02  0.10783760415E+00  0.11752597437E+01  0.90007772597E+02  0.90000034396E+02 0.  0.
        -12    1    1    2    0    0  0.85033995526E-02 -0.10783760415E+00 -0.11752597437E+01  0.11802274026E+01  0.00000000000E+00 0.  1.
         11    1    3    3    0    0 -0.22783380536E+00  0.83404618068E+00 -0.10145550012E+02  0.10182324223E+02  0.51100000000E-03 0. -1.
        -11    1    3    3    0    0  0.23255371753E+01  0.38106810112E+02  0.14424267649E+02  0.40811721325E+02  0.51100000000E-03 0.  1.
         12    1    3    3    0    0 -0.21062067695E+01 -0.38833018688E+02 -0.31034578924E+01  0.39013727049E+02  0.00000000000E+00 0. -1.
</event>
<event>
 7    1  0.2895479E-015  0.9000776E+02  0.7816164E-02  0.1186339E+00
        -11   -1    0    0    0    0  0.00000000000E+00  0.00000000000E+00  0.45593999997E+02  0.45594000000E+02  0.51100000000E-03 0.  1.
         11   -1    0    0    0    0 -0.00000000000E+00 -0.00000000000E+00 -0.45593999997E+02  0.45594000000E+02  0.51100000000E-03 0. -1.
    9900012    2    1    2    0    0  0.81485970947E+00 -0.75167263399E+00 -0.40490561164E+00  0.90007764155E+02  0.90000025842E+02 0.  0.
        -12    1    1    2    0    0 -0.81485970947E+00  0.75167263399E+00  0.40490561164E+00  0.11802358447E+01  0.00000000000E+00 0.  1.
         11    1    3    3    0    0 -0.22926696934E+02  0.47478987610E+01 -0.34793768275E+02  0.41937838356E+02  0.51100000000E-03 0. -1.
        -11    1    3    3    0    0  0.35734631163E+01 -0.83227776532E+01  0.12075327578E+01  0.91376365725E+01  0.51100000000E-03 0.  1.
        -12    1    3    3    0    0  0.20168093527E+02  0.28232062582E+01  0.33181329906E+02  0.38932289227E+02  0.00000000000E+00 0.  1.
</event>
<event>
 7    1  0.2895479E-015  0.9000778E+02  0.7816164E-02  0.1186339E+00
        -11   -1    0    0    0    0  0.00000000000E+00  0.00000000000E+00  0.45593999997E+02  0.45594000000E+02  0.51100000000E-03 0.  1.
         11   -1    0    0    0    0 -0.00000000000E+00 -0.00000000000E+00 -0.45593999997E+02  0.45594000000E+02  0.51100000000E-03 0. -1.
    9900012    2    1    2    0    0  0.21106324557E+00 -0.11565375049E+01 -0.10393572544E+00  0.90007775729E+02  0.90000037569E+02 0.  0.
        -12    1    1    2    0    0 -0.21106324557E+00  0.11565375049E+01  0.10393572544E+00  0.11802242706E+01  0.00000000000E+00 0.  1.
         11    1    3    3    0    0  0.27199616610E+01 -0.86423390398E+01 -0.62730530582E+01  0.11019955102E+02  0.51100000000E-03 0. -1.
        -11    1    3    3    0    0  0.26089456044E+02 -0.14590933948E+02 -0.18579377172E+02  0.35195856666E+02  0.51100000000E-03 0.  1.
         12    1    3    3    0    0 -0.28598354459E+02  0.22076735483E+02  0.24748494504E+02  0.43791963961E+02  0.00000000000E+00 0. -1.
</event>
<event>
 7    1  0.2895479E-015  0.9000759E+02  0.7816164E-02  0.1186339E+00
        -11   -1    0    0    0    0  0.00000000000E+00  0.00000000000E+00  0.45593999997E+02  0.45594000000E+02  0.51100000000E-03 0. -1.
         11   -1    0    0    0    0 -0.00000000000E+00 -0.00000000000E+00 -0.45593999997E+02  0.45594000000E+02  0.51100000000E-03 0.  1.
    9900012    2    1    2    0    0 -0.59191396612E+00  0.10167008808E+01  0.96578929486E-01  0.90007588922E+02  0.89999848295E+02 0.  0.
        -12    1    1    2    0    0  0.59191396612E+00 -0.10167008808E+01 -0.96578929486E-01  0.11804110784E+01  0.00000000000E+00 0.  1.
         11    1    3    3    0    0 -0.17633567126E+02 -0.30079218084E+02  0.98725156161E+01  0.36237668454E+02  0.51100000000E-03 0. -1.
        -11    1    3    3    0    0 -0.28345777634E+00 -0.42690150773E+01  0.91325387829E+01  0.10085043526E+02  0.51100000000E-03 0.  1.
        -12    1    3    3    0    0  0.17325110936E+02  0.35364934043E+02 -0.18908475470E+02  0.43684876941E+02  0.00000000000E+00 0.  1.
</event>
<event>
 7    1  0.2895479E-015  0.9000773E+02  0.7816164E-02  0.1186339E+00
        -11   -1    0    0    0    0  0.00000000000E+00  0.00000000000E+00  0.45593999997E+02  0.45594000000E+02  0.51100000000E-03 0. -1.
         11   -1    0    0    0    0 -0.00000000000E+00 -0.00000000000E+00 -0.45593999997E+02  0.45594000000E+02  0.51100000000E-03 0.  1.
    9900012    2    1    2    0    0  0.43453807349E-01  0.11717163980E+01 -0.13499077844E+00  0.90007733055E+02  0.89999994331E+02 0.  0.
        -12    1    1    2    0    0 -0.43453807349E-01 -0.11717163980E+01  0.13499077844E+00  0.11802669448E+01  0.00000000000E+00 0.  1.
         11    1    3    3    0    0 -0.15494560671E+02  0.14917460374E+02  0.30318734248E+02  0.37173077369E+02  0.51100000000E-03 0. -1.
        -11    1    3    3    0    0  0.48711566788E+00  0.94018372293E+01  0.25993825028E+01  0.97667095082E+01  0.51100000000E-03 0.  1.
        -12    1    3    3    0    0  0.15050898810E+02 -0.23147581205E+02 -0.33053107529E+02  0.43067946178E+02  0.00000000000E+00 0.  1.
</event>
<event>
 7    1  0.2895479E-015  0.9000776E+02  0.7816164E-02  0.1186339E+00
        -11   -1    0    0    0    0  0.00000000000E+00  0.00000000000E+00  0.45593999997E+02  0.45594000000E+02  0.51100000000E-03 0.  1.
         11   -1    0    0    0    0 -0.00000000000E+00 -0.00000000000E+00 -0.45593999997E+02  0.45594000000E+02  0.51100000000E-03 0. -1.
    9900012    2    1    2    0    0 -0.96080154498E+00  0.70932381904E-01  0.68175885003E+00  0.90007760134E+02  0.90000021768E+02 0.  0.
        -12    1    1    2    0    0  0.96080154498E+00 -0.70932381904E-01 -0.68175885003E+00  0.11802398660E+01  0.00000000000E+00 0.  1.
         11    1    3    3    0    0  0.14698301042E+02 -0.27837421957E+02 -0.20364979955E+02  0.37492592916E+02  0.51100000000E-03 0. -1.
        -11    1    3    3    0    0  0.83889618406E+01 -0.26087869391E+01  0.68827350273E+01  0.11160308767E+02  0.51100000000E-03 0.  1.
        -12    1    3    3    0    0 -0.24048064428E+02  0.30517141278E+02  0.14164003778E+02  0.41354858451E+02  0.00000000000E+00 0.  1.
</event>
<event>
 7    1  0.2895479E-015  0.9000772E+02  0.7816164E-02  0.1186339E+00
        -11   -1    0    0    0    0  0.00000000000E+00  0.00000000000E+00  0.45593999997E+02  0.45594000000E+02  0.51100000000E-03 0.  1.
         11   -1    0    0    0    0 -0.00000000000E+00 -0.00000000000E+00 -0.45593999997E+02  0.45594000000E+02  0.51100000000E-03 0. -1.
    9900012    2    1    2    0    0 -0.79376888725E+00  0.24197804510E+00 -0.83930474170E+00  0.90007722545E+02  0.89999983683E+02 0.  0.
        -12    1    1    2    0    0  0.79376888725E+00 -0.24197804510E+00  0.83930474170E+00  0.11802774547E+01  0.00000000000E+00 0.  1.
         11    1    3    3    0    0 -0.71063351768E+01  0.42475511832E+01 -0.21947671024E+01  0.85649689780E+01  0.51100000000E-03 0. -1.
        -11    1    3    3    0    0 -0.34901481051E+02 -0.60992507130E+01  0.14278611330E+02  0.38199384558E+02  0.51100000000E-03 0.  1.
         12    1    3    3    0    0  0.41214047341E+02  0.20936775748E+01 -0.12923148969E+02  0.43243369009E+02  0.00000000000E+00 0. -1.
</event>
<event>
 7    1  0.2895479E-015  0.9000772E+02  0.7816164E-02  0.1186339E+00
        -11   -1    0    0    0    0  0.00000000000E+00  0.00000000000E+00  0.45593999997E+02  0.45594000000E+02  0.51100000000E-03 0.  1.
         11   -1    0    0    0    0 -0.00000000000E+00 -0.00000000000E+00 -0.45593999997E+02  0.45594000000E+02  0.51100000000E-03 0. -1.
    9900012    2    1    2    0    0  0.81388546661E+00  0.34272109506E+00 -0.78306108845E+00  0.90007723774E+02  0.89999984928E+02 0.  0.
        -12    1    1    2    0    0 -0.81388546661E+00 -0.34272109506E+00  0.78306108845E+00  0.11802762261E+01  0.00000000000E+00 0.  1.
         11    1    3    3    0    0  0.16485534159E+02  0.16778106475E+02 -0.31751924995E+02  0.39515344292E+02  0.51100000000E-03 0. -1.
        -11    1    3    3    0    0  0.12039685109E+01 -0.92236239132E+01 -0.46681827150E+01  0.10407531330E+02  0.51100000000E-03 0.  1.
        -12    1    3    3    0    0 -0.16875617204E+02 -0.72117614667E+01  0.35637046621E+02  0.40084848152E+02  0.00000000000E+00 0.  1.
</event>
<event>
 7    1  0.2895479E-015  0.9000773E+02  0.7816164E-02  0.1186339E+00
        -11   -1    0    0    0    0  0.00000000000E+00  0.00000000000E+00  0.45593999997E+02  0.45594000000E+02  0.51100000000E-03 0. -1.
         11   -1    0    0    0    0 -0.00000000000E+00 -0.00000000000E+00 -0.45593999997E+02  0.45594000000E+02  0.51100000000E-03 0.  1.
    9900012    2    1    2    0    0 -0.82623674616E-01 -0.11766641011E+01 -0.40907375097E-01  0.90007729484E+02  0.89999990713E+02 0.  0.
        -12    1    1    2    0    0  0.82623674616E-01  0.11766641011E+01  0.40907375097E-01  0.11802705164E+01  0.00000000000E+00 0.  1.
         11    1    3    3    0    0  0.10959259221E+02 -0.74970337641E+01  0.27097597868E+02  0.30175995235E+02  0.51100000000E-03 0. -1.
        -11    1    3    3    0    0  0.20314497597E+02  0.81553875070E+01 -0.12003572483E+02  0.24965474372E+02  0.51100000000E-03 0.  1.
        -12    1    3    3    0    0 -0.31356380493E+02 -0.18350178441E+01 -0.15134932761E+02  0.34866259876E+02  0.00000000000E+00 0.  1.
</event>
<event>
 7    1  0.2895479E-015  0.9000773E+02  0.7816164E-02  0.1186339E+00
        -11   -1    0    0    0    0  0.00000000000E+00  0.00000000000E+00  0.45593999997E+02  0.45594000000E+02  0.51100000000E-03 0. -1.
         11   -1    0    0    0    0 -0.00000000000E+00 -0.00000000000E+00 -0.45593999997E+02  0.45594000000E+02  0.51100000000E-03 0.  1.
    9900012    2    1    2    0    0  0.32514130647E+00  0.91221927258E+00  0.67465907056E+00  0.90007734889E+02  0.89999996190E+02 0.  0.
        -12    1    1    2    0    0 -0.32514130647E+00 -0.91221927258E+00 -0.67465907056E+00  0.11802651109E+01  0.00000000000E+00 0.  1.
         11    1    3    3    0    0  0.85215996701E+01 -0.36180752322E+01  0.73352211319E+00  0.92868823765E+01  0.51100000000E-03 0. -1.
        -11    1    3    3    0    0  0.99548027689E+01 -0.15942610524E+02 -0.32952164945E+02  0.37935604692E+02  0.51100000000E-03 0.  1.
         12    1    3    3    0    0 -0.18151261133E+02  0.20472905029E+02  0.32893301903E+02  0.42785247821E+02  0.00000000000E+00 0. -1.
</event>
<event>
 7    1  0.2895479E-015  0.9000773E+02  0.7816164E-02  0.1186339E+00
        -11   -1    0    0    0    0  0.00000000000E+00  0.00000000000E+00  0.45593999997E+02  0.45594000000E+02  0.51100000000E-03 0. -1.
         11   -1    0    0    0    0 -0.00000000000E+00 -0.00000000000E+00 -0.45593999997E+02  0.45594000000E+02  0.51100000000E-03 0.  1.
    9900012    2    1    2    0    0 -0.54502232071E+00  0.66157839825E+00 -0.81135788723E+00  0.90007730146E+02  0.89999991384E+02 0.  0.
        -12    1    1    2    0    0  0.54502232071E+00 -0.66157839825E+00  0.81135788723E+00  0.11802698540E+01  0.00000000000E+00 0.  1.
         11    1    3    3    0    0  0.17846481629E+02  0.29818478306E+02  0.14133327466E+02  0.37515190264E+02  0.51100000000E-03 0. -1.
        -11    1    3    3    0    0 -0.89977650108E+01  0.76035881068E+01 -0.18684097571E+00  0.11781733196E+02  0.51100000000E-03 0.  1.
        -12    1    3    3    0    0 -0.93937389392E+01 -0.36760488015E+02 -0.14757844377E+02  0.40710806686E+02  0.00000000000E+00 0.  1.
</event>
<event>
 7    1  0.2895479E-015  0.9000765E+02  0.7816164E-02  0.1186339E+00
        -11   -1    0    0    0    0  0.00000000000E+00  0.00000000000E+00  0.45593999997E+02  0.45594000000E+02  0.51100000000E-03 0.  1.
         11   -1    0    0    0    0 -0.00000000000E+00 -0.00000000000E+00 -0.45593999997E+02  0.45594000000E+02  0.51100000000E-03 0. -1.
    9900012    2    1    2    0    0  0.10020534587E+01 -0.57555807296E+00 -0.24053769791E+00  0.90007645556E+02  0.89999905677E+02 0.  0.
        -12    1    1    2    0    0 -0.10020534587E+01  0.57555807296E+00  0.24053769791E+00  0.11803544440E+01  0.00000000000E+00 0.  1.
         11    1    3    3    0    0 -0.58400359024E+01  0.34264159660E+02  0.12422899752E+01  0.34780482187E+02  0.51100000000E-03 0. -1.
        -11    1    3    3    0    0 -0.72113118764E+00  0.89318803540E+01 -0.56794113021E+01  0.10609157829E+02  0.51100000000E-03 0.  1.
        -12    1    3    3    0    0  0.75632205487E+01 -0.43771598087E+02  0.41965836291E+01  0.44618005539E+02  0.00000000000E+00 0.  1.
</event>
<event>
 7    1  0.2895479E-015  0.9000754E+02  0.7816164E-02  0.1186339E+00
        -11   -1    0    0    0    0  0.00000000000E+00  0.00000000000E+00  0.45593999997E+02  0.45594000000E+02  0.51100000000E-03 0. -1.
         11   -1    0    0    0    0 -0.00000000000E+00 -0.00000000000E+00 -0.45593999997E+02  0.45594000000E+02  0.51100000000E-03 0.  1.
    9900012    2    1    2    0    0  0.78325392829E+00  0.80200981550E+00  0.36983217156E+00  0.90007541489E+02  0.89999800237E+02 0.  0.
        -12    1    1    2    0    0 -0.78325392829E+00 -0.80200981550E+00 -0.36983217156E+00  0.11804585107E+01  0.00000000000E+00 0.  1.
         11    1    3    3    0    0  0.20231693474E+01  0.79908977367E+01  0.38621481965E+01  0.91029582993E+01  0.51100000000E-03 0. -1.
        -11    1    3    3    0    0  0.25498519507E+02  0.25834247842E+02 -0.10619716644E+02  0.37820116876E+02  0.51100000000E-03 0.  1.
         12    1    3    3    0    0 -0.26738434926E+02 -0.33023135764E+02  0.71274006192E+01  0.43084466314E+02  0.00000000000E+00 0. -1.
</event>
<event>
 7    1  0.2895479E-015  0.9000771E+02  0.7816164E-02  0.1186339E+00
        -11   -1    0    0    0    0  0.00000000000E+00  0.00000000000E+00  0.45593999997E+02  0.45594000000E+02  0.51100000000E-03 0.  1.
         11   -1    0    0    0    0 -0.00000000000E+00 -0.00000000000E+00 -0.45593999997E+02  0.45594000000E+02  0.51100000000E-03 0. -1.
    9900012    2    1    2    0    0 -0.98122233730E+00  0.21618058558E+00 -0.61930943058E+00  0.90007713809E+02  0.89999974832E+02 0.  0.
        -12    1    1    2    0    0  0.98122233730E+00 -0.21618058558E+00  0.61930943058E+00  0.11802861905E+01  0.00000000000E+00 0.  1.
         11    1    3    3    0    0  0.77089134175E+01 -0.22363881733E+01  0.20905755817E+01  0.82945334205E+01  0.51100000000E-03 0. -1.
        -11    1    3    3    0    0  0.12308810119E+02 -0.26815317109E+02 -0.25575452182E+02  0.39047045891E+02  0.51100000000E-03 0.  1.
         12    1    3    3    0    0 -0.20998945873E+02  0.29267885868E+02  0.22865567170E+02  0.42666134498E+02  0.00000000000E+00 0. -1.
</event>
<event>
 7    1  0.2895479E-015  0.9000735E+02  0.7816164E-02  0.1186340E+00
        -11   -1    0    0    0    0  0.00000000000E+00  0.00000000000E+00  0.45593999997E+02  0.45594000000E+02  0.51100000000E-03 0.  1.
         11   -1    0    0    0    0 -0.00000000000E+00 -0.00000000000E+00 -0.45593999997E+02  0.45594000000E+02  0.51100000000E-03 0. -1.
    9900012    2    1    2    0    0  0.33171411317E+00  0.96165137976E+00 -0.59926584130E+00  0.90007353068E+02  0.89999609328E+02 0.  0.
        -12    1    1    2    0    0 -0.33171411317E+00 -0.96165137976E+00  0.59926584130E+00  0.11806469318E+01  0.00000000000E+00 0.  1.
         11    1    3    3    0    0 -0.38520528902E+00 -0.25823707408E+02  0.28279439877E+02  0.38298028244E+02  0.51100000000E-03 0. -1.
        -11    1    3    3    0    0 -0.56620095303E+01 -0.67191401463E+01 -0.60415482348E+01  0.10663278181E+02  0.51100000000E-03 0.  1.
        -12    1    3    3    0    0  0.63789289325E+01  0.33504498934E+02 -0.22837157483E+02  0.41046046643E+02  0.00000000000E+00 0.  1.
</event>
<event>
 7    1  0.2895479E-015  0.9000753E+02  0.7816164E-02  0.1186339E+00
        -11   -1    0    0    0    0  0.00000000000E+00  0.00000000000E+00  0.45593999997E+02  0.45594000000E+02  0.51100000000E-03 0.  1.
         11   -1    0    0    0    0 -0.00000000000E+00 -0.00000000000E+00 -0.45593999997E+02  0.45594000000E+02  0.51100000000E-03 0. -1.
    9900012    2    1    2    0    0 -0.10172010377E+00 -0.11546143018E+01  0.22365874093E+00  0.90007532128E+02  0.89999790751E+02 0.  0.
        -12    1    1    2    0    0  0.10172010377E+00  0.11546143018E+01 -0.22365874093E+00  0.11804678724E+01  0.00000000000E+00 0.  1.
         11    1    3    3    0    0  0.98769545888E+00 -0.86684401658E+01  0.33248751142E+02  0.34374363266E+02  0.51100000000E-03 0. -1.
        -11    1    3    3    0    0  0.39999059468E+01  0.42147858114E+01  0.10332036523E+02  0.11853887379E+02  0.51100000000E-03 0.  1.
         12    1    3    3    0    0 -0.50893215095E+01  0.32990400526E+01 -0.43357128923E+02  0.43779281483E+02  0.00000000000E+00 0. -1.
</event>
<event>
 7    1  0.2895479E-015  0.9000801E+02  0.7816164E-02  0.1186339E+00
        -11   -1    0    0    0    0  0.00000000000E+00  0.00000000000E+00  0.45593999997E+02  0.45594000000E+02  0.51100000000E-03 0.  1.
         11   -1    0    0    0    0 -0.00000000000E+00 -0.00000000000E+00 -0.45593999997E+02  0.45594000000E+02  0.51100000000E-03 0. -1.
    9900012    2    1    2    0    0 -0.95939922873E+00  0.66159904019E+00 -0.18498444749E+00  0.90008008722E+02  0.90000273637E+02 0.  0.
        -12    1    1    2    0    0  0.95939922873E+00 -0.66159904019E+00  0.18498444749E+00  0.11799912779E+01  0.00000000000E+00 0.  1.
         11    1    3    3    0    0 -0.15973497184E+01  0.93423945520E+01  0.25451067872E+01  0.98137368473E+01  0.51100000000E-03 0. -1.
        -11    1    3    3    0    0  0.18237316704E+02  0.22076797999E+02  0.22729632768E+02  0.36559826811E+02  0.51100000000E-03 0.  1.
         12    1    3    3    0    0 -0.17599366215E+02 -0.30757593511E+02 -0.25459724003E+02  0.43634445064E+02  0.00000000000E+00 0. -1.
</event>
<event>
 7    1  0.2895479E-015  0.9000777E+02  0.7816164E-02  0.1186339E+00
        -11   -1    0    0    0    0  0.00000000000E+00  0.00000000000E+00  0.45593999997E+02  0.45594000000E+02  0.51100000000E-03 0.  1.
         11   -1    0    0    0    0 -0.00000000000E+00 -0.00000000000E+00 -0.45593999997E+02  0.45594000000E+02  0.51100000000E-03 0. -1.
    9900012    2    1    2    0    0  0.97066359841E+00  0.14192771783E+00 -0.65621165364E+00  0.90007769077E+02  0.90000030828E+02 0.  0.
        -12    1    1    2    0    0 -0.97066359841E+00 -0.14192771783E+00  0.65621165364E+00  0.11802309235E+01  0.00000000000E+00 0.  1.
         11    1    3    3    0    0  0.79709593406E+01  0.39066351375E+02 -0.16409599355E+02  0.43116017370E+02  0.51100000000E-03 0. -1.
        -11    1    3    3    0    0 -0.82665314426E+01 -0.42029723661E+01  0.17817233981E+01  0.94432545941E+01  0.51100000000E-03 0.  1.
        -12    1    3    3    0    0  0.12662357004E+01 -0.34721451291E+02  0.13971664303E+02  0.37448497113E+02  0.00000000000E+00 0.  1.
</event>
<event>
 7    1  0.2895479E-015  0.9000773E+02  0.7816164E-02  0.1186339E+00
        -11   -1    0    0    0    0  0.00000000000E+00  0.00000000000E+00  0.45593999997E+02  0.45594000000E+02  0.51100000000E-03 0.  1.
         11   -1    0    0    0    0 -0.00000000000E+00 -0.00000000000E+00 -0.45593999997E+02  0.45594000000E+02  0.51100000000E-03 0. -1.
    9900012    2    1    2    0    0  0.58409533913E+00 -0.99292671643E+00 -0.25683665584E+00  0.90007730583E+02  0.89999991826E+02 0.  0.
        -12    1    1    2    0    0 -0.58409533913E+00  0.99292671643E+00  0.25683665584E+00  0.11802694172E+01  0.00000000000E+00 0.  1.
         11    1    3    3    0    0 -0.24474234277E+01 -0.77289599522E+01  0.43984136778E+01  0.92234888475E+01  0.51100000000E-03 0. -1.
        -11    1    3    3    0    0 -0.51926182712E+01  0.34380369005E+02  0.22300272706E+02  0.41307084385E+02  0.51100000000E-03 0.  1.
         12    1    3    3    0    0  0.82241370380E+01 -0.27644335769E+02 -0.26955523039E+02  0.39477157350E+02  0.00000000000E+00 0. -1.
</event>
<event>
 7    1  0.2895479E-015  0.9000748E+02  0.7816164E-02  0.1186340E+00
        -11   -1    0    0    0    0  0.00000000000E+00  0.00000000000E+00  0.45593999997E+02  0.45594000000E+02  0.51100000000E-03 0.  1.
         11   -1    0    0    0    0 -0.00000000000E+00 -0.00000000000E+00 -0.45593999997E+02  0.45594000000E+02  0.51100000000E-03 0. -1.
    9900012    2    1    2    0    0  0.11486312250E+01  0.27013988375E+00  0.35932088264E-01  0.90007483010E+02  0.89999740986E+02 0.  0.
        -12    1    1    2    0    0 -0.11486312250E+01 -0.27013988375E+00 -0.35932088264E-01  0.11805169897E+01  0.00000000000E+00 0.  1.
         11    1    3    3    0    0 -0.16891343704E+01 -0.68194050424E+01  0.53177401502E+01  0.88111191468E+01  0.51100000000E-03 0. -1.
        -11    1    3    3    0    0 -0.26357988096E+02 -0.24972336125E+02  0.49428782368E+01  0.36644142145E+02  0.51100000000E-03 0.  1.
         12    1    3    3    0    0  0.29195753691E+02  0.32061881051E+02 -0.10224686299E+02  0.44552221719E+02  0.00000000000E+00 0. -1.
</event>
<event>
 7    1  0.2895479E-015  0.9000765E+02  0.7816164E-02  0.1186339E+00
        -11   -1    0    0    0    0  0.00000000000E+00  0.00000000000E+00  0.45593999997E+02  0.45594000000E+02  0.51100000000E-03 0.  1.
         11   -1    0    0    0    0 -0.00000000000E+00 -0.00000000000E+00 -0.45593999997E+02  0.45594000000E+02  0.51100000000E-03 0. -1.
    9900012    2    1    2    0    0 -0.11458565025E+01 -0.19378065919E+00 -0.20661140370E+00  0.90007649908E+02  0.89999910086E+02 0.  0.
        -12    1    1    2    0    0  0.11458565025E+01  0.19378065919E+00  0.20661140370E+00  0.11803500923E+01  0.00000000000E+00 0.  1.
         11    1    3    3    0    0  0.38493095840E+02  0.76112029613E+00 -0.79208117828E+01  0.39306958557E+02  0.51100000000E-03 0. -1.
        -11    1    3    3    0    0 -0.13341436315E+02 -0.11119446735E+02  0.13404114837E+02  0.21938694434E+02  0.51100000000E-03 0.  1.
        -12    1    3    3    0    0 -0.26297516027E+02  0.10164545780E+02 -0.56899144581E+01  0.28761996917E+02  0.00000000000E+00 0.  1.
</event>
<event>
 7    1  0.2895479E-015  0.9000776E+02  0.7816164E-02  0.1186339E+00
        -11   -1    0    0    0    0  0.00000000000E+00  0.00000000000E+00  0.45593999997E+02  0.45594000000E+02  0.51100000000E-03 0.  1.
         11   -1    0    0    0    0 -0.00000000000E+00 -0.00000000000E+00 -0.45593999997E+02  0.45594000000E+02  0.51100000000E-03 0. -1.
    9900012    2    1    2    0    0  0.10618719981E+01  0.16058820326E+00 -0.48948554424E+00  0.90007764087E+02  0.90000025773E+02 0.  0.
        -12    1    1    2    0    0 -0.10618719981E+01 -0.16058820326E+00  0.48948554424E+00  0.11802359126E+01  0.00000000000E+00 0.  1.
         11    1    3    3    0    0 -0.23494110117E+02 -0.17131816965E+02 -0.23237876380E+02  0.37221919101E+02  0.51100000000E-03 0. -1.
        -11    1    3    3    0    0 -0.73737650011E+01  0.70802759389E+01 -0.28434546365E+01  0.10610747014E+02  0.51100000000E-03 0.  1.
        -12    1    3    3    0    0  0.31929747116E+02  0.10212129229E+02  0.25591845472E+02  0.42175097972E+02  0.00000000000E+00 0.  1.
</event>
<event>
 7    1  0.2895479E-015  0.9000759E+02  0.7816164E-02  0.1186339E+00
        -11   -1    0    0    0    0  0.00000000000E+00  0.00000000000E+00  0.45593999997E+02  0.45594000000E+02  0.51100000000E-03 0.  1.
         11   -1    0    0    0    0 -0.00000000000E+00 -0.00000000000E+00 -0.45593999997E+02  0.45594000000E+02  0.51100000000E-03 0. -1.
    9900012    2    1    2    0    0 -0.18144778254E+00 -0.85704416669E+00 -0.79115587866E+00  0.90007586672E+02  0.89999846016E+02 0.  0.
        -12    1    1    2    0    0  0.18144778254E+00  0.85704416669E+00  0.79115587866E+00  0.11804133284E+01  0.00000000000E+00 0.  1.
         11    1    3    3    0    0 -0.18193188680E+01  0.23001043057E+02 -0.29957903816E+02  0.37813144595E+02  0.51100000000E-03 0. -1.
        -11    1    3    3    0    0 -0.57180784238E+01 -0.66825409307E+00 -0.67135102110E+01  0.88438794659E+01  0.51100000000E-03 0.  1.
        -12    1    3    3    0    0  0.73559495093E+01 -0.23189833131E+02  0.35880258149E+02  0.43350562610E+02  0.00000000000E+00 0.  1.
</event>
<event>
 7    1  0.3308811E-015  0.9000773E+02  0.7816164E-02  0.1186339E+00
        -11   -1    0    0    0    0  0.00000000000E+00  0.00000000000E+00  0.45593999997E+02  0.45594000000E+02  0.51100000000E-03 0.  1.
         11   -1    0    0    0    0 -0.00000000000E+00 -0.00000000000E+00 -0.45593999997E+02  0.45594000000E+02  0.51100000000E-03 0. -1.
    9900012    2    1    2    0    0 -0.41228806487E+00 -0.10344135814E+01 -0.39121600387E+00  0.90007727630E+02  0.89999988835E+02 0.  0.
        -12    1    1    2    0    0  0.41228806487E+00  0.10344135814E+01  0.39121600387E+00  0.11802723701E+01  0.00000000000E+00 0.  1.
         11    1    3    3    0    0  0.62058319638E+00  0.18992662860E+01  0.92481715438E+01  0.94615544755E+01  0.51100000000E-03 0. -1.
        -11    1    3    3    0    0 -0.57520161306E+01 -0.39681782266E+02  0.55978719422E+01  0.40485376421E+02  0.51100000000E-03 0.  1.
         12    1    3    3    0    0  0.47191448693E+01  0.36748102399E+02 -0.15237259490E+02  0.40060796734E+02  0.00000000000E+00 0. -1.
</event>
<event>
 7    1  0.2895479E-015  0.9000775E+02  0.7816164E-02  0.1186339E+00
        -11   -1    0    0    0    0  0.00000000000E+00  0.00000000000E+00  0.45593999997E+02  0.45594000000E+02  0.51100000000E-03 0.  1.
         11   -1    0    0    0    0 -0.00000000000E+00 -0.00000000000E+00 -0.45593999997E+02  0.45594000000E+02  0.51100000000E-03 0. -1.
    9900012    2    1    2    0    0  0.69289891651E-01 -0.46408728712E+00 -0.10829602856E+01  0.90007753806E+02  0.90000015356E+02 0.  0.
        -12    1    1    2    0    0 -0.69289891651E-01  0.46408728712E+00  0.10829602856E+01  0.11802461943E+01  0.00000000000E+00 0.  1.
         11    1    3    3    0    0  0.80781353273E+01 -0.26897923019E+01  0.51786387612E+01  0.99654178374E+01  0.51100000000E-03 0. -1.
        -11    1    3    3    0    0 -0.35732015359E+02  0.16406661426E+02  0.15274180086E+02  0.42181228507E+02  0.51100000000E-03 0.  1.
         12    1    3    3    0    0  0.27723169924E+02 -0.14180956411E+02 -0.21535779133E+02  0.37861107462E+02  0.00000000000E+00 0. -1.
</event>
<event>
 7    1  0.2895479E-015  0.9000778E+02  0.7816164E-02  0.1186339E+00
        -11   -1    0    0    0    0  0.00000000000E+00  0.00000000000E+00  0.45593999997E+02  0.45594000000E+02  0.51100000000E-03 0.  1.
         11   -1    0    0    0    0 -0.00000000000E+00 -0.00000000000E+00 -0.45593999997E+02  0.45594000000E+02  0.51100000000E-03 0. -1.
    9900012    2    1    2    0    0 -0.86655906007E+00  0.77757956540E+00  0.19331815759E+00  0.90007776930E+02  0.90000038785E+02 0.  0.
        -12    1    1    2    0    0  0.86655906007E+00 -0.77757956540E+00 -0.19331815759E+00  0.11802230701E+01  0.00000000000E+00 0.  1.
         11    1    3    3    0    0  0.27791427303E-01  0.13836199672E+02 -0.32885925099E+01  0.14221674820E+02  0.51100000000E-03 0. -1.
        -11    1    3    3    0    0  0.35529034094E+02 -0.22542010256E-01 -0.58073242104E+01  0.36000524809E+02  0.51100000000E-03 0.  1.
         12    1    3    3    0    0 -0.36423384581E+02 -0.13036078097E+02  0.92892348779E+01  0.39785577300E+02  0.00000000000E+00 0. -1.
</event>
<event>
 7    1  0.2895479E-015  0.9000776E+02  0.7816164E-02  0.1186339E+00
        -11   -1    0    0    0    0  0.00000000000E+00  0.00000000000E+00  0.45593999997E+02  0.45594000000E+02  0.51100000000E-03 0. -1.
         11   -1    0    0    0    0 -0.00000000000E+00 -0.00000000000E+00 -0.45593999997E+02  0.45594000000E+02  0.51100000000E-03 0.  1.
    9900012    2    1    2    0    0 -0.83040927134E+00 -0.63421281632E-01  0.83627515408E+00  0.90007763604E+02  0.90000025284E+02 0.  0.
        -12    1    1    2    0    0  0.83040927134E+00  0.63421281632E-01 -0.83627515408E+00  0.11802363959E+01  0.00000000000E+00 0.  1.
         11    1    3    3    0    0 -0.26239076088E+01  0.37064966675E+01 -0.10485066899E+02  0.11426269594E+02  0.51100000000E-03 0. -1.
        -11    1    3    3    0    0 -0.28123069070E+00 -0.22000280856E+02 -0.27751433695E+02  0.35415159478E+02  0.51100000000E-03 0.  1.
         12    1    3    3    0    0  0.20747290282E+01  0.18230362907E+02  0.39072775749E+02  0.43166334532E+02  0.00000000000E+00 0. -1.
</event>
<event>
 7    1  0.2895479E-015  0.9000753E+02  0.7816164E-02  0.1186339E+00
        -11   -1    0    0    0    0  0.00000000000E+00  0.00000000000E+00  0.45593999997E+02  0.45594000000E+02  0.51100000000E-03 0.  1.
         11   -1    0    0    0    0 -0.00000000000E+00 -0.00000000000E+00 -0.45593999997E+02  0.45594000000E+02  0.51100000000E-03 0. -1.
    9900012    2    1    2    0    0 -0.60097972079E+00 -0.52408710258E+00 -0.87043964184E+00  0.90007530142E+02  0.89999788739E+02 0.  0.
        -12    1    1    2    0    0  0.60097972079E+00  0.52408710258E+00  0.87043964184E+00  0.11804698581E+01  0.00000000000E+00 0.  1.
         11    1    3    3    0    0 -0.34269484561E+01  0.23112502946E+02  0.21998504695E+01  0.23468513171E+02  0.51100000000E-03 0. -1.
        -11    1    3    3    0    0 -0.26949519234E+02 -0.86225584882E-01 -0.83428934792E+01  0.28211485137E+02  0.51100000000E-03 0.  1.
        -12    1    3    3    0    0  0.29775487969E+02 -0.23550364463E+02  0.52726033679E+01  0.38327531833E+02  0.00000000000E+00 0.  1.
</event>
<event>
 7    1  0.2895479E-015  0.9000835E+02  0.7816164E-02  0.1186338E+00
        -11   -1    0    0    0    0  0.00000000000E+00  0.00000000000E+00  0.45593999997E+02  0.45594000000E+02  0.51100000000E-03 0. -1.
         11   -1    0    0    0    0 -0.00000000000E+00 -0.00000000000E+00 -0.45593999997E+02  0.45594000000E+02  0.51100000000E-03 0.  1.
    9900012    2    1    2    0    0  0.81536295004E+00 -0.48987829454E+00  0.69768538960E+00  0.90008354974E+02  0.90000624458E+02 0.  0.
        -12    1    1    2    0    0 -0.81536295004E+00  0.48987829454E+00 -0.69768538960E+00  0.11796450257E+01  0.00000000000E+00 0.  1.
         11    1    3    3    0    0  0.27123971135E+01 -0.73280783450E+01  0.43933066457E+01  0.89643166988E+01  0.51100000000E-03 0. -1.
        -11    1    3    3    0    0 -0.85661037131E+01  0.37060295757E+02  0.19140629246E+02  0.42581772422E+02  0.51100000000E-03 0.  1.
         12    1    3    3    0    0  0.66690695496E+01 -0.30222095707E+02 -0.22836250502E+02  0.38462265853E+02  0.00000000000E+00 0. -1.
</event>
<event>
 7    1  0.2895479E-015  0.9000770E+02  0.7816164E-02  0.1186339E+00
        -11   -1    0    0    0    0  0.00000000000E+00  0.00000000000E+00  0.45593999997E+02  0.45594000000E+02  0.51100000000E-03 0.  1.
         11   -1    0    0    0    0 -0.00000000000E+00 -0.00000000000E+00 -0.45593999997E+02  0.45594000000E+02  0.51100000000E-03 0. -1.
    9900012    2    1    2    0    0  0.11739074476E+01 -0.96300143631E-01  0.75950984374E-01  0.90007703018E+02  0.89999963898E+02 0.  0.
        -12    1    1    2    0    0 -0.11739074476E+01  0.96300143631E-01 -0.75950984374E-01  0.11802969818E+01  0.00000000000E+00 0.  1.
         11    1    3    3    0    0 -0.31318358334E+01  0.34280765025E+01  0.96220818447E+00  0.47419351583E+01  0.51100000000E-03 0. -1.
        -11    1    3    3    0    0 -0.33534206646E+02 -0.84852014329E+01  0.21781647406E+02  0.40877644535E+02  0.51100000000E-03 0.  1.
         12    1    3    3    0    0  0.37839949927E+02  0.49608247868E+01 -0.22667904606E+02  0.44388123325E+02  0.00000000000E+00 0. -1.
</event>
<event>
 7    1  0.5087014E-015  0.9000830E+02  0.7816164E-02  0.1186338E+00
        -11   -1    0    0    0    0  0.00000000000E+00  0.00000000000E+00  0.45593999997E+02  0.45594000000E+02  0.51100000000E-03 0. -1.
         11   -1    0    0    0    0 -0.00000000000E+00 -0.00000000000E+00 -0.45593999997E+02  0.45594000000E+02  0.51100000000E-03 0.  1.
    9900012    2    1    2    0    0 -0.62265599945E+00  0.93732350686E-01  0.99759977431E+00  0.90008300226E+02  0.90000568987E+02 0.  0.
        -12    1    1    2    0    0  0.62265599945E+00 -0.93732350686E-01 -0.99759977431E+00  0.11796997741E+01  0.00000000000E+00 0.  1.
         11    1    3    3    0    0 -0.17223858814E+01 -0.82928896326E+01 -0.49049319541E+01  0.97875936429E+01  0.51100000000E-03 0. -1.
        -11    1    3    3    0    0 -0.53062766874E+01  0.25248791572E+02 -0.30286092277E+02  0.39785744103E+02  0.51100000000E-03 0.  1.
         12    1    3    3    0    0  0.64060065693E+01 -0.16862169588E+02  0.36188624005E+02  0.40434962481E+02  0.00000000000E+00 0. -1.
</event>
<event>
 7    1  0.2895479E-015  0.9000771E+02  0.7816164E-02  0.1186339E+00
        -11   -1    0    0    0    0  0.00000000000E+00  0.00000000000E+00  0.45593999997E+02  0.45594000000E+02  0.51100000000E-03 0.  1.
         11   -1    0    0    0    0 -0.00000000000E+00 -0.00000000000E+00 -0.45593999997E+02  0.45594000000E+02  0.51100000000E-03 0. -1.
    9900012    2    1    2    0    0  0.10499168342E+01  0.45027703841E+00 -0.29664810588E+00  0.90007714073E+02  0.89999975099E+02 0.  0.
        -12    1    1    2    0    0 -0.10499168342E+01 -0.45027703841E+00  0.29664810588E+00  0.11802859267E+01  0.00000000000E+00 0.  1.
         11    1    3    3    0    0 -0.35361398634E+02 -0.13930769266E+02 -0.12373023217E+01  0.38026645434E+02  0.51100000000E-03 0. -1.
        -11    1    3    3    0    0  0.11821515548E+01 -0.93955812707E+01  0.54976854632E-01  0.94698179723E+01  0.51100000000E-03 0.  1.
        -12    1    3    3    0    0  0.35229163913E+02  0.23776627575E+02  0.88567736118E+00  0.42511250667E+02  0.00000000000E+00 0.  1.
</event>
<event>
 7    1  0.2895479E-015  0.9000776E+02  0.7816164E-02  0.1186339E+00
        -11   -1    0    0    0    0  0.00000000000E+00  0.00000000000E+00  0.45593999997E+02  0.45594000000E+02  0.51100000000E-03 0.  1.
         11   -1    0    0    0    0 -0.00000000000E+00 -0.00000000000E+00 -0.45593999997E+02  0.45594000000E+02  0.51100000000E-03 0. -1.
    9900012    2    1    2    0    0 -0.14809391733E+00  0.46474776164E+00 -0.10747330000E+01  0.90007757096E+02  0.90000018690E+02 0.  0.
        -12    1    1    2    0    0  0.14809391733E+00 -0.46474776164E+00  0.10747330000E+01  0.11802429037E+01  0.00000000000E+00 0.  1.
         11    1    3    3    0    0  0.23480138654E+02 -0.21585784620E+02  0.78511472117E+01  0.32846666828E+02  0.51100000000E-03 0. -1.
        -11    1    3    3    0    0  0.89347659353E+00 -0.88460245660E+01  0.10025143662E+02  0.13399774504E+02  0.51100000000E-03 0.  1.
        -12    1    3    3    0    0 -0.24521709165E+02  0.30896556948E+02 -0.18951023874E+02  0.43761315765E+02  0.00000000000E+00 0.  1.
</event>
<event>
 7    1  0.2895479E-015  0.9000775E+02  0.7816164E-02  0.1186339E+00
        -11   -1    0    0    0    0  0.00000000000E+00  0.00000000000E+00  0.45593999997E+02  0.45594000000E+02  0.51100000000E-03 0.  1.
         11   -1    0    0    0    0 -0.00000000000E+00 -0.00000000000E+00 -0.45593999997E+02  0.45594000000E+02  0.51100000000E-03 0. -1.
    9900012    2    1    2    0    0 -0.56155208457E+00  0.10378787005E+01  0.21190228631E-01  0.90007753430E+02  0.90000014975E+02 0.  0.
        -12    1    1    2    0    0  0.56155208457E+00 -0.10378787005E+01 -0.21190228631E-01  0.11802465702E+01  0.00000000000E+00 0.  1.
         11    1    3    3    0    0 -0.18885045022E+01 -0.87210176254E+01 -0.20475668399E+01  0.91550602347E+01  0.51100000000E-03 0. -1.
        -11    1    3    3    0    0  0.15804454260E+02 -0.84571390249E+01  0.35705423383E+02  0.39952236911E+02  0.51100000000E-03 0.  1.
         12    1    3    3    0    0 -0.14477501842E+02  0.18216035351E+02 -0.33636666315E+02  0.40900456284E+02  0.00000000000E+00 0. -1.
</event>
<event>
 7    1  0.2895479E-015  0.9000779E+02  0.7816164E-02  0.1186339E+00
        -11   -1    0    0    0    0  0.00000000000E+00  0.00000000000E+00  0.45593999997E+02  0.45594000000E+02  0.51100000000E-03 0. -1.
         11   -1    0    0    0    0 -0.00000000000E+00 -0.00000000000E+00 -0.45593999997E+02  0.45594000000E+02  0.51100000000E-03 0.  1.
    9900012    2    1    2    0    0 -0.20530892653E+00  0.99046571094E+00  0.60804129588E+00  0.90007793112E+02  0.90000055182E+02 0.  0.
        -12    1    1    2    0    0  0.20530892653E+00 -0.99046571094E+00 -0.60804129588E+00  0.11802068875E+01  0.00000000000E+00 0.  1.
         11    1    3    3    0    0  0.86504616196E+01 -0.17710230369E+00 -0.72576470344E+00  0.86826600834E+01  0.51100000000E-03 0. -1.
        -11    1    3    3    0    0 -0.12643218306E+01  0.40826722184E+02 -0.12281582434E+01  0.40864754091E+02  0.51100000000E-03 0.  1.
         12    1    3    3    0    0 -0.75914487155E+01 -0.39659154169E+02  0.25619642428E+01  0.40460378938E+02  0.00000000000E+00 0. -1.
</event>
<event>
 7    1  0.3818006E-015  0.9000776E+02  0.7816164E-02  0.1186339E+00
        -11   -1    0    0    0    0  0.00000000000E+00  0.00000000000E+00  0.45593999997E+02  0.45594000000E+02  0.51100000000E-03 0. -1.
         11   -1    0    0    0    0 -0.00000000000E+00 -0.00000000000E+00 -0.45593999997E+02  0.45594000000E+02  0.51100000000E-03 0.  1.
    9900012    2    1    2    0    0 -0.76201754711E+00  0.37253503362E+00  0.82067407463E+00  0.90007763147E+02  0.90000024820E+02 0.  0.
        -12    1    1    2    0    0  0.76201754711E+00 -0.37253503362E+00 -0.82067407463E+00  0.11802368534E+01  0.00000000000E+00 0.  1.
         11    1    3    3    0    0 -0.49698719419E+01  0.85106037954E+01  0.19710555670E+01  0.10050625075E+02  0.51100000000E-03 0. -1.
        -11    1    3    3    0    0  0.14222705895E+02  0.16517605249E+02 -0.32313163250E+02  0.38977649565E+02  0.51100000000E-03 0.  1.
         12    1    3    3    0    0 -0.10014851500E+02 -0.24655674010E+02  0.31162781757E+02  0.40979488507E+02  0.00000000000E+00 0. -1.
</event>
<event>
 7    1  0.2895479E-015  0.9000776E+02  0.7816164E-02  0.1186339E+00
        -11   -1    0    0    0    0  0.00000000000E+00  0.00000000000E+00  0.45593999997E+02  0.45594000000E+02  0.51100000000E-03 0. -1.
         11   -1    0    0    0    0 -0.00000000000E+00 -0.00000000000E+00 -0.45593999997E+02  0.45594000000E+02  0.51100000000E-03 0.  1.
    9900012    2    1    2    0    0 -0.23749476165E+00  0.11533206224E+01 -0.80105114585E-01  0.90007758902E+02  0.90000020520E+02 0.  0.
        -12    1    1    2    0    0  0.23749476165E+00 -0.11533206224E+01  0.80105114585E-01  0.11802410979E+01  0.00000000000E+00 0.  1.
         11    1    3    3    0    0 -0.91774394869E+01  0.25837639360E+01  0.22284264161E+01  0.97911754231E+01  0.51100000000E-03 0. -1.
        -11    1    3    3    0    0 -0.45907669347E+01 -0.23520914413E+02 -0.32534895262E+02  0.40408266059E+02  0.51100000000E-03 0.  1.
         12    1    3    3    0    0  0.13530711660E+02  0.22090471100E+02  0.30226363731E+02  0.39808317420E+02  0.00000000000E+00 0. -1.
</event>
<event>
 7    1  0.2895479E-015  0.9000745E+02  0.7816164E-02  0.1186340E+00
        -11   -1    0    0    0    0  0.00000000000E+00  0.00000000000E+00  0.45593999997E+02  0.45594000000E+02  0.51100000000E-03 0.  1.
         11   -1    0    0    0    0 -0.00000000000E+00 -0.00000000000E+00 -0.45593999997E+02  0.45594000000E+02  0.51100000000E-03 0. -1.
    9900012    2    1    2    0    0 -0.53176134207E+00  0.22000439141E+00 -0.10307930778E+01  0.90007446559E+02  0.89999704053E+02 0.  0.
        -12    1    1    2    0    0  0.53176134207E+00 -0.22000439141E+00  0.10307930778E+01  0.11805534407E+01  0.00000000000E+00 0.  1.
         11    1    3    3    0    0  0.22828885238E+01 -0.37189614279E+01  0.76410475896E+01  0.87993103503E+01  0.51100000000E-03 0. -1.
        -11    1    3    3    0    0 -0.31235727077E+02 -0.18666899898E+02  0.13323926478E+02  0.38751139530E+02  0.51100000000E-03 0.  1.
         12    1    3    3    0    0  0.28421077211E+02  0.22605865717E+02 -0.21995767145E+02  0.42456996679E+02  0.00000000000E+00 0. -1.
</event>
<event>
 7    1  0.2895479E-015  0.9000772E+02  0.7816164E-02  0.1186339E+00
        -11   -1    0    0    0    0  0.00000000000E+00  0.00000000000E+00  0.45593999997E+02  0.45594000000E+02  0.51100000000E-03 0.  1.
         11   -1    0    0    0    0 -0.00000000000E+00 -0.00000000000E+00 -0.45593999997E+02  0.45594000000E+02  0.51100000000E-03 0. -1.
    9900012    2    1    2    0    0  0.32041532311E-01 -0.74768580407E+00 -0.91268499973E+00  0.90007722647E+02  0.89999983786E+02 0.  0.
        -12    1    1    2    0    0 -0.32041532311E-01  0.74768580407E+00  0.91268499973E+00  0.11802773531E+01  0.00000000000E+00 0.  1.
         11    1    3    3    0    0  0.12919656883E+02 -0.10578623641E+02 -0.38813152637E+02  0.42252640509E+02  0.51100000000E-03 0. -1.
        -11    1    3    3    0    0 -0.15445658721E+01  0.99471286155E+01  0.22110757697E+01  0.10306304272E+02  0.51100000000E-03 0.  1.
        -12    1    3    3    0    0 -0.11343049478E+02 -0.11619077853E+00  0.35689391868E+02  0.37448777866E+02  0.00000000000E+00 0.  1.
</event>
<event>
 7    1  0.2895479E-015  0.9000895E+02  0.7816164E-02  0.1186337E+00
        -11   -1    0    0    0    0  0.00000000000E+00  0.00000000000E+00  0.45593999997E+02  0.45594000000E+02  0.51100000000E-03 0. -1.
         11   -1    0    0    0    0 -0.00000000000E+00 -0.00000000000E+00 -0.45593999997E+02  0.45594000000E+02  0.51100000000E-03 0.  1.
    9900012    2    1    2    0    0  0.22757823130E+00 -0.11561003099E+01  0.42284135235E-01  0.90008954740E+02  0.90001232134E+02 0.  0.
        -12    1    1    2    0    0 -0.22757823130E+00  0.11561003099E+01 -0.42284135235E-01  0.11790452603E+01  0.00000000000E+00 0.  1.
         11    1    3    3    0    0 -0.25239985125E+02 -0.28431160509E+02 -0.17562659054E+02  0.41878810039E+02  0.51100000000E-03 0. -1.
        -11    1    3    3    0    0  0.90612360319E+01  0.67939365865E+00 -0.42153898098E+01  0.10016840104E+02  0.51100000000E-03 0.  1.
        -12    1    3    3    0    0  0.16406327325E+02  0.26595666541E+02  0.21820332999E+02  0.38113304596E+02  0.00000000000E+00 0.  1.
</event>
<event>
 7    1  0.3612545E-015  0.9000763E+02  0.7816164E-02  0.1186339E+00
        -11   -1    0    0    0    0  0.00000000000E+00  0.00000000000E+00  0.45593999997E+02  0.45594000000E+02  0.51100000000E-03 0. -1.
         11   -1    0    0    0    0 -0.00000000000E+00 -0.00000000000E+00 -0.45593999997E+02  0.45594000000E+02  0.51100000000E-03 0.  1.
    9900012    2    1    2    0    0  0.41889980252E+00 -0.93343117021E+00  0.58864301114E+00  0.90007630825E+02  0.89999890752E+02 0.  0.
        -12    1    1    2    0    0 -0.41889980252E+00  0.93343117021E+00 -0.58864301114E+00  0.11803691747E+01  0.00000000000E+00 0.  1.
         11    1    3    3    0    0  0.74136710256E+01 -0.25740618934E+00 -0.54241034776E+01  0.91896504187E+01  0.51100000000E-03 0. -1.
        -11    1    3    3    0    0 -0.21691230287E+02  0.31889078927E+02 -0.12547491979E+02  0.40556903005E+02  0.51100000000E-03 0.  1.
         12    1    3    3    0    0  0.14696459064E+02 -0.32565103908E+02  0.18560238467E+02  0.40261077401E+02  0.00000000000E+00 0. -1.
</event>
<event>
 7    1  0.3657343E-015  0.9000764E+02  0.7816164E-02  0.1186339E+00
        -11   -1    0    0    0    0  0.00000000000E+00  0.00000000000E+00  0.45593999997E+02  0.45594000000E+02  0.51100000000E-03 0. -1.
         11   -1    0    0    0    0 -0.00000000000E+00 -0.00000000000E+00 -0.45593999997E+02  0.45594000000E+02  0.51100000000E-03 0.  1.
    9900012    2    1    2    0    0 -0.26960802294E-01  0.30726128575E+00  0.11393452535E+01  0.90007642432E+02  0.89999902512E+02 0.  0.
        -12    1    1    2    0    0  0.26960802294E-01 -0.30726128575E+00 -0.11393452535E+01  0.11803575684E+01  0.00000000000E+00 0.  1.
         11    1    3    3    0    0  0.73881507766E+01 -0.25903036449E+01  0.56745579417E+01  0.96692839945E+01  0.51100000000E-03 0. -1.
        -11    1    3    3    0    0  0.58798279088E+01 -0.34200450527E+02 -0.17483087608E+02  0.38857451603E+02  0.51100000000E-03 0.  1.
         12    1    3    3    0    0 -0.13294939488E+02  0.37098015458E+02  0.12947874920E+02  0.41480906835E+02  0.00000000000E+00 0. -1.
</event>
<event>
 7    1  0.2895479E-015  0.9000769E+02  0.7816164E-02  0.1186339E+00
        -11   -1    0    0    0    0  0.00000000000E+00  0.00000000000E+00  0.45593999997E+02  0.45594000000E+02  0.51100000000E-03 0.  1.
         11   -1    0    0    0    0 -0.00000000000E+00 -0.00000000000E+00 -0.45593999997E+02  0.45594000000E+02  0.51100000000E-03 0. -1.
    9900012    2    1    2    0    0 -0.17345356035E+00 -0.72747609276E+00 -0.91314526134E+00  0.90007685690E+02  0.89999946341E+02 0.  0.
        -12    1    1    2    0    0  0.17345356035E+00  0.72747609276E+00  0.91314526134E+00  0.11803143104E+01  0.00000000000E+00 0.  1.
         11    1    3    3    0    0 -0.15715036710E+02  0.16261370750E+02 -0.34523006768E+02  0.41270238115E+02  0.51100000000E-03 0. -1.
        -11    1    3    3    0    0  0.15093359205E+01  0.70503080286E+01  0.94022660100E+01  0.11848524997E+02  0.51100000000E-03 0.  1.
        -12    1    3    3    0    0  0.14032247230E+02 -0.24039154871E+02  0.24207595497E+02  0.36888922578E+02  0.00000000000E+00 0.  1.
</event>
<event>
 7    1  0.2895479E-015  0.9000770E+02  0.7816164E-02  0.1186339E+00
        -11   -1    0    0    0    0  0.00000000000E+00  0.00000000000E+00  0.45593999997E+02  0.45594000000E+02  0.51100000000E-03 0.  1.
         11   -1    0    0    0    0 -0.00000000000E+00 -0.00000000000E+00 -0.45593999997E+02  0.45594000000E+02  0.51100000000E-03 0. -1.
    9900012    2    1    2    0    0  0.48661566560E+00  0.86993453858E+00 -0.63207419989E+00  0.90007703977E+02  0.89999964870E+02 0.  0.
        -12    1    1    2    0    0 -0.48661566560E+00 -0.86993453858E+00  0.63207419989E+00  0.11802960229E+01  0.00000000000E+00 0.  1.
         11    1    3    3    0    0  0.20218379453E+02  0.16477329662E+02 -0.27303900263E+02  0.37759611099E+02  0.51100000000E-03 0. -1.
        -11    1    3    3    0    0 -0.55080076545E+01  0.14909394525E+00 -0.91082741309E+01  0.10645235330E+02  0.51100000000E-03 0.  1.
        -12    1    3    3    0    0 -0.14223756133E+02 -0.15756489069E+02  0.35780100194E+02  0.41602857548E+02  0.00000000000E+00 0.  1.
</event>
<event>
 7    1  0.2895479E-015  0.9000760E+02  0.7816164E-02  0.1186339E+00
        -11   -1    0    0    0    0  0.00000000000E+00  0.00000000000E+00  0.45593999997E+02  0.45594000000E+02  0.51100000000E-03 0.  1.
         11   -1    0    0    0    0 -0.00000000000E+00 -0.00000000000E+00 -0.45593999997E+02  0.45594000000E+02  0.51100000000E-03 0. -1.
    9900012    2    1    2    0    0 -0.35520810583E+00  0.75027862044E+00 -0.83919896998E+00  0.90007599340E+02  0.89999858851E+02 0.  0.
        -12    1    1    2    0    0  0.35520810583E+00 -0.75027862044E+00  0.83919896998E+00  0.11804006599E+01  0.00000000000E+00 0.  1.
         11    1    3    3    0    0  0.16777374320E+02 -0.29433929035E+02 -0.10938519730E+02  0.35601793237E+02  0.51100000000E-03 0. -1.
        -11    1    3    3    0    0 -0.17808394744E+01 -0.71370999069E+01 -0.73869761923E+01  0.10424826226E+02  0.51100000000E-03 0.  1.
        -12    1    3    3    0    0 -0.15351742952E+02  0.37321307563E+02  0.17486296952E+02  0.43980979877E+02  0.00000000000E+00 0.  1.
</event>
<event>
 7    1  0.2895479E-015  0.9000776E+02  0.7816164E-02  0.1186339E+00
        -11   -1    0    0    0    0  0.00000000000E+00  0.00000000000E+00  0.45593999997E+02  0.45594000000E+02  0.51100000000E-03 0. -1.
         11   -1    0    0    0    0 -0.00000000000E+00 -0.00000000000E+00 -0.45593999997E+02  0.45594000000E+02  0.51100000000E-03 0.  1.
    9900012    2    1    2    0    0  0.54357663457E+00 -0.10370562905E+01  0.14835394771E+00  0.90007758414E+02  0.90000020025E+02 0.  0.
        -12    1    1    2    0    0 -0.54357663457E+00  0.10370562905E+01 -0.14835394771E+00  0.11802415859E+01  0.00000000000E+00 0.  1.
         11    1    3    3    0    0 -0.80132545613E+01  0.30623357722E+02  0.23377656267E+02  0.39351202010E+02  0.51100000000E-03 0. -1.
        -11    1    3    3    0    0 -0.58931525786E+01 -0.54776641285E+01  0.50486346410E+01  0.94985663981E+01  0.51100000000E-03 0.  1.
        -12    1    3    3    0    0  0.14449983775E+02 -0.26182749884E+02 -0.28277936961E+02  0.41157990006E+02  0.00000000000E+00 0.  1.
</event>
<event>
 7    1  0.2895479E-015  0.9000773E+02  0.7816164E-02  0.1186339E+00
        -11   -1    0    0    0    0  0.00000000000E+00  0.00000000000E+00  0.45593999997E+02  0.45594000000E+02  0.51100000000E-03 0.  1.
         11   -1    0    0    0    0 -0.00000000000E+00 -0.00000000000E+00 -0.45593999997E+02  0.45594000000E+02  0.51100000000E-03 0. -1.
    9900012    2    1    2    0    0 -0.11419374282E+01 -0.29465736261E+00  0.46849650383E-01  0.90007729293E+02  0.89999990520E+02 0.  0.
        -12    1    1    2    0    0  0.11419374282E+01  0.29465736261E+00 -0.46849650383E-01  0.11802707066E+01  0.00000000000E+00 0.  1.
         11    1    3    3    0    0  0.11968199145E+01  0.80104522967E+01 -0.47219001830E+01  0.93752901557E+01  0.51100000000E-03 0. -1.
        -11    1    3    3    0    0  0.27325265270E+02  0.23869802401E+02 -0.20549013649E+01  0.36340888935E+02  0.51100000000E-03 0.  1.
         12    1    3    3    0    0 -0.29664022613E+02 -0.32174912060E+02  0.68236511983E+01  0.44291550202E+02  0.00000000000E+00 0. -1.
</event>
<event>
 7    1  0.2895479E-015  0.9000772E+02  0.7816164E-02  0.1186339E+00
        -11   -1    0    0    0    0  0.00000000000E+00  0.00000000000E+00  0.45593999997E+02  0.45594000000E+02  0.51100000000E-03 0.  1.
         11   -1    0    0    0    0 -0.00000000000E+00 -0.00000000000E+00 -0.45593999997E+02  0.45594000000E+02  0.51100000000E-03 0. -1.
    9900012    2    1    2    0    0 -0.48980251574E+00  0.94112417201E+00  0.51714803642E+00  0.90007718973E+02  0.89999980063E+02 0.  0.
        -12    1    1    2    0    0  0.48980251574E+00 -0.94112417201E+00 -0.51714803642E+00  0.11802810272E+01  0.00000000000E+00 0.  1.
         11    1    3    3    0    0 -0.21694827405E+01 -0.33409288977E+01 -0.78112526919E+01  0.87683596036E+01  0.51100000000E-03 0. -1.
        -11    1    3    3    0    0 -0.17473592410E+02  0.37956400009E+02  0.91032898924E+00  0.41795256100E+02  0.51100000000E-03 0.  1.
         12    1    3    3    0    0  0.19153272635E+02 -0.33674346939E+02  0.74180717391E+01  0.39444103269E+02  0.00000000000E+00 0. -1.
</event>
<event>
 7    1  0.2895479E-015  0.9000775E+02  0.7816164E-02  0.1186339E+00
        -11   -1    0    0    0    0  0.00000000000E+00  0.00000000000E+00  0.45593999997E+02  0.45594000000E+02  0.51100000000E-03 0.  1.
         11   -1    0    0    0    0 -0.00000000000E+00 -0.00000000000E+00 -0.45593999997E+02  0.45594000000E+02  0.51100000000E-03 0. -1.
    9900012    2    1    2    0    0  0.15834339257E+00 -0.58585590183E+00 -0.10122735993E+01  0.90007746804E+02  0.90000008261E+02 0.  0.
        -12    1    1    2    0    0 -0.15834339257E+00  0.58585590183E+00  0.10122735993E+01  0.11802531963E+01  0.00000000000E+00 0.  1.
         11    1    3    3    0    0  0.69204761873E+01  0.10445607631E+02 -0.34251104437E+02  0.36471110003E+02  0.51100000000E-03 0. -1.
        -11    1    3    3    0    0  0.65380524394E+01  0.65617762577E+01 -0.41322612451E+01  0.10142909869E+02  0.51100000000E-03 0.  1.
        -12    1    3    3    0    0 -0.13300185234E+02 -0.17593239791E+02  0.37371092082E+02  0.43393726932E+02  0.00000000000E+00 0.  1.
</event>
<event>
 7    1  0.2895479E-015  0.9000773E+02  0.7816164E-02  0.1186339E+00
        -11   -1    0    0    0    0  0.00000000000E+00  0.00000000000E+00  0.45593999997E+02  0.45594000000E+02  0.51100000000E-03 0.  1.
         11   -1    0    0    0    0 -0.00000000000E+00 -0.00000000000E+00 -0.45593999997E+02  0.45594000000E+02  0.51100000000E-03 0. -1.
    9900012    2    1    2    0    0 -0.60991672421E+00  0.27792798285E+00 -0.97149499474E+00  0.90007726769E+02  0.89999987963E+02 0.  0.
        -12    1    1    2    0    0  0.60991672421E+00 -0.27792798285E+00  0.97149499474E+00  0.11802732306E+01  0.00000000000E+00 0.  1.
         11    1    3    3    0    0  0.19042245861E+02 -0.70504311157E+01  0.20770020022E+02  0.29046676890E+02  0.51100000000E-03 0. -1.
        -11    1    3    3    0    0 -0.75765590065E+01  0.26833576775E+01  0.17706528865E+02  0.19445457555E+02  0.51100000000E-03 0.  1.
        -12    1    3    3    0    0 -0.12075603579E+02  0.46450014210E+01 -0.39448043882E+02  0.41515592325E+02  0.00000000000E+00 0.  1.
</event>
<event>
 7    1  0.2895479E-015  0.9000797E+02  0.7816164E-02  0.1186339E+00
        -11   -1    0    0    0    0  0.00000000000E+00  0.00000000000E+00  0.45593999997E+02  0.45594000000E+02  0.51100000000E-03 0.  1.
         11   -1    0    0    0    0 -0.00000000000E+00 -0.00000000000E+00 -0.45593999997E+02  0.45594000000E+02  0.51100000000E-03 0. -1.
    9900012    2    1    2    0    0  0.10579504246E+01 -0.23704316871E+00  0.46584814320E+00  0.90007973281E+02  0.90000237728E+02 0.  0.
        -12    1    1    2    0    0 -0.10579504246E+01  0.23704316871E+00 -0.46584814320E+00  0.11800267189E+01  0.00000000000E+00 0.  1.
         11    1    3    3    0    0  0.15614900924E+02 -0.28369756376E+02  0.22765919750E+02  0.39584786346E+02  0.51100000000E-03 0. -1.
        -11    1    3    3    0    0  0.91842620552E+01  0.16665688898E+01 -0.22359753102E+01  0.95983179366E+01  0.51100000000E-03 0.  1.
        -12    1    3    3    0    0 -0.23741212554E+02  0.26466144317E+02 -0.20064096297E+02  0.40824868999E+02  0.00000000000E+00 0.  1.
</event>
<event>
 7    1  0.2895479E-015  0.9000736E+02  0.7816164E-02  0.1186340E+00
        -11   -1    0    0    0    0  0.00000000000E+00  0.00000000000E+00  0.45593999997E+02  0.45594000000E+02  0.51100000000E-03 0.  1.
         11   -1    0    0    0    0 -0.00000000000E+00 -0.00000000000E+00 -0.45593999997E+02  0.45594000000E+02  0.51100000000E-03 0. -1.
    9900012    2    1    2    0    0 -0.51891729326E+00 -0.10431697355E+01 -0.19087943471E+00  0.90007358982E+02  0.89999615320E+02 0.  0.
        -12    1    1    2    0    0  0.51891729326E+00  0.10431697355E+01  0.19087943471E+00  0.11806410178E+01  0.00000000000E+00 0.  1.
         11    1    3    3    0    0 -0.91829212653E+01 -0.39489288001E+00 -0.19574922538E+01  0.93975400790E+01  0.51100000000E-03 0. -1.
        -11    1    3    3    0    0 -0.28526341427E+02 -0.63131783449E+01  0.23205057472E+02  0.37310629431E+02  0.51100000000E-03 0.  1.
         12    1    3    3    0    0  0.37190345399E+02  0.56649014895E+01 -0.21438444653E+02  0.43299189472E+02  0.00000000000E+00 0. -1.
</event>
<event>
 7    1  0.2895479E-015  0.9000766E+02  0.7816164E-02  0.1186339E+00
        -11   -1    0    0    0    0  0.00000000000E+00  0.00000000000E+00  0.45593999997E+02  0.45594000000E+02  0.51100000000E-03 0. -1.
         11   -1    0    0    0    0 -0.00000000000E+00 -0.00000000000E+00 -0.45593999997E+02  0.45594000000E+02  0.51100000000E-03 0.  1.
    9900012    2    1    2    0    0  0.70324117795E+00  0.59456910967E+00 -0.73834431516E+00  0.90007655598E+02  0.89999915851E+02 0.  0.
        -12    1    1    2    0    0 -0.70324117795E+00 -0.59456910967E+00  0.73834431516E+00  0.11803444024E+01  0.00000000000E+00 0.  1.
         11    1    3    3    0    0  0.25251346146E+02  0.27924889495E+02  0.99998049086E+01  0.38954152974E+02  0.51100000000E-03 0. -1.
        -11    1    3    3    0    0  0.30785724388E+01  0.28352343727E+01 -0.92145090731E+01  0.10120441686E+02  0.51100000000E-03 0.  1.
        -12    1    3    3    0    0 -0.27626677407E+02 -0.30165554758E+02 -0.15236401506E+01  0.40933060937E+02  0.00000000000E+00 0.  1.
</event>
<event>
 7    1  0.2895479E-015  0.9000787E+02  0.7816164E-02  0.1186339E+00
        -11   -1    0    0    0    0  0.00000000000E+00  0.00000000000E+00  0.45593999997E+02  0.45594000000E+02  0.51100000000E-03 0.  1.
         11   -1    0    0    0    0 -0.00000000000E+00 -0.00000000000E+00 -0.45593999997E+02  0.45594000000E+02  0.51100000000E-03 0. -1.
    9900012    2    1    2    0    0 -0.66141365968E+00 -0.75551381737E+00  0.62003639399E+00  0.90007866835E+02  0.90000129877E+02 0.  0.
        -12    1    1    2    0    0  0.66141365968E+00  0.75551381737E+00 -0.62003639399E+00  0.11801331651E+01  0.00000000000E+00 0.  1.
         11    1    3    3    0    0  0.50298401022E+01 -0.15492228465E+02 -0.35187158413E+02  0.38774276933E+02  0.51100000000E-03 0. -1.
        -11    1    3    3    0    0  0.30317718467E+01 -0.88132664480E+01  0.27471064964E+01  0.97165786354E+01  0.51100000000E-03 0.  1.
        -12    1    3    3    0    0 -0.87230256086E+01  0.23549981096E+02  0.33060088310E+02  0.41517011266E+02  0.00000000000E+00 0.  1.
</event>
<event>
 7    1  0.3185506E-015  0.9000784E+02  0.7816164E-02  0.1186339E+00
        -11   -1    0    0    0    0  0.00000000000E+00  0.00000000000E+00  0.45593999997E+02  0.45594000000E+02  0.51100000000E-03 0. -1.
         11   -1    0    0    0    0 -0.00000000000E+00 -0.00000000000E+00 -0.45593999997E+02  0.45594000000E+02  0.51100000000E-03 0.  1.
    9900012    2    1    2    0    0  0.77699687713E-02 -0.65552167385E+00  0.98132557790E+00  0.90007843685E+02  0.90000106422E+02 0.  0.
        -12    1    1    2    0    0 -0.77699687713E-02  0.65552167385E+00 -0.98132557790E+00  0.11801563147E+01  0.00000000000E+00 0.  1.
         11    1    3    3    0    0 -0.10552020694E+02 -0.61578818543E+00 -0.76574475763E+00  0.10597674325E+02  0.51100000000E-03 0. -1.
        -11    1    3    3    0    0 -0.93341834463E+00  0.15617736848E+01 -0.37979709951E+02  0.38023266233E+02  0.51100000000E-03 0.  1.
         12    1    3    3    0    0  0.11493209007E+02 -0.16015071732E+01  0.39726780286E+02  0.41386903127E+02  0.00000000000E+00 0. -1.
</event>
<event>
 7    1  0.2895479E-015  0.9000770E+02  0.7816164E-02  0.1186339E+00
        -11   -1    0    0    0    0  0.00000000000E+00  0.00000000000E+00  0.45593999997E+02  0.45594000000E+02  0.51100000000E-03 0.  1.
         11   -1    0    0    0    0 -0.00000000000E+00 -0.00000000000E+00 -0.45593999997E+02  0.45594000000E+02  0.51100000000E-03 0. -1.
    9900012    2    1    2    0    0 -0.10415487824E+01  0.52638270860E+00 -0.17664116684E+00  0.90007701426E+02  0.89999962285E+02 0.  0.
        -12    1    1    2    0    0  0.10415487824E+01 -0.52638270860E+00  0.17664116684E+00  0.11802985740E+01  0.00000000000E+00 0.  1.
         11    1    3    3    0    0  0.53098578387E+01 -0.71525899356E+01  0.13067234923E+01  0.90034248817E+01  0.51100000000E-03 0. -1.
        -11    1    3    3    0    0 -0.98065178214E+00 -0.34705129139E+02  0.11128015545E+02  0.36458749247E+02  0.51100000000E-03 0.  1.
         12    1    3    3    0    0 -0.53707548390E+01  0.42384101783E+02 -0.12611380204E+02  0.44545527297E+02  0.00000000000E+00 0. -1.
</event>
<event>
 7    1  0.2895479E-015  0.9000762E+02  0.7816164E-02  0.1186339E+00
        -11   -1    0    0    0    0  0.00000000000E+00  0.00000000000E+00  0.45593999997E+02  0.45594000000E+02  0.51100000000E-03 0.  1.
         11   -1    0    0    0    0 -0.00000000000E+00 -0.00000000000E+00 -0.45593999997E+02  0.45594000000E+02  0.51100000000E-03 0. -1.
    9900012    2    1    2    0    0 -0.28691768455E+00 -0.75820971108E+00 -0.85796114839E+00  0.90007618258E+02  0.89999878019E+02 0.  0.
        -12    1    1    2    0    0  0.28691768455E+00  0.75820971108E+00  0.85796114839E+00  0.11803817416E+01  0.00000000000E+00 0.  1.
         11    1    3    3    0    0  0.18593047698E+02  0.10781328095E+02 -0.28901859826E+02  0.36017439663E+02  0.51100000000E-03 0. -1.
        -11    1    3    3    0    0 -0.13370342673E+00  0.64813716405E+01 -0.75233300975E+01  0.99310901198E+01  0.51100000000E-03 0.  1.
        -12    1    3    3    0    0 -0.18746261956E+02 -0.18020909447E+02  0.35567228775E+02  0.44059088476E+02  0.00000000000E+00 0.  1.
</event>
<event>
 7    1  0.2895479E-015  0.9000773E+02  0.7816164E-02  0.1186339E+00
        -11   -1    0    0    0    0  0.00000000000E+00  0.00000000000E+00  0.45593999997E+02  0.45594000000E+02  0.51100000000E-03 0. -1.
         11   -1    0    0    0    0 -0.00000000000E+00 -0.00000000000E+00 -0.45593999997E+02  0.45594000000E+02  0.51100000000E-03 0.  1.
    9900012    2    1    2    0    0  0.96853588614E+00  0.58848156437E+00  0.32964566536E+00  0.90007729447E+02  0.89999990675E+02 0.  0.
        -12    1    1    2    0    0 -0.96853588614E+00 -0.58848156437E+00 -0.32964566536E+00  0.11802705533E+01  0.00000000000E+00 0.  1.
         11    1    3    3    0    0  0.16073960304E+01 -0.92911593554E+01 -0.50593183656E+01  0.10700750756E+02  0.51100000000E-03 0. -1.
        -11    1    3    3    0    0 -0.12964865612E+01 -0.22267231525E+01 -0.36044284194E+02  0.36136264288E+02  0.51100000000E-03 0.  1.
         12    1    3    3    0    0  0.65762641691E+00  0.12106364072E+02  0.41433248225E+02  0.43170714402E+02  0.00000000000E+00 0. -1.
</event>
<event>
 7    1  0.2895479E-015  0.9000775E+02  0.7816164E-02  0.1186339E+00
        -11   -1    0    0    0    0  0.00000000000E+00  0.00000000000E+00  0.45593999997E+02  0.45594000000E+02  0.51100000000E-03 0. -1.
         11   -1    0    0    0    0 -0.00000000000E+00 -0.00000000000E+00 -0.45593999997E+02  0.45594000000E+02  0.51100000000E-03 0.  1.
    9900012    2    1    2    0    0  0.10692726794E+01 -0.18332573330E+00  0.46480806961E+00  0.90007746244E+02  0.90000007694E+02 0.  0.
        -12    1    1    2    0    0 -0.10692726794E+01  0.18332573330E+00 -0.46480806961E+00  0.11802537562E+01  0.00000000000E+00 0.  1.
         11    1    3    3    0    0 -0.26156020609E+02 -0.27366709814E+02  0.39810589919E+01  0.38064721871E+02  0.51100000000E-03 0. -1.
        -11    1    3    3    0    0  0.47572056874E+01 -0.83647594676E+01 -0.21889232377E+01  0.98687178551E+01  0.51100000000E-03 0.  1.
        -12    1    3    3    0    0  0.22468087601E+02  0.35548143549E+02 -0.13273276846E+01  0.42074306518E+02  0.00000000000E+00 0.  1.
</event>
<event>
 7    1  0.2895479E-015  0.9000773E+02  0.7816164E-02  0.1186339E+00
        -11   -1    0    0    0    0  0.00000000000E+00  0.00000000000E+00  0.45593999997E+02  0.45594000000E+02  0.51100000000E-03 0. -1.
         11   -1    0    0    0    0 -0.00000000000E+00 -0.00000000000E+00 -0.45593999997E+02  0.45594000000E+02  0.51100000000E-03 0.  1.
    9900012    2    1    2    0    0  0.75985321642E+00 -0.75600117126E+00  0.49409773800E+00  0.90007725771E+02  0.89999986951E+02 0.  0.
        -12    1    1    2    0    0 -0.75985321642E+00  0.75600117126E+00 -0.49409773800E+00  0.11802742292E+01  0.00000000000E+00 0.  1.
         11    1    3    3    0    0  0.18357972593E+02 -0.34174120890E+02 -0.10295582266E+02  0.40135828268E+02  0.51100000000E-03 0. -1.
        -11    1    3    3    0    0 -0.55700802703E+01 -0.48751511768E+01  0.58428022512E+01  0.94303357110E+01  0.51100000000E-03 0.  1.
        -12    1    3    3    0    0 -0.12028039106E+02  0.38293270896E+02  0.49468777524E+01  0.40441561791E+02  0.00000000000E+00 0.  1.
</event>
<event>
 7    1  0.2895479E-015  0.9000772E+02  0.7816164E-02  0.1186339E+00
        -11   -1    0    0    0    0  0.00000000000E+00  0.00000000000E+00  0.45593999997E+02  0.45594000000E+02  0.51100000000E-03 0.  1.
         11   -1    0    0    0    0 -0.00000000000E+00 -0.00000000000E+00 -0.45593999997E+02  0.45594000000E+02  0.51100000000E-03 0. -1.
    9900012    2    1    2    0    0 -0.52810212442E+00  0.58546539922E+00 -0.87829521847E+00  0.90007718644E+02  0.89999979731E+02 0.  0.
        -12    1    1    2    0    0  0.52810212442E+00 -0.58546539922E+00  0.87829521847E+00  0.11802813556E+01  0.00000000000E+00 0.  1.
         11    1    3    3    0    0 -0.57298220051E+01 -0.18515213309E+02 -0.18983055458E+01  0.19474279147E+02  0.51100000000E-03 0. -1.
        -11    1    3    3    0    0 -0.25449043766E+02 -0.10806132099E+02 -0.94589566909E+00  0.27664436347E+02  0.51100000000E-03 0.  1.
         12    1    3    3    0    0  0.30650763646E+02  0.29906810807E+02  0.19659059965E+01  0.42869003151E+02  0.00000000000E+00 0. -1.
</event>
<event>
 7    1  0.2895479E-015  0.9000779E+02  0.7816164E-02  0.1186339E+00
        -11   -1    0    0    0    0  0.00000000000E+00  0.00000000000E+00  0.45593999997E+02  0.45594000000E+02  0.51100000000E-03 0.  1.
         11   -1    0    0    0    0 -0.00000000000E+00 -0.00000000000E+00 -0.45593999997E+02  0.45594000000E+02  0.51100000000E-03 0. -1.
    9900012    2    1    2    0    0  0.93745825093E+00 -0.46802567118E+00 -0.54315699083E+00  0.90007790054E+02  0.90000052082E+02 0.  0.
        -12    1    1    2    0    0 -0.93745825093E+00  0.46802567118E+00  0.54315699083E+00  0.11802099465E+01  0.00000000000E+00 0.  1.
         11    1    3    3    0    0 -0.34757787890E+02 -0.26528906918E+01 -0.97949694590E+01  0.36208881162E+02  0.51100000000E-03 0. -1.
        -11    1    3    3    0    0 -0.40437983248E+01 -0.72379380826E+01 -0.59666141529E+01  0.10214721596E+02  0.51100000000E-03 0.  1.
        -12    1    3    3    0    0  0.39739044466E+02  0.94228031032E+01  0.15218426621E+02  0.43584187295E+02  0.00000000000E+00 0.  1.
</event>
<event>
 7    1  0.2895479E-015  0.9000775E+02  0.7816164E-02  0.1186339E+00
        -11   -1    0    0    0    0  0.00000000000E+00  0.00000000000E+00  0.45593999997E+02  0.45594000000E+02  0.51100000000E-03 0.  1.
         11   -1    0    0    0    0 -0.00000000000E+00 -0.00000000000E+00 -0.45593999997E+02  0.45594000000E+02  0.51100000000E-03 0. -1.
    9900012    2    1    2    0    0  0.54878950491E+00 -0.80653024563E+00 -0.66432895467E+00  0.90007748367E+02  0.90000009845E+02 0.  0.
        -12    1    1    2    0    0 -0.54878950491E+00  0.80653024563E+00  0.66432895467E+00  0.11802516333E+01  0.00000000000E+00 0.  1.
         11    1    3    3    0    0 -0.18339792975E+01 -0.84243189449E+01 -0.17842662715E+01  0.88043305332E+01  0.51100000000E-03 0. -1.
        -11    1    3    3    0    0 -0.38606459511E+02  0.79221548907E+01  0.62138506621E+01  0.39897759266E+02  0.51100000000E-03 0.  1.
         12    1    3    3    0    0  0.40989228314E+02 -0.30436619140E+00 -0.50939133453E+01  0.41305658568E+02  0.00000000000E+00 0. -1.
</event>
<event>
 7    1  0.2895479E-015  0.9000751E+02  0.7816164E-02  0.1186340E+00
        -11   -1    0    0    0    0  0.00000000000E+00  0.00000000000E+00  0.45593999997E+02  0.45594000000E+02  0.51100000000E-03 0.  1.
         11   -1    0    0    0    0 -0.00000000000E+00 -0.00000000000E+00 -0.45593999997E+02  0.45594000000E+02  0.51100000000E-03 0. -1.
    9900012    2    1    2    0    0  0.62338460028E+00  0.99550594128E+00  0.11800393081E+00  0.90007506304E+02  0.89999764587E+02 0.  0.
        -12    1    1    2    0    0 -0.62338460028E+00 -0.99550594128E+00 -0.11800393081E+00  0.11804936962E+01  0.00000000000E+00 0.  1.
         11    1    3    3    0    0  0.46665869702E+01  0.26508122815E+02 -0.22784250954E+02  0.35264425430E+02  0.51100000000E-03 0. -1.
        -11    1    3    3    0    0 -0.65737631415E+01  0.10332635816E+02  0.21959977951E+00  0.12248508035E+02  0.51100000000E-03 0.  1.
        -12    1    3    3    0    0  0.25305607716E+01 -0.35845252689E+02  0.22682655105E+02  0.42494572839E+02  0.00000000000E+00 0.  1.
</event>
<event>
 7    1  0.2895479E-015  0.9000774E+02  0.7816164E-02  0.1186339E+00
        -11   -1    0    0    0    0  0.00000000000E+00  0.00000000000E+00  0.45593999997E+02  0.45594000000E+02  0.51100000000E-03 0.  1.
         11   -1    0    0    0    0 -0.00000000000E+00 -0.00000000000E+00 -0.45593999997E+02  0.45594000000E+02  0.51100000000E-03 0. -1.
    9900012    2    1    2    0    0 -0.19315129262E+00 -0.72885994567E+00 -0.90800662489E+00  0.90007737202E+02  0.89999998533E+02 0.  0.
        -12    1    1    2    0    0  0.19315129262E+00  0.72885994567E+00  0.90800662489E+00  0.11802627983E+01  0.00000000000E+00 0.  1.
         11    1    3    3    0    0  0.21155778815E+02 -0.35166804885E+02 -0.13444946957E+02  0.43186082735E+02  0.51100000000E-03 0. -1.
        -11    1    3    3    0    0 -0.15164815779E+01  0.70288380457E+01 -0.49579614973E+01  0.87341664238E+01  0.51100000000E-03 0.  1.
        -12    1    3    3    0    0 -0.19832448530E+02  0.27409106893E+02  0.17494901829E+02  0.38087488043E+02  0.00000000000E+00 0.  1.
</event>
<event>
 7    1  0.2895479E-015  0.9000775E+02  0.7816164E-02  0.1186339E+00
        -11   -1    0    0    0    0  0.00000000000E+00  0.00000000000E+00  0.45593999997E+02  0.45594000000E+02  0.51100000000E-03 0.  1.
         11   -1    0    0    0    0 -0.00000000000E+00 -0.00000000000E+00 -0.45593999997E+02  0.45594000000E+02  0.51100000000E-03 0. -1.
    9900012    2    1    2    0    0 -0.19956612850E+00  0.15069003689E+00 -0.11534504907E+01  0.90007753347E+02  0.90000014891E+02 0.  0.
        -12    1    1    2    0    0  0.19956612850E+00 -0.15069003689E+00  0.11534504907E+01  0.11802466528E+01  0.00000000000E+00 0.  1.
         11    1    3    3    0    0 -0.11592454907E+02  0.31145598161E+02 -0.17328292551E+02  0.37479367905E+02  0.51100000000E-03 0. -1.
        -11    1    3    3    0    0 -0.33364661882E+01  0.14360348411E+01 -0.84690103489E+01  0.92151147167E+01  0.51100000000E-03 0.  1.
        -12    1    3    3    0    0  0.14729354967E+02 -0.32430942965E+02  0.24643852409E+02  0.43313270725E+02  0.00000000000E+00 0.  1.
</event>
<event>
 7    1  0.2895479E-015  0.9000773E+02  0.7816164E-02  0.1186339E+00
        -11   -1    0    0    0    0  0.00000000000E+00  0.00000000000E+00  0.45593999997E+02  0.45594000000E+02  0.51100000000E-03 0.  1.
         11   -1    0    0    0    0 -0.00000000000E+00 -0.00000000000E+00 -0.45593999997E+02  0.45594000000E+02  0.51100000000E-03 0. -1.
    9900012    2    1    2    0    0 -0.61316401549E+00  0.76791518706E+00 -0.65373467645E+00  0.90007731865E+02  0.89999993125E+02 0.  0.
        -12    1    1    2    0    0  0.61316401549E+00 -0.76791518706E+00  0.65373467645E+00  0.11802681355E+01  0.00000000000E+00 0.  1.
         11    1    3    3    0    0  0.24280842976E+01 -0.75380793524E+01  0.81712650273E+01  0.11379270894E+02  0.51100000000E-03 0. -1.
        -11    1    3    3    0    0 -0.54942085581E+01 -0.33244422851E+01  0.33785900979E+02  0.34390774190E+02  0.51100000000E-03 0.  1.
         12    1    3    3    0    0  0.24529602450E+01  0.11630436824E+02 -0.42610900682E+02  0.44237686780E+02  0.00000000000E+00 0. -1.
</event>
<event>
 7    1  0.2895479E-015  0.9000783E+02  0.7816164E-02  0.1186339E+00
        -11   -1    0    0    0    0  0.00000000000E+00  0.00000000000E+00  0.45593999997E+02  0.45594000000E+02  0.51100000000E-03 0.  1.
         11   -1    0    0    0    0 -0.00000000000E+00 -0.00000000000E+00 -0.45593999997E+02  0.45594000000E+02  0.51100000000E-03 0. -1.
    9900012    2    1    2    0    0  0.10717179791E+01  0.44792191708E+00  0.20875849648E+00  0.90007833240E+02  0.90000095839E+02 0.  0.
        -12    1    1    2    0    0 -0.10717179791E+01 -0.44792191708E+00 -0.20875849648E+00  0.11801667596E+01  0.00000000000E+00 0.  1.
         11    1    3    3    0    0  0.13725964760E+01  0.14778821492E+01  0.71626834944E+01  0.74412493463E+01  0.51100000000E-03 0. -1.
        -11    1    3    3    0    0 -0.39220604270E+01 -0.27971446777E+02  0.26998214824E+02  0.39072854986E+02  0.51100000000E-03 0.  1.
         12    1    3    3    0    0  0.36211819301E+01  0.26941486545E+02 -0.33952139822E+02  0.43493728908E+02  0.00000000000E+00 0. -1.
</event>
<event>
 7    1  0.2895479E-015  0.9000768E+02  0.7816164E-02  0.1186339E+00
        -11   -1    0    0    0    0  0.00000000000E+00  0.00000000000E+00  0.45593999997E+02  0.45594000000E+02  0.51100000000E-03 0. -1.
         11   -1    0    0    0    0 -0.00000000000E+00 -0.00000000000E+00 -0.45593999997E+02  0.45594000000E+02  0.51100000000E-03 0.  1.
    9900012    2    1    2    0    0  0.87307578674E+00  0.30274874155E+00  0.73432318721E+00  0.90007682808E+02  0.89999943421E+02 0.  0.
        -12    1    1    2    0    0 -0.87307578674E+00 -0.30274874155E+00 -0.73432318721E+00  0.11803171918E+01  0.00000000000E+00 0.  1.
         11    1    3    3    0    0 -0.21406350591E+02  0.23478933383E+02 -0.93119054005E+01  0.33108967681E+02  0.51100000000E-03 0. -1.
        -11    1    3    3    0    0 -0.12685103373E+02 -0.15096963613E+02  0.33301141902E+00  0.19721588546E+02  0.51100000000E-03 0.  1.
        -12    1    3    3    0    0  0.34964529750E+02 -0.80792210288E+01  0.97132171687E+01  0.37177126581E+02  0.00000000000E+00 0.  1.
</event>
<event>
 7    1  0.2895479E-015  0.9000779E+02  0.7816164E-02  0.1186339E+00
        -11   -1    0    0    0    0  0.00000000000E+00  0.00000000000E+00  0.45593999997E+02  0.45594000000E+02  0.51100000000E-03 0.  1.
         11   -1    0    0    0    0 -0.00000000000E+00 -0.00000000000E+00 -0.45593999997E+02  0.45594000000E+02  0.51100000000E-03 0. -1.
    9900012    2    1    2    0    0  0.97974623929E-01  0.11618273703E+01 -0.18292020033E+00  0.90007787449E+02  0.90000049444E+02 0.  0.
        -12    1    1    2    0    0 -0.97974623929E-01 -0.11618273703E+01  0.18292020033E+00  0.11802125508E+01  0.00000000000E+00 0.  1.
         11    1    3    3    0    0 -0.21783771483E+02 -0.28925064537E+02 -0.17481441278E+02  0.40209362690E+02  0.51100000000E-03 0. -1.
        -11    1    3    3    0    0  0.11845353811E+01  0.67434183695E+01 -0.73453809517E+01  0.10041485795E+02  0.51100000000E-03 0.  1.
        -12    1    3    3    0    0  0.20697210726E+02  0.23343473538E+02  0.24643902029E+02  0.39756938965E+02  0.00000000000E+00 0.  1.
</event>
<event>
 7    1  0.2895479E-015  0.9000816E+02  0.7816164E-02  0.1186338E+00
        -11   -1    0    0    0    0  0.00000000000E+00  0.00000000000E+00  0.45593999997E+02  0.45594000000E+02  0.51100000000E-03 0. -1.
         11   -1    0    0    0    0 -0.00000000000E+00 -0.00000000000E+00 -0.45593999997E+02  0.45594000000E+02  0.51100000000E-03 0.  1.
    9900012    2    1    2    0    0 -0.95663867302E+00  0.54021892845E+00  0.43015818872E+00  0.90008156744E+02  0.90000423612E+02 0.  0.
        -12    1    1    2    0    0  0.95663867302E+00 -0.54021892845E+00 -0.43015818872E+00  0.11798432560E+01  0.00000000000E+00 0.  1.
         11    1    3    3    0    0 -0.30370346398E+02  0.50515957443E+01  0.21542628468E+02  0.37576074855E+02  0.51100000000E-03 0. -1.
        -11    1    3    3    0    0 -0.13206530447E+01  0.40250268901E+01  0.81243532553E+01  0.91624277355E+01  0.51100000000E-03 0.  1.
        -12    1    3    3    0    0  0.30734360770E+02 -0.85364037059E+01 -0.29236823535E+02  0.43269654154E+02  0.00000000000E+00 0.  1.
</event>
<event>
 7    1  0.2895479E-015  0.9000768E+02  0.7816164E-02  0.1186339E+00
        -11   -1    0    0    0    0  0.00000000000E+00  0.00000000000E+00  0.45593999997E+02  0.45594000000E+02  0.51100000000E-03 0.  1.
         11   -1    0    0    0    0 -0.00000000000E+00 -0.00000000000E+00 -0.45593999997E+02  0.45594000000E+02  0.51100000000E-03 0. -1.
    9900012    2    1    2    0    0  0.75488225219E+00  0.37784045634E+00 -0.82495474583E+00  0.90007677604E+02  0.89999938149E+02 0.  0.
        -12    1    1    2    0    0 -0.75488225219E+00 -0.37784045634E+00  0.82495474583E+00  0.11803223957E+01  0.00000000000E+00 0.  1.
         11    1    3    3    0    0 -0.83061611238E+01  0.95844172040E+01 -0.13723659407E+02  0.18686684926E+02  0.51100000000E-03 0. -1.
        -11    1    3    3    0    0 -0.29213686558E+01  0.22227875563E+02 -0.15533440328E+02  0.27274541528E+02  0.51100000000E-03 0.  1.
        -12    1    3    3    0    0  0.11982412032E+02 -0.31434452311E+02  0.28432144989E+02  0.44046451150E+02  0.00000000000E+00 0.  1.
</event>
<event>
 7    1  0.2895479E-015  0.9000793E+02  0.7816164E-02  0.1186339E+00
        -11   -1    0    0    0    0  0.00000000000E+00  0.00000000000E+00  0.45593999997E+02  0.45594000000E+02  0.51100000000E-03 0.  1.
         11   -1    0    0    0    0 -0.00000000000E+00 -0.00000000000E+00 -0.45593999997E+02  0.45594000000E+02  0.51100000000E-03 0. -1.
    9900012    2    1    2    0    0  0.10113766121E+00 -0.24603162913E+00 -0.11496996855E+01  0.90007928072E+02  0.90000191922E+02 0.  0.
        -12    1    1    2    0    0 -0.10113766121E+00  0.24603162913E+00  0.11496996855E+01  0.11800719282E+01  0.00000000000E+00 0.  1.
         11    1    3    3    0    0 -0.10544863152E+02 -0.17994767275E+02  0.89227070637E+01  0.22685248286E+02  0.51100000000E-03 0. -1.
        -11    1    3    3    0    0  0.61365056402E+01 -0.18973015553E+01  0.25575954600E+02  0.26370170811E+02  0.51100000000E-03 0.  1.
         12    1    3    3    0    0  0.45094951734E+01  0.19646037201E+02 -0.35648361349E+02  0.40952508974E+02  0.00000000000E+00 0. -1.
</event>
<event>
 7    1  0.2895479E-015  0.9000782E+02  0.7816164E-02  0.1186339E+00
        -11   -1    0    0    0    0  0.00000000000E+00  0.00000000000E+00  0.45593999997E+02  0.45594000000E+02  0.51100000000E-03 0.  1.
         11   -1    0    0    0    0 -0.00000000000E+00 -0.00000000000E+00 -0.45593999997E+02  0.45594000000E+02  0.51100000000E-03 0. -1.
    9900012    2    1    2    0    0  0.88336443767E+00 -0.27256666843E+00 -0.73361585686E+00  0.90007823088E+02  0.90000085553E+02 0.  0.
        -12    1    1    2    0    0 -0.88336443767E+00  0.27256666843E+00  0.73361585686E+00  0.11801769121E+01  0.00000000000E+00 0.  1.
         11    1    3    3    0    0  0.51183140391E+01 -0.17353052951E+02 -0.12844202198E+01  0.18137676832E+02  0.51100000000E-03 0. -1.
        -11    1    3    3    0    0 -0.26481840466E+02  0.11393584219E+02  0.25122529094E+02  0.38239287443E+02  0.51100000000E-03 0.  1.
         12    1    3    3    0    0  0.22246890865E+02  0.56869020631E+01 -0.24571724731E+02  0.33630858812E+02  0.00000000000E+00 0. -1.
</event>
<event>
 7    1  0.2895479E-015  0.9000780E+02  0.7816164E-02  0.1186339E+00
        -11   -1    0    0    0    0  0.00000000000E+00  0.00000000000E+00  0.45593999997E+02  0.45594000000E+02  0.51100000000E-03 0.  1.
         11   -1    0    0    0    0 -0.00000000000E+00 -0.00000000000E+00 -0.45593999997E+02  0.45594000000E+02  0.51100000000E-03 0. -1.
    9900012    2    1    2    0    0 -0.16544226764E+00 -0.28588227738E+00 -0.11330316428E+01  0.90007804879E+02  0.90000067103E+02 0.  0.
        -12    1    1    2    0    0  0.16544226764E+00  0.28588227738E+00  0.11330316428E+01  0.11801951212E+01  0.00000000000E+00 0.  1.
         11    1    3    3    0    0  0.67121743198E+01  0.19036821819E+01  0.72658359100E+00  0.70146428223E+01  0.51100000000E-03 0. -1.
        -11    1    3    3    0    0  0.21785319508E+02 -0.30118646336E+02  0.14308700384E+02  0.39830539917E+02  0.51100000000E-03 0.  1.
         12    1    3    3    0    0 -0.28662936095E+02  0.27929081876E+02 -0.16168315618E+02  0.43162622140E+02  0.00000000000E+00 0. -1.
</event>
<event>
 7    1  0.2895479E-015  0.9000725E+02  0.7816164E-02  0.1186340E+00
        -11   -1    0    0    0    0  0.00000000000E+00  0.00000000000E+00  0.45593999997E+02  0.45594000000E+02  0.51100000000E-03 0. -1.
         11   -1    0    0    0    0 -0.00000000000E+00 -0.00000000000E+00 -0.45593999997E+02  0.45594000000E+02  0.51100000000E-03 0.  1.
    9900012    2    1    2    0    0  0.59345973220E+00 -0.79188290249E+00  0.64413135347E+00  0.90007246772E+02  0.89999501628E+02 0.  0.
        -12    1    1    2    0    0 -0.59345973220E+00  0.79188290249E+00 -0.64413135347E+00  0.11807532280E+01  0.00000000000E+00 0.  1.
         11    1    3    3    0    0 -0.31653807153E+01  0.97555055168E+01 -0.79826726174E+01  0.12996637463E+02  0.51100000000E-03 0. -1.
        -11    1    3    3    0    0 -0.10755457832E+02 -0.15220241641E+02 -0.30092974879E+02  0.35396649080E+02  0.51100000000E-03 0.  1.
         12    1    3    3    0    0  0.14514298280E+02  0.46728532215E+01  0.38719778850E+02  0.41613960229E+02  0.00000000000E+00 0. -1.
</event>
<event>
 7    1  0.2895479E-015  0.9000774E+02  0.7816164E-02  0.1186339E+00
        -11   -1    0    0    0    0  0.00000000000E+00  0.00000000000E+00  0.45593999997E+02  0.45594000000E+02  0.51100000000E-03 0.  1.
         11   -1    0    0    0    0 -0.00000000000E+00 -0.00000000000E+00 -0.45593999997E+02  0.45594000000E+02  0.51100000000E-03 0. -1.
    9900012    2    1    2    0    0  0.83500787064E+00 -0.57777110174E+00 -0.60163063714E+00  0.90007738583E+02  0.89999999932E+02 0.  0.
        -12    1    1    2    0    0 -0.83500787064E+00  0.57777110174E+00  0.60163063714E+00  0.11802614175E+01  0.00000000000E+00 0.  1.
         11    1    3    3    0    0  0.16242089990E+01  0.84289066214E+01 -0.47166989483E+01  0.97944765524E+01  0.51100000000E-03 0. -1.
        -11    1    3    3    0    0 -0.20887288000E+02  0.26740207967E+02  0.16003035374E+02  0.37515525634E+02  0.51100000000E-03 0.  1.
         12    1    3    3    0    0  0.20098086872E+02 -0.35746885691E+02 -0.11887967062E+02  0.42697736396E+02  0.00000000000E+00 0. -1.
</event>
<event>
 7    1  0.2895479E-015  0.9000782E+02  0.7816164E-02  0.1186339E+00
        -11   -1    0    0    0    0  0.00000000000E+00  0.00000000000E+00  0.45593999997E+02  0.45594000000E+02  0.51100000000E-03 0.  1.
         11   -1    0    0    0    0 -0.00000000000E+00 -0.00000000000E+00 -0.45593999997E+02  0.45594000000E+02  0.51100000000E-03 0. -1.
    9900012    2    1    2    0    0 -0.42734274390E+00  0.27491349557E+00 -0.10651847072E+01  0.90007823017E+02  0.90000085481E+02 0.  0.
        -12    1    1    2    0    0  0.42734274390E+00 -0.27491349557E+00  0.10651847072E+01  0.11801769831E+01  0.00000000000E+00 0.  1.
         11    1    3    3    0    0 -0.23148409878E+01 -0.15545077883E+02 -0.30738449338E+02  0.34523328390E+02  0.51100000000E-03 0. -1.
        -11    1    3    3    0    0  0.20190315113E+01 -0.96334024089E+01 -0.61001184200E+01  0.11579739860E+02  0.51100000000E-03 0.  1.
        -12    1    3    3    0    0 -0.13153326743E+00  0.25453393787E+02  0.35773383051E+02  0.43904754767E+02  0.00000000000E+00 0.  1.
</event>
<event>
 7    1  0.2895479E-015  0.9000780E+02  0.7816164E-02  0.1186339E+00
        -11   -1    0    0    0    0  0.00000000000E+00  0.00000000000E+00  0.45593999997E+02  0.45594000000E+02  0.51100000000E-03 0.  1.
         11   -1    0    0    0    0 -0.00000000000E+00 -0.00000000000E+00 -0.45593999997E+02  0.45594000000E+02  0.51100000000E-03 0. -1.
    9900012    2    1    2    0    0  0.58793085399E+00 -0.40802713448E-01 -0.10225168559E+01  0.90007801597E+02  0.90000063778E+02 0.  0.
        -12    1    1    2    0    0 -0.58793085399E+00  0.40802713448E-01  0.10225168559E+01  0.11801984032E+01  0.00000000000E+00 0.  1.
         11    1    3    3    0    0  0.41876050334E+01  0.23780280032E+01 -0.21461167432E+01  0.52722737444E+01  0.51100000000E-03 0. -1.
        -11    1    3    3    0    0  0.15478764059E+01  0.33577488308E+02 -0.23329249266E+02  0.40915736752E+02  0.51100000000E-03 0.  1.
         12    1    3    3    0    0 -0.51475505853E+01 -0.35996319024E+02  0.24452849153E+02  0.43819791100E+02  0.00000000000E+00 0. -1.
</event>
<event>
 7    1  0.2895479E-015  0.9000764E+02  0.7816164E-02  0.1186339E+00
        -11   -1    0    0    0    0  0.00000000000E+00  0.00000000000E+00  0.45593999997E+02  0.45594000000E+02  0.51100000000E-03 0. -1.
         11   -1    0    0    0    0 -0.00000000000E+00 -0.00000000000E+00 -0.45593999997E+02  0.45594000000E+02  0.51100000000E-03 0.  1.
    9900012    2    1    2    0    0 -0.62263789607E-01  0.11582768938E+01 -0.21854120497E+00  0.90007643105E+02  0.89999903194E+02 0.  0.
        -12    1    1    2    0    0  0.62263789607E-01 -0.11582768938E+01  0.21854120497E+00  0.11803568954E+01  0.00000000000E+00 0.  1.
         11    1    3    3    0    0 -0.43683553500E+01  0.13297370405E+02 -0.71726999175E+01  0.15727371443E+02  0.51100000000E-03 0. -1.
        -11    1    3    3    0    0 -0.20311435018E+02  0.15809405665E+02 -0.16211910745E+02  0.30419035984E+02  0.51100000000E-03 0.  1.
         12    1    3    3    0    0  0.24617526578E+02 -0.27948499176E+02  0.23166069458E+02  0.43861235677E+02  0.00000000000E+00 0. -1.
</event>
<event>
 7    1  0.2895479E-015  0.9000789E+02  0.7816164E-02  0.1186339E+00
        -11   -1    0    0    0    0  0.00000000000E+00  0.00000000000E+00  0.45593999997E+02  0.45594000000E+02  0.51100000000E-03 0. -1.
         11   -1    0    0    0    0 -0.00000000000E+00 -0.00000000000E+00 -0.45593999997E+02  0.45594000000E+02  0.51100000000E-03 0.  1.
    9900012    2    1    2    0    0 -0.28263876034E+00  0.11457596698E+01  0.38174631471E-02  0.90007887945E+02  0.90000151266E+02 0.  0.
        -12    1    1    2    0    0  0.28263876034E+00 -0.11457596698E+01 -0.38174631471E-02  0.11801120552E+01  0.00000000000E+00 0.  1.
         11    1    3    3    0    0 -0.53629281142E+01 -0.14703578738E+02 -0.10006431998E+01  0.15683032639E+02  0.51100000000E-03 0. -1.
        -11    1    3    3    0    0 -0.26040822373E+02 -0.52597835128E+01 -0.18098968665E+02  0.32145954947E+02  0.51100000000E-03 0.  1.
         12    1    3    3    0    0  0.31121111727E+02  0.21109121921E+02  0.19103429328E+02  0.42178900359E+02  0.00000000000E+00 0. -1.
</event>
<event>
 7    1  0.2895479E-015  0.9000773E+02  0.7816164E-02  0.1186339E+00
        -11   -1    0    0    0    0  0.00000000000E+00  0.00000000000E+00  0.45593999997E+02  0.45594000000E+02  0.51100000000E-03 0. -1.
         11   -1    0    0    0    0 -0.00000000000E+00 -0.00000000000E+00 -0.45593999997E+02  0.45594000000E+02  0.51100000000E-03 0.  1.
    9900012    2    1    2    0    0  0.57731487354E+00  0.83101324727E+00 -0.60759069147E+00  0.90007728028E+02  0.89999989238E+02 0.  0.
        -12    1    1    2    0    0 -0.57731487354E+00 -0.83101324727E+00  0.60759069147E+00  0.11802719723E+01  0.00000000000E+00 0.  1.
         11    1    3    3    0    0  0.73040286480E+00 -0.39210497550E+01 -0.78973524401E+01  0.88473891828E+01  0.51100000000E-03 0. -1.
        -11    1    3    3    0    0 -0.10671982049E+02 -0.30922998883E+02  0.23812648840E+02  0.40461899434E+02  0.51100000000E-03 0.  1.
         12    1    3    3    0    0  0.10518894058E+02  0.35675061885E+02 -0.16522887091E+02  0.40698439411E+02  0.00000000000E+00 0. -1.
</event>
<event>
 7    1  0.2895479E-015  0.9000752E+02  0.7816164E-02  0.1186339E+00
        -11   -1    0    0    0    0  0.00000000000E+00  0.00000000000E+00  0.45593999997E+02  0.45594000000E+02  0.51100000000E-03 0.  1.
         11   -1    0    0    0    0 -0.00000000000E+00 -0.00000000000E+00 -0.45593999997E+02  0.45594000000E+02  0.51100000000E-03 0. -1.
    9900012    2    1    2    0    0 -0.11437818825E+01 -0.11170158725E+00 -0.26984379434E+00  0.90007521320E+02  0.89999779802E+02 0.  0.
        -12    1    1    2    0    0  0.11437818825E+01  0.11170158725E+00  0.26984379434E+00  0.11804786795E+01  0.00000000000E+00 0.  1.
         11    1    3    3    0    0  0.12369425134E+02  0.20300942422E+01 -0.36694054357E+02  0.38775992394E+02  0.51100000000E-03 0. -1.
        -11    1    3    3    0    0  0.63052227524E+00  0.97024283702E+01 -0.72912517878E+00  0.97501947881E+01  0.51100000000E-03 0.  1.
        -12    1    3    3    0    0 -0.14143729292E+02 -0.11844224200E+02  0.37153335741E+02  0.41481334138E+02  0.00000000000E+00 0.  1.
</event>
<event>
 7    1  0.2895479E-015  0.9000771E+02  0.7816164E-02  0.1186339E+00
        -11   -1    0    0    0    0  0.00000000000E+00  0.00000000000E+00  0.45593999997E+02  0.45594000000E+02  0.51100000000E-03 0.  1.
         11   -1    0    0    0    0 -0.00000000000E+00 -0.00000000000E+00 -0.45593999997E+02  0.45594000000E+02  0.51100000000E-03 0. -1.
    9900012    2    1    2    0    0  0.66295622531E+00 -0.87381133543E+00  0.43592620236E+00  0.90007708146E+02  0.89999969094E+02 0.  0.
        -12    1    1    2    0    0 -0.66295622531E+00  0.87381133543E+00 -0.43592620236E+00  0.11802918540E+01  0.00000000000E+00 0.  1.
         11    1    3    3    0    0  0.25128142791E+02 -0.24581287457E+02  0.72919366376E+00  0.35159564514E+02  0.51100000000E-03 0. -1.
        -11    1    3    3    0    0 -0.79792833761E+00 -0.11259334251E+02 -0.50343783623E+01  0.12359379562E+02  0.51100000000E-03 0.  1.
        -12    1    3    3    0    0 -0.23667258228E+02  0.34966810372E+02  0.47411109009E+01  0.42488764070E+02  0.00000000000E+00 0.  1.
</event>
<event>
 7    1  0.2895479E-015  0.9000779E+02  0.7816164E-02  0.1186339E+00
        -11   -1    0    0    0    0  0.00000000000E+00  0.00000000000E+00  0.45593999997E+02  0.45594000000E+02  0.51100000000E-03 0.  1.
         11   -1    0    0    0    0 -0.00000000000E+00 -0.00000000000E+00 -0.45593999997E+02  0.45594000000E+02  0.51100000000E-03 0. -1.
    9900012    2    1    2    0    0  0.84632605147E+00 -0.82229420361E+00  0.21266260519E-01  0.90007793325E+02  0.90000055397E+02 0.  0.
        -12    1    1    2    0    0 -0.84632605147E+00  0.82229420361E+00 -0.21266260519E-01  0.11802066753E+01  0.00000000000E+00 0.  1.
         11    1    3    3    0    0 -0.25846896255E+02  0.13809906606E+02 -0.20639646555E+02  0.35843696470E+02  0.51100000000E-03 0. -1.
        -11    1    3    3    0    0 -0.73631431155E+01  0.65892776409E+01  0.30362741292E+01  0.10336992658E+02  0.51100000000E-03 0.  1.
        -12    1    3    3    0    0  0.34056365422E+02 -0.21221478451E+02  0.17624638686E+02  0.43827104196E+02  0.00000000000E+00 0.  1.
</event>
<event>
 7    1  0.2895479E-015  0.9000782E+02  0.7816164E-02  0.1186339E+00
        -11   -1    0    0    0    0  0.00000000000E+00  0.00000000000E+00  0.45593999997E+02  0.45594000000E+02  0.51100000000E-03 0.  1.
         11   -1    0    0    0    0 -0.00000000000E+00 -0.00000000000E+00 -0.45593999997E+02  0.45594000000E+02  0.51100000000E-03 0. -1.
    9900012    2    1    2    0    0  0.83408234260E+00 -0.41125338894E+00 -0.72663364792E+00  0.90007822402E+02  0.90000084858E+02 0.  0.
        -12    1    1    2    0    0 -0.83408234260E+00  0.41125338894E+00  0.72663364792E+00  0.11801775978E+01  0.00000000000E+00 0.  1.
         11    1    3    3    0    0 -0.79167563459E+01 -0.34863258794E+02 -0.93570805861E+01  0.36955064634E+02  0.51100000000E-03 0. -1.
        -11    1    3    3    0    0  0.55461193684E+01 -0.72308825268E+01 -0.31110332514E+01  0.96293109991E+01  0.51100000000E-03 0.  1.
        -12    1    3    3    0    0  0.32047193201E+01  0.41682887932E+02  0.11741480190E+02  0.43423446769E+02  0.00000000000E+00 0.  1.
</event>
<event>
 7    1  0.2904686E-015  0.9000776E+02  0.7816164E-02  0.1186339E+00
        -11   -1    0    0    0    0  0.00000000000E+00  0.00000000000E+00  0.45593999997E+02  0.45594000000E+02  0.51100000000E-03 0. -1.
         11   -1    0    0    0    0 -0.00000000000E+00 -0.00000000000E+00 -0.45593999997E+02  0.45594000000E+02  0.51100000000E-03 0.  1.
    9900012    2    1    2    0    0  0.75896394927E+00  0.16904030853E+00  0.88790424575E+00  0.90007756444E+02  0.90000018029E+02 0.  0.
        -12    1    1    2    0    0 -0.75896394927E+00 -0.16904030853E+00 -0.88790424575E+00  0.11802435561E+01  0.00000000000E+00 0.  1.
         11    1    3    3    0    0 -0.48104070809E+00 -0.83644511185E+01 -0.58641963612E+01  0.10226643726E+02  0.51100000000E-03 0. -1.
        -11    1    3    3    0    0  0.29682064580E+02 -0.78366915240E+01 -0.20675100931E+02  0.37012139773E+02  0.51100000000E-03 0.  1.
         12    1    3    3    0    0 -0.28442059923E+02  0.16370182951E+02  0.27427201538E+02  0.42768972945E+02  0.00000000000E+00 0. -1.
</event>
<event>
 7    1  0.2895479E-015  0.9000776E+02  0.7816164E-02  0.1186339E+00
        -11   -1    0    0    0    0  0.00000000000E+00  0.00000000000E+00  0.45593999997E+02  0.45594000000E+02  0.51100000000E-03 0. -1.
         11   -1    0    0    0    0 -0.00000000000E+00 -0.00000000000E+00 -0.45593999997E+02  0.45594000000E+02  0.51100000000E-03 0.  1.
    9900012    2    1    2    0    0 -0.10035107238E+01  0.39228082741E+00  0.48172100117E+00  0.90007757168E+02  0.90000018762E+02 0.  0.
        -12    1    1    2    0    0  0.10035107238E+01 -0.39228082741E+00 -0.48172100117E+00  0.11802428323E+01  0.00000000000E+00 0.  1.
         11    1    3    3    0    0  0.29347989775E+01  0.13173993568E+02  0.33157463631E+02  0.35799225498E+02  0.51100000000E-03 0. -1.
        -11    1    3    3    0    0 -0.47153775497E+01  0.43860468977E+01  0.78712394097E+01  0.10169985395E+02  0.51100000000E-03 0.  1.
        -12    1    3    3    0    0  0.77706784837E+00 -0.17167759638E+02 -0.40546982040E+02  0.44038546274E+02  0.00000000000E+00 0.  1.
</event>
<event>
 7    1  0.2895479E-015  0.9000770E+02  0.7816164E-02  0.1186339E+00
        -11   -1    0    0    0    0  0.00000000000E+00  0.00000000000E+00  0.45593999997E+02  0.45594000000E+02  0.51100000000E-03 0.  1.
         11   -1    0    0    0    0 -0.00000000000E+00 -0.00000000000E+00 -0.45593999997E+02  0.45594000000E+02  0.51100000000E-03 0. -1.
    9900012    2    1    2    0    0  0.53882537780E+00  0.63727296960E+00 -0.83465648615E+00  0.90007702972E+02  0.89999963851E+02 0.  0.
        -12    1    1    2    0    0 -0.53882537780E+00 -0.63727296960E+00  0.83465648615E+00  0.11802970285E+01  0.00000000000E+00 0.  1.
         11    1    3    3    0    0 -0.35801009880E-02  0.16973436505E+01  0.10122772607E+02  0.10264088551E+02  0.51100000000E-03 0. -1.
        -11    1    3    3    0    0 -0.65980718570E+01  0.30900517228E+02  0.17708589001E+02  0.36221135292E+02  0.51100000000E-03 0.  1.
         12    1    3    3    0    0  0.71404773358E+01 -0.31960587909E+02 -0.28666018094E+02  0.43522479128E+02  0.00000000000E+00 0. -1.
</event>
<event>
 7    1  0.2895479E-015  0.9000796E+02  0.7816164E-02  0.1186339E+00
        -11   -1    0    0    0    0  0.00000000000E+00  0.00000000000E+00  0.45593999997E+02  0.45594000000E+02  0.51100000000E-03 0.  1.
         11   -1    0    0    0    0 -0.00000000000E+00 -0.00000000000E+00 -0.45593999997E+02  0.45594000000E+02  0.51100000000E-03 0. -1.
    9900012    2    1    2    0    0  0.95438968745E+00  0.69399311205E+00  0.11914551159E-02  0.90007962910E+02  0.90000227220E+02 0.  0.
        -12    1    1    2    0    0 -0.95438968745E+00 -0.69399311205E+00 -0.11914551159E-02  0.11800370904E+01  0.00000000000E+00 0.  1.
         11    1    3    3    0    0 -0.19510219300E+00 -0.10257817064E+02 -0.21695828900E+01  0.10486561207E+02  0.51100000000E-03 0. -1.
        -11    1    3    3    0    0 -0.70725972336E+01 -0.32195104324E+02  0.10940825222E+02  0.34731081625E+02  0.51100000000E-03 0.  1.
         12    1    3    3    0    0  0.82220891141E+01  0.43146914500E+02 -0.87700508767E+01  0.44790320077E+02  0.00000000000E+00 0. -1.
</event>
<event>
 7    1  0.2895479E-015  0.9000761E+02  0.7816164E-02  0.1186339E+00
        -11   -1    0    0    0    0  0.00000000000E+00  0.00000000000E+00  0.45593999997E+02  0.45594000000E+02  0.51100000000E-03 0.  1.
         11   -1    0    0    0    0 -0.00000000000E+00 -0.00000000000E+00 -0.45593999997E+02  0.45594000000E+02  0.51100000000E-03 0. -1.
    9900012    2    1    2    0    0 -0.10812907988E+01  0.35298514838E-01 -0.47210800990E+00  0.90007609493E+02  0.89999869138E+02 0.  0.
        -12    1    1    2    0    0  0.10812907988E+01 -0.35298514838E-01  0.47210800990E+00  0.11803905073E+01  0.00000000000E+00 0.  1.
         11    1    3    3    0    0  0.64865250467E+01 -0.68702798440E+01 -0.19486355750E+01  0.96474314293E+01  0.51100000000E-03 0. -1.
        -11    1    3    3    0    0 -0.31348759032E+01  0.87495559318E+01  0.40240566281E+02  0.41299943714E+02  0.51100000000E-03 0.  1.
         12    1    3    3    0    0 -0.44329399423E+01 -0.18439775729E+01 -0.38764038716E+02  0.39060234349E+02  0.00000000000E+00 0. -1.
</event>
<event>
 7    1  0.2895479E-015  0.9000773E+02  0.7816164E-02  0.1186339E+00
        -11   -1    0    0    0    0  0.00000000000E+00  0.00000000000E+00  0.45593999997E+02  0.45594000000E+02  0.51100000000E-03 0.  1.
         11   -1    0    0    0    0 -0.00000000000E+00 -0.00000000000E+00 -0.45593999997E+02  0.45594000000E+02  0.51100000000E-03 0. -1.
    9900012    2    1    2    0    0 -0.17420190378E+00  0.43612060029E+00 -0.10828143807E+01  0.90007731190E+02  0.89999992441E+02 0.  0.
        -12    1    1    2    0    0  0.17420190378E+00 -0.43612060029E+00  0.10828143807E+01  0.11802688102E+01  0.00000000000E+00 0.  1.
         11    1    3    3    0    0 -0.36154212536E+02 -0.14160168142E+02 -0.14767189222E+01  0.38856378433E+02  0.51100000000E-03 0. -1.
        -11    1    3    3    0    0 -0.35583739373E+01  0.51478789329E+01  0.76221937840E+01  0.98620748794E+01  0.51100000000E-03 0.  1.
        -12    1    3    3    0    0  0.39538384569E+02  0.94484098095E+01 -0.72282892425E+01  0.41289277877E+02  0.00000000000E+00 0.  1.
</event>
<event>
 7    1  0.2895479E-015  0.9000778E+02  0.7816164E-02  0.1186339E+00
        -11   -1    0    0    0    0  0.00000000000E+00  0.00000000000E+00  0.45593999997E+02  0.45594000000E+02  0.51100000000E-03 0. -1.
         11   -1    0    0    0    0 -0.00000000000E+00 -0.00000000000E+00 -0.45593999997E+02  0.45594000000E+02  0.51100000000E-03 0.  1.
    9900012    2    1    2    0    0 -0.62121361501E+00  0.53130644083E+00  0.85130182458E+00  0.90007784898E+02  0.90000046859E+02 0.  0.
        -12    1    1    2    0    0  0.62121361501E+00 -0.53130644083E+00 -0.85130182458E+00  0.11802151016E+01  0.00000000000E+00 0.  1.
         11    1    3    3    0    0 -0.27806204298E+02 -0.22962331574E+02  0.14339063041E+02  0.38808019763E+02  0.51100000000E-03 0. -1.
        -11    1    3    3    0    0 -0.51358190607E+01 -0.35099717670E+01 -0.55600041137E+01  0.83432718543E+01  0.51100000000E-03 0.  1.
        -12    1    3    3    0    0  0.32320809744E+02  0.27003609781E+02 -0.79277571025E+01  0.42856493281E+02  0.00000000000E+00 0.  1.
</event>
<event>
 7    1  0.2895479E-015  0.9000768E+02  0.7816164E-02  0.1186339E+00
        -11   -1    0    0    0    0  0.00000000000E+00  0.00000000000E+00  0.45593999997E+02  0.45594000000E+02  0.51100000000E-03 0. -1.
         11   -1    0    0    0    0 -0.00000000000E+00 -0.00000000000E+00 -0.45593999997E+02  0.45594000000E+02  0.51100000000E-03 0.  1.
    9900012    2    1    2    0    0  0.22972918280E+00  0.11478214926E+01 -0.15131861749E+00  0.90007675045E+02  0.89999935555E+02 0.  0.
        -12    1    1    2    0    0 -0.22972918280E+00 -0.11478214926E+01  0.15131861749E+00  0.11803249554E+01  0.00000000000E+00 0.  1.
         11    1    3    3    0    0  0.66919332171E+01 -0.81018848990E+01  0.12325610475E+01  0.10580251230E+02  0.51100000000E-03 0. -1.
        -11    1    3    3    0    0  0.15499789627E+02 -0.16708827930E+02 -0.28102975810E+02  0.36182947074E+02  0.51100000000E-03 0.  1.
         12    1    3    3    0    0 -0.21961993661E+02  0.25958534322E+02  0.26719096145E+02  0.43244476740E+02  0.00000000000E+00 0. -1.
</event>
<event>
 7    1  0.2895479E-015  0.9000780E+02  0.7816164E-02  0.1186339E+00
        -11   -1    0    0    0    0  0.00000000000E+00  0.00000000000E+00  0.45593999997E+02  0.45594000000E+02  0.51100000000E-03 0.  1.
         11   -1    0    0    0    0 -0.00000000000E+00 -0.00000000000E+00 -0.45593999997E+02  0.45594000000E+02  0.51100000000E-03 0. -1.
    9900012    2    1    2    0    0  0.61458687575E+00 -0.21742062645E+00 -0.98381355573E+00  0.90007797530E+02  0.90000059658E+02 0.  0.
        -12    1    1    2    0    0 -0.61458687575E+00  0.21742062645E+00  0.98381355573E+00  0.11802024695E+01  0.00000000000E+00 0.  1.
         11    1    3    3    0    0  0.56434167787E+01  0.48729277405E+01 -0.17656005018E+01  0.76623053382E+01  0.51100000000E-03 0. -1.
        -11    1    3    3    0    0  0.31365608796E+02 -0.16276523954E+02  0.19016808350E+02  0.40129361411E+02  0.51100000000E-03 0.  1.
         12    1    3    3    0    0 -0.36394438699E+02  0.11186175587E+02 -0.18235021404E+02  0.42216130781E+02  0.00000000000E+00 0. -1.
</event>
<event>
 7    1  0.2895479E-015  0.9000785E+02  0.7816164E-02  0.1186339E+00
        -11   -1    0    0    0    0  0.00000000000E+00  0.00000000000E+00  0.45593999997E+02  0.45594000000E+02  0.51100000000E-03 0. -1.
         11   -1    0    0    0    0 -0.00000000000E+00 -0.00000000000E+00 -0.45593999997E+02  0.45594000000E+02  0.51100000000E-03 0.  1.
    9900012    2    1    2    0    0  0.69011191255E+00 -0.31991429673E+00 -0.90230527194E+00  0.90007849835E+02  0.90000112652E+02 0.  0.
        -12    1    1    2    0    0 -0.69011191255E+00  0.31991429673E+00  0.90230527194E+00  0.11801501654E+01  0.00000000000E+00 0.  1.
         11    1    3    3    0    0  0.38002559920E+02 -0.26011039480E+01  0.27635174123E+00  0.38092475277E+02  0.51100000000E-03 0. -1.
        -11    1    3    3    0    0  0.32908515192E+01 -0.90517154323E+01  0.11273856343E+01  0.96971261010E+01  0.51100000000E-03 0.  1.
        -12    1    3    3    0    0 -0.40603299526E+02  0.11332905084E+02 -0.23060426474E+01  0.42218248457E+02  0.00000000000E+00 0.  1.
</event>
<event>
 7    1  0.2895479E-015  0.9000662E+02  0.7816164E-02  0.1186341E+00
        -11   -1    0    0    0    0  0.00000000000E+00  0.00000000000E+00  0.45593999997E+02  0.45594000000E+02  0.51100000000E-03 0. -1.
         11   -1    0    0    0    0 -0.00000000000E+00 -0.00000000000E+00 -0.45593999997E+02  0.45594000000E+02  0.51100000000E-03 0.  1.
    9900012    2    1    2    0    0 -0.30243792159E+00  0.71341442854E+00  0.89175354553E+00  0.90006622317E+02  0.89998868925E+02 0.  0.
        -12    1    1    2    0    0  0.30243792159E+00 -0.71341442854E+00 -0.89175354553E+00  0.11813776827E+01  0.00000000000E+00 0.  1.
         11    1    3    3    0    0  0.11320904479E+01 -0.81684361677E+01  0.38900413816E+01  0.91179712886E+01  0.51100000000E-03 0. -1.
        -11    1    3    3    0    0 -0.35371111025E+02 -0.60936898877E+00 -0.21183878506E+02  0.41234009440E+02  0.51100000000E-03 0.  1.
         12    1    3    3    0    0  0.33936582655E+02  0.94912195850E+01  0.18185590670E+02  0.39654641589E+02  0.00000000000E+00 0. -1.
</event>
<event>
 7    1  0.2895479E-015  0.9000761E+02  0.7816164E-02  0.1186339E+00
        -11   -1    0    0    0    0  0.00000000000E+00  0.00000000000E+00  0.45593999997E+02  0.45594000000E+02  0.51100000000E-03 0.  1.
         11   -1    0    0    0    0 -0.00000000000E+00 -0.00000000000E+00 -0.45593999997E+02  0.45594000000E+02  0.51100000000E-03 0. -1.
    9900012    2    1    2    0    0 -0.42000914945E+00 -0.98169846194E+00  0.50318047483E+00  0.90007605936E+02  0.89999865534E+02 0.  0.
        -12    1    1    2    0    0  0.42000914945E+00  0.98169846194E+00 -0.50318047483E+00  0.11803940639E+01  0.00000000000E+00 0.  1.
         11    1    3    3    0    0  0.20641065157E+02  0.14461025908E+02 -0.26916259383E+02  0.36873565878E+02  0.51100000000E-03 0. -1.
        -11    1    3    3    0    0 -0.43205261392E+01 -0.11295691066E+01 -0.92993421059E+01  0.10316037822E+02  0.51100000000E-03 0.  1.
        -12    1    3    3    0    0 -0.16740548167E+02 -0.14313155263E+02  0.36718781964E+02  0.42818002236E+02  0.00000000000E+00 0.  1.
</event>
<event>
 7    1  0.2895479E-015  0.9000779E+02  0.7816164E-02  0.1186339E+00
        -11   -1    0    0    0    0  0.00000000000E+00  0.00000000000E+00  0.45593999997E+02  0.45594000000E+02  0.51100000000E-03 0. -1.
         11   -1    0    0    0    0 -0.00000000000E+00 -0.00000000000E+00 -0.45593999997E+02  0.45594000000E+02  0.51100000000E-03 0.  1.
    9900012    2    1    2    0    0  0.43962445163E+00  0.10473135695E+01  0.32057443937E+00  0.90007786739E+02  0.90000048723E+02 0.  0.
        -12    1    1    2    0    0 -0.43962445163E+00 -0.10473135695E+01 -0.32057443937E+00  0.11802132615E+01  0.00000000000E+00 0.  1.
         11    1    3    3    0    0  0.15606416584E+02 -0.27263611443E+02  0.25574713986E+02  0.40508403365E+02  0.51100000000E-03 0. -1.
        -11    1    3    3    0    0 -0.13197109452E+01 -0.49617671115E+01 -0.80900150388E+01  0.95817072298E+01  0.51100000000E-03 0.  1.
        -12    1    3    3    0    0 -0.13847081187E+02  0.33272692124E+02 -0.17164124508E+02  0.39917676143E+02  0.00000000000E+00 0.  1.
</event>
<event>
 7    1  0.2895479E-015  0.9000783E+02  0.7816164E-02  0.1186339E+00
        -11   -1    0    0    0    0  0.00000000000E+00  0.00000000000E+00  0.45593999997E+02  0.45594000000E+02  0.51100000000E-03 0.  1.
         11   -1    0    0    0    0 -0.00000000000E+00 -0.00000000000E+00 -0.45593999997E+02  0.45594000000E+02  0.51100000000E-03 0. -1.
    9900012    2    1    2    0    0  0.33075735855E+00 -0.89394068937E+00 -0.69590403494E+00  0.90007825093E+02  0.90000087584E+02 0.  0.
        -12    1    1    2    0    0 -0.33075735855E+00  0.89394068937E+00  0.69590403494E+00  0.11801749075E+01  0.00000000000E+00 0.  1.
         11    1    3    3    0    0 -0.20495042922E+02  0.79110099076E+01 -0.31791855332E+02  0.38643924850E+02  0.51100000000E-03 0. -1.
        -11    1    3    3    0    0 -0.71328841109E+01 -0.11242138977E+01 -0.18721844133E+01  0.74596894953E+01  0.51100000000E-03 0.  1.
        -12    1    3    3    0    0  0.27958684391E+02 -0.76807366992E+01  0.32968135710E+02  0.43904210747E+02  0.00000000000E+00 0.  1.
</event>
<event>
 7    1  0.2895479E-015  0.9000781E+02  0.7816164E-02  0.1186339E+00
        -11   -1    0    0    0    0  0.00000000000E+00  0.00000000000E+00  0.45593999997E+02  0.45594000000E+02  0.51100000000E-03 0.  1.
         11   -1    0    0    0    0 -0.00000000000E+00 -0.00000000000E+00 -0.45593999997E+02  0.45594000000E+02  0.51100000000E-03 0. -1.
    9900012    2    1    2    0    0 -0.92363662516E+00  0.47178026310E+00  0.56316635649E+00  0.90007814601E+02  0.90000076953E+02 0.  0.
        -12    1    1    2    0    0  0.92363662516E+00 -0.47178026310E+00 -0.56316635649E+00  0.11801853995E+01  0.00000000000E+00 0.  1.
         11    1    3    3    0    0  0.23213636531E+02  0.27428603836E+02 -0.14130761247E+02  0.38611910638E+02  0.51100000000E-03 0. -1.
        -11    1    3    3    0    0 -0.34461877685E+01  0.20326960958E+01 -0.81528869883E+01  0.90817195541E+01  0.51100000000E-03 0.  1.
        -12    1    3    3    0    0 -0.20691085388E+02 -0.28989519669E+02  0.22846814592E+02  0.42314184409E+02  0.00000000000E+00 0.  1.
</event>
<event>
 7    1  0.2895479E-015  0.9000775E+02  0.7816164E-02  0.1186339E+00
        -11   -1    0    0    0    0  0.00000000000E+00  0.00000000000E+00  0.45593999997E+02  0.45594000000E+02  0.51100000000E-03 0.  1.
         11   -1    0    0    0    0 -0.00000000000E+00 -0.00000000000E+00 -0.45593999997E+02  0.45594000000E+02  0.51100000000E-03 0. -1.
    9900012    2    1    2    0    0  0.53092619118E+00 -0.42587222938E+00 -0.96422946602E+00  0.90007750772E+02  0.90000012283E+02 0.  0.
        -12    1    1    2    0    0 -0.53092619118E+00  0.42587222938E+00  0.96422946602E+00  0.11802492277E+01  0.00000000000E+00 0.  1.
         11    1    3    3    0    0  0.85047443834E+01 -0.33703257916E+01  0.61812826305E+01  0.11040744005E+02  0.51100000000E-03 0. -1.
        -11    1    3    3    0    0  0.34828414298E+02 -0.43492529875E+01 -0.98344441097E+00  0.35112698660E+02  0.51100000000E-03 0.  1.
         12    1    3    3    0    0 -0.42802232490E+02  0.72937065498E+01 -0.61620676855E+01  0.43854308107E+02  0.00000000000E+00 0. -1.
</event>
<event>
 7    1  0.2895479E-015  0.9000778E+02  0.7816164E-02  0.1186339E+00
        -11   -1    0    0    0    0  0.00000000000E+00  0.00000000000E+00  0.45593999997E+02  0.45594000000E+02  0.51100000000E-03 0. -1.
         11   -1    0    0    0    0 -0.00000000000E+00 -0.00000000000E+00 -0.45593999997E+02  0.45594000000E+02  0.51100000000E-03 0.  1.
    9900012    2    1    2    0    0 -0.99968047534E+00 -0.24176174824E+00 -0.57888429105E+00  0.90007781030E+02  0.90000042939E+02 0.  0.
        -12    1    1    2    0    0  0.99968047534E+00  0.24176174824E+00  0.57888429105E+00  0.11802189704E+01  0.00000000000E+00 0.  1.
         11    1    3    3    0    0 -0.15168426378E+01 -0.62378131227E+01 -0.73588739035E+01  0.97654569545E+01  0.51100000000E-03 0. -1.
        -11    1    3    3    0    0 -0.92271634213E+01  0.23753873641E+02 -0.29320846727E+02  0.38847124871E+02  0.51100000000E-03 0.  1.
         12    1    3    3    0    0  0.97443255837E+01 -0.17757822266E+02  0.36100836339E+02  0.41395199204E+02  0.00000000000E+00 0. -1.
</event>
<event>
 7    1  0.2895479E-015  0.9000771E+02  0.7816164E-02  0.1186339E+00
        -11   -1    0    0    0    0  0.00000000000E+00  0.00000000000E+00  0.45593999997E+02  0.45594000000E+02  0.51100000000E-03 0.  1.
         11   -1    0    0    0    0 -0.00000000000E+00 -0.00000000000E+00 -0.45593999997E+02  0.45594000000E+02  0.51100000000E-03 0. -1.
    9900012    2    1    2    0    0  0.11221031437E+01 -0.14223129344E+00  0.33725124119E+00  0.90007710372E+02  0.89999971349E+02 0.  0.
        -12    1    1    2    0    0 -0.11221031437E+01  0.14223129344E+00 -0.33725124119E+00  0.11802896279E+01  0.00000000000E+00 0.  1.
         11    1    3    3    0    0  0.10617285673E+02  0.37087159549E+00 -0.91087043413E+00  0.10662738204E+02  0.51100000000E-03 0. -1.
        -11    1    3    3    0    0 -0.21066461084E+02 -0.35574393648E+02 -0.58243077751E+01  0.41752315233E+02  0.51100000000E-03 0.  1.
         12    1    3    3    0    0  0.11571278555E+02  0.35061290759E+02  0.70724294505E+01  0.37592656935E+02  0.00000000000E+00 0. -1.
</event>
<event>
 7    1  0.2895479E-015  0.9000781E+02  0.7816164E-02  0.1186339E+00
        -11   -1    0    0    0    0  0.00000000000E+00  0.00000000000E+00  0.45593999997E+02  0.45594000000E+02  0.51100000000E-03 0.  1.
         11   -1    0    0    0    0 -0.00000000000E+00 -0.00000000000E+00 -0.45593999997E+02  0.45594000000E+02  0.51100000000E-03 0. -1.
    9900012    2    1    2    0    0  0.28777448297E+00 -0.66681024584E+00  0.93026511291E+00  0.90007812203E+02  0.90000074524E+02 0.  0.
        -12    1    1    2    0    0 -0.28777448297E+00  0.66681024584E+00 -0.93026511291E+00  0.11801877975E+01  0.00000000000E+00 0.  1.
         11    1    3    3    0    0 -0.46356604177E+01  0.37331747407E+01  0.67439481148E+01  0.89948194862E+01  0.51100000000E-03 0. -1.
        -11    1    3    3    0    0 -0.16689288730E+01 -0.41934602001E+02  0.23714746991E+01  0.42034748257E+02  0.51100000000E-03 0.  1.
         12    1    3    3    0    0  0.65923637736E+01  0.37534617014E+02 -0.81851577010E+01  0.38978244459E+02  0.00000000000E+00 0. -1.
</event>
<event>
 7    1  0.2895479E-015  0.9000773E+02  0.7816164E-02  0.1186339E+00
        -11   -1    0    0    0    0  0.00000000000E+00  0.00000000000E+00  0.45593999997E+02  0.45594000000E+02  0.51100000000E-03 0. -1.
         11   -1    0    0    0    0 -0.00000000000E+00 -0.00000000000E+00 -0.45593999997E+02  0.45594000000E+02  0.51100000000E-03 0.  1.
    9900012    2    1    2    0    0  0.21104918511E+00  0.29191670733E+00  0.11239596091E+01  0.90007727860E+02  0.89999989067E+02 0.  0.
        -12    1    1    2    0    0 -0.21104918511E+00 -0.29191670733E+00 -0.11239596091E+01  0.11802721404E+01  0.00000000000E+00 0.  1.
         11    1    3    3    0    0 -0.55671424921E+01  0.42885425497E+02  0.29212579836E+01  0.43343817830E+02  0.51100000000E-03 0. -1.
        -11    1    3    3    0    0  0.67280108693E+01 -0.41523175334E+01  0.15815357779E+01  0.80628237506E+01  0.51100000000E-03 0.  1.
        -12    1    3    3    0    0 -0.94981919207E+00 -0.38441191256E+02 -0.33788341523E+01  0.38601086279E+02  0.00000000000E+00 0.  1.
</event>
<event>
 7    1  0.2895479E-015  0.9000778E+02  0.7816164E-02  0.1186339E+00
        -11   -1    0    0    0    0  0.00000000000E+00  0.00000000000E+00  0.45593999997E+02  0.45594000000E+02  0.51100000000E-03 0.  1.
         11   -1    0    0    0    0 -0.00000000000E+00 -0.00000000000E+00 -0.45593999997E+02  0.45594000000E+02  0.51100000000E-03 0. -1.
    9900012    2    1    2    0    0  0.90927348012E+00 -0.73783309972E+00  0.14748789285E+00  0.90007776028E+02  0.90000037872E+02 0.  0.
        -12    1    1    2    0    0 -0.90927348012E+00  0.73783309972E+00 -0.14748789285E+00  0.11802239716E+01  0.00000000000E+00 0.  1.
         11    1    3    3    0    0  0.22707516064E+01  0.16550297832E+02 -0.31629075297E+02  0.35769639019E+02  0.51100000000E-03 0. -1.
        -11    1    3    3    0    0 -0.11749505909E+01  0.91428191545E+01 -0.37550893952E+01  0.99535093113E+01  0.51100000000E-03 0.  1.
        -12    1    3    3    0    0 -0.18652753532E+00 -0.26430950086E+02  0.35531652585E+02  0.44284627698E+02  0.00000000000E+00 0.  1.
</event>
<event>
 7    1  0.2895479E-015  0.9000756E+02  0.7816164E-02  0.1186339E+00
        -11   -1    0    0    0    0  0.00000000000E+00  0.00000000000E+00  0.45593999997E+02  0.45594000000E+02  0.51100000000E-03 0.  1.
         11   -1    0    0    0    0 -0.00000000000E+00 -0.00000000000E+00 -0.45593999997E+02  0.45594000000E+02  0.51100000000E-03 0. -1.
    9900012    2    1    2    0    0 -0.56669902573E+00  0.61358757712E+00 -0.83414713390E+00  0.90007559853E+02  0.89999818842E+02 0.  0.
        -12    1    1    2    0    0  0.56669902573E+00 -0.61358757712E+00  0.83414713390E+00  0.11804401474E+01  0.00000000000E+00 0.  1.
         11    1    3    3    0    0 -0.73884496938E+01 -0.15598268476E+02 -0.30567154330E+02  0.35103362978E+02  0.51100000000E-03 0. -1.
        -11    1    3    3    0    0 -0.74984551793E+01 -0.87533282872E+01 -0.23929894827E+01  0.11771745202E+02  0.51100000000E-03 0.  1.
        -12    1    3    3    0    0  0.14320205847E+02  0.24965184340E+02  0.32125996678E+02  0.43132451672E+02  0.00000000000E+00 0.  1.
</event>
<event>
 7    1  0.2895479E-015  0.9000773E+02  0.7816164E-02  0.1186339E+00
        -11   -1    0    0    0    0  0.00000000000E+00  0.00000000000E+00  0.45593999997E+02  0.45594000000E+02  0.51100000000E-03 0. -1.
         11   -1    0    0    0    0 -0.00000000000E+00 -0.00000000000E+00 -0.45593999997E+02  0.45594000000E+02  0.51100000000E-03 0.  1.
    9900012    2    1    2    0    0  0.10426549731E+01  0.16767646830E+00  0.52706899656E+00  0.90007726083E+02  0.89999987268E+02 0.  0.
        -12    1    1    2    0    0 -0.10426549731E+01 -0.16767646830E+00 -0.52706899656E+00  0.11802739166E+01  0.00000000000E+00 0.  1.
         11    1    3    3    0    0 -0.38092906794E+02  0.59962802278E+01 -0.24134059146E+01  0.38637410019E+02  0.51100000000E-03 0. -1.
        -11    1    3    3    0    0 -0.28144706529E+01 -0.80225036915E+01 -0.28475685940E+01  0.89660725903E+01  0.51100000000E-03 0.  1.
        -12    1    3    3    0    0  0.41950032420E+02  0.21938999320E+01  0.57880435052E+01  0.42404243474E+02  0.00000000000E+00 0.  1.
</event>
<event>
 7    1  0.2895479E-015  0.9000771E+02  0.7816164E-02  0.1186339E+00
        -11   -1    0    0    0    0  0.00000000000E+00  0.00000000000E+00  0.45593999997E+02  0.45594000000E+02  0.51100000000E-03 0. -1.
         11   -1    0    0    0    0 -0.00000000000E+00 -0.00000000000E+00 -0.45593999997E+02  0.45594000000E+02  0.51100000000E-03 0.  1.
    9900012    2    1    2    0    0 -0.89686580871E+00 -0.14967652108E-01  0.76713694453E+00  0.90007707070E+02  0.89999968003E+02 0.  0.
        -12    1    1    2    0    0  0.89686580871E+00  0.14967652108E-01 -0.76713694453E+00  0.11802929302E+01  0.00000000000E+00 0.  1.
         11    1    3    3    0    0 -0.64257999095E+01 -0.36394179260E+01 -0.36057414569E+01  0.82181286818E+01  0.51100000000E-03 0. -1.
        -11    1    3    3    0    0  0.74167633932E+01 -0.24278162477E+02 -0.28806596784E+02  0.38396061921E+02  0.51100000000E-03 0.  1.
         12    1    3    3    0    0 -0.18878292924E+01  0.27902612751E+02  0.33179475186E+02  0.43393516467E+02  0.00000000000E+00 0. -1.
</event>
<event>
 7    1  0.2895479E-015  0.9000780E+02  0.7816164E-02  0.1186339E+00
        -11   -1    0    0    0    0  0.00000000000E+00  0.00000000000E+00  0.45593999997E+02  0.45594000000E+02  0.51100000000E-03 0.  1.
         11   -1    0    0    0    0 -0.00000000000E+00 -0.00000000000E+00 -0.45593999997E+02  0.45594000000E+02  0.51100000000E-03 0. -1.
    9900012    2    1    2    0    0 -0.58326549227E-01 -0.91941834106E+00  0.73766011620E+00  0.90007798950E+02  0.90000061096E+02 0.  0.
        -12    1    1    2    0    0  0.58326549227E-01  0.91941834106E+00 -0.73766011620E+00  0.11802010504E+01  0.00000000000E+00 0.  1.
         11    1    3    3    0    0  0.50094232845E+01 -0.17232063951E+02 -0.58097167646E+00  0.17954828822E+02  0.51100000000E-03 0. -1.
        -11    1    3    3    0    0  0.87695075737E+01 -0.22108801202E+02 -0.14951893609E+02  0.28093815626E+02  0.51100000000E-03 0.  1.
         12    1    3    3    0    0 -0.13837257407E+02  0.38421446812E+02  0.16270525401E+02  0.43959154502E+02  0.00000000000E+00 0. -1.
</event>
<event>
 7    1  0.2895479E-015  0.9000770E+02  0.7816164E-02  0.1186339E+00
        -11   -1    0    0    0    0  0.00000000000E+00  0.00000000000E+00  0.45593999997E+02  0.45594000000E+02  0.51100000000E-03 0. -1.
         11   -1    0    0    0    0 -0.00000000000E+00 -0.00000000000E+00 -0.45593999997E+02  0.45594000000E+02  0.51100000000E-03 0.  1.
    9900012    2    1    2    0    0  0.67543186310E+00  0.54628584923E+00  0.79903691690E+00  0.90007704941E+02  0.89999965847E+02 0.  0.
        -12    1    1    2    0    0 -0.67543186310E+00 -0.54628584923E+00 -0.79903691690E+00  0.11802950586E+01  0.00000000000E+00 0.  1.
         11    1    3    3    0    0  0.65280151226E+01 -0.26749024219E+02  0.22211109088E+02  0.35375961404E+02  0.51100000000E-03 0. -1.
        -11    1    3    3    0    0  0.12870332149E+01  0.21424231387E+01  0.11970409067E+02  0.12228537316E+02  0.51100000000E-03 0.  1.
        -12    1    3    3    0    0 -0.71396164743E+01  0.25152886929E+02 -0.33382481238E+02  0.42403206221E+02  0.00000000000E+00 0.  1.
</event>
<event>
 7    1  0.2895479E-015  0.9000769E+02  0.7816164E-02  0.1186339E+00
        -11   -1    0    0    0    0  0.00000000000E+00  0.00000000000E+00  0.45593999997E+02  0.45594000000E+02  0.51100000000E-03 0. -1.
         11   -1    0    0    0    0 -0.00000000000E+00 -0.00000000000E+00 -0.45593999997E+02  0.45594000000E+02  0.51100000000E-03 0.  1.
    9900012    2    1    2    0    0  0.96536788399E+00  0.20780964332E+00  0.64654013262E+00  0.90007688964E+02  0.89999949658E+02 0.  0.
        -12    1    1    2    0    0 -0.96536788399E+00 -0.20780964332E+00 -0.64654013262E+00  0.11803110363E+01  0.00000000000E+00 0.  1.
         11    1    3    3    0    0  0.61012090185E+01 -0.56537228231E+01 -0.26824360394E+01  0.87398396218E+01  0.51100000000E-03 0. -1.
        -11    1    3    3    0    0  0.20986698796E+02  0.23469786556E+01 -0.31294572657E+02  0.37753147063E+02  0.51100000000E-03 0.  1.
         12    1    3    3    0    0 -0.26122539930E+02  0.35145538109E+01  0.34623548829E+02  0.43514702279E+02  0.00000000000E+00 0. -1.
</event>
<event>
 7    1  0.2895479E-015  0.9000760E+02  0.7816164E-02  0.1186339E+00
        -11   -1    0    0    0    0  0.00000000000E+00  0.00000000000E+00  0.45593999997E+02  0.45594000000E+02  0.51100000000E-03 0.  1.
         11   -1    0    0    0    0 -0.00000000000E+00 -0.00000000000E+00 -0.45593999997E+02  0.45594000000E+02  0.51100000000E-03 0. -1.
    9900012    2    1    2    0    0 -0.11120362272E+01  0.33588755778E+00 -0.20950881273E+00  0.90007602201E+02  0.89999861750E+02 0.  0.
        -12    1    1    2    0    0  0.11120362272E+01 -0.33588755778E+00  0.20950881273E+00  0.11803977993E+01  0.00000000000E+00 0.  1.
         11    1    3    3    0    0 -0.72873971442E+01 -0.64499398115E+01  0.85844983675E-01  0.97321760328E+01  0.51100000000E-03 0. -1.
        -11    1    3    3    0    0 -0.29747939925E+02  0.10648012474E+02  0.21372582938E+02  0.38145870040E+02  0.51100000000E-03 0.  1.
         12    1    3    3    0    0  0.35923300842E+02 -0.38621851047E+01 -0.21667936734E+02  0.42129556128E+02  0.00000000000E+00 0. -1.
</event>
<event>
 7    1  0.2895479E-015  0.9000779E+02  0.7816164E-02  0.1186339E+00
        -11   -1    0    0    0    0  0.00000000000E+00  0.00000000000E+00  0.45593999997E+02  0.45594000000E+02  0.51100000000E-03 0.  1.
         11   -1    0    0    0    0 -0.00000000000E+00 -0.00000000000E+00 -0.45593999997E+02  0.45594000000E+02  0.51100000000E-03 0. -1.
    9900012    2    1    2    0    0 -0.61586353506E+00  0.96129394607E+00 -0.29919652316E+00  0.90007791330E+02  0.90000053376E+02 0.  0.
        -12    1    1    2    0    0  0.61586353506E+00 -0.96129394607E+00  0.29919652316E+00  0.11802086697E+01  0.00000000000E+00 0.  1.
         11    1    3    3    0    0 -0.16194754208E+02 -0.40058181865E+02 -0.18888043756E+01  0.43249226357E+02  0.51100000000E-03 0. -1.
        -11    1    3    3    0    0  0.11384251379E+02  0.10603300913E+02  0.36691458736E+01  0.15984173467E+02  0.51100000000E-03 0.  1.
        -12    1    3    3    0    0  0.41946392937E+01  0.30416174898E+02 -0.20795380211E+01  0.30774391507E+02  0.00000000000E+00 0.  1.
</event>
<event>
 7    1  0.2895479E-015  0.9000778E+02  0.7816164E-02  0.1186339E+00
        -11   -1    0    0    0    0  0.00000000000E+00  0.00000000000E+00  0.45593999997E+02  0.45594000000E+02  0.51100000000E-03 0. -1.
         11   -1    0    0    0    0 -0.00000000000E+00 -0.00000000000E+00 -0.45593999997E+02  0.45594000000E+02  0.51100000000E-03 0.  1.
    9900012    2    1    2    0    0  0.82379148117E+00  0.78609654012E-01  0.84148631048E+00  0.90007783455E+02  0.90000045397E+02 0.  0.
        -12    1    1    2    0    0 -0.82379148117E+00 -0.78609654012E-01 -0.84148631048E+00  0.11802165449E+01  0.00000000000E+00 0.  1.
         11    1    3    3    0    0  0.12097294067E+02 -0.20351323300E+02  0.33689625874E+02  0.41176592569E+02  0.51100000000E-03 0. -1.
        -11    1    3    3    0    0 -0.22615377403E+01 -0.66485472985E+01 -0.33273607844E+01  0.77710400966E+01  0.51100000000E-03 0.  1.
        -12    1    3    3    0    0 -0.90119648452E+01  0.27078480253E+02 -0.29520778779E+02  0.41060150790E+02  0.00000000000E+00 0.  1.
</event>
<event>
 7    1  0.2895479E-015  0.9000772E+02  0.7816164E-02  0.1186339E+00
        -11   -1    0    0    0    0  0.00000000000E+00  0.00000000000E+00  0.45593999997E+02  0.45594000000E+02  0.51100000000E-03 0.  1.
         11   -1    0    0    0    0 -0.00000000000E+00 -0.00000000000E+00 -0.45593999997E+02  0.45594000000E+02  0.51100000000E-03 0. -1.
    9900012    2    1    2    0    0  0.69497155093E+00 -0.16758773698E+00 -0.93914373910E+00  0.90007719496E+02  0.89999980593E+02 0.  0.
        -12    1    1    2    0    0 -0.69497155093E+00  0.16758773698E+00  0.93914373910E+00  0.11802805043E+01  0.00000000000E+00 0.  1.
         11    1    3    3    0    0 -0.15918558616E+02 -0.93401538336E+01  0.26038467136E+02  0.31916151915E+02  0.51100000000E-03 0. -1.
        -11    1    3    3    0    0 -0.61467973541E+01 -0.13102731872E+02  0.25106495492E+01  0.14689045634E+02  0.51100000000E-03 0.  1.
        -12    1    3    3    0    0  0.22760327521E+02  0.22275297969E+02 -0.29488260424E+02  0.43402521946E+02  0.00000000000E+00 0.  1.
</event>
<event>
 7    1  0.2895479E-015  0.9000777E+02  0.7816164E-02  0.1186339E+00
        -11   -1    0    0    0    0  0.00000000000E+00  0.00000000000E+00  0.45593999997E+02  0.45594000000E+02  0.51100000000E-03 0.  1.
         11   -1    0    0    0    0 -0.00000000000E+00 -0.00000000000E+00 -0.45593999997E+02  0.45594000000E+02  0.51100000000E-03 0. -1.
    9900012    2    1    2    0    0 -0.10133032455E+01  0.48111567301E+00  0.36698870952E+00  0.90007772704E+02  0.90000034503E+02 0.  0.
        -12    1    1    2    0    0  0.10133032455E+01 -0.48111567301E+00 -0.36698870952E+00  0.11802272963E+01  0.00000000000E+00 0.  1.
         11    1    3    3    0    0 -0.86233555177E+01  0.79077627903E+00 -0.74359641637E+01  0.11414076871E+02  0.51100000000E-03 0. -1.
        -11    1    3    3    0    0 -0.86860240220E+01  0.13425732481E+02  0.38233150473E+02  0.41442382911E+02  0.51100000000E-03 0.  1.
         12    1    3    3    0    0  0.16296076294E+02 -0.13735393087E+02 -0.30430197600E+02  0.37151312922E+02  0.00000000000E+00 0. -1.
</event>
<event>
 7    1  0.2895479E-015  0.9000786E+02  0.7816164E-02  0.1186339E+00
        -11   -1    0    0    0    0  0.00000000000E+00  0.00000000000E+00  0.45593999997E+02  0.45594000000E+02  0.51100000000E-03 0. -1.
         11   -1    0    0    0    0 -0.00000000000E+00 -0.00000000000E+00 -0.45593999997E+02  0.45594000000E+02  0.51100000000E-03 0.  1.
    9900012    2    1    2    0    0 -0.59990672328E+00  0.97521780029E+00 -0.28598950386E+00  0.90007861097E+02  0.90000124063E+02 0.  0.
        -12    1    1    2    0    0  0.59990672328E+00 -0.97521780029E+00  0.28598950386E+00  0.11801389032E+01  0.00000000000E+00 0.  1.
         11    1    3    3    0    0 -0.64351642459E+01 -0.68859014517E+01  0.33480933113E+01  0.10001835169E+02  0.51100000000E-03 0. -1.
        -11    1    3    3    0    0 -0.22046127676E+02 -0.23673338599E+02 -0.16061828316E+02  0.36117046322E+02  0.51100000000E-03 0.  1.
         12    1    3    3    0    0  0.27881385198E+02  0.31534457851E+02  0.12427745501E+02  0.43888979605E+02  0.00000000000E+00 0. -1.
</event>
<event>
 7    1  0.2895479E-015  0.9000777E+02  0.7816164E-02  0.1186339E+00
        -11   -1    0    0    0    0  0.00000000000E+00  0.00000000000E+00  0.45593999997E+02  0.45594000000E+02  0.51100000000E-03 0. -1.
         11   -1    0    0    0    0 -0.00000000000E+00 -0.00000000000E+00 -0.45593999997E+02  0.45594000000E+02  0.51100000000E-03 0.  1.
    9900012    2    1    2    0    0  0.17326864888E-01  0.99919278765E+00  0.62788932171E+00  0.90007774832E+02  0.90000036660E+02 0.  0.
        -12    1    1    2    0    0 -0.17326864888E-01 -0.99919278765E+00 -0.62788932171E+00  0.11802251681E+01  0.00000000000E+00 0.  1.
         11    1    3    3    0    0  0.64422942250E+01  0.14487013402E+02  0.29254356020E+02  0.33274525671E+02  0.51100000000E-03 0. -1.
        -11    1    3    3    0    0 -0.37568718862E+01  0.17433896972E+02 -0.86276980374E+01  0.19811411451E+02  0.51100000000E-03 0.  1.
        -12    1    3    3    0    0 -0.26680954740E+01 -0.30921717586E+02 -0.19998768661E+02  0.36921837710E+02  0.00000000000E+00 0.  1.
</event>
<event>
 7    1  0.2895479E-015  0.9000769E+02  0.7816164E-02  0.1186339E+00
        -11   -1    0    0    0    0  0.00000000000E+00  0.00000000000E+00  0.45593999997E+02  0.45594000000E+02  0.51100000000E-03 0.  1.
         11   -1    0    0    0    0 -0.00000000000E+00 -0.00000000000E+00 -0.45593999997E+02  0.45594000000E+02  0.51100000000E-03 0. -1.
    9900012    2    1    2    0    0 -0.15139760748E+00 -0.11502908290E+01  0.21689976130E+00  0.90007688290E+02  0.89999948975E+02 0.  0.
        -12    1    1    2    0    0  0.15139760748E+00  0.11502908290E+01 -0.21689976130E+00  0.11803117102E+01  0.00000000000E+00 0.  1.
         11    1    3    3    0    0  0.20205002713E+02  0.17602704821E+02 -0.26300262080E+02  0.37547318645E+02  0.51100000000E-03 0. -1.
        -11    1    3    3    0    0  0.68252274291E+01  0.53286741888E+01  0.28582073798E+01  0.91185441687E+01  0.51100000000E-03 0.  1.
        -12    1    3    3    0    0 -0.27181627750E+02 -0.24081669839E+02  0.23658954462E+02  0.43341825476E+02  0.00000000000E+00 0.  1.
</event>
<event>
 7    1  0.2895479E-015  0.9000787E+02  0.7816164E-02  0.1186339E+00
        -11   -1    0    0    0    0  0.00000000000E+00  0.00000000000E+00  0.45593999997E+02  0.45594000000E+02  0.51100000000E-03 0.  1.
         11   -1    0    0    0    0 -0.00000000000E+00 -0.00000000000E+00 -0.45593999997E+02  0.45594000000E+02  0.51100000000E-03 0. -1.
    9900012    2    1    2    0    0 -0.18464526764E+00  0.20724850738E+00 -0.11470199479E+01  0.90007872643E+02  0.90000135761E+02 0.  0.
        -12    1    1    2    0    0  0.18464526764E+00 -0.20724850738E+00  0.11470199479E+01  0.11801273573E+01  0.00000000000E+00 0.  1.
         11    1    3    3    0    0 -0.87735480852E+01 -0.77011226975E-01 -0.33183688037E+01  0.93804396757E+01  0.51100000000E-03 0. -1.
        -11    1    3    3    0    0  0.20701193779E+02  0.94159122277E+01  0.36551906524E+02  0.43049282198E+02  0.51100000000E-03 0.  1.
         12    1    3    3    0    0 -0.12112290961E+02 -0.91316524933E+01 -0.34380557669E+02  0.37578150769E+02  0.00000000000E+00 0. -1.
</event>
<event>
 7    1  0.2895479E-015  0.9000752E+02  0.7816164E-02  0.1186339E+00
        -11   -1    0    0    0    0  0.00000000000E+00  0.00000000000E+00  0.45593999997E+02  0.45594000000E+02  0.51100000000E-03 0.  1.
         11   -1    0    0    0    0 -0.00000000000E+00 -0.00000000000E+00 -0.45593999997E+02  0.45594000000E+02  0.51100000000E-03 0. -1.
    9900012    2    1    2    0    0  0.45080763157E-01 -0.11630223081E+01 -0.19716130946E+00  0.90007523085E+02  0.89999781590E+02 0.  0.
        -12    1    1    2    0    0 -0.45080763157E-01  0.11630223081E+01  0.19716130946E+00  0.11804769148E+01  0.00000000000E+00 0.  1.
         11    1    3    3    0    0 -0.10008028143E+02  0.31187298004E+02 -0.15515162681E+02  0.36242633146E+02  0.51100000000E-03 0. -1.
        -11    1    3    3    0    0  0.27248807335E+01  0.73041623218E+01 -0.43185154332E+01  0.89120894319E+01  0.51100000000E-03 0.  1.
        -12    1    3    3    0    0  0.73282281729E+01 -0.39654482634E+02  0.19636516804E+02  0.44852800507E+02  0.00000000000E+00 0.  1.
</event>
<event>
 7    1  0.2895479E-015  0.9000776E+02  0.7816164E-02  0.1186339E+00
        -11   -1    0    0    0    0  0.00000000000E+00  0.00000000000E+00  0.45593999997E+02  0.45594000000E+02  0.51100000000E-03 0. -1.
         11   -1    0    0    0    0 -0.00000000000E+00 -0.00000000000E+00 -0.45593999997E+02  0.45594000000E+02  0.51100000000E-03 0.  1.
    9900012    2    1    2    0    0 -0.91497410956E+00 -0.29617352760E+00  0.68415766252E+00  0.90007759310E+02  0.90000020933E+02 0.  0.
        -12    1    1    2    0    0  0.91497410956E+00  0.29617352760E+00 -0.68415766252E+00  0.11802406902E+01  0.00000000000E+00 0.  1.
         11    1    3    3    0    0  0.70641560093E+01 -0.20859430322E+02  0.32598058981E+02  0.39340203139E+02  0.51100000000E-03 0. -1.
        -11    1    3    3    0    0 -0.87577270969E+01  0.66384492040E+00  0.39618681921E+01  0.96350855634E+01  0.51100000000E-03 0.  1.
        -12    1    3    3    0    0  0.77859697803E+00  0.19899411874E+02 -0.35875769510E+02  0.41032470607E+02  0.00000000000E+00 0.  1.
</event>
<event>
 7    1  0.2895479E-015  0.9000779E+02  0.7816164E-02  0.1186339E+00
        -11   -1    0    0    0    0  0.00000000000E+00  0.00000000000E+00  0.45593999997E+02  0.45594000000E+02  0.51100000000E-03 0.  1.
         11   -1    0    0    0    0 -0.00000000000E+00 -0.00000000000E+00 -0.45593999997E+02  0.45594000000E+02  0.51100000000E-03 0. -1.
    9900012    2    1    2    0    0  0.96916215578E+00  0.60223652677E+00  0.30155153410E+00  0.90007789237E+02  0.90000051254E+02 0.  0.
        -12    1    1    2    0    0 -0.96916215578E+00 -0.60223652677E+00 -0.30155153410E+00  0.11802107634E+01  0.00000000000E+00 0.  1.
         11    1    3    3    0    0 -0.27084962105E+02 -0.20238057225E+02 -0.17313120818E+02  0.37985764243E+02  0.51100000000E-03 0. -1.
        -11    1    3    3    0    0  0.25960380324E+01 -0.19949118954E+01 -0.84244950542E+01  0.90383186553E+01  0.51100000000E-03 0.  1.
        -12    1    3    3    0    0  0.25458086228E+02  0.22835205647E+02  0.26039167406E+02  0.42983706338E+02  0.00000000000E+00 0.  1.
</event>
<event>
 7    1  0.2895479E-015  0.9000776E+02  0.7816164E-02  0.1186339E+00
        -11   -1    0    0    0    0  0.00000000000E+00  0.00000000000E+00  0.45593999997E+02  0.45594000000E+02  0.51100000000E-03 0. -1.
         11   -1    0    0    0    0 -0.00000000000E+00 -0.00000000000E+00 -0.45593999997E+02  0.45594000000E+02  0.51100000000E-03 0.  1.
    9900012    2    1    2    0    0  0.22186241086E+00  0.98163232474E+00  0.61656032685E+00  0.90007757827E+02  0.90000019430E+02 0.  0.
        -12    1    1    2    0    0 -0.22186241086E+00 -0.98163232474E+00 -0.61656032685E+00  0.11802421730E+01  0.00000000000E+00 0.  1.
         11    1    3    3    0    0  0.48658341391E+01 -0.90677932570E+01 -0.51456998511E+01  0.11505626608E+02  0.51100000000E-03 0. -1.
        -11    1    3    3    0    0 -0.19971699459E+02 -0.28969636340E+02 -0.41323596989E+01  0.35428590233E+02  0.51100000000E-03 0.  1.
         12    1    3    3    0    0  0.15327727731E+02  0.39019061921E+02  0.98946198769E+01  0.43073540987E+02  0.00000000000E+00 0. -1.
</event>
<event>
 7    1  0.2895479E-015  0.9000774E+02  0.7816164E-02  0.1186339E+00
        -11   -1    0    0    0    0  0.00000000000E+00  0.00000000000E+00  0.45593999997E+02  0.45594000000E+02  0.51100000000E-03 0.  1.
         11   -1    0    0    0    0 -0.00000000000E+00 -0.00000000000E+00 -0.45593999997E+02  0.45594000000E+02  0.51100000000E-03 0. -1.
    9900012    2    1    2    0    0  0.99767439984E+00 -0.52163561547E+00 -0.35433211538E+00  0.90007741905E+02  0.90000003298E+02 0.  0.
        -12    1    1    2    0    0 -0.99767439984E+00  0.52163561547E+00  0.35433211538E+00  0.11802580952E+01  0.00000000000E+00 0.  1.
         11    1    3    3    0    0 -0.22495295957E+01 -0.28406364356E+01  0.28511073033E+01  0.46106845346E+01  0.51100000000E-03 0. -1.
        -11    1    3    3    0    0  0.27941886340E+02 -0.47187030937E+01  0.31405886111E+02  0.42300648385E+02  0.51100000000E-03 0.  1.
         12    1    3    3    0    0 -0.24694682344E+02  0.70377039138E+01 -0.34611325530E+02  0.43096408985E+02  0.00000000000E+00 0. -1.
</event>
<event>
 7    1  0.2895479E-015  0.9000775E+02  0.7816164E-02  0.1186339E+00
        -11   -1    0    0    0    0  0.00000000000E+00  0.00000000000E+00  0.45593999997E+02  0.45594000000E+02  0.51100000000E-03 0.  1.
         11   -1    0    0    0    0 -0.00000000000E+00 -0.00000000000E+00 -0.45593999997E+02  0.45594000000E+02  0.51100000000E-03 0. -1.
    9900012    2    1    2    0    0 -0.83527660134E+00 -0.78368656995E-01 -0.83015861405E+00  0.90007749191E+02  0.90000010681E+02 0.  0.
        -12    1    1    2    0    0  0.83527660134E+00  0.78368656995E-01  0.83015861405E+00  0.11802508088E+01  0.00000000000E+00 0.  1.
         11    1    3    3    0    0 -0.91124959715E+01  0.45059732708E+01 -0.29958630074E+02  0.31636385605E+02  0.51100000000E-03 0. -1.
        -11    1    3    3    0    0 -0.53606516092E+01  0.85405880354E+01 -0.10436497383E+02  0.14512019417E+02  0.51100000000E-03 0.  1.
        -12    1    3    3    0    0  0.13637870979E+02 -0.13124929963E+02  0.39564968843E+02  0.43859344169E+02  0.00000000000E+00 0.  1.
</event>
<event>
 7    1  0.2895479E-015  0.9000770E+02  0.7816164E-02  0.1186339E+00
        -11   -1    0    0    0    0  0.00000000000E+00  0.00000000000E+00  0.45593999997E+02  0.45594000000E+02  0.51100000000E-03 0. -1.
         11   -1    0    0    0    0 -0.00000000000E+00 -0.00000000000E+00 -0.45593999997E+02  0.45594000000E+02  0.51100000000E-03 0.  1.
    9900012    2    1    2    0    0 -0.87401448966E+00 -0.80545307415E-01  0.78912772385E+00  0.90007698581E+02  0.89999959402E+02 0.  0.
        -12    1    1    2    0    0  0.87401448966E+00  0.80545307415E-01 -0.78912772385E+00  0.11803014188E+01  0.00000000000E+00 0.  1.
         11    1    3    3    0    0  0.36043928633E+02  0.16376597514E+02  0.17877243867E+01  0.39630211912E+02  0.51100000000E-03 0. -1.
        -11    1    3    3    0    0 -0.46010628259E+01  0.84087587420E+01 -0.50036370762E+00  0.95983002042E+01  0.51100000000E-03 0.  1.
        -12    1    3    3    0    0 -0.32316880297E+02 -0.24865901564E+02 -0.49823295525E+00  0.40779186465E+02  0.00000000000E+00 0.  1.
</event>
<event>
 7    1  0.2895479E-015  0.9000769E+02  0.7816164E-02  0.1186339E+00
        -11   -1    0    0    0    0  0.00000000000E+00  0.00000000000E+00  0.45593999997E+02  0.45594000000E+02  0.51100000000E-03 0. -1.
         11   -1    0    0    0    0 -0.00000000000E+00 -0.00000000000E+00 -0.45593999997E+02  0.45594000000E+02  0.51100000000E-03 0.  1.
    9900012    2    1    2    0    0  0.56815112974E+00 -0.10344711632E+01 -0.14314025968E-01  0.90007690216E+02  0.89999950927E+02 0.  0.
        -12    1    1    2    0    0 -0.56815112974E+00  0.10344711632E+01  0.14314025968E-01  0.11803097835E+01  0.00000000000E+00 0.  1.
         11    1    3    3    0    0 -0.20429304412E+02 -0.20184365635E+02 -0.26465231772E+02  0.39053470881E+02  0.51100000000E-03 0. -1.
        -11    1    3    3    0    0 -0.82799844427E+01  0.27749383759E+00  0.80853286977E+01  0.11576168866E+02  0.51100000000E-03 0.  1.
        -12    1    3    3    0    0  0.29277439984E+02  0.18872400634E+02  0.18365589048E+02  0.39378050470E+02  0.00000000000E+00 0.  1.
</event>
<event>
 7    1  0.2895479E-015  0.9000784E+02  0.7816164E-02  0.1186339E+00
        -11   -1    0    0    0    0  0.00000000000E+00  0.00000000000E+00  0.45593999997E+02  0.45594000000E+02  0.51100000000E-03 0. -1.
         11   -1    0    0    0    0 -0.00000000000E+00 -0.00000000000E+00 -0.45593999997E+02  0.45594000000E+02  0.51100000000E-03 0.  1.
    9900012    2    1    2    0    0 -0.10512927537E+00 -0.59321210357E+00  0.10148078387E+01  0.90007835726E+02  0.90000098357E+02 0.  0.
        -12    1    1    2    0    0  0.10512927537E+00  0.59321210357E+00 -0.10148078387E+01  0.11801642741E+01  0.00000000000E+00 0.  1.
         11    1    3    3    0    0 -0.21190613099E+02 -0.32012539769E+01  0.34398962568E+02  0.40528739637E+02  0.51100000000E-03 0. -1.
        -11    1    3    3    0    0 -0.27589334194E+01 -0.75978482922E+01 -0.12432285915E+01  0.81783023835E+01  0.51100000000E-03 0.  1.
        -12    1    3    3    0    0  0.23844417243E+02  0.10205890166E+02 -0.32140926138E+02  0.41300793706E+02  0.00000000000E+00 0.  1.
</event>
<event>
 7    1  0.2895479E-015  0.9000775E+02  0.7816164E-02  0.1186339E+00
        -11   -1    0    0    0    0  0.00000000000E+00  0.00000000000E+00  0.45593999997E+02  0.45594000000E+02  0.51100000000E-03 0. -1.
         11   -1    0    0    0    0 -0.00000000000E+00 -0.00000000000E+00 -0.45593999997E+02  0.45594000000E+02  0.51100000000E-03 0.  1.
    9900012    2    1    2    0    0 -0.59440452606E+00 -0.19079982877E+00  0.10016342401E+01  0.90007748982E+02  0.90000010468E+02 0.  0.
        -12    1    1    2    0    0  0.59440452606E+00  0.19079982877E+00 -0.10016342401E+01  0.11802510183E+01  0.00000000000E+00 0.  1.
         11    1    3    3    0    0 -0.21243688175E+02 -0.24838245418E+02  0.18377898372E+02  0.37496398114E+02  0.51100000000E-03 0. -1.
        -11    1    3    3    0    0 -0.10085189155E+02  0.32002685731E+01  0.12602124636E+01  0.10655556999E+02  0.51100000000E-03 0.  1.
        -12    1    3    3    0    0  0.30734472804E+02  0.21447177017E+02 -0.18636476595E+02  0.41855793869E+02  0.00000000000E+00 0.  1.
</event>
<event>
 7    1  0.2895479E-015  0.9000776E+02  0.7816164E-02  0.1186339E+00
        -11   -1    0    0    0    0  0.00000000000E+00  0.00000000000E+00  0.45593999997E+02  0.45594000000E+02  0.51100000000E-03 0. -1.
         11   -1    0    0    0    0 -0.00000000000E+00 -0.00000000000E+00 -0.45593999997E+02  0.45594000000E+02  0.51100000000E-03 0.  1.
    9900012    2    1    2    0    0  0.10752513974E+01  0.22631575707E+00  0.43078873739E+00  0.90007761327E+02  0.90000022976E+02 0.  0.
        -12    1    1    2    0    0 -0.10752513974E+01 -0.22631575707E+00 -0.43078873739E+00  0.11802386732E+01  0.00000000000E+00 0.  1.
         11    1    3    3    0    0 -0.67318812584E+01  0.27904793638E+02  0.23801414942E+02  0.37289450073E+02  0.51100000000E-03 0. -1.
        -11    1    3    3    0    0 -0.84902918767E+01 -0.22032226767E+01  0.59474592432E+01  0.10597712868E+02  0.51100000000E-03 0.  1.
        -12    1    3    3    0    0  0.16297424532E+02 -0.25475255204E+02 -0.29318085447E+02  0.42120598386E+02  0.00000000000E+00 0.  1.
</event>
<event>
 7    1  0.2895479E-015  0.9000775E+02  0.7816164E-02  0.1186339E+00
        -11   -1    0    0    0    0  0.00000000000E+00  0.00000000000E+00  0.45593999997E+02  0.45594000000E+02  0.51100000000E-03 0. -1.
         11   -1    0    0    0    0 -0.00000000000E+00 -0.00000000000E+00 -0.45593999997E+02  0.45594000000E+02  0.51100000000E-03 0.  1.
    9900012    2    1    2    0    0 -0.68045471874E+00 -0.74266644484E+00  0.61515473258E+00  0.90007751121E+02  0.90000012635E+02 0.  0.
        -12    1    1    2    0    0  0.68045471874E+00  0.74266644484E+00 -0.61515473258E+00  0.11802488795E+01  0.00000000000E+00 0.  1.
         11    1    3    3    0    0 -0.21218185152E+01 -0.94526302401E+01  0.14137463497E+02  0.17138325667E+02  0.51100000000E-03 0. -1.
        -11    1    3    3    0    0  0.11645228434E+02 -0.29678083810E+02 -0.57710466894E+01  0.32399150977E+02  0.51100000000E-03 0.  1.
         12    1    3    3    0    0 -0.10203864637E+02  0.38388047605E+02 -0.77512620755E+01  0.40470274476E+02  0.00000000000E+00 0. -1.
</event>
<event>
 7    1  0.2895479E-015  0.9000784E+02  0.7816164E-02  0.1186339E+00
        -11   -1    0    0    0    0  0.00000000000E+00  0.00000000000E+00  0.45593999997E+02  0.45594000000E+02  0.51100000000E-03 0.  1.
         11   -1    0    0    0    0 -0.00000000000E+00 -0.00000000000E+00 -0.45593999997E+02  0.45594000000E+02  0.51100000000E-03 0. -1.
    9900012    2    1    2    0    0  0.55575751013E+00 -0.10400035640E+01  0.47962116436E-01  0.90007841456E+02  0.90000104164E+02 0.  0.
        -12    1    1    2    0    0 -0.55575751013E+00  0.10400035640E+01 -0.47962116436E-01  0.11801585435E+01  0.00000000000E+00 0.  1.
         11    1    3    3    0    0 -0.87634371786E-01 -0.10318273894E+02 -0.21791125408E+01  0.10546230969E+02  0.51100000000E-03 0. -1.
        -11    1    3    3    0    0 -0.23319915116E+01 -0.22362248146E+02  0.29839277155E+02  0.37361621859E+02  0.51100000000E-03 0.  1.
         12    1    3    3    0    0  0.29753833936E+01  0.31640518475E+02 -0.27612202498E+02  0.42099988628E+02  0.00000000000E+00 0. -1.
</event>
<event>
 7    1  0.2895479E-015  0.9000777E+02  0.7816164E-02  0.1186339E+00
        -11   -1    0    0    0    0  0.00000000000E+00  0.00000000000E+00  0.45593999997E+02  0.45594000000E+02  0.51100000000E-03 0.  1.
         11   -1    0    0    0    0 -0.00000000000E+00 -0.00000000000E+00 -0.45593999997E+02  0.45594000000E+02  0.51100000000E-03 0. -1.
    9900012    2    1    2    0    0 -0.82797751487E+00 -0.75975556707E+00 -0.36078247037E+00  0.90007771515E+02  0.90000033299E+02 0.  0.
        -12    1    1    2    0    0  0.82797751487E+00  0.75975556707E+00  0.36078247037E+00  0.11802284854E+01  0.00000000000E+00 0.  1.
         11    1    3    3    0    0 -0.11115475476E+02  0.11871173174E+02 -0.36104364477E+02  0.39598026240E+02  0.51100000000E-03 0. -1.
        -11    1    3    3    0    0 -0.79150505737E+01 -0.34105268549E+01 -0.69557838203E+00  0.86465917308E+01  0.51100000000E-03 0.  1.
        -12    1    3    3    0    0  0.18202548535E+02 -0.92204018857E+01  0.36439160388E+02  0.41763153544E+02  0.00000000000E+00 0.  1.
</event>
<event>
 7    1  0.2895479E-015  0.9000779E+02  0.7816164E-02  0.1186339E+00
        -11   -1    0    0    0    0  0.00000000000E+00  0.00000000000E+00  0.45593999997E+02  0.45594000000E+02  0.51100000000E-03 0.  1.
         11   -1    0    0    0    0 -0.00000000000E+00 -0.00000000000E+00 -0.45593999997E+02  0.45594000000E+02  0.51100000000E-03 0. -1.
    9900012    2    1    2    0    0  0.59163845699E+00  0.79099042558E+00  0.64589820274E+00  0.90007793914E+02  0.90000055994E+02 0.  0.
        -12    1    1    2    0    0 -0.59163845699E+00 -0.79099042558E+00 -0.64589820274E+00  0.11802060860E+01  0.00000000000E+00 0.  1.
         11    1    3    3    0    0  0.34998815744E+01  0.13152212891E+02  0.16474299838E+02  0.21368959506E+02  0.51100000000E-03 0. -1.
        -11    1    3    3    0    0  0.67374205912E+01  0.25091567489E+02  0.19902825937E+01  0.26056492864E+02  0.51100000000E-03 0.  1.
         12    1    3    3    0    0 -0.96456637085E+01 -0.37452789954E+02 -0.17818684229E+02  0.42582341544E+02  0.00000000000E+00 0. -1.
</event>
<event>
 7    1  0.2895479E-015  0.9000770E+02  0.7816164E-02  0.1186339E+00
        -11   -1    0    0    0    0  0.00000000000E+00  0.00000000000E+00  0.45593999997E+02  0.45594000000E+02  0.51100000000E-03 0.  1.
         11   -1    0    0    0    0 -0.00000000000E+00 -0.00000000000E+00 -0.45593999997E+02  0.45594000000E+02  0.51100000000E-03 0. -1.
    9900012    2    1    2    0    0 -0.10657445484E+01  0.18662200508E+00 -0.47165785598E+00  0.90007703280E+02  0.89999964163E+02 0.  0.
        -12    1    1    2    0    0  0.10657445484E+01 -0.18662200508E+00  0.47165785598E+00  0.11802967204E+01  0.00000000000E+00 0.  1.
         11    1    3    3    0    0  0.58617075970E+01 -0.67100984679E+01  0.49060837971E+01  0.10171268155E+02  0.51100000000E-03 0. -1.
        -11    1    3    3    0    0 -0.58272685793E+01 -0.31542714127E+02  0.15992610938E+02  0.35842202478E+02  0.51100000000E-03 0.  1.
         12    1    3    3    0    0 -0.11001835660E+01  0.38439434600E+02 -0.21370352591E+02  0.43994232646E+02  0.00000000000E+00 0. -1.
</event>
<event>
 7    1  0.2895479E-015  0.9000819E+02  0.7816164E-02  0.1186338E+00
        -11   -1    0    0    0    0  0.00000000000E+00  0.00000000000E+00  0.45593999997E+02  0.45594000000E+02  0.51100000000E-03 0.  1.
         11   -1    0    0    0    0 -0.00000000000E+00 -0.00000000000E+00 -0.45593999997E+02  0.45594000000E+02  0.51100000000E-03 0. -1.
    9900012    2    1    2    0    0 -0.57979719648E+00  0.97220290746E+00 -0.33258231815E+00  0.90008188879E+02  0.90000456171E+02 0.  0.
        -12    1    1    2    0    0  0.57979719648E+00 -0.97220290746E+00  0.33258231815E+00  0.11798111208E+01  0.00000000000E+00 0.  1.
         11    1    3    3    0    0  0.99618237555E+01 -0.33539598809E+02 -0.17642913414E+02  0.39184372073E+02  0.51100000000E-03 0. -1.
        -11    1    3    3    0    0  0.35178962904E+01  0.44238125606E+01 -0.74839966637E+01  0.93784816577E+01  0.51100000000E-03 0.  1.
        -12    1    3    3    0    0 -0.14059517242E+02  0.30087989155E+02  0.24794327760E+02  0.41445335148E+02  0.00000000000E+00 0.  1.
</event>
<event>
 7    1  0.2895479E-015  0.9000764E+02  0.7816164E-02  0.1186339E+00
        -11   -1    0    0    0    0  0.00000000000E+00  0.00000000000E+00  0.45593999997E+02  0.45594000000E+02  0.51100000000E-03 0.  1.
         11   -1    0    0    0    0 -0.00000000000E+00 -0.00000000000E+00 -0.45593999997E+02  0.45594000000E+02  0.51100000000E-03 0. -1.
    9900012    2    1    2    0    0  0.40376408762E+00 -0.50613015197E+00 -0.98694119558E+00  0.90007641541E+02  0.89999901609E+02 0.  0.
        -12    1    1    2    0    0 -0.40376408762E+00  0.50613015197E+00  0.98694119558E+00  0.11803584594E+01  0.00000000000E+00 0.  1.
         11    1    3    3    0    0  0.19981445809E+02 -0.29526601577E+02 -0.19138753040E+02  0.40464431857E+02  0.51100000000E-03 0. -1.
        -11    1    3    3    0    0  0.69909270793E+01  0.84711193032E+01 -0.73719155259E+00  0.11008014141E+02  0.51100000000E-03 0.  1.
        -12    1    3    3    0    0 -0.26568608801E+02  0.20549352122E+02  0.18889003397E+02  0.38535195543E+02  0.00000000000E+00 0.  1.
</event>
<event>
 7    1  0.2895479E-015  0.9000758E+02  0.7816164E-02  0.1186339E+00
        -11   -1    0    0    0    0  0.00000000000E+00  0.00000000000E+00  0.45593999997E+02  0.45594000000E+02  0.51100000000E-03 0.  1.
         11   -1    0    0    0    0 -0.00000000000E+00 -0.00000000000E+00 -0.45593999997E+02  0.45594000000E+02  0.51100000000E-03 0. -1.
    9900012    2    1    2    0    0  0.46200419869E+00  0.89535451276E+00 -0.61504973886E+00  0.90007578988E+02  0.89999838231E+02 0.  0.
        -12    1    1    2    0    0 -0.46200419869E+00 -0.89535451276E+00  0.61504973886E+00  0.11804210115E+01  0.00000000000E+00 0.  1.
         11    1    3    3    0    0  0.72392229043E+01  0.68994755496E+01  0.16822650417E+01  0.10140962827E+02  0.51100000000E-03 0. -1.
        -11    1    3    3    0    0  0.13970965894E+02  0.28054175362E+02 -0.18977474113E+02  0.36638356503E+02  0.51100000000E-03 0.  1.
         12    1    3    3    0    0 -0.20748184600E+02 -0.34058296399E+02  0.16680159332E+02  0.43228259659E+02  0.00000000000E+00 0. -1.
</event>
<event>
 7    1  0.2895479E-015  0.9000786E+02  0.7816164E-02  0.1186339E+00
        -11   -1    0    0    0    0  0.00000000000E+00  0.00000000000E+00  0.45593999997E+02  0.45594000000E+02  0.51100000000E-03 0.  1.
         11   -1    0    0    0    0 -0.00000000000E+00 -0.00000000000E+00 -0.45593999997E+02  0.45594000000E+02  0.51100000000E-03 0. -1.
    9900012    2    1    2    0    0 -0.57752592526E+00  0.98136763886E+00  0.31002872445E+00  0.90007857446E+02  0.90000120365E+02 0.  0.
        -12    1    1    2    0    0  0.57752592526E+00 -0.98136763886E+00 -0.31002872445E+00  0.11801425536E+01  0.00000000000E+00 0.  1.
         11    1    3    3    0    0  0.60926052939E+01  0.49453586238E+01 -0.46483742532E+01  0.91205150427E+01  0.51100000000E-03 0. -1.
        -11    1    3    3    0    0 -0.15944556192E+02  0.36177687055E+02  0.25847465768E+01  0.39619879201E+02  0.51100000000E-03 0.  1.
         12    1    3    3    0    0  0.92744249724E+01 -0.40141678040E+02  0.23736564008E+01  0.41267463202E+02  0.00000000000E+00 0. -1.
</event>
<event>
 7    1  0.2895479E-015  0.9000763E+02  0.7816164E-02  0.1186339E+00
        -11   -1    0    0    0    0  0.00000000000E+00  0.00000000000E+00  0.45593999997E+02  0.45594000000E+02  0.51100000000E-03 0.  1.
         11   -1    0    0    0    0 -0.00000000000E+00 -0.00000000000E+00 -0.45593999997E+02  0.45594000000E+02  0.51100000000E-03 0. -1.
    9900012    2    1    2    0    0 -0.84932592226E+00  0.81838149835E+00 -0.46481507334E-01  0.90007634239E+02  0.89999894211E+02 0.  0.
        -12    1    1    2    0    0  0.84932592226E+00 -0.81838149835E+00  0.46481507334E-01  0.11803657609E+01  0.00000000000E+00 0.  1.
         11    1    3    3    0    0 -0.25720550529E+01  0.38920225630E+01 -0.76467712853E+01  0.89574783380E+01  0.51100000000E-03 0. -1.
        -11    1    3    3    0    0  0.23835087808E+02 -0.33359944878E+02 -0.54152978753E+01  0.41356048946E+02  0.51100000000E-03 0.  1.
         12    1    3    3    0    0 -0.22112358677E+02  0.30286303814E+02  0.13015587653E+02  0.39694106955E+02  0.00000000000E+00 0. -1.
</event>
<event>
 7    1  0.2895479E-015  0.9000782E+02  0.7816164E-02  0.1186339E+00
        -11   -1    0    0    0    0  0.00000000000E+00  0.00000000000E+00  0.45593999997E+02  0.45594000000E+02  0.51100000000E-03 0.  1.
         11   -1    0    0    0    0 -0.00000000000E+00 -0.00000000000E+00 -0.45593999997E+02  0.45594000000E+02  0.51100000000E-03 0. -1.
    9900012    2    1    2    0    0  0.86369644125E+00  0.11532352763E+00  0.79595773657E+00  0.90007822142E+02  0.90000084594E+02 0.  0.
        -12    1    1    2    0    0 -0.86369644125E+00 -0.11532352763E+00 -0.79595773657E+00  0.11801778582E+01  0.00000000000E+00 0.  1.
         11    1    3    3    0    0  0.36736429422E+01 -0.93024999830E+01  0.57558255972E+01  0.11539570485E+02  0.51100000000E-03 0. -1.
        -11    1    3    3    0    0  0.26511361257E+02 -0.22268297265E+02 -0.66871479144E+01  0.35262547927E+02  0.51100000000E-03 0.  1.
         12    1    3    3    0    0 -0.29321307758E+02  0.31686120775E+02  0.17272800538E+01  0.43205703730E+02  0.00000000000E+00 0. -1.
</event>
<event>
 7    1  0.3472508E-015  0.9000779E+02  0.7816164E-02  0.1186339E+00
        -11   -1    0    0    0    0  0.00000000000E+00  0.00000000000E+00  0.45593999997E+02  0.45594000000E+02  0.51100000000E-03 0. -1.
         11   -1    0    0    0    0 -0.00000000000E+00 -0.00000000000E+00 -0.45593999997E+02  0.45594000000E+02  0.51100000000E-03 0.  1.
    9900012    2    1    2    0    0 -0.31200272229E+00  0.10443534340E+01  0.45263437365E+00  0.90007789142E+02  0.90000051158E+02 0.  0.
        -12    1    1    2    0    0  0.31200272229E+00 -0.10443534340E+01 -0.45263437365E+00  0.11802108583E+01  0.00000000000E+00 0.  1.
         11    1    3    3    0    0  0.73371962164E+01  0.13333937514E+01 -0.60203064899E+01  0.95841785098E+01  0.51100000000E-03 0. -1.
        -11    1    3    3    0    0 -0.26691225474E+02  0.31164236363E+02 -0.62728649010E+01  0.41508794005E+02  0.51100000000E-03 0.  1.
         12    1    3    3    0    0  0.19042026536E+02 -0.31453276681E+02  0.12745805765E+02  0.38914816627E+02  0.00000000000E+00 0. -1.
</event>
<event>
 7    1  0.2895479E-015  0.9000797E+02  0.7816164E-02  0.1186339E+00
        -11   -1    0    0    0    0  0.00000000000E+00  0.00000000000E+00  0.45593999997E+02  0.45594000000E+02  0.51100000000E-03 0. -1.
         11   -1    0    0    0    0 -0.00000000000E+00 -0.00000000000E+00 -0.45593999997E+02  0.45594000000E+02  0.51100000000E-03 0.  1.
    9900012    2    1    2    0    0  0.92483689585E+00 -0.35573521521E+00  0.64078284731E+00  0.90007968863E+02  0.90000233252E+02 0.  0.
        -12    1    1    2    0    0 -0.92483689585E+00  0.35573521521E+00 -0.64078284731E+00  0.11800311372E+01  0.00000000000E+00 0.  1.
         11    1    3    3    0    0 -0.33180366562E+01  0.38797496378E-01  0.41919849946E+01  0.53463642743E+01  0.51100000000E-03 0. -1.
        -11    1    3    3    0    0 -0.39137276373E+02  0.88113795041E+01  0.60114529929E+00  0.40121418053E+02  0.51100000000E-03 0.  1.
         12    1    3    3    0    0  0.43380149925E+02 -0.92059122157E+01 -0.41523474465E+01  0.44540186535E+02  0.00000000000E+00 0. -1.
</event>
<event>
 7    1  0.2895479E-015  0.9000774E+02  0.7816164E-02  0.1186339E+00
        -11   -1    0    0    0    0  0.00000000000E+00  0.00000000000E+00  0.45593999997E+02  0.45594000000E+02  0.51100000000E-03 0.  1.
         11   -1    0    0    0    0 -0.00000000000E+00 -0.00000000000E+00 -0.45593999997E+02  0.45594000000E+02  0.51100000000E-03 0. -1.
    9900012    2    1    2    0    0 -0.93865809949E-01 -0.10672687170E+01  0.49511210783E+00  0.90007741849E+02  0.90000003241E+02 0.  0.
        -12    1    1    2    0    0  0.93865809949E-01  0.10672687170E+01 -0.49511210783E+00  0.11802581514E+01  0.00000000000E+00 0.  1.
         11    1    3    3    0    0  0.96886952833E+01  0.76332722453E+00 -0.28801216026E+01  0.10136497692E+02  0.51100000000E-03 0. -1.
        -11    1    3    3    0    0  0.13390194748E+02  0.25788302817E+02  0.24567722428E+02  0.38051371370E+02  0.51100000000E-03 0.  1.
         12    1    3    3    0    0 -0.23172755841E+02 -0.27618898759E+02 -0.21192488717E+02  0.41819872787E+02  0.00000000000E+00 0. -1.
</event>
<event>
 7    1  0.2895479E-015  0.9000758E+02  0.7816164E-02  0.1186339E+00
        -11   -1    0    0    0    0  0.00000000000E+00  0.00000000000E+00  0.45593999997E+02  0.45594000000E+02  0.51100000000E-03 0.  1.
         11   -1    0    0    0    0 -0.00000000000E+00 -0.00000000000E+00 -0.45593999997E+02  0.45594000000E+02  0.51100000000E-03 0. -1.
    9900012    2    1    2    0    0  0.79030624569E+00  0.54637694984E+00 -0.68576319008E+00  0.90007583596E+02  0.89999842900E+02 0.  0.
        -12    1    1    2    0    0 -0.79030624569E+00 -0.54637694984E+00  0.68576319008E+00  0.11804164037E+01  0.00000000000E+00 0.  1.
         11    1    3    3    0    0  0.90078437474E+01  0.41816238158E+02 -0.93133198705E+01  0.43777585017E+02  0.51100000000E-03 0. -1.
        -11    1    3    3    0    0  0.64050880366E-02 -0.14645695313E+02 -0.46456539623E+01  0.15364847322E+02  0.51100000000E-03 0.  1.
        -12    1    3    3    0    0 -0.82239425898E+01 -0.26624165895E+02  0.13273210643E+02  0.30865151257E+02  0.00000000000E+00 0.  1.
</event>
<event>
 7    1  0.2895479E-015  0.9000772E+02  0.7816164E-02  0.1186339E+00
        -11   -1    0    0    0    0  0.00000000000E+00  0.00000000000E+00  0.45593999997E+02  0.45594000000E+02  0.51100000000E-03 0.  1.
         11   -1    0    0    0    0 -0.00000000000E+00 -0.00000000000E+00 -0.45593999997E+02  0.45594000000E+02  0.51100000000E-03 0. -1.
    9900012    2    1    2    0    0  0.43583098804E+00 -0.72131012090E+00 -0.82632637942E+00  0.90007723665E+02  0.89999984818E+02 0.  0.
        -12    1    1    2    0    0 -0.43583098804E+00  0.72131012090E+00  0.82632637942E+00  0.11802763346E+01  0.00000000000E+00 0.  1.
         11    1    3    3    0    0  0.91311726593E+00 -0.68957819814E+01 -0.61687905518E+01  0.92972882825E+01  0.51100000000E-03 0. -1.
        -11    1    3    3    0    0 -0.35173875021E+02 -0.78802872388E+01  0.19141590629E+02  0.40812999191E+02  0.51100000000E-03 0.  1.
         12    1    3    3    0    0  0.34696588743E+02  0.14054759099E+02 -0.13799126456E+02  0.39897436192E+02  0.00000000000E+00 0. -1.
</event>
<event>
 7    1  0.2941713E-015  0.9000773E+02  0.7816164E-02  0.1186339E+00
        -11   -1    0    0    0    0  0.00000000000E+00  0.00000000000E+00  0.45593999997E+02  0.45594000000E+02  0.51100000000E-03 0.  1.
         11   -1    0    0    0    0 -0.00000000000E+00 -0.00000000000E+00 -0.45593999997E+02  0.45594000000E+02  0.51100000000E-03 0. -1.
    9900012    2    1    2    0    0  0.82663994218E+00  0.78317100693E+00 -0.31039088223E+00  0.90007731844E+02  0.89999993104E+02 0.  0.
        -12    1    1    2    0    0 -0.82663994218E+00 -0.78317100693E+00  0.31039088223E+00  0.11802681559E+01  0.00000000000E+00 0.  1.
         11    1    3    3    0    0  0.45907475205E+01  0.90039023263E+01  0.11063816283E+01  0.10167069414E+02  0.51100000000E-03 0. -1.
        -11    1    3    3    0    0  0.36383804110E+02 -0.96642702905E+01 -0.95812186060E+01  0.38845579826E+02  0.51100000000E-03 0.  1.
         12    1    3    3    0    0 -0.40147911688E+02  0.14435389711E+01  0.81644460955E+01  0.40995082604E+02  0.00000000000E+00 0. -1.
</event>
<event>
 7    1  0.2895479E-015  0.9000775E+02  0.7816164E-02  0.1186339E+00
        -11   -1    0    0    0    0  0.00000000000E+00  0.00000000000E+00  0.45593999997E+02  0.45594000000E+02  0.51100000000E-03 0. -1.
         11   -1    0    0    0    0 -0.00000000000E+00 -0.00000000000E+00 -0.45593999997E+02  0.45594000000E+02  0.51100000000E-03 0.  1.
    9900012    2    1    2    0    0  0.64919262593E+00 -0.68850406847E+00  0.70533260481E+00  0.90007752991E+02  0.90000014531E+02 0.  0.
        -12    1    1    2    0    0 -0.64919262593E+00  0.68850406847E+00 -0.70533260481E+00  0.11802470086E+01  0.00000000000E+00 0.  1.
         11    1    3    3    0    0 -0.51268942783E+00 -0.93086157012E+01 -0.59050949643E+01  0.11035548175E+02  0.51100000000E-03 0. -1.
        -11    1    3    3    0    0 -0.34551010872E+02 -0.10345544375E+02 -0.61134963976E+01  0.36581108227E+02  0.51100000000E-03 0.  1.
         12    1    3    3    0    0  0.35712892926E+02  0.18965656007E+02  0.12723923967E+02  0.42391096589E+02  0.00000000000E+00 0. -1.
</event>
<event>
 7    1  0.2895479E-015  0.9000780E+02  0.7816164E-02  0.1186339E+00
        -11   -1    0    0    0    0  0.00000000000E+00  0.00000000000E+00  0.45593999997E+02  0.45594000000E+02  0.51100000000E-03 0.  1.
         11   -1    0    0    0    0 -0.00000000000E+00 -0.00000000000E+00 -0.45593999997E+02  0.45594000000E+02  0.51100000000E-03 0. -1.
    9900012    2    1    2    0    0 -0.11796168621E+00  0.49336250411E+00 -0.10656226247E+01  0.90007799552E+02  0.90000061706E+02 0.  0.
        -12    1    1    2    0    0  0.11796168621E+00 -0.49336250411E+00  0.10656226247E+01  0.11802004483E+01  0.00000000000E+00 0.  1.
         11    1    3    3    0    0 -0.20750542667E+02  0.18110209511E+02 -0.19507080076E+02  0.33750420484E+02  0.51100000000E-03 0. -1.
        -11    1    3    3    0    0  0.19943150269E+01  0.15581517944E+01 -0.13993537731E+02  0.14220556527E+02  0.51100000000E-03 0.  1.
        -12    1    3    3    0    0  0.18638265953E+02 -0.19174998802E+02  0.32434995183E+02  0.42036822540E+02  0.00000000000E+00 0.  1.
</event>
<event>
 7    1  0.2895479E-015  0.9000779E+02  0.7816164E-02  0.1186339E+00
        -11   -1    0    0    0    0  0.00000000000E+00  0.00000000000E+00  0.45593999997E+02  0.45594000000E+02  0.51100000000E-03 0.  1.
         11   -1    0    0    0    0 -0.00000000000E+00 -0.00000000000E+00 -0.45593999997E+02  0.45594000000E+02  0.51100000000E-03 0. -1.
    9900012    2    1    2    0    0  0.61565618328E+00  0.89259422917E+00 -0.46597498915E+00  0.90007792525E+02  0.90000054586E+02 0.  0.
        -12    1    1    2    0    0 -0.61565618328E+00 -0.89259422917E+00  0.46597498915E+00  0.11802074752E+01  0.00000000000E+00 0.  1.
         11    1    3    3    0    0 -0.90199600562E+01 -0.40147128579E+02 -0.94172071674E+01  0.42211792235E+02  0.51100000000E-03 0. -1.
        -11    1    3    3    0    0 -0.61945846320E+01  0.81783665454E+01  0.91798130932E-01  0.10259970042E+02  0.51100000000E-03 0.  1.
        -12    1    3    3    0    0  0.15830200871E+02  0.32861356263E+02  0.88594340473E+01  0.37536030247E+02  0.00000000000E+00 0.  1.
</event>
<event>
 7    1  0.2895479E-015  0.9000824E+02  0.7816164E-02  0.1186338E+00
        -11   -1    0    0    0    0  0.00000000000E+00  0.00000000000E+00  0.45593999997E+02  0.45594000000E+02  0.51100000000E-03 0.  1.
         11   -1    0    0    0    0 -0.00000000000E+00 -0.00000000000E+00 -0.45593999997E+02  0.45594000000E+02  0.51100000000E-03 0. -1.
    9900012    2    1    2    0    0 -0.22387566804E+00 -0.11980851120E+00 -0.11521145919E+01  0.90008236283E+02  0.90000504201E+02 0.  0.
        -12    1    1    2    0    0  0.22387566804E+00  0.11980851120E+00  0.11521145919E+01  0.11797637166E+01  0.00000000000E+00 0.  1.
         11    1    3    3    0    0  0.40867317526E+02  0.46775465695E+01 -0.37537705794E+01  0.41305058740E+02  0.51100000000E-03 0. -1.
        -11    1    3    3    0    0 -0.25913847892E+01 -0.78816882635E+01 -0.44908705209E+01  0.94342039042E+01  0.51100000000E-03 0.  1.
        -12    1    3    3    0    0 -0.38499808405E+02  0.30843331828E+01  0.70925265084E+01  0.39268973639E+02  0.00000000000E+00 0.  1.
</event>
<event>
 7    1  0.2895479E-015  0.9000773E+02  0.7816164E-02  0.1186339E+00
        -11   -1    0    0    0    0  0.00000000000E+00  0.00000000000E+00  0.45593999997E+02  0.45594000000E+02  0.51100000000E-03 0.  1.
         11   -1    0    0    0    0 -0.00000000000E+00 -0.00000000000E+00 -0.45593999997E+02  0.45594000000E+02  0.51100000000E-03 0. -1.
    9900012    2    1    2    0    0 -0.11149117164E+01 -0.26361363721E+00 -0.28373597588E+00  0.90007734611E+02  0.89999995908E+02 0.  0.
        -12    1    1    2    0    0  0.11149117164E+01  0.26361363721E+00  0.28373597588E+00  0.11802653893E+01  0.00000000000E+00 0.  1.
         11    1    3    3    0    0 -0.71769529407E+01  0.31452532680E+01 -0.46988005263E+01  0.91367389303E+01  0.51100000000E-03 0. -1.
        -11    1    3    3    0    0 -0.18602690613E+02  0.31872456317E+02  0.76967882173E+01  0.37698197820E+02  0.51100000000E-03 0.  1.
         12    1    3    3    0    0  0.24664731837E+02 -0.35281323222E+02 -0.32817236668E+01  0.43172797861E+02  0.00000000000E+00 0. -1.
</event>
<event>
 7    1  0.2895479E-015  0.9000779E+02  0.7816164E-02  0.1186339E+00
        -11   -1    0    0    0    0  0.00000000000E+00  0.00000000000E+00  0.45593999997E+02  0.45594000000E+02  0.51100000000E-03 0. -1.
         11   -1    0    0    0    0 -0.00000000000E+00 -0.00000000000E+00 -0.45593999997E+02  0.45594000000E+02  0.51100000000E-03 0.  1.
    9900012    2    1    2    0    0  0.10228081149E+01  0.79363787308E-01 -0.58349457825E+00  0.90007787742E+02  0.90000049740E+02 0.  0.
        -12    1    1    2    0    0 -0.10228081149E+01 -0.79363787308E-01  0.58349457825E+00  0.11802122578E+01  0.00000000000E+00 0.  1.
         11    1    3    3    0    0 -0.25256882601E+01  0.72547835597E+01  0.38335422959E+01  0.85852799885E+01  0.51100000000E-03 0. -1.
        -11    1    3    3    0    0  0.25543812940E+02 -0.37689651374E+01  0.30533023353E+02  0.39986960287E+02  0.51100000000E-03 0.  1.
         12    1    3    3    0    0 -0.21995316565E+02 -0.34064546350E+01 -0.34950060227E+02  0.41435547466E+02  0.00000000000E+00 0. -1.
</event>
<event>
 7    1  0.2895479E-015  0.9000773E+02  0.7816164E-02  0.1186339E+00
        -11   -1    0    0    0    0  0.00000000000E+00  0.00000000000E+00  0.45593999997E+02  0.45594000000E+02  0.51100000000E-03 0.  1.
         11   -1    0    0    0    0 -0.00000000000E+00 -0.00000000000E+00 -0.45593999997E+02  0.45594000000E+02  0.51100000000E-03 0. -1.
    9900012    2    1    2    0    0 -0.74910119249E+00  0.88659590812E+00  0.21410767654E+00  0.90007725880E+02  0.89999987062E+02 0.  0.
        -12    1    1    2    0    0  0.74910119249E+00 -0.88659590812E+00 -0.21410767654E+00  0.11802741199E+01  0.00000000000E+00 0.  1.
         11    1    3    3    0    0  0.43179878218E+01 -0.20963018864E+02 -0.16398463640E+02  0.26962989240E+02  0.51100000000E-03 0. -1.
        -11    1    3    3    0    0  0.25446413744E+02  0.98915976951E+01  0.26780101083E+01  0.27432378967E+02  0.51100000000E-03 0.  1.
         12    1    3    3    0    0 -0.30513502758E+02  0.11958017077E+02  0.13934561209E+02  0.35612357673E+02  0.00000000000E+00 0. -1.
</event>
<event>
 7    1  0.2895479E-015  0.9000771E+02  0.7816164E-02  0.1186339E+00
        -11   -1    0    0    0    0  0.00000000000E+00  0.00000000000E+00  0.45593999997E+02  0.45594000000E+02  0.51100000000E-03 0.  1.
         11   -1    0    0    0    0 -0.00000000000E+00 -0.00000000000E+00 -0.45593999997E+02  0.45594000000E+02  0.51100000000E-03 0. -1.
    9900012    2    1    2    0    0 -0.97060208470E+00  0.13591519873E+00 -0.65768517677E+00  0.90007707180E+02  0.89999968115E+02 0.  0.
        -12    1    1    2    0    0  0.97060208470E+00 -0.13591519873E+00  0.65768517677E+00  0.11802928195E+01  0.00000000000E+00 0.  1.
         11    1    3    3    0    0 -0.90611040492E+01  0.42196561254E+01 -0.26746438939E+01  0.10347116730E+02  0.51100000000E-03 0. -1.
        -11    1    3    3    0    0  0.28320487356E+02 -0.50235511216E+01  0.32287136988E+02  0.43240551397E+02  0.51100000000E-03 0.  1.
         12    1    3    3    0    0 -0.20229985391E+02  0.93981019493E+00 -0.30270178271E+02  0.36420039054E+02  0.00000000000E+00 0. -1.
</event>
<event>
 7    1  0.2895479E-015  0.9000775E+02  0.7816164E-02  0.1186339E+00
        -11   -1    0    0    0    0  0.00000000000E+00  0.00000000000E+00  0.45593999997E+02  0.45594000000E+02  0.51100000000E-03 0. -1.
         11   -1    0    0    0    0 -0.00000000000E+00 -0.00000000000E+00 -0.45593999997E+02  0.45594000000E+02  0.51100000000E-03 0.  1.
    9900012    2    1    2    0    0  0.30614626919E+00 -0.28021931903E+00  0.11048688457E+01  0.90007752750E+02  0.90000014286E+02 0.  0.
        -12    1    1    2    0    0 -0.30614626919E+00  0.28021931903E+00 -0.11048688457E+01  0.11802472500E+01  0.00000000000E+00 0.  1.
         11    1    3    3    0    0  0.66701018890E+01  0.22333356755E+02 -0.53940557704E+01  0.23924149328E+02  0.51100000000E-03 0. -1.
        -11    1    3    3    0    0 -0.14237442228E+02 -0.89323154544E+01 -0.25420439904E+02  0.30474411984E+02  0.51100000000E-03 0.  1.
         12    1    3    3    0    0  0.78734866084E+01 -0.13681260619E+02  0.31919364520E+02  0.35609191438E+02  0.00000000000E+00 0. -1.
</event>
<event>
 7    1  0.2895479E-015  0.9000874E+02  0.7816164E-02  0.1186337E+00
        -11   -1    0    0    0    0  0.00000000000E+00  0.00000000000E+00  0.45593999997E+02  0.45594000000E+02  0.51100000000E-03 0. -1.
         11   -1    0    0    0    0 -0.00000000000E+00 -0.00000000000E+00 -0.45593999997E+02  0.45594000000E+02  0.51100000000E-03 0.  1.
    9900012    2    1    2    0    0 -0.24574265754E+00 -0.10416772413E+01  0.49514048397E+00  0.90008743867E+02  0.90001018480E+02 0.  0.
        -12    1    1    2    0    0  0.24574265754E+00  0.10416772413E+01 -0.49514048397E+00  0.11792561332E+01  0.00000000000E+00 0.  1.
         11    1    3    3    0    0  0.28751969900E+02  0.75652257642E+01  0.25367155627E+02  0.39081977929E+02  0.51100000000E-03 0. -1.
        -11    1    3    3    0    0 -0.72543971822E+01  0.85522513405E+01  0.30240871183E+01  0.11615179061E+02  0.51100000000E-03 0.  1.
        -12    1    3    3    0    0 -0.21743315375E+02 -0.17159154346E+02 -0.27896102261E+02  0.39311586876E+02  0.00000000000E+00 0.  1.
</event>
<event>
 7    1  0.2895479E-015  0.9000764E+02  0.7816164E-02  0.1186339E+00
        -11   -1    0    0    0    0  0.00000000000E+00  0.00000000000E+00  0.45593999997E+02  0.45594000000E+02  0.51100000000E-03 0. -1.
         11   -1    0    0    0    0 -0.00000000000E+00 -0.00000000000E+00 -0.45593999997E+02  0.45594000000E+02  0.51100000000E-03 0.  1.
    9900012    2    1    2    0    0  0.36221168130E+00  0.29781311306E+00  0.10832125491E+01  0.90007644385E+02  0.89999904490E+02 0.  0.
        -12    1    1    2    0    0 -0.36221168130E+00 -0.29781311306E+00 -0.10832125491E+01  0.11803556155E+01  0.00000000000E+00 0.  1.
         11    1    3    3    0    0 -0.75861437698E-01  0.15637881298E+02 -0.12673761257E+02  0.20128917287E+02  0.51100000000E-03 0. -1.
        -11    1    3    3    0    0  0.28785195886E+02  0.82541570454E+01 -0.14611365638E+01  0.29980886095E+02  0.51100000000E-03 0.  1.
         12    1    3    3    0    0 -0.28347122767E+02 -0.23594225231E+02  0.15218110370E+02  0.39897841003E+02  0.00000000000E+00 0. -1.
</event>
<event>
 7    1  0.2895479E-015  0.9000764E+02  0.7816164E-02  0.1186339E+00
        -11   -1    0    0    0    0  0.00000000000E+00  0.00000000000E+00  0.45593999997E+02  0.45594000000E+02  0.51100000000E-03 0.  1.
         11   -1    0    0    0    0 -0.00000000000E+00 -0.00000000000E+00 -0.45593999997E+02  0.45594000000E+02  0.51100000000E-03 0. -1.
    9900012    2    1    2    0    0 -0.83459258241E+00  0.81149477350E+00  0.19542734258E+00  0.90007635483E+02  0.89999895472E+02 0.  0.
        -12    1    1    2    0    0  0.83459258241E+00 -0.81149477350E+00 -0.19542734258E+00  0.11803645167E+01  0.00000000000E+00 0.  1.
         11    1    3    3    0    0  0.36901910062E+02 -0.24678065370E+01 -0.16556227453E+02  0.40520978555E+02  0.51100000000E-03 0. -1.
        -11    1    3    3    0    0  0.20908876423E+01 -0.46586648393E+01  0.51473017534E+01  0.72504954879E+01  0.51100000000E-03 0.  1.
        -12    1    3    3    0    0 -0.39827390287E+02  0.79379661498E+01  0.11604353042E+02  0.42236161440E+02  0.00000000000E+00 0.  1.
</event>
<event>
 7    1  0.2895479E-015  0.9000767E+02  0.7816164E-02  0.1186339E+00
        -11   -1    0    0    0    0  0.00000000000E+00  0.00000000000E+00  0.45593999997E+02  0.45594000000E+02  0.51100000000E-03 0.  1.
         11   -1    0    0    0    0 -0.00000000000E+00 -0.00000000000E+00 -0.45593999997E+02  0.45594000000E+02  0.51100000000E-03 0. -1.
    9900012    2    1    2    0    0 -0.33185072427E-02 -0.63739373944E+00 -0.99342151196E+00  0.90007674582E+02  0.89999935087E+02 0.  0.
        -12    1    1    2    0    0  0.33185072427E-02  0.63739373944E+00  0.99342151196E+00  0.11803254178E+01  0.00000000000E+00 0.  1.
         11    1    3    3    0    0 -0.16172617035E+02  0.53336852847E+01  0.61629647733E+01  0.18110325108E+02  0.51100000000E-03 0. -1.
        -11    1    3    3    0    0  0.22790079509E+01 -0.18867667341E+02  0.26891439546E+02  0.32929200860E+02  0.51100000000E-03 0.  1.
        -12    1    3    3    0    0  0.13890290576E+02  0.12896588317E+02 -0.34047825832E+02  0.38968148614E+02  0.00000000000E+00 0.  1.
</event>
<event>
 7    1  0.2895479E-015  0.9000765E+02  0.7816164E-02  0.1186339E+00
        -11   -1    0    0    0    0  0.00000000000E+00  0.00000000000E+00  0.45593999997E+02  0.45594000000E+02  0.51100000000E-03 0.  1.
         11   -1    0    0    0    0 -0.00000000000E+00 -0.00000000000E+00 -0.45593999997E+02  0.45594000000E+02  0.51100000000E-03 0. -1.
    9900012    2    1    2    0    0  0.72247348483E+00 -0.36730948089E+00 -0.85810454645E+00  0.90007649373E+02  0.89999909544E+02 0.  0.
        -12    1    1    2    0    0 -0.72247348483E+00  0.36730948089E+00  0.85810454645E+00  0.11803506274E+01  0.00000000000E+00 0.  1.
         11    1    3    3    0    0 -0.35312119239E+02 -0.43062460437E+01 -0.24516500193E+02  0.43203568164E+02  0.51100000000E-03 0. -1.
        -11    1    3    3    0    0  0.10880494492E+02  0.94748771103E+01  0.10763874218E+02  0.18000540133E+02  0.51100000000E-03 0.  1.
        -12    1    3    3    0    0  0.25154098232E+02 -0.55359405475E+01  0.12894521429E+02  0.28803541075E+02  0.00000000000E+00 0.  1.
</event>
<event>
 7    1  0.2895479E-015  0.9000777E+02  0.7816164E-02  0.1186339E+00
        -11   -1    0    0    0    0  0.00000000000E+00  0.00000000000E+00  0.45593999997E+02  0.45594000000E+02  0.51100000000E-03 0.  1.
         11   -1    0    0    0    0 -0.00000000000E+00 -0.00000000000E+00 -0.45593999997E+02  0.45594000000E+02  0.51100000000E-03 0. -1.
    9900012    2    1    2    0    0  0.10704760600E+01 -0.38249457416E+00 -0.31738078141E+00  0.90007766271E+02  0.90000027986E+02 0.  0.
        -12    1    1    2    0    0 -0.10704760600E+01  0.38249457416E+00  0.31738078141E+00  0.11802337289E+01  0.00000000000E+00 0.  1.
         11    1    3    3    0    0 -0.85065368787E+01  0.13270146758E+02 -0.25747280357E+02  0.30189077672E+02  0.51100000000E-03 0. -1.
        -11    1    3    3    0    0 -0.14694497516E+02 -0.21046947503E+01 -0.80480630908E+01  0.16885772621E+02  0.51100000000E-03 0.  1.
        -12    1    3    3    0    0  0.24271510455E+02 -0.11547946582E+02  0.33477962666E+02  0.42932915977E+02  0.00000000000E+00 0.  1.
</event>
<event>
 7    1  0.2895479E-015  0.9000780E+02  0.7816164E-02  0.1186339E+00
        -11   -1    0    0    0    0  0.00000000000E+00  0.00000000000E+00  0.45593999997E+02  0.45594000000E+02  0.51100000000E-03 0.  1.
         11   -1    0    0    0    0 -0.00000000000E+00 -0.00000000000E+00 -0.45593999997E+02  0.45594000000E+02  0.51100000000E-03 0. -1.
    9900012    2    1    2    0    0 -0.72965723044E+00 -0.72716532134E+00  0.57593239291E+00  0.90007802051E+02  0.90000064238E+02 0.  0.
        -12    1    1    2    0    0  0.72965723044E+00  0.72716532134E+00 -0.57593239291E+00  0.11801979494E+01  0.00000000000E+00 0.  1.
         11    1    3    3    0    0  0.79721256024E+01 -0.26549392625E+01  0.11945301624E+01  0.84870720321E+01  0.51100000000E-03 0. -1.
        -11    1    3    3    0    0  0.19211792478E+00  0.41211304982E+02 -0.13976307586E+01  0.41235445185E+02  0.51100000000E-03 0.  1.
         12    1    3    3    0    0 -0.88939007576E+01 -0.39283531041E+02  0.77903298907E+00  0.40285284834E+02  0.00000000000E+00 0. -1.
</event>
<event>
 7    1  0.2895479E-015  0.9000769E+02  0.7816164E-02  0.1186339E+00
        -11   -1    0    0    0    0  0.00000000000E+00  0.00000000000E+00  0.45593999997E+02  0.45594000000E+02  0.51100000000E-03 0. -1.
         11   -1    0    0    0    0 -0.00000000000E+00 -0.00000000000E+00 -0.45593999997E+02  0.45594000000E+02  0.51100000000E-03 0.  1.
    9900012    2    1    2    0    0  0.10020280766E+01  0.17348362170E+00  0.59914654840E+00  0.90007689270E+02  0.89999949968E+02 0.  0.
        -12    1    1    2    0    0 -0.10020280766E+01 -0.17348362170E+00 -0.59914654840E+00  0.11803107301E+01  0.00000000000E+00 0.  1.
         11    1    3    3    0    0 -0.21705485600E+02 -0.25587758627E+02  0.20929894591E+02  0.39546453502E+02  0.51100000000E-03 0. -1.
        -11    1    3    3    0    0  0.66042887910E+01 -0.61284101997E+01  0.64658656028E+00  0.90328354603E+01  0.51100000000E-03 0.  1.
        -12    1    3    3    0    0  0.16103224886E+02  0.31889652449E+02 -0.20977334603E+02  0.41428400308E+02  0.00000000000E+00 0.  1.
</event>
<event>
 7    1  0.2895479E-015  0.9000779E+02  0.7816164E-02  0.1186339E+00
        -11   -1    0    0    0    0  0.00000000000E+00  0.00000000000E+00  0.45593999997E+02  0.45594000000E+02  0.51100000000E-03 0. -1.
         11   -1    0    0    0    0 -0.00000000000E+00 -0.00000000000E+00 -0.45593999997E+02  0.45594000000E+02  0.51100000000E-03 0.  1.
    9900012    2    1    2    0    0  0.89965574727E+00 -0.35857902217E+00  0.67449728821E+00  0.90007785625E+02  0.90000047595E+02 0.  0.
        -12    1    1    2    0    0 -0.89965574727E+00  0.35857902217E+00 -0.67449728821E+00  0.11802143748E+01  0.00000000000E+00 0.  1.
         11    1    3    3    0    0  0.41529906886E+01  0.36530469914E+02  0.81097033067E+01  0.37649566422E+02  0.51100000000E-03 0. -1.
        -11    1    3    3    0    0  0.31406564405E+01  0.68883826340E+01 -0.64101817722E+00  0.75976603474E+01  0.51100000000E-03 0.  1.
        -12    1    3    3    0    0 -0.63939913819E+01 -0.43777431570E+02 -0.67941878413E+01  0.44760558856E+02  0.00000000000E+00 0.  1.
</event>
<event>
 7    1  0.2895479E-015  0.9000785E+02  0.7816164E-02  0.1186339E+00
        -11   -1    0    0    0    0  0.00000000000E+00  0.00000000000E+00  0.45593999997E+02  0.45594000000E+02  0.51100000000E-03 0.  1.
         11   -1    0    0    0    0 -0.00000000000E+00 -0.00000000000E+00 -0.45593999997E+02  0.45594000000E+02  0.51100000000E-03 0. -1.
    9900012    2    1    2    0    0  0.11043474993E+01  0.23480141625E+00 -0.34356462922E+00  0.90007850959E+02  0.90000113792E+02 0.  0.
        -12    1    1    2    0    0 -0.11043474993E+01 -0.23480141625E+00  0.34356462922E+00  0.11801490409E+01  0.00000000000E+00 0.  1.
         11    1    3    3    0    0  0.30197867848E+01  0.72115816134E+01 -0.69368993186E+01  0.10452109548E+02  0.51100000000E-03 0. -1.
        -11    1    3    3    0    0 -0.21204891502E+02  0.27194669253E+02  0.17716906152E+02  0.38769655960E+02  0.51100000000E-03 0.  1.
         12    1    3    3    0    0  0.19289452216E+02 -0.34171449450E+02 -0.11123571463E+02  0.40786085451E+02  0.00000000000E+00 0. -1.
</event>
<event>
 7    1  0.2895479E-015  0.9000773E+02  0.7816164E-02  0.1186339E+00
        -11   -1    0    0    0    0  0.00000000000E+00  0.00000000000E+00  0.45593999997E+02  0.45594000000E+02  0.51100000000E-03 0.  1.
         11   -1    0    0    0    0 -0.00000000000E+00 -0.00000000000E+00 -0.45593999997E+02  0.45594000000E+02  0.51100000000E-03 0. -1.
    9900012    2    1    2    0    0  0.29502563703E+00 -0.11427779202E+01  0.72020725748E-02  0.90007731653E+02  0.89999992911E+02 0.  0.
        -12    1    1    2    0    0 -0.29502563703E+00  0.11427779202E+01 -0.72020725749E-02  0.11802683471E+01  0.00000000000E+00 0.  1.
         11    1    3    3    0    0 -0.31371688548E+02  0.19227850406E+02 -0.32065289133E+01  0.36934738412E+02  0.51100000000E-03 0. -1.
        -11    1    3    3    0    0  0.59364651512E+00  0.93703492989E+01  0.36089304662E+01  0.10058838976E+02  0.51100000000E-03 0.  1.
        -12    1    3    3    0    0  0.31073067670E+02 -0.29740977625E+02 -0.39519948035E+00  0.43014154265E+02  0.00000000000E+00 0.  1.
</event>
<event>
 7    1  0.2895479E-015  0.9000776E+02  0.7816164E-02  0.1186339E+00
        -11   -1    0    0    0    0  0.00000000000E+00  0.00000000000E+00  0.45593999997E+02  0.45594000000E+02  0.51100000000E-03 0. -1.
         11   -1    0    0    0    0 -0.00000000000E+00 -0.00000000000E+00 -0.45593999997E+02  0.45594000000E+02  0.51100000000E-03 0.  1.
    9900012    2    1    2    0    0 -0.64012947513E+00 -0.16223093309E+00  0.97820720368E+00  0.90007756824E+02  0.90000018414E+02 0.  0.
        -12    1    1    2    0    0  0.64012947513E+00  0.16223093309E+00 -0.97820720368E+00  0.11802431758E+01  0.00000000000E+00 0.  1.
         11    1    3    3    0    0  0.14632154714E+02  0.29700531026E+02  0.17276076312E+02  0.37345472387E+02  0.51100000000E-03 0. -1.
        -11    1    3    3    0    0 -0.53960565591E+01  0.56023206525E+01  0.58198017576E+01  0.97146032261E+01  0.51100000000E-03 0.  1.
        -12    1    3    3    0    0 -0.98762276298E+01 -0.35465082612E+02 -0.22117670866E+02  0.42947681211E+02  0.00000000000E+00 0.  1.
</event>
<event>
 7    1  0.2895479E-015  0.9000795E+02  0.7816164E-02  0.1186339E+00
        -11   -1    0    0    0    0  0.00000000000E+00  0.00000000000E+00  0.45593999997E+02  0.45594000000E+02  0.51100000000E-03 0.  1.
         11   -1    0    0    0    0 -0.00000000000E+00 -0.00000000000E+00 -0.45593999997E+02  0.45594000000E+02  0.51100000000E-03 0. -1.
    9900012    2    1    2    0    0  0.50305211586E+00  0.98971623552E+00  0.39990429160E+00  0.90007947840E+02  0.90000211951E+02 0.  0.
        -12    1    1    2    0    0 -0.50305211586E+00 -0.98971623552E+00 -0.39990429160E+00  0.11800521601E+01  0.00000000000E+00 0.  1.
         11    1    3    3    0    0 -0.60313487864E+01 -0.98495723613E+01  0.27762251785E+01  0.11878496133E+02  0.51100000000E-03 0. -1.
        -11    1    3    3    0    0  0.12855248473E+02 -0.27768809606E+02 -0.18563689080E+02  0.35790707631E+02  0.51100000000E-03 0.  1.
         12    1    3    3    0    0 -0.63208475707E+01  0.38608098203E+02  0.16187368193E+02  0.42338744075E+02  0.00000000000E+00 0. -1.
</event>
<event>
 7    1  0.2895479E-015  0.9000785E+02  0.7816164E-02  0.1186339E+00
        -11   -1    0    0    0    0  0.00000000000E+00  0.00000000000E+00  0.45593999997E+02  0.45594000000E+02  0.51100000000E-03 0.  1.
         11   -1    0    0    0    0 -0.00000000000E+00 -0.00000000000E+00 -0.45593999997E+02  0.45594000000E+02  0.51100000000E-03 0. -1.
    9900012    2    1    2    0    0 -0.93250585406E+00 -0.61404812711E+00  0.38226434137E+00  0.90007852426E+02  0.90000115278E+02 0.  0.
        -12    1    1    2    0    0  0.93250585406E+00  0.61404812711E+00 -0.38226434137E+00  0.11801475742E+01  0.00000000000E+00 0.  1.
         11    1    3    3    0    0  0.26050815192E+02  0.73926289409E+01 -0.29681193065E+02  0.40177968550E+02  0.51100000000E-03 0. -1.
        -11    1    3    3    0    0 -0.84215151587E+01  0.13135728500E+00 -0.46589559728E+01  0.96252295205E+01  0.51100000000E-03 0.  1.
        -12    1    3    3    0    0 -0.18561805887E+02 -0.81380343530E+01  0.34722413379E+02  0.40204654355E+02  0.00000000000E+00 0.  1.
</event>
<event>
 7    1  0.2895479E-015  0.9000757E+02  0.7816164E-02  0.1186339E+00
        -11   -1    0    0    0    0  0.00000000000E+00  0.00000000000E+00  0.45593999997E+02  0.45594000000E+02  0.51100000000E-03 0.  1.
         11   -1    0    0    0    0 -0.00000000000E+00 -0.00000000000E+00 -0.45593999997E+02  0.45594000000E+02  0.51100000000E-03 0. -1.
    9900012    2    1    2    0    0 -0.25321775851E+00 -0.36399970304E+00 -0.10939885534E+01  0.90007565346E+02  0.89999824409E+02 0.  0.
        -12    1    1    2    0    0  0.25321775851E+00  0.36399970304E+00  0.10939885534E+01  0.11804346539E+01  0.00000000000E+00 0.  1.
         11    1    3    3    0    0 -0.91540567102E+01  0.10368349469E+01  0.17522081108E+01  0.93777403721E+01  0.51100000000E-03 0. -1.
        -11    1    3    3    0    0 -0.24247579882E+02  0.25575875642E+02  0.88160083744E+01  0.36328949185E+02  0.51100000000E-03 0.  1.
         12    1    3    3    0    0  0.33148418833E+02 -0.26976710292E+02 -0.11662205039E+02  0.44300875789E+02  0.00000000000E+00 0. -1.
</event>
<event>
 7    1  0.2895479E-015  0.9000756E+02  0.7816164E-02  0.1186339E+00
        -11   -1    0    0    0    0  0.00000000000E+00  0.00000000000E+00  0.45593999997E+02  0.45594000000E+02  0.51100000000E-03 0.  1.
         11   -1    0    0    0    0 -0.00000000000E+00 -0.00000000000E+00 -0.45593999997E+02  0.45594000000E+02  0.51100000000E-03 0. -1.
    9900012    2    1    2    0    0 -0.56325745101E+00 -0.50016179535E+00 -0.90885165791E+00  0.90007562745E+02  0.89999821773E+02 0.  0.
        -12    1    1    2    0    0  0.56325745101E+00  0.50016179535E+00  0.90885165791E+00  0.11804372553E+01  0.00000000000E+00 0.  1.
         11    1    3    3    0    0 -0.32697110457E+01 -0.85089790291E+01 -0.63955308875E+01  0.11135373816E+02  0.51100000000E-03 0. -1.
        -11    1    3    3    0    0 -0.26081850823E+02 -0.19879921439E+02  0.17310648661E+02  0.37082782745E+02  0.51100000000E-03 0.  1.
         12    1    3    3    0    0  0.28788304418E+02  0.27888738673E+02 -0.11823969432E+02  0.41789406183E+02  0.00000000000E+00 0. -1.
</event>
<event>
 7    1  0.2895479E-015  0.9000811E+02  0.7816164E-02  0.1186338E+00
        -11   -1    0    0    0    0  0.00000000000E+00  0.00000000000E+00  0.45593999997E+02  0.45594000000E+02  0.51100000000E-03 0. -1.
         11   -1    0    0    0    0 -0.00000000000E+00 -0.00000000000E+00 -0.45593999997E+02  0.45594000000E+02  0.51100000000E-03 0.  1.
    9900012    2    1    2    0    0 -0.93585686901E+00 -0.51205788708E-01  0.71672161908E+00  0.90008110178E+02  0.90000376432E+02 0.  0.
        -12    1    1    2    0    0  0.93585686901E+00  0.51205788708E-01 -0.71672161908E+00  0.11798898217E+01  0.00000000000E+00 0.  1.
         11    1    3    3    0    0  0.58691806204E+01  0.16265737459E+02  0.80292710021E+01  0.19065431789E+02  0.51100000000E-03 0. -1.
        -11    1    3    3    0    0  0.44547792238E+01 -0.16895208020E+02 -0.36056279746E+02  0.40066799490E+02  0.51100000000E-03 0.  1.
         12    1    3    3    0    0 -0.11259816713E+02  0.57826477230E+00  0.28743730363E+02  0.30875878899E+02  0.00000000000E+00 0. -1.
</event>
<event>
 7    1  0.2895479E-015  0.9000774E+02  0.7816164E-02  0.1186339E+00
        -11   -1    0    0    0    0  0.00000000000E+00  0.00000000000E+00  0.45593999997E+02  0.45594000000E+02  0.51100000000E-03 0.  1.
         11   -1    0    0    0    0 -0.00000000000E+00 -0.00000000000E+00 -0.45593999997E+02  0.45594000000E+02  0.51100000000E-03 0. -1.
    9900012    2    1    2    0    0 -0.10107344716E+01  0.59344026377E+00  0.13874756378E+00  0.90007743077E+02  0.90000004485E+02 0.  0.
        -12    1    1    2    0    0  0.10107344716E+01 -0.59344026377E+00 -0.13874756378E+00  0.11802569233E+01  0.00000000000E+00 0.  1.
         11    1    3    3    0    0 -0.14410802837E+02 -0.23230395337E+02 -0.23668753682E+02  0.36159817575E+02  0.51100000000E-03 0. -1.
        -11    1    3    3    0    0  0.82832098344E+00 -0.31038125328E+01 -0.90153184448E+01  0.95705660654E+01  0.51100000000E-03 0.  1.
        -12    1    3    3    0    0  0.12571747382E+02  0.26927648133E+02  0.32822819690E+02  0.44277359437E+02  0.00000000000E+00 0.  1.
</event>
<event>
 7    1  0.2895479E-015  0.9000773E+02  0.7816164E-02  0.1186339E+00
        -11   -1    0    0    0    0  0.00000000000E+00  0.00000000000E+00  0.45593999997E+02  0.45594000000E+02  0.51100000000E-03 0. -1.
         11   -1    0    0    0    0 -0.00000000000E+00 -0.00000000000E+00 -0.45593999997E+02  0.45594000000E+02  0.51100000000E-03 0.  1.
    9900012    2    1    2    0    0  0.41284599365E+00  0.10110154354E+01  0.44770671858E+00  0.90007730823E+02  0.89999992070E+02 0.  0.
        -12    1    1    2    0    0 -0.41284599365E+00 -0.10110154354E+01 -0.44770671858E+00  0.11802691773E+01  0.00000000000E+00 0.  1.
         11    1    3    3    0    0 -0.42907501883E-01  0.37785456283E+02  0.20667354102E+02  0.43068341893E+02  0.51100000000E-03 0. -1.
        -11    1    3    3    0    0  0.74665311153E+01 -0.42124956177E+01 -0.14127629989E+01  0.86885042313E+01  0.51100000000E-03 0.  1.
        -12    1    3    3    0    0 -0.70107776197E+01 -0.32561945230E+02 -0.18806884384E+02  0.38250884699E+02  0.00000000000E+00 0.  1.
</event>
<event>
 7    1  0.2895479E-015  0.9000772E+02  0.7816164E-02  0.1186339E+00
        -11   -1    0    0    0    0  0.00000000000E+00  0.00000000000E+00  0.45593999997E+02  0.45594000000E+02  0.51100000000E-03 0.  1.
         11   -1    0    0    0    0 -0.00000000000E+00 -0.00000000000E+00 -0.45593999997E+02  0.45594000000E+02  0.51100000000E-03 0. -1.
    9900012    2    1    2    0    0 -0.10295891834E+01 -0.33727596347E-01 -0.57608217192E+00  0.90007719480E+02  0.89999980577E+02 0.  0.
        -12    1    1    2    0    0  0.10295891834E+01  0.33727596347E-01  0.57608217192E+00  0.11802805201E+01  0.00000000000E+00 0.  1.
         11    1    3    3    0    0 -0.83902578173E+01 -0.19110623165E+01 -0.36811891392E+02  0.37804284593E+02  0.51100000000E-03 0. -1.
        -11    1    3    3    0    0 -0.73965732667E+01 -0.68054595920E+01 -0.20548329673E+01  0.10258943178E+02  0.51100000000E-03 0.  1.
        -12    1    3    3    0    0  0.14757241901E+02  0.86827943121E+01  0.38290642188E+02  0.41944491709E+02  0.00000000000E+00 0.  1.
</event>
<event>
 7    1  0.2895479E-015  0.9000753E+02  0.7816164E-02  0.1186339E+00
        -11   -1    0    0    0    0  0.00000000000E+00  0.00000000000E+00  0.45593999997E+02  0.45594000000E+02  0.51100000000E-03 0. -1.
         11   -1    0    0    0    0 -0.00000000000E+00 -0.00000000000E+00 -0.45593999997E+02  0.45594000000E+02  0.51100000000E-03 0.  1.
    9900012    2    1    2    0    0  0.66772916540E+00 -0.34670982357E-01  0.97284803627E+00  0.90007535000E+02  0.89999793661E+02 0.  0.
        -12    1    1    2    0    0 -0.66772916540E+00  0.34670982357E-01 -0.97284803627E+00  0.11804650003E+01  0.00000000000E+00 0.  1.
         11    1    3    3    0    0  0.22003379895E+01  0.85082966424E+01 -0.33427077779E+01  0.94024621548E+01  0.51100000000E-03 0. -1.
        -11    1    3    3    0    0 -0.39108500550E+02  0.70917899094E+01  0.34699208321E+01  0.39897476740E+02  0.51100000000E-03 0.  1.
         12    1    3    3    0    0  0.37575891726E+02 -0.15634757534E+02  0.84563498202E+00  0.40707596105E+02  0.00000000000E+00 0. -1.
</event>
<event>
 7    1  0.2895479E-015  0.9000745E+02  0.7816164E-02  0.1186340E+00
        -11   -1    0    0    0    0  0.00000000000E+00  0.00000000000E+00  0.45593999997E+02  0.45594000000E+02  0.51100000000E-03 0.  1.
         11   -1    0    0    0    0 -0.00000000000E+00 -0.00000000000E+00 -0.45593999997E+02  0.45594000000E+02  0.51100000000E-03 0. -1.
    9900012    2    1    2    0    0  0.97027074396E+00  0.67170041068E+00 -0.32931592055E-01  0.90007452988E+02  0.89999710567E+02 0.  0.
        -12    1    1    2    0    0 -0.97027074396E+00 -0.67170041068E+00  0.32931592055E-01  0.11805470122E+01  0.00000000000E+00 0.  1.
         11    1    3    3    0    0  0.15376592413E+02  0.15527672252E+02 -0.33311232296E+02  0.39839507993E+02  0.51100000000E-03 0. -1.
        -11    1    3    3    0    0 -0.52569181005E+01  0.93431030815E+01  0.49631638785E+01  0.11813625991E+02  0.51100000000E-03 0.  1.
        -12    1    3    3    0    0 -0.91494035686E+01 -0.24199074923E+02  0.28315136826E+02  0.38354319004E+02  0.00000000000E+00 0.  1.
</event>
<event>
 7    1  0.2895479E-015  0.9000778E+02  0.7816164E-02  0.1186339E+00
        -11   -1    0    0    0    0  0.00000000000E+00  0.00000000000E+00  0.45593999997E+02  0.45594000000E+02  0.51100000000E-03 0.  1.
         11   -1    0    0    0    0 -0.00000000000E+00 -0.00000000000E+00 -0.45593999997E+02  0.45594000000E+02  0.51100000000E-03 0. -1.
    9900012    2    1    2    0    0 -0.10609351089E+01  0.79728697421E-01  0.51086152060E+00  0.90007779909E+02  0.90000041804E+02 0.  0.
        -12    1    1    2    0    0  0.10609351089E+01 -0.79728697421E-01 -0.51086152060E+00  0.11802200912E+01  0.00000000000E+00 0.  1.
         11    1    3    3    0    0 -0.18416581719E+00 -0.29014535076E+02 -0.21712432142E+02  0.36239576053E+02  0.51100000000E-03 0. -1.
        -11    1    3    3    0    0 -0.27613398491E+01 -0.95422827933E+01  0.20564907234E+01  0.10144422755E+02  0.51100000000E-03 0.  1.
        -12    1    3    3    0    0  0.18845705575E+01  0.38636546566E+02  0.20166802939E+02  0.43623781101E+02  0.00000000000E+00 0.  1.
</event>
<event>
 7    1  0.2895479E-015  0.9000684E+02  0.7816164E-02  0.1186341E+00
        -11   -1    0    0    0    0  0.00000000000E+00  0.00000000000E+00  0.45593999997E+02  0.45594000000E+02  0.51100000000E-03 0.  1.
         11   -1    0    0    0    0 -0.00000000000E+00 -0.00000000000E+00 -0.45593999997E+02  0.45594000000E+02  0.51100000000E-03 0. -1.
    9900012    2    1    2    0    0 -0.89978266630E+00 -0.52379810059E+00 -0.55782130526E+00  0.90006840440E+02  0.89999089930E+02 0.  0.
        -12    1    1    2    0    0  0.89978266630E+00  0.52379810059E+00  0.55782130526E+00  0.11811595597E+01  0.00000000000E+00 0.  1.
         11    1    3    3    0    0  0.50558376320E+01  0.80983621964E+01  0.22599966482E+02  0.24533720665E+02  0.51100000000E-03 0. -1.
        -11    1    3    3    0    0 -0.63880395472E+01 -0.71215669121E+00  0.20303054902E+02  0.21296202831E+02  0.51100000000E-03 0.  1.
         12    1    3    3    0    0  0.43241924892E+00 -0.79100036058E+01 -0.43460842689E+02  0.44176916944E+02  0.00000000000E+00 0. -1.
</event>
<event>
 7    1  0.2895479E-015  0.9000774E+02  0.7816164E-02  0.1186339E+00
        -11   -1    0    0    0    0  0.00000000000E+00  0.00000000000E+00  0.45593999997E+02  0.45594000000E+02  0.51100000000E-03 0.  1.
         11   -1    0    0    0    0 -0.00000000000E+00 -0.00000000000E+00 -0.45593999997E+02  0.45594000000E+02  0.51100000000E-03 0. -1.
    9900012    2    1    2    0    0 -0.10160674998E+01 -0.59783152556E+00 -0.56716598750E-01  0.90007740508E+02  0.90000001882E+02 0.  0.
        -12    1    1    2    0    0  0.10160674998E+01  0.59783152556E+00  0.56716598750E-01  0.11802594925E+01  0.00000000000E+00 0.  1.
         11    1    3    3    0    0 -0.33344276979E+02  0.12398897798E+02 -0.20591857323E+02  0.41104720680E+02  0.51100000000E-03 0. -1.
        -11    1    3    3    0    0 -0.23039957000E+01 -0.87335015306E+01  0.15030449644E+01  0.91565053157E+01  0.51100000000E-03 0.  1.
        -12    1    3    3    0    0  0.34632205180E+02 -0.42632277929E+01  0.19032095760E+02  0.39746514512E+02  0.00000000000E+00 0.  1.
</event>
<event>
 7    1  0.2895479E-015  0.9000780E+02  0.7816164E-02  0.1186339E+00
        -11   -1    0    0    0    0  0.00000000000E+00  0.00000000000E+00  0.45593999997E+02  0.45594000000E+02  0.51100000000E-03 0.  1.
         11   -1    0    0    0    0 -0.00000000000E+00 -0.00000000000E+00 -0.45593999997E+02  0.45594000000E+02  0.51100000000E-03 0. -1.
    9900012    2    1    2    0    0  0.91421145296E+00  0.35561107528E+00  0.65623304896E+00  0.90007795089E+02  0.90000057184E+02 0.  0.
        -12    1    1    2    0    0 -0.91421145296E+00 -0.35561107528E+00 -0.65623304896E+00  0.11802049111E+01  0.00000000000E+00 0.  1.
         11    1    3    3    0    0  0.11319940592E+02 -0.27424327515E+01  0.11654891661E+01  0.11705569514E+02  0.51100000000E-03 0. -1.
        -11    1    3    3    0    0  0.71731230879E+01 -0.18837111857E+02  0.30429941699E+02  0.36500299040E+02  0.51100000000E-03 0.  1.
         12    1    3    3    0    0 -0.17578852227E+02  0.21935155684E+02 -0.30939197816E+02  0.41801926534E+02  0.00000000000E+00 0. -1.
</event>
<event>
 7    1  0.2895479E-015  0.9000777E+02  0.7816164E-02  0.1186339E+00
        -11   -1    0    0    0    0  0.00000000000E+00  0.00000000000E+00  0.45593999997E+02  0.45594000000E+02  0.51100000000E-03 0.  1.
         11   -1    0    0    0    0 -0.00000000000E+00 -0.00000000000E+00 -0.45593999997E+02  0.45594000000E+02  0.51100000000E-03 0. -1.
    9900012    2    1    2    0    0  0.70982813000E+00  0.75103964752E+00 -0.57011201024E+00  0.90007769416E+02  0.90000031173E+02 0.  0.
        -12    1    1    2    0    0 -0.70982813000E+00 -0.75103964752E+00  0.57011201024E+00  0.11802305836E+01  0.00000000000E+00 0.  1.
         11    1    3    3    0    0 -0.29128868114E+02 -0.10958317224E+02  0.22432306372E+01  0.31202688313E+02  0.51100000000E-03 0. -1.
        -11    1    3    3    0    0  0.16748325445E+02 -0.12186780463E+02  0.15590995558E+02  0.25924952576E+02  0.51100000000E-03 0.  1.
        -12    1    3    3    0    0  0.13090370799E+02  0.23896137335E+02 -0.18404338206E+02  0.32880128528E+02  0.00000000000E+00 0.  1.
</event>
<event>
 7    1  0.2895479E-015  0.9000777E+02  0.7816164E-02  0.1186339E+00
        -11   -1    0    0    0    0  0.00000000000E+00  0.00000000000E+00  0.45593999997E+02  0.45594000000E+02  0.51100000000E-03 0.  1.
         11   -1    0    0    0    0 -0.00000000000E+00 -0.00000000000E+00 -0.45593999997E+02  0.45594000000E+02  0.51100000000E-03 0. -1.
    9900012    2    1    2    0    0 -0.11627565679E+01 -0.81240259869E-01 -0.18530209732E+00  0.90007771343E+02  0.90000033125E+02 0.  0.
        -12    1    1    2    0    0  0.11627565679E+01  0.81240259869E-01  0.18530209732E+00  0.11802286572E+01  0.00000000000E+00 0.  1.
         11    1    3    3    0    0 -0.12665255616E+02 -0.36322894497E+02  0.27430862955E+01  0.38565345676E+02  0.51100000000E-03 0. -1.
        -11    1    3    3    0    0 -0.46978656494E+01 -0.15208260481E+01  0.75640402277E+01  0.90331366842E+01  0.51100000000E-03 0.  1.
        -12    1    3    3    0    0  0.16200364698E+02  0.37762480285E+02 -0.10492428621E+02  0.42409288982E+02  0.00000000000E+00 0.  1.
</event>
<event>
 7    1  0.3318166E-015  0.9000777E+02  0.7816164E-02  0.1186339E+00
        -11   -1    0    0    0    0  0.00000000000E+00  0.00000000000E+00  0.45593999997E+02  0.45594000000E+02  0.51100000000E-03 0. -1.
         11   -1    0    0    0    0 -0.00000000000E+00 -0.00000000000E+00 -0.45593999997E+02  0.45594000000E+02  0.51100000000E-03 0.  1.
    9900012    2    1    2    0    0  0.49900377316E+00  0.26342793263E+00  0.10366052149E+01  0.90007767221E+02  0.90000028948E+02 0.  0.
        -12    1    1    2    0    0 -0.49900377316E+00 -0.26342793263E+00 -0.10366052149E+01  0.11802327791E+01  0.00000000000E+00 0.  1.
         11    1    3    3    0    0 -0.10099523902E+01 -0.63803398875E+01 -0.64719928740E+01  0.91441474689E+01  0.51100000000E-03 0. -1.
        -11    1    3    3    0    0  0.20951932986E+02  0.34218794369E+02 -0.12012203759E+02  0.41883199774E+02  0.51100000000E-03 0.  1.
         12    1    3    3    0    0 -0.19442976823E+02 -0.27575026549E+02  0.19520801848E+02  0.38980419978E+02  0.00000000000E+00 0. -1.
</event>
<event>
 7    1  0.2895479E-015  0.9000767E+02  0.7816164E-02  0.1186339E+00
        -11   -1    0    0    0    0  0.00000000000E+00  0.00000000000E+00  0.45593999997E+02  0.45594000000E+02  0.51100000000E-03 0.  1.
         11   -1    0    0    0    0 -0.00000000000E+00 -0.00000000000E+00 -0.45593999997E+02  0.45594000000E+02  0.51100000000E-03 0. -1.
    9900012    2    1    2    0    0 -0.81698620783E+00 -0.18519574921E+00 -0.83151327337E+00  0.90007670278E+02  0.89999930725E+02 0.  0.
        -12    1    1    2    0    0  0.81698620783E+00  0.18519574921E+00  0.83151327337E+00  0.11803297222E+01  0.00000000000E+00 0.  1.
         11    1    3    3    0    0 -0.78664872711E+00  0.84272156668E+01 -0.33742815953E+01  0.91116714526E+01  0.51100000000E-03 0. -1.
        -11    1    3    3    0    0  0.14508211013E+02  0.33362220650E+02 -0.33344519358E+00  0.36381824301E+02  0.51100000000E-03 0.  1.
         12    1    3    3    0    0 -0.14538548494E+02 -0.41974632066E+02  0.28762135155E+01  0.44514174524E+02  0.00000000000E+00 0. -1.
</event>
<event>
 7    1  0.2895479E-015  0.9000787E+02  0.7816164E-02  0.1186339E+00
        -11   -1    0    0    0    0  0.00000000000E+00  0.00000000000E+00  0.45593999997E+02  0.45594000000E+02  0.51100000000E-03 0.  1.
         11   -1    0    0    0    0 -0.00000000000E+00 -0.00000000000E+00 -0.45593999997E+02  0.45594000000E+02  0.51100000000E-03 0. -1.
    9900012    2    1    2    0    0  0.50429610368E+00  0.80742889191E+00 -0.69746504271E+00  0.90007867185E+02  0.90000130232E+02 0.  0.
        -12    1    1    2    0    0 -0.50429610368E+00 -0.80742889191E+00  0.69746504271E+00  0.11801328152E+01  0.00000000000E+00 0.  1.
         11    1    3    3    0    0  0.67298120630E+01  0.33563886575E+02 -0.25568579233E+02  0.42726772598E+02  0.51100000000E-03 0. -1.
        -11    1    3    3    0    0  0.44855083538E+01 -0.81197055855E+01 -0.17733866364E+01  0.94442736306E+01  0.51100000000E-03 0.  1.
        -12    1    3    3    0    0 -0.10711024313E+02 -0.24636752098E+02  0.26644500827E+02  0.37836820956E+02  0.00000000000E+00 0.  1.
</event>
<event>
 7    1  0.2895479E-015  0.9000781E+02  0.7816164E-02  0.1186339E+00
        -11   -1    0    0    0    0  0.00000000000E+00  0.00000000000E+00  0.45593999997E+02  0.45594000000E+02  0.51100000000E-03 0. -1.
         11   -1    0    0    0    0 -0.00000000000E+00 -0.00000000000E+00 -0.45593999997E+02  0.45594000000E+02  0.51100000000E-03 0.  1.
    9900012    2    1    2    0    0 -0.91397847415E+00  0.55006210461E+00 -0.50488926727E+00  0.90007814361E+02  0.90000076711E+02 0.  0.
        -12    1    1    2    0    0  0.91397847415E+00 -0.55006210461E+00  0.50488926727E+00  0.11801856389E+01  0.00000000000E+00 0.  1.
         11    1    3    3    0    0 -0.16305585548E+02  0.35612193084E+02  0.31061031470E+01  0.39290562396E+02  0.51100000000E-03 0. -1.
        -11    1    3    3    0    0 -0.84952092304E+01 -0.28609541740E+01  0.41522173904E+01  0.98789953018E+01  0.51100000000E-03 0.  1.
        -12    1    3    3    0    0  0.23886816305E+02 -0.32201176806E+02 -0.77632098047E+01  0.40838256664E+02  0.00000000000E+00 0.  1.
</event>
<event>
 7    1  0.2895479E-015  0.9000771E+02  0.7816164E-02  0.1186339E+00
        -11   -1    0    0    0    0  0.00000000000E+00  0.00000000000E+00  0.45593999997E+02  0.45594000000E+02  0.51100000000E-03 0.  1.
         11   -1    0    0    0    0 -0.00000000000E+00 -0.00000000000E+00 -0.45593999997E+02  0.45594000000E+02  0.51100000000E-03 0. -1.
    9900012    2    1    2    0    0  0.12656580623E-01  0.67960286903E+00 -0.96491623559E+00  0.90007710379E+02  0.89999971356E+02 0.  0.
        -12    1    1    2    0    0 -0.12656580623E-01 -0.67960286903E+00  0.96491623559E+00  0.11802896214E+01  0.00000000000E+00 0.  1.
         11    1    3    3    0    0  0.10112148719E+02 -0.18603535625E+01  0.13002736235E+02  0.16576719125E+02  0.51100000000E-03 0. -1.
        -11    1    3    3    0    0 -0.81436619553E+01 -0.33944492291E+02 -0.19252819016E+01  0.34960756537E+02  0.51100000000E-03 0.  1.
         12    1    3    3    0    0 -0.19558301830E+01  0.36484448723E+02 -0.12042370569E+02  0.38470234717E+02  0.00000000000E+00 0. -1.
</event>
<event>
 7    1  0.2895479E-015  0.9000774E+02  0.7816164E-02  0.1186339E+00
        -11   -1    0    0    0    0  0.00000000000E+00  0.00000000000E+00  0.45593999997E+02  0.45594000000E+02  0.51100000000E-03 0.  1.
         11   -1    0    0    0    0 -0.00000000000E+00 -0.00000000000E+00 -0.45593999997E+02  0.45594000000E+02  0.51100000000E-03 0. -1.
    9900012    2    1    2    0    0 -0.72221448539E+00  0.83180052785E+00  0.42370646229E+00  0.90007740263E+02  0.90000001634E+02 0.  0.
        -12    1    1    2    0    0  0.72221448539E+00 -0.83180052785E+00 -0.42370646229E+00  0.11802597372E+01  0.00000000000E+00 0.  1.
         11    1    3    3    0    0 -0.40795945696E+02  0.66347529088E+01  0.40755394068E+01  0.41532386797E+02  0.51100000000E-03 0. -1.
        -11    1    3    3    0    0  0.19497256760E+01 -0.21533073124E-02  0.79655041272E+01  0.82006518711E+01  0.51100000000E-03 0.  1.
        -12    1    3    3    0    0  0.38124005534E+02 -0.58007990737E+01 -0.11617337072E+02  0.40274701594E+02  0.00000000000E+00 0.  1.
</event>
<event>
 7    1  0.2895479E-015  0.9000812E+02  0.7816164E-02  0.1186338E+00
        -11   -1    0    0    0    0  0.00000000000E+00  0.00000000000E+00  0.45593999997E+02  0.45594000000E+02  0.51100000000E-03 0. -1.
         11   -1    0    0    0    0 -0.00000000000E+00 -0.00000000000E+00 -0.45593999997E+02  0.45594000000E+02  0.51100000000E-03 0.  1.
    9900012    2    1    2    0    0 -0.97974674211E+00  0.58869479877E+00  0.29266460054E+00  0.90008119577E+02  0.90000385954E+02 0.  0.
        -12    1    1    2    0    0  0.97974674211E+00 -0.58869479877E+00 -0.29266460054E+00  0.11798804233E+01  0.00000000000E+00 0.  1.
         11    1    3    3    0    0 -0.94844613461E+01 -0.22413625898E+01  0.13839563886E+01  0.98434774765E+01  0.51100000000E-03 0. -1.
        -11    1    3    3    0    0  0.16422125260E+02  0.13317058037E+02 -0.36619163483E+02  0.42284670594E+02  0.51100000000E-03 0.  1.
         12    1    3    3    0    0 -0.79174106558E+01 -0.10487000648E+02  0.35527871695E+02  0.37879971506E+02  0.00000000000E+00 0. -1.
</event>
<event>
 7    1  0.2895479E-015  0.9000776E+02  0.7816164E-02  0.1186339E+00
        -11   -1    0    0    0    0  0.00000000000E+00  0.00000000000E+00  0.45593999997E+02  0.45594000000E+02  0.51100000000E-03 0.  1.
         11   -1    0    0    0    0 -0.00000000000E+00 -0.00000000000E+00 -0.45593999997E+02  0.45594000000E+02  0.51100000000E-03 0. -1.
    9900012    2    1    2    0    0 -0.60712786120E+00  0.55967180677E+00 -0.84328639475E+00  0.90007759044E+02  0.90000020663E+02 0.  0.
        -12    1    1    2    0    0  0.60712786120E+00 -0.55967180677E+00  0.84328639475E+00  0.11802409562E+01  0.00000000000E+00 0.  1.
         11    1    3    3    0    0 -0.23628812389E+01 -0.75787928177E+01 -0.12088119394E+01  0.80301017982E+01  0.51100000000E-03 0. -1.
        -11    1    3    3    0    0 -0.87477942834E+01 -0.31803457240E+02  0.17411775789E+02  0.37298173328E+02  0.51100000000E-03 0.  1.
         12    1    3    3    0    0  0.10503547661E+02  0.39941921865E+02 -0.17046250244E+02  0.44679483917E+02  0.00000000000E+00 0. -1.
</event>
<event>
 7    1  0.2895479E-015  0.9000807E+02  0.7816164E-02  0.1186338E+00
        -11   -1    0    0    0    0  0.00000000000E+00  0.00000000000E+00  0.45593999997E+02  0.45594000000E+02  0.51100000000E-03 0.  1.
         11   -1    0    0    0    0 -0.00000000000E+00 -0.00000000000E+00 -0.45593999997E+02  0.45594000000E+02  0.51100000000E-03 0. -1.
    9900012    2    1    2    0    0  0.43647169530E+00  0.76040122971E+00 -0.78963524747E+00  0.90008067207E+02  0.90000332894E+02 0.  0.
        -12    1    1    2    0    0 -0.43647169530E+00 -0.76040122971E+00  0.78963524747E+00  0.11799327926E+01  0.00000000000E+00 0.  1.
         11    1    3    3    0    0 -0.42290477160E+01 -0.74053438901E+01 -0.31993180387E+01  0.91082160102E+01  0.51100000000E-03 0. -1.
        -11    1    3    3    0    0  0.85668350634E+01  0.24206338056E+02 -0.33010606439E+02  0.41821496898E+02  0.51100000000E-03 0.  1.
         12    1    3    3    0    0 -0.39013156521E+01 -0.16040592937E+02  0.35420289230E+02  0.39078354299E+02  0.00000000000E+00 0. -1.
</event>
<event>
 7    1  0.2895479E-015  0.9000760E+02  0.7816164E-02  0.1186339E+00
        -11   -1    0    0    0    0  0.00000000000E+00  0.00000000000E+00  0.45593999997E+02  0.45594000000E+02  0.51100000000E-03 0. -1.
         11   -1    0    0    0    0 -0.00000000000E+00 -0.00000000000E+00 -0.45593999997E+02  0.45594000000E+02  0.51100000000E-03 0.  1.
    9900012    2    1    2    0    0  0.56921336509E+00  0.10187418457E+01  0.17750732651E+00  0.90007598520E+02  0.89999858020E+02 0.  0.
        -12    1    1    2    0    0 -0.56921336509E+00 -0.10187418457E+01 -0.17750732651E+00  0.11804014801E+01  0.00000000000E+00 0.  1.
         11    1    3    3    0    0  0.82998136101E+01 -0.55307511203E+01 -0.34483993694E+01  0.10553083549E+02  0.51100000000E-03 0. -1.
        -11    1    3    3    0    0 -0.10086320726E+01  0.26711156407E+01 -0.37497096270E+02  0.37605643544E+02  0.51100000000E-03 0.  1.
         12    1    3    3    0    0 -0.67219681724E+01  0.38783773253E+01  0.41123002966E+02  0.41848871427E+02  0.00000000000E+00 0. -1.
</event>
<event>
 7    1  0.2895479E-015  0.9000781E+02  0.7816164E-02  0.1186339E+00
        -11   -1    0    0    0    0  0.00000000000E+00  0.00000000000E+00  0.45593999997E+02  0.45594000000E+02  0.51100000000E-03 0. -1.
         11   -1    0    0    0    0 -0.00000000000E+00 -0.00000000000E+00 -0.45593999997E+02  0.45594000000E+02  0.51100000000E-03 0.  1.
    9900012    2    1    2    0    0  0.10096042935E+01  0.28649708889E+00  0.53987174747E+00  0.90007812339E+02  0.90000074662E+02 0.  0.
        -12    1    1    2    0    0 -0.10096042935E+01 -0.28649708889E+00 -0.53987174747E+00  0.11801876610E+01  0.00000000000E+00 0.  1.
         11    1    3    3    0    0  0.39436061248E+02  0.70754518941E+01 -0.34843452194E+01  0.40216981589E+02  0.51100000000E-03 0. -1.
        -11    1    3    3    0    0 -0.17540688320E+01  0.85533208939E+01  0.49322339963E+01  0.10028109903E+02  0.51100000000E-03 0.  1.
        -12    1    3    3    0    0 -0.36672388122E+02 -0.15342275699E+02 -0.90801702939E+00  0.39762720847E+02  0.00000000000E+00 0.  1.
</event>
<event>
 7    1  0.2895479E-015  0.9000780E+02  0.7816164E-02  0.1186339E+00
        -11   -1    0    0    0    0  0.00000000000E+00  0.00000000000E+00  0.45593999997E+02  0.45594000000E+02  0.51100000000E-03 0.  1.
         11   -1    0    0    0    0 -0.00000000000E+00 -0.00000000000E+00 -0.45593999997E+02  0.45594000000E+02  0.51100000000E-03 0. -1.
    9900012    2    1    2    0    0 -0.50015986944E-01  0.10983948677E+01 -0.42884015543E+00  0.90007797999E+02  0.90000060133E+02 0.  0.
        -12    1    1    2    0    0  0.50015986944E-01 -0.10983948677E+01  0.42884015543E+00  0.11802020010E+01  0.00000000000E+00 0.  1.
         11    1    3    3    0    0  0.22509550642E+02  0.22544498350E+02 -0.19577513942E+02  0.37392690842E+02  0.51100000000E-03 0. -1.
        -11    1    3    3    0    0 -0.58622564594E+01  0.77867049825E+01 -0.52191409546E+01  0.11056141182E+02  0.51100000000E-03 0.  1.
        -12    1    3    3    0    0 -0.16697310169E+02 -0.29232808465E+02  0.24367814742E+02  0.41558965975E+02  0.00000000000E+00 0.  1.
</event>
<event>
 7    1  0.2895479E-015  0.9000771E+02  0.7816164E-02  0.1186339E+00
        -11   -1    0    0    0    0  0.00000000000E+00  0.00000000000E+00  0.45593999997E+02  0.45594000000E+02  0.51100000000E-03 0. -1.
         11   -1    0    0    0    0 -0.00000000000E+00 -0.00000000000E+00 -0.45593999997E+02  0.45594000000E+02  0.51100000000E-03 0.  1.
    9900012    2    1    2    0    0  0.34515904723E+00  0.10602177847E+01 -0.38716381221E+00  0.90007706674E+02  0.89999967602E+02 0.  0.
        -12    1    1    2    0    0 -0.34515904723E+00 -0.10602177847E+01  0.38716381221E+00  0.11802933264E+01  0.00000000000E+00 0.  1.
         11    1    3    3    0    0  0.22234748527E+02  0.13875840599E+02  0.14329102670E+02  0.29870490086E+02  0.51100000000E-03 0. -1.
        -11    1    3    3    0    0  0.18244585826E+01 -0.29213251038E+02 -0.99472861371E+01  0.30914255402E+02  0.51100000000E-03 0.  1.
         12    1    3    3    0    0 -0.23714048063E+02  0.16397628224E+02 -0.47689803453E+01  0.29222961185E+02  0.00000000000E+00 0. -1.
</event>
<event>
 7    1  0.3721094E-015  0.9000773E+02  0.7816164E-02  0.1186339E+00
        -11   -1    0    0    0    0  0.00000000000E+00  0.00000000000E+00  0.45593999997E+02  0.45594000000E+02  0.51100000000E-03 0. -1.
         11   -1    0    0    0    0 -0.00000000000E+00 -0.00000000000E+00 -0.45593999997E+02  0.45594000000E+02  0.51100000000E-03 0.  1.
    9900012    2    1    2    0    0  0.91897238156E+00 -0.54819415400E+00  0.49800738879E+00  0.90007729511E+02  0.89999990740E+02 0.  0.
        -12    1    1    2    0    0 -0.91897238156E+00  0.54819415400E+00 -0.49800738879E+00  0.11802704893E+01  0.00000000000E+00 0.  1.
         11    1    3    3    0    0  0.16328136234E+01 -0.56942023893E+01 -0.67097650959E+01  0.89504731206E+01  0.51100000000E-03 0. -1.
        -11    1    3    3    0    0  0.50458115969E+01 -0.33817270656E+01 -0.36067438586E+02  0.36575352616E+02  0.51100000000E-03 0.  1.
         12    1    3    3    0    0 -0.57596528388E+01  0.85277353009E+01  0.43275211070E+02  0.44481903774E+02  0.00000000000E+00 0. -1.
</event>
<event>
 7    1  0.2895479E-015  0.9000762E+02  0.7816164E-02  0.1186339E+00
        -11   -1    0    0    0    0  0.00000000000E+00  0.00000000000E+00  0.45593999997E+02  0.45594000000E+02  0.51100000000E-03 0.  1.
         11   -1    0    0    0    0 -0.00000000000E+00 -0.00000000000E+00 -0.45593999997E+02  0.45594000000E+02  0.51100000000E-03 0. -1.
    9900012    2    1    2    0    0  0.96076883945E-01  0.21406977277E-01 -0.11762705049E+01  0.90007618144E+02  0.89999877903E+02 0.  0.
        -12    1    1    2    0    0 -0.96076883945E-01 -0.21406977277E-01  0.11762705049E+01  0.11803818564E+01  0.00000000000E+00 0.  1.
         11    1    3    3    0    0  0.28891211033E+02 -0.27902510807E+02 -0.89103028869E+01  0.41141775388E+02  0.51100000000E-03 0. -1.
        -11    1    3    3    0    0 -0.68087403226E+01 -0.18616159638E+01 -0.61149045231E+01  0.93389836902E+01  0.51100000000E-03 0.  1.
        -12    1    3    3    0    0 -0.21986393826E+02  0.29785533748E+02  0.13848936905E+02  0.39526859065E+02  0.00000000000E+00 0.  1.
</event>
<event>
 7    1  0.2895479E-015  0.9000769E+02  0.7816164E-02  0.1186339E+00
        -11   -1    0    0    0    0  0.00000000000E+00  0.00000000000E+00  0.45593999997E+02  0.45594000000E+02  0.51100000000E-03 0.  1.
         11   -1    0    0    0    0 -0.00000000000E+00 -0.00000000000E+00 -0.45593999997E+02  0.45594000000E+02  0.51100000000E-03 0. -1.
    9900012    2    1    2    0    0  0.63017752118E+00 -0.98728036711E+00 -0.14585879245E+00  0.90007694523E+02  0.89999955291E+02 0.  0.
        -12    1    1    2    0    0 -0.63017752118E+00  0.98728036711E+00  0.14585879245E+00  0.11803054769E+01  0.00000000000E+00 0.  1.
         11    1    3    3    0    0  0.34074262176E+02 -0.10576790102E+02  0.19150082377E+02  0.40492585581E+02  0.51100000000E-03 0. -1.
        -11    1    3    3    0    0  0.28196940564E+01  0.88060728628E+01 -0.51344547874E+01  0.10576399201E+02  0.51100000000E-03 0.  1.
        -12    1    3    3    0    0 -0.36263778712E+02  0.78343687176E+00 -0.14161486382E+02  0.38938709741E+02  0.00000000000E+00 0.  1.
</event>
<event>
 7    1  0.2895479E-015  0.9000767E+02  0.7816164E-02  0.1186339E+00
        -11   -1    0    0    0    0  0.00000000000E+00  0.00000000000E+00  0.45593999997E+02  0.45594000000E+02  0.51100000000E-03 0.  1.
         11   -1    0    0    0    0 -0.00000000000E+00 -0.00000000000E+00 -0.45593999997E+02  0.45594000000E+02  0.51100000000E-03 0. -1.
    9900012    2    1    2    0    0  0.49881303808E-01  0.90781979274E+00 -0.75269137425E+00  0.90007674102E+02  0.89999934600E+02 0.  0.
        -12    1    1    2    0    0 -0.49881303808E-01 -0.90781979274E+00  0.75269137425E+00  0.11803258980E+01  0.00000000000E+00 0.  1.
         11    1    3    3    0    0  0.16576920760E+02 -0.35370520617E+02 -0.37388610798E+01  0.39240885732E+02  0.51100000000E-03 0. -1.
        -11    1    3    3    0    0 -0.30880121356E+01 -0.74904443241E+00 -0.90390878458E+01  0.95813358076E+01  0.51100000000E-03 0.  1.
        -12    1    3    3    0    0 -0.13439027321E+02  0.37027384842E+02  0.12025257551E+02  0.41185452562E+02  0.00000000000E+00 0.  1.
</event>
<event>
 7    1  0.2895479E-015  0.9000772E+02  0.7816164E-02  0.1186339E+00
        -11   -1    0    0    0    0  0.00000000000E+00  0.00000000000E+00  0.45593999997E+02  0.45594000000E+02  0.51100000000E-03 0.  1.
         11   -1    0    0    0    0 -0.00000000000E+00 -0.00000000000E+00 -0.45593999997E+02  0.45594000000E+02  0.51100000000E-03 0. -1.
    9900012    2    1    2    0    0  0.41140553286E+00 -0.61909464937E-01 -0.11045231426E+01  0.90007720937E+02  0.89999982053E+02 0.  0.
        -12    1    1    2    0    0 -0.41140553286E+00  0.61909464937E-01  0.11045231426E+01  0.11802790632E+01  0.00000000000E+00 0.  1.
         11    1    3    3    0    0 -0.88160900866E+01 -0.52409442124E+00  0.52873598227E+01  0.10293410199E+02  0.51100000000E-03 0. -1.
        -11    1    3    3    0    0 -0.34250055375E+02  0.66775513549E+01 -0.78640108076E+01  0.35770080396E+02  0.51100000000E-03 0.  1.
         12    1    3    3    0    0  0.43477550994E+02 -0.62153663986E+01  0.14721278423E+01  0.43944230342E+02  0.00000000000E+00 0. -1.
</event>
<event>
 7    1  0.2895479E-015  0.9000792E+02  0.7816164E-02  0.1186339E+00
        -11   -1    0    0    0    0  0.00000000000E+00  0.00000000000E+00  0.45593999997E+02  0.45594000000E+02  0.51100000000E-03 0. -1.
         11   -1    0    0    0    0 -0.00000000000E+00 -0.00000000000E+00 -0.45593999997E+02  0.45594000000E+02  0.51100000000E-03 0.  1.
    9900012    2    1    2    0    0  0.10829488004E+01  0.45417693119E+00  0.11637751657E+00  0.90007915886E+02  0.90000179576E+02 0.  0.
        -12    1    1    2    0    0 -0.10829488004E+01 -0.45417693119E+00 -0.11637751657E+00  0.11800841137E+01  0.00000000000E+00 0.  1.
         11    1    3    3    0    0 -0.61158102577E+01 -0.33035102478E+02  0.17810852659E+02  0.38025617727E+02  0.51100000000E-03 0. -1.
        -11    1    3    3    0    0 -0.26929140596E+01  0.34208549349E+01  0.93723389876E+01  0.10334155649E+02  0.51100000000E-03 0.  1.
        -12    1    3    3    0    0  0.98916731177E+01  0.30068424474E+02 -0.27066814130E+02  0.41648142510E+02  0.00000000000E+00 0.  1.
</event>
<event>
 7    1  0.2895479E-015  0.9000768E+02  0.7816164E-02  0.1186339E+00
        -11   -1    0    0    0    0  0.00000000000E+00  0.00000000000E+00  0.45593999997E+02  0.45594000000E+02  0.51100000000E-03 0. -1.
         11   -1    0    0    0    0 -0.00000000000E+00 -0.00000000000E+00 -0.45593999997E+02  0.45594000000E+02  0.51100000000E-03 0.  1.
    9900012    2    1    2    0    0 -0.95596063551E+00 -0.27169357123E+00  0.63677828063E+00  0.90007676014E+02  0.89999936537E+02 0.  0.
        -12    1    1    2    0    0  0.95596063551E+00  0.27169357123E+00 -0.63677828063E+00  0.11803239860E+01  0.00000000000E+00 0.  1.
         11    1    3    3    0    0  0.32033906825E+01  0.14811874677E+02 -0.53027295732E+01  0.16055288366E+02  0.51100000000E-03 0. -1.
        -11    1    3    3    0    0  0.11493743174E+02 -0.93836996648E+00 -0.30076770422E+02  0.32211780292E+02  0.51100000000E-03 0.  1.
         12    1    3    3    0    0 -0.15653094492E+02 -0.14145198282E+02  0.36016278276E+02  0.41740607356E+02  0.00000000000E+00 0. -1.
</event>
<event>
 7    1  0.2895479E-015  0.9000774E+02  0.7816164E-02  0.1186339E+00
        -11   -1    0    0    0    0  0.00000000000E+00  0.00000000000E+00  0.45593999997E+02  0.45594000000E+02  0.51100000000E-03 0. -1.
         11   -1    0    0    0    0 -0.00000000000E+00 -0.00000000000E+00 -0.45593999997E+02  0.45594000000E+02  0.51100000000E-03 0.  1.
    9900012    2    1    2    0    0  0.19841793258E+00  0.11542258518E+01  0.14627376285E+00  0.90007744516E+02  0.90000005944E+02 0.  0.
        -12    1    1    2    0    0 -0.19841793258E+00 -0.11542258518E+01 -0.14627376285E+00  0.11802554836E+01  0.00000000000E+00 0.  1.
         11    1    3    3    0    0  0.39754980321E+02  0.99820803077E+00  0.10630336048E+02  0.41163805999E+02  0.51100000000E-03 0. -1.
        -11    1    3    3    0    0  0.18011475917E+01  0.56817966990E+01 -0.17796314264E+01  0.62204529297E+01  0.51100000000E-03 0.  1.
        -12    1    3    3    0    0 -0.41357709980E+02 -0.55257788780E+01 -0.87044308587E+01  0.42623485587E+02  0.00000000000E+00 0.  1.
</event>
<event>
 7    1  0.2895479E-015  0.9000766E+02  0.7816164E-02  0.1186339E+00
        -11   -1    0    0    0    0  0.00000000000E+00  0.00000000000E+00  0.45593999997E+02  0.45594000000E+02  0.51100000000E-03 0. -1.
         11   -1    0    0    0    0 -0.00000000000E+00 -0.00000000000E+00 -0.45593999997E+02  0.45594000000E+02  0.51100000000E-03 0.  1.
    9900012    2    1    2    0    0 -0.11097200308E+01  0.39141891602E+00  0.92254925924E-01  0.90007661792E+02  0.89999922127E+02 0.  0.
        -12    1    1    2    0    0  0.11097200308E+01 -0.39141891602E+00 -0.92254925924E-01  0.11803382083E+01  0.00000000000E+00 0.  1.
         11    1    3    3    0    0 -0.71806698831E+01 -0.39299848136E+01  0.64812388534E+01  0.10440941430E+02  0.51100000000E-03 0. -1.
        -11    1    3    3    0    0  0.16446887391E+01  0.41644879797E+02 -0.47331188774E+01  0.41945243221E+02  0.51100000000E-03 0.  1.
         12    1    3    3    0    0  0.44262611132E+01 -0.37323476067E+02 -0.16558650500E+01  0.37621477141E+02  0.00000000000E+00 0. -1.
</event>
<event>
 7    1  0.2895479E-015  0.9000782E+02  0.7816164E-02  0.1186339E+00
        -11   -1    0    0    0    0  0.00000000000E+00  0.00000000000E+00  0.45593999997E+02  0.45594000000E+02  0.51100000000E-03 0.  1.
         11   -1    0    0    0    0 -0.00000000000E+00 -0.00000000000E+00 -0.45593999997E+02  0.45594000000E+02  0.51100000000E-03 0. -1.
    9900012    2    1    2    0    0  0.73681560993E+00 -0.49696962458E+00  0.77650326877E+00  0.90007816380E+02  0.90000078756E+02 0.  0.
        -12    1    1    2    0    0 -0.73681560993E+00  0.49696962458E+00 -0.77650326877E+00  0.11801836201E+01  0.00000000000E+00 0.  1.
         11    1    3    3    0    0 -0.53956361037E+01  0.18005022453E+01  0.52907689550E+01  0.77683288869E+01  0.51100000000E-03 0. -1.
        -11    1    3    3    0    0 -0.12339802827E+02 -0.17195613764E+02  0.32194074602E+02  0.38528149531E+02  0.51100000000E-03 0.  1.
         12    1    3    3    0    0  0.18472254541E+02  0.14898141895E+02 -0.36708340288E+02  0.43711337962E+02  0.00000000000E+00 0. -1.
</event>
<event>
 7    1  0.2895479E-015  0.9000767E+02  0.7816164E-02  0.1186339E+00
        -11   -1    0    0    0    0  0.00000000000E+00  0.00000000000E+00  0.45593999997E+02  0.45594000000E+02  0.51100000000E-03 0. -1.
         11   -1    0    0    0    0 -0.00000000000E+00 -0.00000000000E+00 -0.45593999997E+02  0.45594000000E+02  0.51100000000E-03 0.  1.
    9900012    2    1    2    0    0  0.40916114720E+00  0.47312570353E+00  0.10009536534E+01  0.90007674201E+02  0.89999934700E+02 0.  0.
        -12    1    1    2    0    0 -0.40916114720E+00 -0.47312570353E+00 -0.10009536534E+01  0.11803257991E+01  0.00000000000E+00 0.  1.
         11    1    3    3    0    0  0.10532537714E+01 -0.34114481447E+02 -0.17908168023E+02  0.38543607383E+02  0.51100000000E-03 0. -1.
        -11    1    3    3    0    0 -0.64063985610E+01 -0.47530225245E+01  0.17929807009E+01  0.81760593011E+01  0.51100000000E-03 0.  1.
        -12    1    3    3    0    0  0.57623059368E+01  0.39340629675E+02  0.17116140975E+02  0.43288007517E+02  0.00000000000E+00 0.  1.
</event>
<event>
 7    1  0.2895479E-015  0.9000773E+02  0.7816164E-02  0.1186339E+00
        -11   -1    0    0    0    0  0.00000000000E+00  0.00000000000E+00  0.45593999997E+02  0.45594000000E+02  0.51100000000E-03 0.  1.
         11   -1    0    0    0    0 -0.00000000000E+00 -0.00000000000E+00 -0.45593999997E+02  0.45594000000E+02  0.51100000000E-03 0. -1.
    9900012    2    1    2    0    0  0.46729678249E+00  0.10526212584E+01  0.25816981215E+00  0.90007733315E+02  0.89999994594E+02 0.  0.
        -12    1    1    2    0    0 -0.46729678249E+00 -0.10526212584E+01 -0.25816981215E+00  0.11802666853E+01  0.00000000000E+00 0.  1.
         11    1    3    3    0    0 -0.40019110680E+01  0.18995622578E+02 -0.30674777893E+02  0.36301390722E+02  0.51100000000E-03 0. -1.
        -11    1    3    3    0    0  0.73706331843E+01  0.51161081089E+01 -0.54765063742E+01  0.10511561161E+02  0.51100000000E-03 0.  1.
        -12    1    3    3    0    0 -0.29014253339E+01 -0.23059109428E+02  0.36409454079E+02  0.43194781432E+02  0.00000000000E+00 0.  1.
</event>
<event>
 7    1  0.2895479E-015  0.9000780E+02  0.7816164E-02  0.1186339E+00
        -11   -1    0    0    0    0  0.00000000000E+00  0.00000000000E+00  0.45593999997E+02  0.45594000000E+02  0.51100000000E-03 0.  1.
         11   -1    0    0    0    0 -0.00000000000E+00 -0.00000000000E+00 -0.45593999997E+02  0.45594000000E+02  0.51100000000E-03 0. -1.
    9900012    2    1    2    0    0  0.41904540194E+00  0.11027737996E+01 -0.33974378091E-01  0.90007803677E+02  0.90000065886E+02 0.  0.
        -12    1    1    2    0    0 -0.41904540194E+00 -0.11027737996E+01  0.33974378091E-01  0.11801963228E+01  0.00000000000E+00 0.  1.
         11    1    3    3    0    0  0.23866252393E+02 -0.50420216251E+01 -0.29969347791E+02  0.38641710530E+02  0.51100000000E-03 0. -1.
        -11    1    3    3    0    0  0.88492198626E+01  0.33020710293E+00  0.51695808130E+01  0.10253891698E+02  0.51100000000E-03 0.  1.
        -12    1    3    3    0    0 -0.32296426854E+02  0.58145883217E+01  0.24765792600E+02  0.41112201449E+02  0.00000000000E+00 0.  1.
</event>
<event>
 7    1  0.2895479E-015  0.9000769E+02  0.7816164E-02  0.1186339E+00
        -11   -1    0    0    0    0  0.00000000000E+00  0.00000000000E+00  0.45593999997E+02  0.45594000000E+02  0.51100000000E-03 0.  1.
         11   -1    0    0    0    0 -0.00000000000E+00 -0.00000000000E+00 -0.45593999997E+02  0.45594000000E+02  0.51100000000E-03 0. -1.
    9900012    2    1    2    0    0  0.66122245886E+00 -0.96320607439E+00 -0.16777085681E+00  0.90007691505E+02  0.89999952233E+02 0.  0.
        -12    1    1    2    0    0 -0.66122245886E+00  0.96320607439E+00  0.16777085681E+00  0.11803084945E+01  0.00000000000E+00 0.  1.
         11    1    3    3    0    0  0.36202874432E+02  0.27392206443E+01  0.96275962089E+01  0.37561177509E+02  0.51100000000E-03 0. -1.
        -11    1    3    3    0    0  0.66905328357E+01 -0.30500408548E+01 -0.69432635948E+01  0.10113104788E+02  0.51100000000E-03 0.  1.
        -12    1    3    3    0    0 -0.42232184808E+02 -0.65238586392E+00 -0.28521034709E+01  0.42333409209E+02  0.00000000000E+00 0.  1.
</event>
<event>
 7    1  0.3191082E-015  0.9000761E+02  0.7816164E-02  0.1186339E+00
        -11   -1    0    0    0    0  0.00000000000E+00  0.00000000000E+00  0.45593999997E+02  0.45594000000E+02  0.51100000000E-03 0. -1.
         11   -1    0    0    0    0 -0.00000000000E+00 -0.00000000000E+00 -0.45593999997E+02  0.45594000000E+02  0.51100000000E-03 0.  1.
    9900012    2    1    2    0    0 -0.39454303586E+00 -0.99775349012E+00  0.49207525244E+00  0.90007612653E+02  0.89999872340E+02 0.  0.
        -12    1    1    2    0    0  0.39454303586E+00  0.99775349012E+00 -0.49207525244E+00  0.11803873467E+01  0.00000000000E+00 0.  1.
         11    1    3    3    0    0  0.90008371802E+01  0.86104482411E+00 -0.20702725669E+01  0.92759094916E+01  0.51100000000E-03 0. -1.
        -11    1    3    3    0    0  0.23738985035E+02  0.11675809683E+02 -0.24346300260E+02  0.35952834086E+02  0.51100000000E-03 0.  1.
         12    1    3    3    0    0 -0.33134365251E+02 -0.13534607997E+02  0.26908648079E+02  0.44778869075E+02  0.00000000000E+00 0. -1.
</event>
<event>
 7    1  0.2895479E-015  0.9000817E+02  0.7816164E-02  0.1186338E+00
        -11   -1    0    0    0    0  0.00000000000E+00  0.00000000000E+00  0.45593999997E+02  0.45594000000E+02  0.51100000000E-03 0.  1.
         11   -1    0    0    0    0 -0.00000000000E+00 -0.00000000000E+00 -0.45593999997E+02  0.45594000000E+02  0.51100000000E-03 0. -1.
    9900012    2    1    2    0    0  0.58254283409E+00  0.56005362741E-01 -0.10244576289E+01  0.90008166881E+02  0.90000433883E+02 0.  0.
        -12    1    1    2    0    0 -0.58254283409E+00 -0.56005362741E-01  0.10244576289E+01  0.11798331185E+01  0.00000000000E+00 0.  1.
         11    1    3    3    0    0 -0.41710751193E+00  0.10657898676E+02  0.22518968226E+01  0.10901184451E+02  0.51100000000E-03 0. -1.
        -11    1    3    3    0    0  0.32613552271E+02  0.16304667324E+02 -0.79871808651E+01  0.37326679825E+02  0.51100000000E-03 0.  1.
         12    1    3    3    0    0 -0.31613901925E+02 -0.26906560638E+02  0.47108264136E+01  0.41780302606E+02  0.00000000000E+00 0. -1.
</event>
<event>
 7    1  0.2895479E-015  0.9000785E+02  0.7816164E-02  0.1186339E+00
        -11   -1    0    0    0    0  0.00000000000E+00  0.00000000000E+00  0.45593999997E+02  0.45594000000E+02  0.51100000000E-03 0.  1.
         11   -1    0    0    0    0 -0.00000000000E+00 -0.00000000000E+00 -0.45593999997E+02  0.45594000000E+02  0.51100000000E-03 0. -1.
    9900012    2    1    2    0    0  0.10407078662E+01 -0.16698209018E+00 -0.53084331216E+00  0.90007851491E+02  0.90000114331E+02 0.  0.
        -12    1    1    2    0    0 -0.10407078662E+01  0.16698209018E+00  0.53084331216E+00  0.11801485090E+01  0.00000000000E+00 0.  1.
         11    1    3    3    0    0  0.21609231830E+01 -0.19717883803E+01  0.10140845849E+02  0.10554349493E+02  0.51100000000E-03 0. -1.
        -11    1    3    3    0    0 -0.10094094915E+02 -0.23320968284E+02  0.24505705829E+02  0.35302803462E+02  0.51100000000E-03 0.  1.
         12    1    3    3    0    0  0.89738795977E+01  0.25125774574E+02 -0.35177394990E+02  0.44150698536E+02  0.00000000000E+00 0. -1.
</event>
<event>
 7    1  0.2895479E-015  0.9000777E+02  0.7816164E-02  0.1186339E+00
        -11   -1    0    0    0    0  0.00000000000E+00  0.00000000000E+00  0.45593999997E+02  0.45594000000E+02  0.51100000000E-03 0.  1.
         11   -1    0    0    0    0 -0.00000000000E+00 -0.00000000000E+00 -0.45593999997E+02  0.45594000000E+02  0.51100000000E-03 0. -1.
    9900012    2    1    2    0    0 -0.34220275237E+00 -0.68038880890E-03 -0.11295318389E+01  0.90007768937E+02  0.90000030687E+02 0.  0.
        -12    1    1    2    0    0  0.34220275237E+00  0.68038880891E-03  0.11295318389E+01  0.11802310629E+01  0.00000000000E+00 0.  1.
         11    1    3    3    0    0 -0.97269236302E+01  0.82638013835E+00  0.12912668087E+01  0.98469953628E+01  0.51100000000E-03 0. -1.
        -11    1    3    3    0    0 -0.20016619045E+02 -0.31403840588E+02  0.31677789969E+01  0.37375139674E+02  0.51100000000E-03 0.  1.
         12    1    3    3    0    0  0.29401339923E+02  0.30576780061E+02 -0.55885776445E+01  0.42785633900E+02  0.00000000000E+00 0. -1.
</event>
<event>
 7    1  0.2895479E-015  0.9000774E+02  0.7816164E-02  0.1186339E+00
        -11   -1    0    0    0    0  0.00000000000E+00  0.00000000000E+00  0.45593999997E+02  0.45594000000E+02  0.51100000000E-03 0.  1.
         11   -1    0    0    0    0 -0.00000000000E+00 -0.00000000000E+00 -0.45593999997E+02  0.45594000000E+02  0.51100000000E-03 0. -1.
    9900012    2    1    2    0    0  0.79787669712E-01  0.33903389012E+00 -0.11276953574E+01  0.90007742880E+02  0.90000004286E+02 0.  0.
        -12    1    1    2    0    0 -0.79787669712E-01 -0.33903389012E+00  0.11276953574E+01  0.11802571203E+01  0.00000000000E+00 0.  1.
         11    1    3    3    0    0  0.21216997449E+02 -0.31996781320E+02  0.18932444749E+02  0.42806453486E+02  0.51100000000E-03 0. -1.
        -11    1    3    3    0    0 -0.46539620193E+01  0.12687038800E+01 -0.92096178459E+01  0.10396443293E+02  0.51100000000E-03 0.  1.
        -12    1    3    3    0    0 -0.16483247760E+02  0.31067111330E+02 -0.10850522261E+02  0.36804846101E+02  0.00000000000E+00 0.  1.
</event>
<event>
 7    1  0.2895479E-015  0.9000770E+02  0.7816164E-02  0.1186339E+00
        -11   -1    0    0    0    0  0.00000000000E+00  0.00000000000E+00  0.45593999997E+02  0.45594000000E+02  0.51100000000E-03 0.  1.
         11   -1    0    0    0    0 -0.00000000000E+00 -0.00000000000E+00 -0.45593999997E+02  0.45594000000E+02  0.51100000000E-03 0. -1.
    9900012    2    1    2    0    0 -0.54320923184E+00 -0.10148114459E+01  0.26114308577E+00  0.90007697390E+02  0.89999958195E+02 0.  0.
        -12    1    1    2    0    0  0.54320923184E+00  0.10148114459E+01 -0.26114308577E+00  0.11803026101E+01  0.00000000000E+00 0.  1.
         11    1    3    3    0    0 -0.14774419715E+02 -0.28307745964E+02  0.28505863953E+02  0.42804161474E+02  0.51100000000E-03 0. -1.
        -11    1    3    3    0    0 -0.56120533141E+01  0.29899184312E+01 -0.60020220811E+01  0.87440850835E+01  0.51100000000E-03 0.  1.
        -12    1    3    3    0    0  0.19843263797E+02  0.24303016087E+02 -0.22242698786E+02  0.38459450833E+02  0.00000000000E+00 0.  1.
</event>
<event>
 7    1  0.2895479E-015  0.9000783E+02  0.7816164E-02  0.1186339E+00
        -11   -1    0    0    0    0  0.00000000000E+00  0.00000000000E+00  0.45593999997E+02  0.45594000000E+02  0.51100000000E-03 0.  1.
         11   -1    0    0    0    0 -0.00000000000E+00 -0.00000000000E+00 -0.45593999997E+02  0.45594000000E+02  0.51100000000E-03 0. -1.
    9900012    2    1    2    0    0  0.26641543621E+00 -0.31427754520E+00 -0.11059203797E+01  0.90007827366E+02  0.90000089887E+02 0.  0.
        -12    1    1    2    0    0 -0.26641543621E+00  0.31427754520E+00  0.11059203797E+01  0.11801726341E+01  0.00000000000E+00 0.  1.
         11    1    3    3    0    0 -0.14728139245E+02 -0.90380907868E+01 -0.19732736810E+02  0.26229488614E+02  0.51100000000E-03 0. -1.
        -11    1    3    3    0    0 -0.16884583546E+02 -0.99555884179E+01 -0.46026569542E+01  0.20134233374E+02  0.51100000000E-03 0.  1.
        -12    1    3    3    0    0  0.31879138228E+02  0.18679401659E+02  0.23229473384E+02  0.43644105377E+02  0.00000000000E+00 0.  1.
</event>
<event>
 7    1  0.2895479E-015  0.9000773E+02  0.7816164E-02  0.1186339E+00
        -11   -1    0    0    0    0  0.00000000000E+00  0.00000000000E+00  0.45593999997E+02  0.45594000000E+02  0.51100000000E-03 0.  1.
         11   -1    0    0    0    0 -0.00000000000E+00 -0.00000000000E+00 -0.45593999997E+02  0.45594000000E+02  0.51100000000E-03 0. -1.
    9900012    2    1    2    0    0  0.10492049293E+01 -0.53227754289E+00 -0.94283365697E-01  0.90007728964E+02  0.89999990186E+02 0.  0.
        -12    1    1    2    0    0 -0.10492049293E+01  0.53227754289E+00  0.94283365697E-01  0.11802710364E+01  0.00000000000E+00 0.  1.
         11    1    3    3    0    0  0.25797574724E+02  0.31904686577E+02  0.30551577656E+00  0.41030686411E+02  0.51100000000E-03 0. -1.
        -11    1    3    3    0    0 -0.74659147928E+01  0.29978797520E+01 -0.47014477650E+01  0.93183033890E+01  0.51100000000E-03 0.  1.
        -12    1    3    3    0    0 -0.17282455002E+02 -0.35434843872E+02  0.43016486228E+01  0.39658739163E+02  0.00000000000E+00 0.  1.
</event>
<event>
 7    1  0.2895479E-015  0.9000775E+02  0.7816164E-02  0.1186339E+00
        -11   -1    0    0    0    0  0.00000000000E+00  0.00000000000E+00  0.45593999997E+02  0.45594000000E+02  0.51100000000E-03 0. -1.
         11   -1    0    0    0    0 -0.00000000000E+00 -0.00000000000E+00 -0.45593999997E+02  0.45594000000E+02  0.51100000000E-03 0.  1.
    9900012    2    1    2    0    0  0.58356332605E+00 -0.68129518835E+00  0.76698934234E+00  0.90007753441E+02  0.90000014986E+02 0.  0.
        -12    1    1    2    0    0 -0.58356332605E+00  0.68129518835E+00 -0.76698934234E+00  0.11802465592E+01  0.00000000000E+00 0.  1.
         11    1    3    3    0    0 -0.17424273747E+01  0.32195707121E+01  0.84168506546E+01  0.91785109865E+01  0.51100000000E-03 0. -1.
        -11    1    3    3    0    0  0.21249670053E+02  0.27179514548E+02  0.15371958130E+02  0.37769982597E+02  0.51100000000E-03 0.  1.
         12    1    3    3    0    0 -0.18923679352E+02 -0.31080380448E+02 -0.23021819442E+02  0.43059259857E+02  0.00000000000E+00 0. -1.
</event>
<event>
 7    1  0.2895479E-015  0.9000783E+02  0.7816164E-02  0.1186339E+00
        -11   -1    0    0    0    0  0.00000000000E+00  0.00000000000E+00  0.45593999997E+02  0.45594000000E+02  0.51100000000E-03 0.  1.
         11   -1    0    0    0    0 -0.00000000000E+00 -0.00000000000E+00 -0.45593999997E+02  0.45594000000E+02  0.51100000000E-03 0. -1.
    9900012    2    1    2    0    0  0.44975534339E+00  0.28857125018E+00  0.10522619972E+01  0.90007826900E+02  0.90000089415E+02 0.  0.
        -12    1    1    2    0    0 -0.44975534339E+00 -0.28857125018E+00 -0.10522619972E+01  0.11801731000E+01  0.00000000000E+00 0.  1.
         11    1    3    3    0    0 -0.21597655167E+02 -0.36737464749E+02  0.12762558912E+02  0.44485761038E+02  0.51100000000E-03 0. -1.
        -11    1    3    3    0    0  0.79721180979E+01  0.66412747677E+01 -0.13141914790E+01  0.10458886031E+02  0.51100000000E-03 0.  1.
        -12    1    3    3    0    0  0.14075292413E+02  0.30384761232E+02 -0.10396105435E+02  0.35063179831E+02  0.00000000000E+00 0.  1.
</event>
<event>
 7    1  0.2895479E-015  0.9000779E+02  0.7816164E-02  0.1186339E+00
        -11   -1    0    0    0    0  0.00000000000E+00  0.00000000000E+00  0.45593999997E+02  0.45594000000E+02  0.51100000000E-03 0.  1.
         11   -1    0    0    0    0 -0.00000000000E+00 -0.00000000000E+00 -0.45593999997E+02  0.45594000000E+02  0.51100000000E-03 0. -1.
    9900012    2    1    2    0    0 -0.55027124577E+00  0.33535421290E+00 -0.98875427714E+00  0.90007789886E+02  0.90000051913E+02 0.  0.
        -12    1    1    2    0    0  0.55027124577E+00 -0.33535421290E+00  0.98875427714E+00  0.11802101137E+01  0.00000000000E+00 0.  1.
         11    1    3    3    0    0  0.26140410490E+02  0.22238937204E+02  0.11360066236E+02  0.36151659626E+02  0.51100000000E-03 0. -1.
        -11    1    3    3    0    0  0.85541532814E+01  0.61001354523E+00  0.33191650485E+01  0.91957877187E+01  0.51100000000E-03 0.  1.
        -12    1    3    3    0    0 -0.35244835017E+02 -0.22513596537E+02 -0.15667985561E+02  0.44660342542E+02  0.00000000000E+00 0.  1.
</event>
<event>
 7    1  0.2895479E-015  0.9000791E+02  0.7816164E-02  0.1186339E+00
        -11   -1    0    0    0    0  0.00000000000E+00  0.00000000000E+00  0.45593999997E+02  0.45594000000E+02  0.51100000000E-03 0.  1.
         11   -1    0    0    0    0 -0.00000000000E+00 -0.00000000000E+00 -0.45593999997E+02  0.45594000000E+02  0.51100000000E-03 0. -1.
    9900012    2    1    2    0    0  0.83230137769E+00  0.23284610615E+00 -0.80353480171E+00  0.90007910567E+02  0.90000174186E+02 0.  0.
        -12    1    1    2    0    0 -0.83230137769E+00 -0.23284610615E+00  0.80353480171E+00  0.11800894331E+01  0.00000000000E+00 0.  1.
         11    1    3    3    0    0  0.20344661844E+01  0.16699722990E+02 -0.38334300816E+02  0.41863330254E+02  0.51100000000E-03 0. -1.
        -11    1    3    3    0    0 -0.75641068712E+01 -0.42179341088E+01  0.55701983951E+00  0.86785339930E+01  0.51100000000E-03 0.  1.
        -12    1    3    3    0    0  0.63619420645E+01 -0.12248942775E+02  0.36973746175E+02  0.39466046320E+02  0.00000000000E+00 0.  1.
</event>
<event>
 7    1  0.2895479E-015  0.9000776E+02  0.7816164E-02  0.1186339E+00
        -11   -1    0    0    0    0  0.00000000000E+00  0.00000000000E+00  0.45593999997E+02  0.45594000000E+02  0.51100000000E-03 0.  1.
         11   -1    0    0    0    0 -0.00000000000E+00 -0.00000000000E+00 -0.45593999997E+02  0.45594000000E+02  0.51100000000E-03 0. -1.
    9900012    2    1    2    0    0  0.81691248837E+00 -0.79565757049E+00 -0.30421968695E+00  0.90007759939E+02  0.90000021570E+02 0.  0.
        -12    1    1    2    0    0 -0.81691248837E+00  0.79565757049E+00  0.30421968695E+00  0.11802400608E+01  0.00000000000E+00 0.  1.
         11    1    3    3    0    0 -0.19328777174E+02  0.21870175926E+00 -0.26950574007E+02  0.33165990066E+02  0.51100000000E-03 0. -1.
        -11    1    3    3    0    0 -0.58536402114E+01 -0.61613799156E+01 -0.90283893502E+01  0.12399174195E+02  0.51100000000E-03 0.  1.
        -12    1    3    3    0    0  0.25999329873E+02  0.51470205859E+01  0.35674743670E+02  0.44442595679E+02  0.00000000000E+00 0.  1.
</event>
<event>
 7    1  0.2895479E-015  0.9000775E+02  0.7816164E-02  0.1186339E+00
        -11   -1    0    0    0    0  0.00000000000E+00  0.00000000000E+00  0.45593999997E+02  0.45594000000E+02  0.51100000000E-03 0.  1.
         11   -1    0    0    0    0 -0.00000000000E+00 -0.00000000000E+00 -0.45593999997E+02  0.45594000000E+02  0.51100000000E-03 0. -1.
    9900012    2    1    2    0    0  0.10946686918E+01 -0.10611884942E+00 -0.42828262759E+00  0.90007751397E+02  0.90000012916E+02 0.  0.
        -12    1    1    2    0    0 -0.10946686918E+01  0.10611884942E+00  0.42828262759E+00  0.11802486027E+01  0.00000000000E+00 0.  1.
         11    1    3    3    0    0  0.87641457854E+01 -0.39649589810E+01  0.41372623475E+01  0.10471298442E+02  0.51100000000E-03 0. -1.
        -11    1    3    3    0    0  0.16342002187E+02  0.15902456596E+01  0.31864560852E+02  0.35846061922E+02  0.51100000000E-03 0.  1.
         12    1    3    3    0    0 -0.24011479280E+02  0.22685944720E+01 -0.36430105827E+02  0.43690391034E+02  0.00000000000E+00 0. -1.
</event>
<event>
 7    1  0.2895479E-015  0.9000768E+02  0.7816164E-02  0.1186339E+00
        -11   -1    0    0    0    0  0.00000000000E+00  0.00000000000E+00  0.45593999997E+02  0.45594000000E+02  0.51100000000E-03 0. -1.
         11   -1    0    0    0    0 -0.00000000000E+00 -0.00000000000E+00 -0.45593999997E+02  0.45594000000E+02  0.51100000000E-03 0.  1.
    9900012    2    1    2    0    0  0.52122720723E+00  0.10131353867E+01  0.30826411051E+00  0.90007683146E+02  0.89999943764E+02 0.  0.
        -12    1    1    2    0    0 -0.52122720723E+00 -0.10131353867E+01 -0.30826411051E+00  0.11803168537E+01  0.00000000000E+00 0.  1.
         11    1    3    3    0    0  0.10188570199E+00 -0.23392402813E+02  0.28434524876E+02  0.36820335350E+02  0.51100000000E-03 0. -1.
        -11    1    3    3    0    0  0.46702939140E+01  0.15921519708E+01  0.84999861890E+01  0.98283446529E+01  0.51100000000E-03 0.  1.
        -12    1    3    3    0    0 -0.42509524088E+01  0.22813386229E+02 -0.36626246955E+02  0.43359003144E+02  0.00000000000E+00 0.  1.
</event>
<event>
 7    1  0.2895479E-015  0.9000771E+02  0.7816164E-02  0.1186339E+00
        -11   -1    0    0    0    0  0.00000000000E+00  0.00000000000E+00  0.45593999997E+02  0.45594000000E+02  0.51100000000E-03 0. -1.
         11   -1    0    0    0    0 -0.00000000000E+00 -0.00000000000E+00 -0.45593999997E+02  0.45594000000E+02  0.51100000000E-03 0.  1.
    9900012    2    1    2    0    0  0.10711204842E+01 -0.16737174022E+00  0.46667245974E+00  0.90007705301E+02  0.89999966211E+02 0.  0.
        -12    1    1    2    0    0 -0.10711204842E+01  0.16737174022E+00 -0.46667245974E+00  0.11802946987E+01  0.00000000000E+00 0.  1.
         11    1    3    3    0    0  0.33571194076E+02  0.20872209580E+02 -0.14989799328E+02  0.42277278633E+02  0.51100000000E-03 0. -1.
        -11    1    3    3    0    0 -0.72748610104E+01  0.38609944272E+01 -0.16081695155E+01  0.83914891491E+01  0.51100000000E-03 0.  1.
        -12    1    3    3    0    0 -0.25225212581E+02 -0.24900575747E+02  0.17064641304E+02  0.39338937519E+02  0.00000000000E+00 0.  1.
</event>
<event>
 7    1  0.2895479E-015  0.9000766E+02  0.7816164E-02  0.1186339E+00
        -11   -1    0    0    0    0  0.00000000000E+00  0.00000000000E+00  0.45593999997E+02  0.45594000000E+02  0.51100000000E-03 0. -1.
         11   -1    0    0    0    0 -0.00000000000E+00 -0.00000000000E+00 -0.45593999997E+02  0.45594000000E+02  0.51100000000E-03 0.  1.
    9900012    2    1    2    0    0  0.38387642542E+00  0.10235965380E+01  0.44507719785E+00  0.90007659077E+02  0.89999919377E+02 0.  0.
        -12    1    1    2    0    0 -0.38387642542E+00 -0.10235965380E+01 -0.44507719785E+00  0.11803409231E+01  0.00000000000E+00 0.  1.
         11    1    3    3    0    0  0.11389547415E+00  0.10701733476E+02 -0.24353216729E+01  0.10975921988E+02  0.51100000000E-03 0. -1.
        -11    1    3    3    0    0  0.32832373199E+02 -0.20309081526E+02 -0.13714611421E+02  0.40969672796E+02  0.51100000000E-03 0.  1.
         12    1    3    3    0    0 -0.32562392247E+02  0.10630944588E+02  0.16595010292E+02  0.38062064294E+02  0.00000000000E+00 0. -1.
</event>
<event>
 7    1  0.2895479E-015  0.9000767E+02  0.7816164E-02  0.1186339E+00
        -11   -1    0    0    0    0  0.00000000000E+00  0.00000000000E+00  0.45593999997E+02  0.45594000000E+02  0.51100000000E-03 0.  1.
         11   -1    0    0    0    0 -0.00000000000E+00 -0.00000000000E+00 -0.45593999997E+02  0.45594000000E+02  0.51100000000E-03 0. -1.
    9900012    2    1    2    0    0  0.17936070496E+00 -0.25963890554E-01 -0.11663379544E+01  0.90007665891E+02  0.89999926280E+02 0.  0.
        -12    1    1    2    0    0 -0.17936070496E+00  0.25963890554E-01  0.11663379544E+01  0.11803341094E+01  0.00000000000E+00 0.  1.
         11    1    3    3    0    0 -0.33524219129E+02 -0.20260810762E+02 -0.14620253156E+02  0.41810591046E+02  0.51100000000E-03 0. -1.
        -11    1    3    3    0    0  0.80978998383E+01 -0.16715064040E+01 -0.51140319031E+01  0.97223062088E+01  0.51100000000E-03 0.  1.
        -12    1    3    3    0    0  0.25605679996E+02  0.21906353276E+02  0.18567947105E+02  0.38474768636E+02  0.00000000000E+00 0.  1.
</event>
<event>
 7    1  0.2895479E-015  0.9000771E+02  0.7816164E-02  0.1186339E+00
        -11   -1    0    0    0    0  0.00000000000E+00  0.00000000000E+00  0.45593999997E+02  0.45594000000E+02  0.51100000000E-03 0.  1.
         11   -1    0    0    0    0 -0.00000000000E+00 -0.00000000000E+00 -0.45593999997E+02  0.45594000000E+02  0.51100000000E-03 0. -1.
    9900012    2    1    2    0    0 -0.99530811941E+00  0.38598773692E+00 -0.50343700538E+00  0.90007714609E+02  0.89999975642E+02 0.  0.
        -12    1    1    2    0    0  0.99530811941E+00 -0.38598773692E+00  0.50343700538E+00  0.11802853909E+01  0.00000000000E+00 0.  1.
         11    1    3    3    0    0  0.95750811381E+01  0.10318514253E+02  0.13183289826E+02  0.19286084260E+02  0.51100000000E-03 0. -1.
        -11    1    3    3    0    0  0.22137156552E+02  0.11642673783E+02  0.75855640479E+01  0.26137068222E+02  0.51100000000E-03 0.  1.
         12    1    3    3    0    0 -0.32707545810E+02 -0.21575200299E+02 -0.21272290879E+02  0.44584562127E+02  0.00000000000E+00 0. -1.
</event>
<event>
 7    1  0.2895479E-015  0.9000772E+02  0.7816164E-02  0.1186339E+00
        -11   -1    0    0    0    0  0.00000000000E+00  0.00000000000E+00  0.45593999997E+02  0.45594000000E+02  0.51100000000E-03 0. -1.
         11   -1    0    0    0    0 -0.00000000000E+00 -0.00000000000E+00 -0.45593999997E+02  0.45594000000E+02  0.51100000000E-03 0.  1.
    9900012    2    1    2    0    0  0.88633008856E+00  0.24016539472E+00  0.74148470322E+00  0.90007720369E+02  0.89999981478E+02 0.  0.
        -12    1    1    2    0    0 -0.88633008856E+00 -0.24016539472E+00 -0.74148470322E+00  0.11802796312E+01  0.00000000000E+00 0.  1.
         11    1    3    3    0    0  0.39040546299E+02  0.72873064856E+01  0.17977418634E+02  0.43594227509E+02  0.51100000000E-03 0. -1.
        -11    1    3    3    0    0 -0.29386548772E+01 -0.65840899861E+01 -0.61915760182E+01  0.95037649004E+01  0.51100000000E-03 0.  1.
        -12    1    3    3    0    0 -0.35215561333E+02 -0.46305110481E+00 -0.11044357912E+02  0.36909727959E+02  0.00000000000E+00 0.  1.
</event>
<event>
 7    1  0.2895479E-015  0.9000711E+02  0.7816164E-02  0.1186340E+00
        -11   -1    0    0    0    0  0.00000000000E+00  0.00000000000E+00  0.45593999997E+02  0.45594000000E+02  0.51100000000E-03 0.  1.
         11   -1    0    0    0    0 -0.00000000000E+00 -0.00000000000E+00 -0.45593999997E+02  0.45594000000E+02  0.51100000000E-03 0. -1.
    9900012    2    1    2    0    0 -0.13927924317E+00  0.94247807388E+00 -0.69774139931E+00  0.90007107673E+02  0.89999360692E+02 0.  0.
        -12    1    1    2    0    0  0.13927924317E+00 -0.94247807388E+00  0.69774139931E+00  0.11808923269E+01  0.00000000000E+00 0.  1.
         11    1    3    3    0    0 -0.14165829702E+01 -0.76159309682E+01  0.45558941689E+01  0.89869507489E+01  0.51100000000E-03 0. -1.
        -11    1    3    3    0    0 -0.43295731901E+01 -0.12310211153E+02  0.33885931314E+02  0.36311745262E+02  0.51100000000E-03 0.  1.
         12    1    3    3    0    0  0.56068769172E+01  0.20868620195E+02 -0.39139566883E+02  0.44708411662E+02  0.00000000000E+00 0. -1.
</event>
<event>
 7    1  0.2895479E-015  0.9000776E+02  0.7816164E-02  0.1186339E+00
        -11   -1    0    0    0    0  0.00000000000E+00  0.00000000000E+00  0.45593999997E+02  0.45594000000E+02  0.51100000000E-03 0. -1.
         11   -1    0    0    0    0 -0.00000000000E+00 -0.00000000000E+00 -0.45593999997E+02  0.45594000000E+02  0.51100000000E-03 0.  1.
    9900012    2    1    2    0    0  0.69464209166E+00 -0.70111707919E+00 -0.64721224546E+00  0.90007755752E+02  0.90000017328E+02 0.  0.
        -12    1    1    2    0    0 -0.69464209166E+00  0.70111707919E+00  0.64721224546E+00  0.11802442480E+01  0.00000000000E+00 0.  1.
         11    1    3    3    0    0  0.18854918149E+01 -0.61297460969E+01 -0.72453483718E+01  0.96759464594E+01  0.51100000000E-03 0. -1.
        -11    1    3    3    0    0 -0.37856990564E+00  0.23464600598E+02 -0.30848385679E+02  0.38760207632E+02  0.51100000000E-03 0.  1.
         12    1    3    3    0    0 -0.81227981763E+00 -0.18035971581E+02  0.37446521805E+02  0.41571601661E+02  0.00000000000E+00 0. -1.
</event>
<event>
 7    1  0.4068920E-015  0.9000772E+02  0.7816164E-02  0.1186339E+00
        -11   -1    0    0    0    0  0.00000000000E+00  0.00000000000E+00  0.45593999997E+02  0.45594000000E+02  0.51100000000E-03 0. -1.
         11   -1    0    0    0    0 -0.00000000000E+00 -0.00000000000E+00 -0.45593999997E+02  0.45594000000E+02  0.51100000000E-03 0.  1.
    9900012    2    1    2    0    0  0.37411779160E+00  0.12147079093E+00  0.11128031921E+01  0.90007724516E+02  0.89999985679E+02 0.  0.
        -12    1    1    2    0    0 -0.37411779160E+00 -0.12147079093E+00 -0.11128031921E+01  0.11802754845E+01  0.00000000000E+00 0.  1.
         11    1    3    3    0    0 -0.37814976402E+01  0.62404475210E+01  0.67363950865E+01  0.99308573994E+01  0.51100000000E-03 0. -1.
        -11    1    3    3    0    0 -0.19480609413E+02 -0.34319292236E+02  0.90095776081E+01  0.40478147828E+02  0.51100000000E-03 0.  1.
         12    1    3    3    0    0  0.23636224844E+02  0.28200315506E+02 -0.14633169503E+02  0.39598719288E+02  0.00000000000E+00 0. -1.
</event>
<event>
 7    1  0.2895479E-015  0.9000776E+02  0.7816164E-02  0.1186339E+00
        -11   -1    0    0    0    0  0.00000000000E+00  0.00000000000E+00  0.45593999997E+02  0.45594000000E+02  0.51100000000E-03 0. -1.
         11   -1    0    0    0    0 -0.00000000000E+00 -0.00000000000E+00 -0.45593999997E+02  0.45594000000E+02  0.51100000000E-03 0.  1.
    9900012    2    1    2    0    0  0.77708195306E-01  0.10909217083E+01  0.44363432575E+00  0.90007762671E+02  0.90000024338E+02 0.  0.
        -12    1    1    2    0    0 -0.77708195306E-01 -0.10909217083E+01 -0.44363432575E+00  0.11802373288E+01  0.00000000000E+00 0.  1.
         11    1    3    3    0    0 -0.21328620097E+01 -0.14467046074E+02  0.37612061124E+02  0.40354822075E+02  0.51100000000E-03 0. -1.
        -11    1    3    3    0    0  0.43287284703E+01  0.59340200800E+01  0.32634979138E+01  0.80374687168E+01  0.51100000000E-03 0.  1.
        -12    1    3    3    0    0 -0.21181582653E+01  0.96239477027E+01 -0.40431924712E+02  0.41615471879E+02  0.00000000000E+00 0.  1.
</event>
<event>
 7    1  0.2895479E-015  0.9000778E+02  0.7816164E-02  0.1186339E+00
        -11   -1    0    0    0    0  0.00000000000E+00  0.00000000000E+00  0.45593999997E+02  0.45594000000E+02  0.51100000000E-03 0. -1.
         11   -1    0    0    0    0 -0.00000000000E+00 -0.00000000000E+00 -0.45593999997E+02  0.45594000000E+02  0.51100000000E-03 0.  1.
    9900012    2    1    2    0    0  0.10254908139E+01 -0.53045696121E+00  0.24476819406E+00  0.90007776519E+02  0.90000038369E+02 0.  0.
        -12    1    1    2    0    0 -0.10254908139E+01  0.53045696121E+00 -0.24476819406E+00  0.11802234814E+01  0.00000000000E+00 0.  1.
         11    1    3    3    0    0  0.10004528081E+01  0.58145583098E+01  0.64947040146E+01  0.87744615024E+01  0.51100000000E-03 0. -1.
        -11    1    3    3    0    0  0.16091372631E+02  0.33586897377E+02 -0.82447021104E+01  0.38144292649E+02  0.51100000000E-03 0.  1.
         12    1    3    3    0    0 -0.16066334625E+02 -0.39931912648E+02  0.19947662899E+01  0.43089022367E+02  0.00000000000E+00 0. -1.
</event>
<event>
 7    1  0.2895479E-015  0.9000771E+02  0.7816164E-02  0.1186339E+00
        -11   -1    0    0    0    0  0.00000000000E+00  0.00000000000E+00  0.45593999997E+02  0.45594000000E+02  0.51100000000E-03 0. -1.
         11   -1    0    0    0    0 -0.00000000000E+00 -0.00000000000E+00 -0.45593999997E+02  0.45594000000E+02  0.51100000000E-03 0.  1.
    9900012    2    1    2    0    0  0.68903812335E+00  0.36096931597E+00  0.88770100257E+00  0.90007709590E+02  0.89999970556E+02 0.  0.
        -12    1    1    2    0    0 -0.68903812335E+00 -0.36096931597E+00 -0.88770100257E+00  0.11802904102E+01  0.00000000000E+00 0.  1.
         11    1    3    3    0    0  0.64885469282E+00 -0.24973078659E+01 -0.11271803073E+02  0.11563351753E+02  0.51100000000E-03 0. -1.
        -11    1    3    3    0    0 -0.10161831617E+02 -0.90567079623E+01 -0.30279966506E+02  0.33198842642E+02  0.51100000000E-03 0.  1.
         12    1    3    3    0    0  0.10202015047E+02  0.11914985144E+02  0.42439470581E+02  0.45245515195E+02  0.00000000000E+00 0. -1.
</event>
<event>
 7    1  0.2895479E-015  0.9000783E+02  0.7816164E-02  0.1186339E+00
        -11   -1    0    0    0    0  0.00000000000E+00  0.00000000000E+00  0.45593999997E+02  0.45594000000E+02  0.51100000000E-03 0.  1.
         11   -1    0    0    0    0 -0.00000000000E+00 -0.00000000000E+00 -0.45593999997E+02  0.45594000000E+02  0.51100000000E-03 0. -1.
    9900012    2    1    2    0    0 -0.95125026857E-01 -0.38593999521E+00 -0.11112136087E+01  0.90007833006E+02  0.90000095601E+02 0.  0.
        -12    1    1    2    0    0  0.95125026857E-01  0.38593999521E+00  0.11112136087E+01  0.11801669944E+01  0.00000000000E+00 0.  1.
         11    1    3    3    0    0  0.97747403099E+01 -0.64051229183E+01 -0.77873586707E+01  0.14043293882E+02  0.51100000000E-03 0. -1.
        -11    1    3    3    0    0 -0.34186500627E+02 -0.19844551600E+02  0.84448380896E+01  0.40420766246E+02  0.51100000000E-03 0.  1.
         12    1    3    3    0    0  0.24316635290E+02  0.25863734523E+02 -0.17686930275E+01  0.35543772877E+02  0.00000000000E+00 0. -1.
</event>
<event>
 7    1  0.2895479E-015  0.9000775E+02  0.7816164E-02  0.1186339E+00
        -11   -1    0    0    0    0  0.00000000000E+00  0.00000000000E+00  0.45593999997E+02  0.45594000000E+02  0.51100000000E-03 0.  1.
         11   -1    0    0    0    0 -0.00000000000E+00 -0.00000000000E+00 -0.45593999997E+02  0.45594000000E+02  0.51100000000E-03 0. -1.
    9900012    2    1    2    0    0  0.87119723884E+00  0.68954775866E+00 -0.39816940662E+00  0.90007745952E+02  0.90000007399E+02 0.  0.
        -12    1    1    2    0    0 -0.87119723884E+00 -0.68954775866E+00  0.39816940662E+00  0.11802540476E+01  0.00000000000E+00 0.  1.
         11    1    3    3    0    0 -0.11162755235E+02  0.48675587986E+01  0.45525567341E+01  0.13001000199E+02  0.51100000000E-03 0. -1.
        -11    1    3    3    0    0 -0.19000381708E+02 -0.26427965699E+02  0.12699194013E+02  0.34938823748E+02  0.51100000000E-03 0.  1.
         12    1    3    3    0    0  0.31034334182E+02  0.22249954659E+02 -0.17649920154E+02  0.42067922006E+02  0.00000000000E+00 0. -1.
</event>
<event>
 7    1  0.2895479E-015  0.9000770E+02  0.7816164E-02  0.1186339E+00
        -11   -1    0    0    0    0  0.00000000000E+00  0.00000000000E+00  0.45593999997E+02  0.45594000000E+02  0.51100000000E-03 0.  1.
         11   -1    0    0    0    0 -0.00000000000E+00 -0.00000000000E+00 -0.45593999997E+02  0.45594000000E+02  0.51100000000E-03 0. -1.
    9900012    2    1    2    0    0  0.28657605058E+00 -0.90505635991E+00  0.70131983787E+00  0.90007702426E+02  0.89999963298E+02 0.  0.
        -12    1    1    2    0    0 -0.28657605058E+00  0.90505635991E+00 -0.70131983787E+00  0.11802975737E+01  0.00000000000E+00 0.  1.
         11    1    3    3    0    0  0.31915009984E+02 -0.11627704534E+02 -0.23043111408E+02  0.41045783689E+02  0.51100000000E-03 0. -1.
        -11    1    3    3    0    0  0.30145914902E+01  0.73184209548E+01  0.31688441661E+01  0.85257621791E+01  0.51100000000E-03 0.  1.
        -12    1    3    3    0    0 -0.34643025424E+02  0.34042272195E+01  0.20575587080E+02  0.40436156558E+02  0.00000000000E+00 0.  1.
</event>
<event>
 7    1  0.2922244E-015  0.9000755E+02  0.7816164E-02  0.1186339E+00
        -11   -1    0    0    0    0  0.00000000000E+00  0.00000000000E+00  0.45593999997E+02  0.45594000000E+02  0.51100000000E-03 0.  1.
         11   -1    0    0    0    0 -0.00000000000E+00 -0.00000000000E+00 -0.45593999997E+02  0.45594000000E+02  0.51100000000E-03 0. -1.
    9900012    2    1    2    0    0 -0.45291419928E+00 -0.40506749932E+00 -0.10120571278E+01  0.90007546451E+02  0.89999805264E+02 0.  0.
        -12    1    1    2    0    0  0.45291419928E+00  0.40506749932E+00  0.10120571278E+01  0.11804535488E+01  0.00000000000E+00 0.  1.
         11    1    3    3    0    0 -0.75744348384E+01 -0.52696214381E+01  0.24002548690E+01  0.95342643617E+01  0.51100000000E-03 0. -1.
        -11    1    3    3    0    0  0.29743785534E+01 -0.71295076733E+01  0.37164135524E+02  0.37958527065E+02  0.51100000000E-03 0.  1.
         12    1    3    3    0    0  0.41471420857E+01  0.11994061612E+02 -0.40576447520E+02  0.42514755025E+02  0.00000000000E+00 0. -1.
</event>
<event>
 7    1  0.2895479E-015  0.9000779E+02  0.7816164E-02  0.1186339E+00
        -11   -1    0    0    0    0  0.00000000000E+00  0.00000000000E+00  0.45593999997E+02  0.45594000000E+02  0.51100000000E-03 0.  1.
         11   -1    0    0    0    0 -0.00000000000E+00 -0.00000000000E+00 -0.45593999997E+02  0.45594000000E+02  0.51100000000E-03 0. -1.
    9900012    2    1    2    0    0 -0.56342517335E+00 -0.45066741270E+00 -0.93399176934E+00  0.90007792532E+02  0.90000054593E+02 0.  0.
        -12    1    1    2    0    0  0.56342517335E+00  0.45066741270E+00  0.93399176934E+00  0.11802074682E+01  0.00000000000E+00 0.  1.
         11    1    3    3    0    0  0.16881503835E+01 -0.98144251662E+01  0.32973255812E+01  0.10490240670E+02  0.51100000000E-03 0. -1.
        -11    1    3    3    0    0  0.89273404867E+01 -0.30106187818E+02  0.14298763511E+02  0.34504124265E+02  0.51100000000E-03 0.  1.
         12    1    3    3    0    0 -0.11178916044E+02  0.39469945571E+02 -0.18530080861E+02  0.45013427597E+02  0.00000000000E+00 0. -1.
</event>
<event>
 7    1  0.2895479E-015  0.9000765E+02  0.7816164E-02  0.1186339E+00
        -11   -1    0    0    0    0  0.00000000000E+00  0.00000000000E+00  0.45593999997E+02  0.45594000000E+02  0.51100000000E-03 0.  1.
         11   -1    0    0    0    0 -0.00000000000E+00 -0.00000000000E+00 -0.45593999997E+02  0.45594000000E+02  0.51100000000E-03 0. -1.
    9900012    2    1    2    0    0 -0.94783017071E+00  0.28463078153E+00  0.64328661651E+00  0.90007654972E+02  0.89999915218E+02 0.  0.
        -12    1    1    2    0    0  0.94783017071E+00 -0.28463078153E+00 -0.64328661651E+00  0.11803450281E+01  0.00000000000E+00 0.  1.
         11    1    3    3    0    0  0.21423396558E+01  0.32198421657E+01  0.96342942412E+01  0.10381552319E+02  0.51100000000E-03 0. -1.
        -11    1    3    3    0    0  0.21346513183E+02  0.30784765596E+02 -0.35764402286E+01  0.37631985635E+02  0.51100000000E-03 0.  1.
         12    1    3    3    0    0 -0.24436683009E+02 -0.33719976980E+02 -0.54145673961E+01  0.41994117018E+02  0.00000000000E+00 0. -1.
</event>
<event>
 7    1  0.2895479E-015  0.9000773E+02  0.7816164E-02  0.1186339E+00
        -11   -1    0    0    0    0  0.00000000000E+00  0.00000000000E+00  0.45593999997E+02  0.45594000000E+02  0.51100000000E-03 0.  1.
         11   -1    0    0    0    0 -0.00000000000E+00 -0.00000000000E+00 -0.45593999997E+02  0.45594000000E+02  0.51100000000E-03 0. -1.
    9900012    2    1    2    0    0  0.54561244704E+00 -0.29819476526E+00 -0.10032089746E+01  0.90007728291E+02  0.89999989504E+02 0.  0.
        -12    1    1    2    0    0 -0.54561244704E+00  0.29819476526E+00  0.10032089746E+01  0.11802717090E+01  0.00000000000E+00 0.  1.
         11    1    3    3    0    0 -0.26874214172E+02 -0.12700978794E+00  0.44313698886E+01  0.27237411004E+02  0.51100000000E-03 0. -1.
        -11    1    3    3    0    0 -0.68880200259E+01  0.39451363757E-01  0.19288803238E+02  0.20481804288E+02  0.51100000000E-03 0.  1.
         12    1    3    3    0    0  0.34307846645E+02 -0.21063634108E+00 -0.24723382101E+02  0.42288512998E+02  0.00000000000E+00 0. -1.
</event>
<event>
 7    1  0.2895479E-015  0.9000780E+02  0.7816164E-02  0.1186339E+00
        -11   -1    0    0    0    0  0.00000000000E+00  0.00000000000E+00  0.45593999997E+02  0.45594000000E+02  0.51100000000E-03 0.  1.
         11   -1    0    0    0    0 -0.00000000000E+00 -0.00000000000E+00 -0.45593999997E+02  0.45594000000E+02  0.51100000000E-03 0. -1.
    9900012    2    1    2    0    0  0.13588531154E+00  0.92626880418E+00 -0.71863883626E+00  0.90007796419E+02  0.90000058532E+02 0.  0.
        -12    1    1    2    0    0 -0.13588531154E+00 -0.92626880418E+00  0.71863883626E+00  0.11802035809E+01  0.00000000000E+00 0.  1.
         11    1    3    3    0    0 -0.82672877712E+01  0.23083049874E+02  0.35141459915E+02  0.42849707628E+02  0.51100000000E-03 0. -1.
        -11    1    3    3    0    0  0.74045490820E+01 -0.57357642534E+01 -0.20939097485E+01  0.95974370002E+01  0.51100000000E-03 0.  1.
        -12    1    3    3    0    0  0.99862400074E+00 -0.16421016816E+02 -0.33766189003E+02  0.37560651791E+02  0.00000000000E+00 0.  1.
</event>
<event>
 7    1  0.2895479E-015  0.9000699E+02  0.7816164E-02  0.1186341E+00
        -11   -1    0    0    0    0  0.00000000000E+00  0.00000000000E+00  0.45593999997E+02  0.45594000000E+02  0.51100000000E-03 0. -1.
         11   -1    0    0    0    0 -0.00000000000E+00 -0.00000000000E+00 -0.45593999997E+02  0.45594000000E+02  0.51100000000E-03 0.  1.
    9900012    2    1    2    0    0 -0.96786321402E+00  0.31939269632E+00  0.59667525050E+00  0.90006986770E+02  0.89999238192E+02 0.  0.
        -12    1    1    2    0    0  0.96786321402E+00 -0.31939269632E+00 -0.59667525050E+00  0.11810132303E+01  0.00000000000E+00 0.  1.
         11    1    3    3    0    0 -0.82367876910E+01 -0.66114948557E+01  0.25712155987E+01  0.10870496107E+02  0.51100000000E-03 0. -1.
        -11    1    3    3    0    0  0.14034013900E+02 -0.25778079330E+02 -0.25010832280E+02  0.38561699285E+02  0.51100000000E-03 0.  1.
         12    1    3    3    0    0 -0.67650894234E+01  0.32708966882E+02  0.23036291932E+02  0.40574791378E+02  0.00000000000E+00 0. -1.
</event>
<event>
 7    1  0.2895479E-015  0.9000775E+02  0.7816164E-02  0.1186339E+00
        -11   -1    0    0    0    0  0.00000000000E+00  0.00000000000E+00  0.45593999997E+02  0.45594000000E+02  0.51100000000E-03 0.  1.
         11   -1    0    0    0    0 -0.00000000000E+00 -0.00000000000E+00 -0.45593999997E+02  0.45594000000E+02  0.51100000000E-03 0. -1.
    9900012    2    1    2    0    0 -0.10146312562E+01 -0.23367711302E+00 -0.55580173875E+00  0.90007746997E+02  0.90000008457E+02 0.  0.
        -12    1    1    2    0    0  0.10146312562E+01  0.23367711302E+00  0.55580173875E+00  0.11802530034E+01  0.00000000000E+00 0.  1.
         11    1    3    3    0    0  0.75923305916E+01  0.34816847216E+01 -0.20849757515E+00  0.83551830509E+01  0.51100000000E-03 0. -1.
        -11    1    3    3    0    0  0.34500330195E+02 -0.68378792658E+01  0.11208376915E+02  0.36914185482E+02  0.51100000000E-03 0.  1.
         12    1    3    3    0    0 -0.43107292043E+02  0.31225174312E+01 -0.11555681079E+02  0.44738378464E+02  0.00000000000E+00 0. -1.
</event>
<event>
 7    1  0.3065801E-015  0.9000772E+02  0.7816164E-02  0.1186339E+00
        -11   -1    0    0    0    0  0.00000000000E+00  0.00000000000E+00  0.45593999997E+02  0.45594000000E+02  0.51100000000E-03 0.  1.
         11   -1    0    0    0    0 -0.00000000000E+00 -0.00000000000E+00 -0.45593999997E+02  0.45594000000E+02  0.51100000000E-03 0. -1.
    9900012    2    1    2    0    0  0.83527596223E+00 -0.69608286205E+00 -0.45918260792E+00  0.90007717851E+02  0.89999978927E+02 0.  0.
        -12    1    1    2    0    0 -0.83527596223E+00  0.69608286205E+00  0.45918260792E+00  0.11802821490E+01  0.00000000000E+00 0.  1.
         11    1    3    3    0    0 -0.11150657119E+01  0.62139213921E+01 -0.67804770619E+01  0.92645053865E+01  0.51100000000E-03 0. -1.
        -11    1    3    3    0    0 -0.22882814728E+02 -0.32459962959E+02 -0.10880308934E+02  0.41178313806E+02  0.51100000000E-03 0.  1.
         12    1    3    3    0    0  0.24833156402E+02  0.25549958705E+02  0.17201603388E+02  0.39564898658E+02  0.00000000000E+00 0. -1.
</event>
<event>
 7    1  0.2895479E-015  0.9000776E+02  0.7816164E-02  0.1186339E+00
        -11   -1    0    0    0    0  0.00000000000E+00  0.00000000000E+00  0.45593999997E+02  0.45594000000E+02  0.51100000000E-03 0.  1.
         11   -1    0    0    0    0 -0.00000000000E+00 -0.00000000000E+00 -0.45593999997E+02  0.45594000000E+02  0.51100000000E-03 0. -1.
    9900012    2    1    2    0    0  0.79637084759E+00 -0.69747800089E+00 -0.52181555402E+00  0.90007756991E+02  0.90000018583E+02 0.  0.
        -12    1    1    2    0    0 -0.79637084759E+00  0.69747800089E+00  0.52181555402E+00  0.11802430093E+01  0.00000000000E+00 0.  1.
         11    1    3    3    0    0 -0.28175888250E+02 -0.12012871091E+02 -0.27374596461E+02  0.41079901195E+02  0.51100000000E-03 0. -1.
        -11    1    3    3    0    0  0.15711177845E+01 -0.74954657258E+01  0.53498429830E+01  0.93419076073E+01  0.51100000000E-03 0.  1.
        -12    1    3    3    0    0  0.27401141313E+02  0.18810858816E+02  0.21502937924E+02  0.39585948189E+02  0.00000000000E+00 0.  1.
</event>
<event>
 7    1  0.2895479E-015  0.9000824E+02  0.7816164E-02  0.1186338E+00
        -11   -1    0    0    0    0  0.00000000000E+00  0.00000000000E+00  0.45593999997E+02  0.45594000000E+02  0.51100000000E-03 0. -1.
         11   -1    0    0    0    0 -0.00000000000E+00 -0.00000000000E+00 -0.45593999997E+02  0.45594000000E+02  0.51100000000E-03 0.  1.
    9900012    2    1    2    0    0  0.50658827550E-01 -0.10285152716E+01  0.57569605997E+00  0.90008239035E+02  0.90000506989E+02 0.  0.
        -12    1    1    2    0    0 -0.50658827550E-01  0.10285152716E+01 -0.57569605997E+00  0.11797609648E+01  0.00000000000E+00 0.  1.
         11    1    3    3    0    0 -0.14621297438E+02  0.18356950440E+02  0.30876584720E+02  0.38783030471E+02  0.51100000000E-03 0. -1.
        -11    1    3    3    0    0  0.72136211626E+01  0.56639437600E+01  0.22858449833E+01  0.94520726163E+01  0.51100000000E-03 0.  1.
        -12    1    3    3    0    0  0.74583351033E+01 -0.25049409471E+02 -0.32586733644E+02  0.41773135948E+02  0.00000000000E+00 0.  1.
</event>
<event>
 7    1  0.2895479E-015  0.9000777E+02  0.7816164E-02  0.1186339E+00
        -11   -1    0    0    0    0  0.00000000000E+00  0.00000000000E+00  0.45593999997E+02  0.45594000000E+02  0.51100000000E-03 0.  1.
         11   -1    0    0    0    0 -0.00000000000E+00 -0.00000000000E+00 -0.45593999997E+02  0.45594000000E+02  0.51100000000E-03 0. -1.
    9900012    2    1    2    0    0 -0.27465035734E-01  0.92207941447E+00 -0.73617393232E+00  0.90007772550E+02  0.90000034348E+02 0.  0.
        -12    1    1    2    0    0  0.27465035734E-01 -0.92207941447E+00  0.73617393232E+00  0.11802274499E+01  0.00000000000E+00 0.  1.
         11    1    3    3    0    0 -0.52536872951E+01  0.97015039298E+01 -0.40854081874E+00  0.11040258808E+02  0.51100000000E-03 0. -1.
        -11    1    3    3    0    0 -0.11184666738E+02  0.26198086945E+02  0.20480934523E+02  0.35084258704E+02  0.51100000000E-03 0.  1.
         12    1    3    3    0    0  0.16410888997E+02 -0.34977511460E+02 -0.20808567637E+02  0.43883255038E+02  0.00000000000E+00 0. -1.
</event>
<event>
 7    1  0.2895479E-015  0.9000771E+02  0.7816164E-02  0.1186339E+00
        -11   -1    0    0    0    0  0.00000000000E+00  0.00000000000E+00  0.45593999997E+02  0.45594000000E+02  0.51100000000E-03 0. -1.
         11   -1    0    0    0    0 -0.00000000000E+00 -0.00000000000E+00 -0.45593999997E+02  0.45594000000E+02  0.51100000000E-03 0.  1.
    9900012    2    1    2    0    0 -0.27835834016E+00  0.89769981188E-01  0.11434737894E+01  0.90007714305E+02  0.89999975334E+02 0.  0.
        -12    1    1    2    0    0  0.27835834016E+00 -0.89769981188E-01 -0.11434737894E+01  0.11802856951E+01  0.00000000000E+00 0.  1.
         11    1    3    3    0    0 -0.78933860007E+00 -0.49409618769E+01 -0.10990318675E+02  0.12075730393E+02  0.51100000000E-03 0. -1.
        -11    1    3    3    0    0  0.36523373474E+02  0.58944682829E+01 -0.62003575890E+01  0.37511944775E+02  0.51100000000E-03 0.  1.
         12    1    3    3    0    0 -0.36012393214E+02 -0.86373642479E+00  0.18334150053E+02  0.40420039137E+02  0.00000000000E+00 0. -1.
</event>
<event>
 7    1  0.2895479E-015  0.9000775E+02  0.7816164E-02  0.1186339E+00
        -11   -1    0    0    0    0  0.00000000000E+00  0.00000000000E+00  0.45593999997E+02  0.45594000000E+02  0.51100000000E-03 0. -1.
         11   -1    0    0    0    0 -0.00000000000E+00 -0.00000000000E+00 -0.45593999997E+02  0.45594000000E+02  0.51100000000E-03 0.  1.
    9900012    2    1    2    0    0 -0.73505650110E+00 -0.28589389747E+00  0.87803005703E+00  0.90007754194E+02  0.90000015750E+02 0.  0.
        -12    1    1    2    0    0  0.73505650110E+00  0.28589389747E+00 -0.87803005703E+00  0.11802458055E+01  0.00000000000E+00 0.  1.
         11    1    3    3    0    0  0.86644188150E+01 -0.19101856888E+01  0.57759345138E+01  0.10586896738E+02  0.51100000000E-03 0. -1.
        -11    1    3    3    0    0  0.15711351243E+02  0.34455379737E+02 -0.39852277229E+01  0.38077575959E+02  0.51100000000E-03 0.  1.
         12    1    3    3    0    0 -0.25110826559E+02 -0.32831087945E+02 -0.91267673384E+00  0.41343281497E+02  0.00000000000E+00 0. -1.
</event>
<event>
 7    1  0.2895479E-015  0.9000767E+02  0.7816164E-02  0.1186339E+00
        -11   -1    0    0    0    0  0.00000000000E+00  0.00000000000E+00  0.45593999997E+02  0.45594000000E+02  0.51100000000E-03 0.  1.
         11   -1    0    0    0    0 -0.00000000000E+00 -0.00000000000E+00 -0.45593999997E+02  0.45594000000E+02  0.51100000000E-03 0. -1.
    9900012    2    1    2    0    0  0.46890506264E+00  0.27053361917E+00 -0.10488632268E+01  0.90007671882E+02  0.89999932351E+02 0.  0.
        -12    1    1    2    0    0 -0.46890506264E+00 -0.27053361917E+00  0.10488632268E+01  0.11803281177E+01  0.00000000000E+00 0.  1.
         11    1    3    3    0    0 -0.90143206874E+01  0.14195958650E+02 -0.32652657483E+02  0.36728453009E+02  0.51100000000E-03 0. -1.
        -11    1    3    3    0    0 -0.68547825335E+01  0.68617419028E+01 -0.26062174796E+01  0.10043102874E+02  0.51100000000E-03 0.  1.
        -12    1    3    3    0    0  0.16338008283E+02 -0.20787166934E+02  0.34210011735E+02  0.43236116000E+02  0.00000000000E+00 0.  1.
</event>
<event>
 7    1  0.2895479E-015  0.9000782E+02  0.7816164E-02  0.1186339E+00
        -11   -1    0    0    0    0  0.00000000000E+00  0.00000000000E+00  0.45593999997E+02  0.45594000000E+02  0.51100000000E-03 0. -1.
         11   -1    0    0    0    0 -0.00000000000E+00 -0.00000000000E+00 -0.45593999997E+02  0.45594000000E+02  0.51100000000E-03 0.  1.
    9900012    2    1    2    0    0  0.85755156977E+00 -0.37891879447E+00  0.71683529226E+00  0.90007819089E+02  0.90000081500E+02 0.  0.
        -12    1    1    2    0    0 -0.85755156977E+00  0.37891879447E+00 -0.71683529226E+00  0.11801809115E+01  0.00000000000E+00 0.  1.
         11    1    3    3    0    0 -0.17311455421E+02  0.13572403809E+02  0.29547483389E+02  0.36836807799E+02  0.51100000000E-03 0. -1.
        -11    1    3    3    0    0  0.73643711507E+01  0.70665748743E+00  0.87214507657E+01  0.11436652962E+02  0.51100000000E-03 0.  1.
        -12    1    3    3    0    0  0.10804635840E+02 -0.14657980091E+02 -0.37552098863E+02  0.41734358327E+02  0.00000000000E+00 0.  1.
</event>
<event>
 7    1  0.2895479E-015  0.9000778E+02  0.7816164E-02  0.1186339E+00
        -11   -1    0    0    0    0  0.00000000000E+00  0.00000000000E+00  0.45593999997E+02  0.45594000000E+02  0.51100000000E-03 0.  1.
         11   -1    0    0    0    0 -0.00000000000E+00 -0.00000000000E+00 -0.45593999997E+02  0.45594000000E+02  0.51100000000E-03 0. -1.
    9900012    2    1    2    0    0  0.29803504059E+00  0.85834348537E-01 -0.11387399950E+01  0.90007779174E+02  0.90000041060E+02 0.  0.
        -12    1    1    2    0    0 -0.29803504059E+00 -0.85834348537E-01  0.11387399950E+01  0.11802208256E+01  0.00000000000E+00 0.  1.
         11    1    3    3    0    0 -0.99201143312E+00 -0.95887213024E+01 -0.45013458824E+01  0.10639068470E+02  0.51100000000E-03 0. -1.
        -11    1    3    3    0    0  0.24093801901E+02 -0.18267254605E+02  0.23288037757E+02  0.38164598566E+02  0.51100000000E-03 0.  1.
         12    1    3    3    0    0 -0.22803755428E+02  0.27941810256E+02 -0.19925431869E+02  0.41204112139E+02  0.00000000000E+00 0. -1.
</event>
<event>
 7    1  0.2895479E-015  0.9000768E+02  0.7816164E-02  0.1186339E+00
        -11   -1    0    0    0    0  0.00000000000E+00  0.00000000000E+00  0.45593999997E+02  0.45594000000E+02  0.51100000000E-03 0. -1.
         11   -1    0    0    0    0 -0.00000000000E+00 -0.00000000000E+00 -0.45593999997E+02  0.45594000000E+02  0.51100000000E-03 0.  1.
    9900012    2    1    2    0    0 -0.16862052526E+00 -0.81818933851E+00  0.83383858710E+00  0.90007680779E+02  0.89999941365E+02 0.  0.
        -12    1    1    2    0    0  0.16862052526E+00  0.81818933851E+00 -0.83383858710E+00  0.11803192215E+01  0.00000000000E+00 0.  1.
         11    1    3    3    0    0  0.39697305121E+01 -0.22154012683E+01 -0.77772696598E+01  0.90084786030E+01  0.51100000000E-03 0. -1.
        -11    1    3    3    0    0 -0.41129400804E+02  0.74170219049E+01 -0.26200065762E+01  0.41874864288E+02  0.51100000000E-03 0.  1.
         12    1    3    3    0    0  0.36991049767E+02 -0.60198099751E+01  0.11231114823E+02  0.39124337888E+02  0.00000000000E+00 0. -1.
</event>
<event>
 7    1  0.4259977E-015  0.9000774E+02  0.7816164E-02  0.1186339E+00
        -11   -1    0    0    0    0  0.00000000000E+00  0.00000000000E+00  0.45593999997E+02  0.45594000000E+02  0.51100000000E-03 0.  1.
         11   -1    0    0    0    0 -0.00000000000E+00 -0.00000000000E+00 -0.45593999997E+02  0.45594000000E+02  0.51100000000E-03 0. -1.
    9900012    2    1    2    0    0  0.46206849865E+00 -0.79265377248E+00 -0.74243375731E+00  0.90007739357E+02  0.90000000717E+02 0.  0.
        -12    1    1    2    0    0 -0.46206849865E+00  0.79265377248E+00  0.74243375731E+00  0.11802606426E+01  0.00000000000E+00 0.  1.
         11    1    3    3    0    0  0.56386193924E+00  0.88633623808E+01  0.28304071070E+01  0.93213914000E+01  0.51100000000E-03 0. -1.
        -11    1    3    3    0    0 -0.17628668133E+01  0.19408388827E+02  0.30297658066E+02  0.36024177170E+02  0.51100000000E-03 0.  1.
         12    1    3    3    0    0  0.16610733727E+01 -0.29064404981E+02 -0.33870498930E+02  0.44662170787E+02  0.00000000000E+00 0. -1.
</event>
<event>
 7    1  0.2895479E-015  0.9000765E+02  0.7816164E-02  0.1186339E+00
        -11   -1    0    0    0    0  0.00000000000E+00  0.00000000000E+00  0.45593999997E+02  0.45594000000E+02  0.51100000000E-03 0.  1.
         11   -1    0    0    0    0 -0.00000000000E+00 -0.00000000000E+00 -0.45593999997E+02  0.45594000000E+02  0.51100000000E-03 0. -1.
    9900012    2    1    2    0    0  0.82396538058E+00 -0.72394005181E-01 -0.84206061146E+00  0.90007650088E+02  0.89999910270E+02 0.  0.
        -12    1    1    2    0    0 -0.82396538058E+00  0.72394005181E-01  0.84206061146E+00  0.11803499116E+01  0.00000000000E+00 0.  1.
         11    1    3    3    0    0 -0.40103930806E+02 -0.11211701129E+02  0.27555354409E+01  0.41732726775E+02  0.51100000000E-03 0. -1.
        -11    1    3    3    0    0  0.22895353367E+01  0.91356541892E+01 -0.47268641814E-02  0.94181830587E+01  0.51100000000E-03 0.  1.
        -12    1    3    3    0    0  0.38638360849E+02  0.20036529348E+01 -0.35928691882E+01  0.38856740255E+02  0.00000000000E+00 0.  1.
</event>
<event>
 7    1  0.2895479E-015  0.9000780E+02  0.7816164E-02  0.1186339E+00
        -11   -1    0    0    0    0  0.00000000000E+00  0.00000000000E+00  0.45593999997E+02  0.45594000000E+02  0.51100000000E-03 0.  1.
         11   -1    0    0    0    0 -0.00000000000E+00 -0.00000000000E+00 -0.45593999997E+02  0.45594000000E+02  0.51100000000E-03 0. -1.
    9900012    2    1    2    0    0 -0.92709459479E+00 -0.43409507034E+00 -0.58731052984E+00  0.90007798078E+02  0.90000060213E+02 0.  0.
        -12    1    1    2    0    0  0.92709459479E+00  0.43409507034E+00  0.58731052984E+00  0.11802019218E+01  0.00000000000E+00 0.  1.
         11    1    3    3    0    0 -0.17240411156E+02 -0.39208743419E+02  0.46556816212E+00  0.42834263053E+02  0.51100000000E-03 0. -1.
        -11    1    3    3    0    0  0.38625429910E+01  0.39290310500E+01 -0.78105569414E+01  0.95583117413E+01  0.51100000000E-03 0.  1.
        -12    1    3    3    0    0  0.12450773570E+02  0.34845617298E+02  0.67576782494E+01  0.37615223284E+02  0.00000000000E+00 0.  1.
</event>
<event>
 7    1  0.2895479E-015  0.9000761E+02  0.7816164E-02  0.1186339E+00
        -11   -1    0    0    0    0  0.00000000000E+00  0.00000000000E+00  0.45593999997E+02  0.45594000000E+02  0.51100000000E-03 0. -1.
         11   -1    0    0    0    0 -0.00000000000E+00 -0.00000000000E+00 -0.45593999997E+02  0.45594000000E+02  0.51100000000E-03 0.  1.
    9900012    2    1    2    0    0 -0.14420678659E+00 -0.11470065262E+01  0.23854465827E+00  0.90007608911E+02  0.89999868549E+02 0.  0.
        -12    1    1    2    0    0  0.14420678659E+00  0.11470065262E+01 -0.23854465827E+00  0.11803910887E+01  0.00000000000E+00 0.  1.
         11    1    3    3    0    0 -0.33092875370E+02  0.16113450963E+02 -0.16866221893E+00  0.36807745780E+02  0.51100000000E-03 0. -1.
        -11    1    3    3    0    0  0.73251499265E+00  0.98462600430E+01  0.45928148918E+01  0.10889415225E+02  0.51100000000E-03 0.  1.
        -12    1    3    3    0    0  0.32216153591E+02 -0.27106717532E+02 -0.41856080146E+01  0.42310447906E+02  0.00000000000E+00 0.  1.
</event>
<event>
 7    1  0.2895479E-015  0.9000755E+02  0.7816164E-02  0.1186339E+00
        -11   -1    0    0    0    0  0.00000000000E+00  0.00000000000E+00  0.45593999997E+02  0.45594000000E+02  0.51100000000E-03 0. -1.
         11   -1    0    0    0    0 -0.00000000000E+00 -0.00000000000E+00 -0.45593999997E+02  0.45594000000E+02  0.51100000000E-03 0.  1.
    9900012    2    1    2    0    0 -0.95745075348E+00  0.65925723233E+00  0.20525627878E+00  0.90007550008E+02  0.89999808868E+02 0.  0.
        -12    1    1    2    0    0  0.95745075348E+00 -0.65925723233E+00 -0.20525627878E+00  0.11804499920E+01  0.00000000000E+00 0.  1.
         11    1    3    3    0    0 -0.16829354456E+01  0.10173285663E+02 -0.75209215219E+00  0.10338938812E+02  0.51100000000E-03 0. -1.
        -11    1    3    3    0    0  0.28779888729E+01  0.16380256618E+02 -0.32974285005E+02  0.36931004571E+02  0.51100000000E-03 0.  1.
         12    1    3    3    0    0 -0.21525041808E+01 -0.25894285048E+02  0.33931633436E+02  0.42737606625E+02  0.00000000000E+00 0. -1.
</event>
<event>
 7    1  0.2895479E-015  0.9000723E+02  0.7816164E-02  0.1186340E+00
        -11   -1    0    0    0    0  0.00000000000E+00  0.00000000000E+00  0.45593999997E+02  0.45594000000E+02  0.51100000000E-03 0. -1.
         11   -1    0    0    0    0 -0.00000000000E+00 -0.00000000000E+00 -0.45593999997E+02  0.45594000000E+02  0.51100000000E-03 0.  1.
    9900012    2    1    2    0    0 -0.49190929106E-01  0.11289652420E+01 -0.34240039282E+00  0.90007228941E+02  0.89999483561E+02 0.  0.
        -12    1    1    2    0    0  0.49190929106E-01 -0.11289652420E+01  0.34240039282E+00  0.11807710591E+01  0.00000000000E+00 0.  1.
         11    1    3    3    0    0 -0.63285757226E+01 -0.23290400826E+01 -0.35239454307E+01  0.76087771713E+01  0.51100000000E-03 0. -1.
        -11    1    3    3    0    0  0.10507924923E+02  0.33293161687E+02 -0.23553795615E+02  0.42114515187E+02  0.51100000000E-03 0.  1.
         12    1    3    3    0    0 -0.42285401299E+01 -0.29835156362E+02  0.26735340652E+02  0.40283936583E+02  0.00000000000E+00 0. -1.
</event>
<event>
 7    1  0.2895479E-015  0.9000785E+02  0.7816164E-02  0.1186339E+00
        -11   -1    0    0    0    0  0.00000000000E+00  0.00000000000E+00  0.45593999997E+02  0.45594000000E+02  0.51100000000E-03 0.  1.
         11   -1    0    0    0    0 -0.00000000000E+00 -0.00000000000E+00 -0.45593999997E+02  0.45594000000E+02  0.51100000000E-03 0. -1.
    9900012    2    1    2    0    0 -0.55700834793E+00 -0.54807825300E+00 -0.88437417557E+00  0.90007845030E+02  0.90000107784E+02 0.  0.
        -12    1    1    2    0    0  0.55700834793E+00  0.54807825300E+00  0.88437417557E+00  0.11801549701E+01  0.00000000000E+00 0.  1.
         11    1    3    3    0    0  0.10170433248E+02  0.41585017992E+01 -0.10776995322E+02  0.15390727016E+02  0.51100000000E-03 0. -1.
        -11    1    3    3    0    0  0.13419676191E+02 -0.13902356565E+02  0.34110460405E+02  0.39203147022E+02  0.51100000000E-03 0.  1.
         12    1    3    3    0    0 -0.24147117786E+02  0.91957765129E+01 -0.24217839259E+02  0.35413970992E+02  0.00000000000E+00 0. -1.
</event>
<event>
 7    1  0.2895479E-015  0.9000776E+02  0.7816164E-02  0.1186339E+00
        -11   -1    0    0    0    0  0.00000000000E+00  0.00000000000E+00  0.45593999997E+02  0.45594000000E+02  0.51100000000E-03 0. -1.
         11   -1    0    0    0    0 -0.00000000000E+00 -0.00000000000E+00 -0.45593999997E+02  0.45594000000E+02  0.51100000000E-03 0.  1.
    9900012    2    1    2    0    0  0.95852949421E+00  0.47798382087E+00  0.49570808830E+00  0.90007756875E+02  0.90000018466E+02 0.  0.
        -12    1    1    2    0    0 -0.95852949421E+00 -0.47798382087E+00 -0.49570808830E+00  0.11802431246E+01  0.00000000000E+00 0.  1.
         11    1    3    3    0    0  0.55041720734E+01 -0.22718934118E+01 -0.70056261419E+01  0.91943573886E+01  0.51100000000E-03 0. -1.
        -11    1    3    3    0    0 -0.19105139122E+02 -0.18427647442E+01 -0.32640982947E+02  0.37866025548E+02  0.51100000000E-03 0.  1.
         12    1    3    3    0    0  0.14559496542E+02  0.45926419769E+01  0.40142317177E+02  0.42947373939E+02  0.00000000000E+00 0. -1.
</event>
<event>
 7    1  0.2895479E-015  0.9000758E+02  0.7816164E-02  0.1186339E+00
        -11   -1    0    0    0    0  0.00000000000E+00  0.00000000000E+00  0.45593999997E+02  0.45594000000E+02  0.51100000000E-03 0.  1.
         11   -1    0    0    0    0 -0.00000000000E+00 -0.00000000000E+00 -0.45593999997E+02  0.45594000000E+02  0.51100000000E-03 0. -1.
    9900012    2    1    2    0    0 -0.14410135417E+00  0.10978227688E+01  0.40914913264E+00  0.90007583529E+02  0.89999842832E+02 0.  0.
        -12    1    1    2    0    0  0.14410135417E+00 -0.10978227688E+01 -0.40914913264E+00  0.11804164709E+01  0.00000000000E+00 0.  1.
         11    1    3    3    0    0  0.40026027154E+01 -0.21491213742E+02 -0.24786529635E+02  0.33049434915E+02  0.51100000000E-03 0. -1.
        -11    1    3    3    0    0  0.97728069428E+01  0.20143681757E+01 -0.98371996249E+01  0.14011992414E+02  0.51100000000E-03 0.  1.
        -12    1    3    3    0    0 -0.13919511012E+02  0.20574668335E+02  0.35032878393E+02  0.42946156200E+02  0.00000000000E+00 0.  1.
</event>
<event>
 7    1  0.2895479E-015  0.9000750E+02  0.7816164E-02  0.1186340E+00
        -11   -1    0    0    0    0  0.00000000000E+00  0.00000000000E+00  0.45593999997E+02  0.45594000000E+02  0.51100000000E-03 0.  1.
         11   -1    0    0    0    0 -0.00000000000E+00 -0.00000000000E+00 -0.45593999997E+02  0.45594000000E+02  0.51100000000E-03 0. -1.
    9900012    2    1    2    0    0  0.62548871457E+00 -0.92832420337E+00  0.37492082607E+00  0.90007496894E+02  0.89999755052E+02 0.  0.
        -12    1    1    2    0    0 -0.62548871457E+00  0.92832420337E+00 -0.37492082607E+00  0.11805031065E+01  0.00000000000E+00 0.  1.
         11    1    3    3    0    0 -0.19876837266E+01 -0.30924538621E+01  0.63082771010E+01  0.73012682275E+01  0.51100000000E-03 0. -1.
        -11    1    3    3    0    0  0.17925259239E+02 -0.20197209839E+02  0.28251456113E+02  0.39081798536E+02  0.51100000000E-03 0.  1.
         12    1    3    3    0    0 -0.15312086798E+02  0.22361339497E+02 -0.34184812388E+02  0.43624430130E+02  0.00000000000E+00 0. -1.
</event>
<event>
 7    1  0.2895479E-015  0.9000785E+02  0.7816164E-02  0.1186339E+00
        -11   -1    0    0    0    0  0.00000000000E+00  0.00000000000E+00  0.45593999997E+02  0.45594000000E+02  0.51100000000E-03 0.  1.
         11   -1    0    0    0    0 -0.00000000000E+00 -0.00000000000E+00 -0.45593999997E+02  0.45594000000E+02  0.51100000000E-03 0. -1.
    9900012    2    1    2    0    0  0.27053147274E+00 -0.15310656525E+00 -0.11384759950E+01  0.90007848955E+02  0.90000111761E+02 0.  0.
        -12    1    1    2    0    0 -0.27053147274E+00  0.15310656525E+00  0.11384759950E+01  0.11801510451E+01  0.00000000000E+00 0.  1.
         11    1    3    3    0    0 -0.50294729305E+00 -0.42746665605E+01 -0.19222800150E+02  0.19698776004E+02  0.51100000000E-03 0. -1.
        -11    1    3    3    0    0  0.31150555039E+02  0.72480927618E+01  0.22978917941E+02  0.39381754633E+02  0.51100000000E-03 0.  1.
         12    1    3    3    0    0 -0.30377076273E+02 -0.31265327666E+01 -0.48945937865E+01  0.30927318319E+02  0.00000000000E+00 0. -1.
</event>
<event>
 7    1  0.2895479E-015  0.9000899E+02  0.7816164E-02  0.1186337E+00
        -11   -1    0    0    0    0  0.00000000000E+00  0.00000000000E+00  0.45593999997E+02  0.45594000000E+02  0.51100000000E-03 0.  1.
         11   -1    0    0    0    0 -0.00000000000E+00 -0.00000000000E+00 -0.45593999997E+02  0.45594000000E+02  0.51100000000E-03 0. -1.
    9900012    2    1    2    0    0  0.84638551694E+00  0.59594701203E+00 -0.56438914475E+00  0.90008993473E+02  0.90001271378E+02 0.  0.
        -12    1    1    2    0    0 -0.84638551694E+00 -0.59594701203E+00  0.56438914475E+00  0.11790065272E+01  0.00000000000E+00 0.  1.
         11    1    3    3    0    0  0.17792160486E+01  0.34652635063E+02 -0.27349741084E+02  0.44181207138E+02  0.51100000000E-03 0. -1.
        -11    1    3    3    0    0  0.52701377784E+01 -0.67160845786E+01  0.29585783958E+01  0.90351165270E+01  0.51100000000E-03 0.  1.
        -12    1    3    3    0    0 -0.62029683101E+01 -0.27340603472E+02  0.23826773544E+02  0.36792669808E+02  0.00000000000E+00 0.  1.
</event>
<event>
 7    1  0.2895479E-015  0.9000777E+02  0.7816164E-02  0.1186339E+00
        -11   -1    0    0    0    0  0.00000000000E+00  0.00000000000E+00  0.45593999997E+02  0.45594000000E+02  0.51100000000E-03 0.  1.
         11   -1    0    0    0    0 -0.00000000000E+00 -0.00000000000E+00 -0.45593999997E+02  0.45594000000E+02  0.51100000000E-03 0. -1.
    9900012    2    1    2    0    0  0.59875705179E+00  0.32648801406E+00 -0.96324933175E+00  0.90007765402E+02  0.90000027106E+02 0.  0.
        -12    1    1    2    0    0 -0.59875705179E+00 -0.32648801406E+00  0.96324933175E+00  0.11802345977E+01  0.00000000000E+00 0.  1.
         11    1    3    3    0    0  0.87389534432E+01  0.28951298262E+01  0.13736932829E+01  0.93079598995E+01  0.51100000000E-03 0. -1.
        -11    1    3    3    0    0  0.31514508467E+02  0.18505352871E+01 -0.19672154858E+02  0.37196537497E+02  0.51100000000E-03 0.  1.
         12    1    3    3    0    0 -0.39654704858E+02 -0.44191770992E+01  0.17335212243E+02  0.43503268006E+02  0.00000000000E+00 0. -1.
</event>
<event>
 7    1  0.2895479E-015  0.9000776E+02  0.7816164E-02  0.1186339E+00
        -11   -1    0    0    0    0  0.00000000000E+00  0.00000000000E+00  0.45593999997E+02  0.45594000000E+02  0.51100000000E-03 0. -1.
         11   -1    0    0    0    0 -0.00000000000E+00 -0.00000000000E+00 -0.45593999997E+02  0.45594000000E+02  0.51100000000E-03 0.  1.
    9900012    2    1    2    0    0  0.47814467419E+00 -0.71863903225E+00  0.80492392807E+00  0.90007759805E+02  0.90000021434E+02 0.  0.
        -12    1    1    2    0    0 -0.47814467419E+00  0.71863903225E+00 -0.80492392807E+00  0.11802401951E+01  0.00000000000E+00 0.  1.
         11    1    3    3    0    0 -0.22464915373E+02  0.25471640111E+02  0.24220189621E+02  0.41714439445E+02  0.51100000000E-03 0. -1.
        -11    1    3    3    0    0  0.66813625863E+01  0.34832983795E+01 -0.83700192772E+01  0.11261935738E+02  0.51100000000E-03 0.  1.
        -12    1    3    3    0    0  0.16261697461E+02 -0.29673577523E+02 -0.15045246416E+02  0.37031384622E+02  0.00000000000E+00 0.  1.
</event>
<event>
 7    1  0.2895479E-015  0.9000775E+02  0.7816164E-02  0.1186339E+00
        -11   -1    0    0    0    0  0.00000000000E+00  0.00000000000E+00  0.45593999997E+02  0.45594000000E+02  0.51100000000E-03 0.  1.
         11   -1    0    0    0    0 -0.00000000000E+00 -0.00000000000E+00 -0.45593999997E+02  0.45594000000E+02  0.51100000000E-03 0. -1.
    9900012    2    1    2    0    0  0.14309151758E+00  0.30265234722E+00 -0.11317791640E+01  0.90007746764E+02  0.90000008221E+02 0.  0.
        -12    1    1    2    0    0 -0.14309151758E+00 -0.30265234722E+00  0.11317791640E+01  0.11802532362E+01  0.00000000000E+00 0.  1.
         11    1    3    3    0    0  0.63295000621E+01  0.33010624827E+01  0.63701727780E+01  0.95675851725E+01  0.51100000000E-03 0. -1.
        -11    1    3    3    0    0  0.77075914131E+01  0.23376888446E+01  0.34735532993E+02  0.35657103179E+02  0.51100000000E-03 0.  1.
         12    1    3    3    0    0 -0.13893999958E+02 -0.53360989801E+01 -0.42237484935E+02  0.44783058413E+02  0.00000000000E+00 0. -1.
</event>
<event>
 7    1  0.2895479E-015  0.9000772E+02  0.7816164E-02  0.1186339E+00
        -11   -1    0    0    0    0  0.00000000000E+00  0.00000000000E+00  0.45593999997E+02  0.45594000000E+02  0.51100000000E-03 0.  1.
         11   -1    0    0    0    0 -0.00000000000E+00 -0.00000000000E+00 -0.45593999997E+02  0.45594000000E+02  0.51100000000E-03 0. -1.
    9900012    2    1    2    0    0  0.77246099673E+00  0.79232407760E+00  0.41059472830E+00  0.90007719751E+02  0.89999980852E+02 0.  0.
        -12    1    1    2    0    0 -0.77246099673E+00 -0.79232407760E+00 -0.41059472830E+00  0.11802802491E+01  0.00000000000E+00 0.  1.
         11    1    3    3    0    0 -0.54326095227E+01 -0.84498809240E-01  0.54779007952E+01  0.77154250471E+01  0.51100000000E-03 0. -1.
        -11    1    3    3    0    0 -0.62546585537E+01 -0.38062295609E+02  0.79549101653E+01  0.39384510872E+02  0.51100000000E-03 0.  1.
         12    1    3    3    0    0  0.12459729073E+02  0.38939118495E+02 -0.13022216232E+02  0.42907783832E+02  0.00000000000E+00 0. -1.
</event>
<event>
 7    1  0.2895479E-015  0.9000771E+02  0.7816164E-02  0.1186339E+00
        -11   -1    0    0    0    0  0.00000000000E+00  0.00000000000E+00  0.45593999997E+02  0.45594000000E+02  0.51100000000E-03 0. -1.
         11   -1    0    0    0    0 -0.00000000000E+00 -0.00000000000E+00 -0.45593999997E+02  0.45594000000E+02  0.51100000000E-03 0.  1.
    9900012    2    1    2    0    0 -0.10656134920E+01  0.50733661029E+00  0.12457707621E-01  0.90007712855E+02  0.89999973865E+02 0.  0.
        -12    1    1    2    0    0  0.10656134920E+01 -0.50733661029E+00 -0.12457707621E-01  0.11802871451E+01  0.00000000000E+00 0.  1.
         11    1    3    3    0    0  0.12435185777E+02 -0.31548139263E+02  0.12844208589E+02  0.36261448272E+02  0.51100000000E-03 0. -1.
        -11    1    3    3    0    0  0.22332212141E+01 -0.21505693932E+01  0.94845013931E+01  0.99783762528E+01  0.51100000000E-03 0.  1.
        -12    1    3    3    0    0 -0.15734020483E+02  0.34206045266E+02 -0.22316252274E+02  0.43767888330E+02  0.00000000000E+00 0.  1.
</event>
<event>
 7    1  0.2895479E-015  0.9000757E+02  0.7816164E-02  0.1186339E+00
        -11   -1    0    0    0    0  0.00000000000E+00  0.00000000000E+00  0.45593999997E+02  0.45594000000E+02  0.51100000000E-03 0. -1.
         11   -1    0    0    0    0 -0.00000000000E+00 -0.00000000000E+00 -0.45593999997E+02  0.45594000000E+02  0.51100000000E-03 0.  1.
    9900012    2    1    2    0    0 -0.35089119295E+00 -0.11136696502E+01  0.17329233604E+00  0.90007570014E+02  0.89999829138E+02 0.  0.
        -12    1    1    2    0    0  0.35089119295E+00  0.11136696502E+01 -0.17329233604E+00  0.11804299864E+01  0.00000000000E+00 0.  1.
         11    1    3    3    0    0 -0.24199469845E+01  0.70842255796E+01 -0.40948786492E+01  0.85329026060E+01  0.51100000000E-03 0. -1.
        -11    1    3    3    0    0 -0.15021530121E+02 -0.70102832019E+01 -0.34947775672E+02  0.38679936174E+02  0.51100000000E-03 0.  1.
         12    1    3    3    0    0  0.17090585913E+02 -0.11876120279E+01  0.39215946657E+02  0.42794731234E+02  0.00000000000E+00 0. -1.
</event>
<event>
 7    1  0.2895479E-015  0.9000772E+02  0.7816164E-02  0.1186339E+00
        -11   -1    0    0    0    0  0.00000000000E+00  0.00000000000E+00  0.45593999997E+02  0.45594000000E+02  0.51100000000E-03 0.  1.
         11   -1    0    0    0    0 -0.00000000000E+00 -0.00000000000E+00 -0.45593999997E+02  0.45594000000E+02  0.51100000000E-03 0. -1.
    9900012    2    1    2    0    0  0.98712069593E+00 -0.23775848593E+00 -0.60177427686E+00  0.90007716709E+02  0.89999977770E+02 0.  0.
        -12    1    1    2    0    0 -0.98712069593E+00  0.23775848593E+00  0.60177427686E+00  0.11802832907E+01  0.00000000000E+00 0.  1.
         11    1    3    3    0    0  0.16503652073E+01 -0.72645813640E+01  0.75262504498E+01  0.10589725861E+02  0.51100000000E-03 0. -1.
        -11    1    3    3    0    0 -0.11356848691E+02  0.37154054441E+02  0.13149167305E+02  0.41015879543E+02  0.51100000000E-03 0.  1.
         12    1    3    3    0    0  0.10693604180E+02 -0.30127231563E+02 -0.21277192031E+02  0.38402111306E+02  0.00000000000E+00 0. -1.
</event>
<event>
 7    1  0.2895479E-015  0.9000748E+02  0.7816164E-02  0.1186340E+00
        -11   -1    0    0    0    0  0.00000000000E+00  0.00000000000E+00  0.45593999997E+02  0.45594000000E+02  0.51100000000E-03 0.  1.
         11   -1    0    0    0    0 -0.00000000000E+00 -0.00000000000E+00 -0.45593999997E+02  0.45594000000E+02  0.51100000000E-03 0. -1.
    9900012    2    1    2    0    0  0.71589179387E+00  0.22250815584E-02 -0.93868645541E+00  0.90007475425E+02  0.89999733300E+02 0.  0.
        -12    1    1    2    0    0 -0.71589179387E+00 -0.22250815584E-02  0.93868645541E+00  0.11805245754E+01  0.00000000000E+00 0.  1.
         11    1    3    3    0    0 -0.23144025188E+02  0.20131677340E+01 -0.32377051325E+02  0.39849368866E+02  0.51100000000E-03 0. -1.
        -11    1    3    3    0    0 -0.52278877380E+01 -0.68826343596E+01  0.28955656234E+01  0.91151394103E+01  0.51100000000E-03 0.  1.
        -12    1    3    3    0    0  0.29087804720E+02  0.48716917072E+01  0.28542799246E+02  0.41042967148E+02  0.00000000000E+00 0.  1.
</event>
<event>
 7    1  0.2895479E-015  0.9000773E+02  0.7816164E-02  0.1186339E+00
        -11   -1    0    0    0    0  0.00000000000E+00  0.00000000000E+00  0.45593999997E+02  0.45594000000E+02  0.51100000000E-03 0.  1.
         11   -1    0    0    0    0 -0.00000000000E+00 -0.00000000000E+00 -0.45593999997E+02  0.45594000000E+02  0.51100000000E-03 0. -1.
    9900012    2    1    2    0    0 -0.77343180415E+00  0.80745024121E+00 -0.37796653128E+00  0.90007732511E+02  0.89999993780E+02 0.  0.
        -12    1    1    2    0    0  0.77343180415E+00 -0.80745024121E+00  0.37796653128E+00  0.11802674894E+01  0.00000000000E+00 0.  1.
         11    1    3    3    0    0  0.44306627297E+01 -0.68056126168E+01 -0.20175072025E+01  0.83676442854E+01  0.51100000000E-03 0. -1.
        -11    1    3    3    0    0 -0.22125623184E+01  0.38671778412E+00  0.41226646057E+02  0.41287786669E+02  0.51100000000E-03 0.  1.
         12    1    3    3    0    0 -0.29915322155E+01  0.72263450738E+01 -0.39587105385E+02  0.40352301557E+02  0.00000000000E+00 0. -1.
</event>
<event>
 7    1  0.2895479E-015  0.9000795E+02  0.7816164E-02  0.1186339E+00
        -11   -1    0    0    0    0  0.00000000000E+00  0.00000000000E+00  0.45593999997E+02  0.45594000000E+02  0.51100000000E-03 0.  1.
         11   -1    0    0    0    0 -0.00000000000E+00 -0.00000000000E+00 -0.45593999997E+02  0.45594000000E+02  0.51100000000E-03 0. -1.
    9900012    2    1    2    0    0 -0.81248778041E-01 -0.88459535983E+00 -0.77680064206E+00  0.90007945106E+02  0.90000209181E+02 0.  0.
        -12    1    1    2    0    0  0.81248778041E-01  0.88459535983E+00  0.77680064206E+00  0.11800548937E+01  0.00000000000E+00 0.  1.
         11    1    3    3    0    0 -0.17287588058E+02 -0.38127677971E+02 -0.48311250847E+01  0.42141669380E+02  0.51100000000E-03 0. -1.
        -11    1    3    3    0    0 -0.14989459327E+01 -0.12385602384E+01  0.46873198025E+01  0.50746268400E+01  0.51100000000E-03 0.  1.
        -12    1    3    3    0    0  0.18705285212E+02  0.38481642849E+02 -0.63299535980E+00  0.42791648886E+02  0.00000000000E+00 0.  1.
</event>
<event>
 7    1  0.2895479E-015  0.9000772E+02  0.7816164E-02  0.1186339E+00
        -11   -1    0    0    0    0  0.00000000000E+00  0.00000000000E+00  0.45593999997E+02  0.45594000000E+02  0.51100000000E-03 0. -1.
         11   -1    0    0    0    0 -0.00000000000E+00 -0.00000000000E+00 -0.45593999997E+02  0.45594000000E+02  0.51100000000E-03 0.  1.
    9900012    2    1    2    0    0 -0.11393365522E+00  0.68291724842E+00  0.95588040920E+00  0.90007718592E+02  0.89999979677E+02 0.  0.
        -12    1    1    2    0    0  0.11393365522E+00 -0.68291724842E+00 -0.95588040920E+00  0.11802814083E+01  0.00000000000E+00 0.  1.
         11    1    3    3    0    0  0.93139469061E+00  0.10675529394E+02  0.32465480057E+01  0.11197075427E+02  0.51100000000E-03 0. -1.
        -11    1    3    3    0    0  0.11416724652E+02  0.96572882507E+01 -0.35350585770E+02  0.38383182941E+02  0.51100000000E-03 0.  1.
         12    1    3    3    0    0 -0.12462052998E+02 -0.19649900396E+02  0.33059918174E+02  0.40427460224E+02  0.00000000000E+00 0. -1.
</event>
<event>
 7    1  0.2895479E-015  0.9000767E+02  0.7816164E-02  0.1186339E+00
        -11   -1    0    0    0    0  0.00000000000E+00  0.00000000000E+00  0.45593999997E+02  0.45594000000E+02  0.51100000000E-03 0.  1.
         11   -1    0    0    0    0 -0.00000000000E+00 -0.00000000000E+00 -0.45593999997E+02  0.45594000000E+02  0.51100000000E-03 0. -1.
    9900012    2    1    2    0    0 -0.97667273240E+00 -0.43654528952E-01 -0.66134865058E+00  0.90007670647E+02  0.89999931099E+02 0.  0.
        -12    1    1    2    0    0  0.97667273240E+00  0.43654528952E-01  0.66134865058E+00  0.11803293531E+01  0.00000000000E+00 0.  1.
         11    1    3    3    0    0  0.35462245760E+01 -0.83730246110E+01 -0.62442665653E+01  0.11030599035E+02  0.51100000000E-03 0. -1.
        -11    1    3    3    0    0 -0.15633704217E+01  0.10562819273E+02  0.41508880843E+02  0.42860290097E+02  0.51100000000E-03 0.  1.
         12    1    3    3    0    0 -0.29595268867E+01 -0.22334491910E+01 -0.35925962928E+02  0.36116781515E+02  0.00000000000E+00 0. -1.
</event>
<event>
 7    1  0.2895479E-015  0.9000777E+02  0.7816164E-02  0.1186339E+00
        -11   -1    0    0    0    0  0.00000000000E+00  0.00000000000E+00  0.45593999997E+02  0.45594000000E+02  0.51100000000E-03 0. -1.
         11   -1    0    0    0    0 -0.00000000000E+00 -0.00000000000E+00 -0.45593999997E+02  0.45594000000E+02  0.51100000000E-03 0.  1.
    9900012    2    1    2    0    0 -0.10354828035E+01  0.46899911304E+00  0.31741349362E+00  0.90007772848E+02  0.90000034650E+02 0.  0.
        -12    1    1    2    0    0  0.10354828035E+01 -0.46899911304E+00 -0.31741349362E+00  0.11802271520E+01  0.00000000000E+00 0.  1.
         11    1    3    3    0    0  0.32188427433E+02  0.10588888677E+02  0.14721684875E+02  0.36945194949E+02  0.51100000000E-03 0. -1.
        -11    1    3    3    0    0  0.40934480706E+01  0.82783612451E+01 -0.45973205861E+01  0.10316149419E+02  0.51100000000E-03 0.  1.
        -12    1    3    3    0    0 -0.37317358307E+02 -0.18398250809E+02 -0.98069507949E+01  0.42746428479E+02  0.00000000000E+00 0.  1.
</event>
<event>
 7    1  0.2895479E-015  0.9000778E+02  0.7816164E-02  0.1186339E+00
        -11   -1    0    0    0    0  0.00000000000E+00  0.00000000000E+00  0.45593999997E+02  0.45594000000E+02  0.51100000000E-03 0.  1.
         11   -1    0    0    0    0 -0.00000000000E+00 -0.00000000000E+00 -0.45593999997E+02  0.45594000000E+02  0.51100000000E-03 0. -1.
    9900012    2    1    2    0    0  0.32719277749E+00  0.65198512398E+00  0.92778142365E+00  0.90007780493E+02  0.90000042395E+02 0.  0.
        -12    1    1    2    0    0 -0.32719277749E+00 -0.65198512398E+00 -0.92778142365E+00  0.11802195074E+01  0.00000000000E+00 0.  1.
         11    1    3    3    0    0  0.42171380832E+01 -0.35293632307E+02 -0.73375790012E+01  0.36294142791E+02  0.51100000000E-03 0. -1.
        -11    1    3    3    0    0  0.59189920625E+01 -0.65541230274E+01 -0.16493587922E+01  0.89839512677E+01  0.51100000000E-03 0.  1.
        -12    1    3    3    0    0 -0.98089373682E+01  0.42499740459E+02  0.99147192170E+01  0.44729686434E+02  0.00000000000E+00 0.  1.
</event>
<event>
 7    1  0.2895479E-015  0.9000778E+02  0.7816164E-02  0.1186339E+00
        -11   -1    0    0    0    0  0.00000000000E+00  0.00000000000E+00  0.45593999997E+02  0.45594000000E+02  0.51100000000E-03 0.  1.
         11   -1    0    0    0    0 -0.00000000000E+00 -0.00000000000E+00 -0.45593999997E+02  0.45594000000E+02  0.51100000000E-03 0. -1.
    9900012    2    1    2    0    0 -0.60196231436E+00  0.25367823602E+00 -0.98295895342E+00  0.90007779860E+02  0.90000041754E+02 0.  0.
        -12    1    1    2    0    0  0.60196231436E+00 -0.25367823602E+00  0.98295895342E+00  0.11802201402E+01  0.00000000000E+00 0.  1.
         11    1    3    3    0    0 -0.11710240594E+02  0.11675776010E+02 -0.32664865960E+02  0.36612114780E+02  0.51100000000E-03 0. -1.
        -11    1    3    3    0    0  0.54380931319E+00  0.88154422742E+01 -0.50303377532E+01  0.10164253501E+02  0.51100000000E-03 0.  1.
        -12    1    3    3    0    0  0.10564468967E+02 -0.20237540048E+02  0.36712244760E+02  0.43231411579E+02  0.00000000000E+00 0.  1.
</event>
<event>
 7    1  0.2895479E-015  0.9000774E+02  0.7816164E-02  0.1186339E+00
        -11   -1    0    0    0    0  0.00000000000E+00  0.00000000000E+00  0.45593999997E+02  0.45594000000E+02  0.51100000000E-03 0. -1.
         11   -1    0    0    0    0 -0.00000000000E+00 -0.00000000000E+00 -0.45593999997E+02  0.45594000000E+02  0.51100000000E-03 0.  1.
    9900012    2    1    2    0    0 -0.10152516914E+01 -0.60156175705E+00 -0.20187545974E-01  0.90007737283E+02  0.89999998615E+02 0.  0.
        -12    1    1    2    0    0  0.10152516914E+01  0.60156175705E+00  0.20187545974E-01  0.11802627171E+01  0.00000000000E+00 0.  1.
         11    1    3    3    0    0  0.34613091662E+02 -0.49654409412E+01  0.18654179674E+02  0.39632059468E+02  0.51100000000E-03 0. -1.
        -11    1    3    3    0    0 -0.71106761210E+01  0.79870038785E+01  0.61999813478E+01  0.12360975480E+02  0.51100000000E-03 0.  1.
        -12    1    3    3    0    0 -0.28517667232E+02 -0.36231246944E+01 -0.24874348568E+02  0.38014702334E+02  0.00000000000E+00 0.  1.
</event>
<event>
 7    1  0.2895479E-015  0.9000771E+02  0.7816164E-02  0.1186339E+00
        -11   -1    0    0    0    0  0.00000000000E+00  0.00000000000E+00  0.45593999997E+02  0.45594000000E+02  0.51100000000E-03 0.  1.
         11   -1    0    0    0    0 -0.00000000000E+00 -0.00000000000E+00 -0.45593999997E+02  0.45594000000E+02  0.51100000000E-03 0. -1.
    9900012    2    1    2    0    0  0.96670264590E+00  0.48059430884E+00 -0.47708351288E+00  0.90007706149E+02  0.89999967071E+02 0.  0.
        -12    1    1    2    0    0 -0.96670264590E+00 -0.48059430884E+00  0.47708351288E+00  0.11802938505E+01  0.00000000000E+00 0.  1.
         11    1    3    3    0    0  0.12116877537E+02  0.92864886450E+01 -0.30212558769E+01  0.15562312808E+02  0.51100000000E-03 0. -1.
        -11    1    3    3    0    0  0.77643714423E+01 -0.14542040693E+02  0.33718923866E+02  0.37532948703E+02  0.51100000000E-03 0.  1.
         12    1    3    3    0    0 -0.18914546333E+02  0.57361463564E+01 -0.31174751502E+02  0.36912444639E+02  0.00000000000E+00 0. -1.
</event>
<event>
 7    1  0.2895479E-015  0.9000775E+02  0.7816164E-02  0.1186339E+00
        -11   -1    0    0    0    0  0.00000000000E+00  0.00000000000E+00  0.45593999997E+02  0.45594000000E+02  0.51100000000E-03 0.  1.
         11   -1    0    0    0    0 -0.00000000000E+00 -0.00000000000E+00 -0.45593999997E+02  0.45594000000E+02  0.51100000000E-03 0. -1.
    9900012    2    1    2    0    0 -0.63537366687E-01 -0.39407714133E+00 -0.11107047406E+01  0.90007746294E+02  0.90000007745E+02 0.  0.
        -12    1    1    2    0    0  0.63537366687E-01  0.39407714133E+00  0.11107047406E+01  0.11802537062E+01  0.00000000000E+00 0.  1.
         11    1    3    3    0    0 -0.99931909914E+00  0.54732772455E+01 -0.18192478235E+02  0.19024238936E+02  0.51100000000E-03 0. -1.
        -11    1    3    3    0    0  0.19783592174E+02  0.24690657405E+02  0.10303679255E+01  0.31655658906E+02  0.51100000000E-03 0.  1.
        -12    1    3    3    0    0 -0.18847810442E+02 -0.30558011792E+02  0.16051405569E+02  0.39327848453E+02  0.00000000000E+00 0.  1.
</event>
<event>
 7    1  0.2895479E-015  0.9000780E+02  0.7816164E-02  0.1186339E+00
        -11   -1    0    0    0    0  0.00000000000E+00  0.00000000000E+00  0.45593999997E+02  0.45594000000E+02  0.51100000000E-03 0.  1.
         11   -1    0    0    0    0 -0.00000000000E+00 -0.00000000000E+00 -0.45593999997E+02  0.45594000000E+02  0.51100000000E-03 0. -1.
    9900012    2    1    2    0    0  0.54514709973E+00 -0.87886698867E+00 -0.56858669171E+00  0.90007795200E+02  0.90000057297E+02 0.  0.
        -12    1    1    2    0    0 -0.54514709973E+00  0.87886698867E+00  0.56858669171E+00  0.11802048001E+01  0.00000000000E+00 0.  1.
         11    1    3    3    0    0 -0.13944709394E+02  0.94122235777E+01 -0.31903481730E+02  0.36067672777E+02  0.51100000000E-03 0. -1.
        -11    1    3    3    0    0 -0.48281958071E+01  0.67326833940E+00 -0.76499407750E+01  0.90711828959E+01  0.51100000000E-03 0.  1.
        -12    1    3    3    0    0  0.19318052301E+02 -0.10964358906E+02  0.38984835813E+02  0.44868939527E+02  0.00000000000E+00 0.  1.
</event>
<event>
 7    1  0.2895479E-015  0.9000664E+02  0.7816164E-02  0.1186341E+00
        -11   -1    0    0    0    0  0.00000000000E+00  0.00000000000E+00  0.45593999997E+02  0.45594000000E+02  0.51100000000E-03 0.  1.
         11   -1    0    0    0    0 -0.00000000000E+00 -0.00000000000E+00 -0.45593999997E+02  0.45594000000E+02  0.51100000000E-03 0. -1.
    9900012    2    1    2    0    0 -0.21557546467E+00 -0.10924379842E+00 -0.11563800674E+01  0.90006635599E+02  0.89998882382E+02 0.  0.
        -12    1    1    2    0    0  0.21557546467E+00  0.10924379842E+00  0.11563800674E+01  0.11813644013E+01  0.00000000000E+00 0.  1.
         11    1    3    3    0    0  0.28603070220E+02 -0.25462350804E+02 -0.15815187232E+02  0.41431715894E+02  0.51100000000E-03 0. -1.
        -11    1    3    3    0    0 -0.82250965214E+01 -0.15470707511E+01 -0.46565431779E+01  0.95775276206E+01  0.51100000000E-03 0.  1.
        -12    1    3    3    0    0 -0.20593549164E+02  0.26900177756E+02  0.19315350343E+02  0.38997392084E+02  0.00000000000E+00 0.  1.
</event>
<event>
 7    1  0.2895479E-015  0.9000791E+02  0.7816164E-02  0.1186339E+00
        -11   -1    0    0    0    0  0.00000000000E+00  0.00000000000E+00  0.45593999997E+02  0.45594000000E+02  0.51100000000E-03 0.  1.
         11   -1    0    0    0    0 -0.00000000000E+00 -0.00000000000E+00 -0.45593999997E+02  0.45594000000E+02  0.51100000000E-03 0. -1.
    9900012    2    1    2    0    0  0.36937154197E+00  0.38636210594E+00 -0.10520914189E+01  0.90007912136E+02  0.90000175776E+02 0.  0.
        -12    1    1    2    0    0 -0.36937154197E+00 -0.38636210594E+00  0.10520914189E+01  0.11800878640E+01  0.00000000000E+00 0.  1.
         11    1    3    3    0    0 -0.31451801869E+01  0.32570020931E+02 -0.53044450887E+00  0.32725827621E+02  0.51100000000E-03 0. -1.
        -11    1    3    3    0    0  0.53724693842E+01  0.68265581187E+01 -0.13564053724E+02  0.16107416824E+02  0.51100000000E-03 0.  1.
        -12    1    3    3    0    0 -0.18579176554E+01 -0.39010216943E+02  0.13042406814E+02  0.41174667691E+02  0.00000000000E+00 0.  1.
</event>
<event>
 7    1  0.2895479E-015  0.9000783E+02  0.7816164E-02  0.1186339E+00
        -11   -1    0    0    0    0  0.00000000000E+00  0.00000000000E+00  0.45593999997E+02  0.45594000000E+02  0.51100000000E-03 0.  1.
         11   -1    0    0    0    0 -0.00000000000E+00 -0.00000000000E+00 -0.45593999997E+02  0.45594000000E+02  0.51100000000E-03 0. -1.
    9900012    2    1    2    0    0  0.71227631102E+00  0.82959354402E+00 -0.44410288749E+00  0.90007834602E+02  0.90000097219E+02 0.  0.
        -12    1    1    2    0    0 -0.71227631102E+00 -0.82959354402E+00  0.44410288749E+00  0.11801653978E+01  0.00000000000E+00 0.  1.
         11    1    3    3    0    0 -0.13176618990E+01 -0.39746805074E+01 -0.48486475439E+01  0.64065358254E+01  0.51100000000E-03 0. -1.
        -11    1    3    3    0    0  0.12937111409E+02 -0.32029543953E+02  0.22410086929E+02  0.41176116061E+02  0.51100000000E-03 0.  1.
         12    1    3    3    0    0 -0.10907173199E+02  0.36833818004E+02 -0.18005542272E+02  0.42425182716E+02  0.00000000000E+00 0. -1.
</event>
<event>
 7    1  0.2895479E-015  0.9000789E+02  0.7816164E-02  0.1186339E+00
        -11   -1    0    0    0    0  0.00000000000E+00  0.00000000000E+00  0.45593999997E+02  0.45594000000E+02  0.51100000000E-03 0.  1.
         11   -1    0    0    0    0 -0.00000000000E+00 -0.00000000000E+00 -0.45593999997E+02  0.45594000000E+02  0.51100000000E-03 0. -1.
    9900012    2    1    2    0    0 -0.25926191085E+00  0.35629244876E+00 -0.10947566856E+01  0.90007892696E+02  0.90000156080E+02 0.  0.
        -12    1    1    2    0    0  0.25926191085E+00 -0.35629244876E+00  0.10947566856E+01  0.11801073037E+01  0.00000000000E+00 0.  1.
         11    1    3    3    0    0 -0.52699464689E+01 -0.82604931076E+01  0.37426169752E+00  0.98055165211E+01  0.51100000000E-03 0. -1.
        -11    1    3    3    0    0 -0.11589750162E+02 -0.59761817580E+01  0.35116068791E+02  0.37458982165E+02  0.51100000000E-03 0.  1.
         12    1    3    3    0    0  0.16600434720E+02  0.14592967314E+02 -0.36585087175E+02  0.42743394010E+02  0.00000000000E+00 0. -1.
</event>
<event>
 7    1  0.4400384E-015  0.9000766E+02  0.7816164E-02  0.1186339E+00
        -11   -1    0    0    0    0  0.00000000000E+00  0.00000000000E+00  0.45593999997E+02  0.45594000000E+02  0.51100000000E-03 0. -1.
         11   -1    0    0    0    0 -0.00000000000E+00 -0.00000000000E+00 -0.45593999997E+02  0.45594000000E+02  0.51100000000E-03 0.  1.
    9900012    2    1    2    0    0 -0.10800317650E+00  0.42555947396E+00  0.10956469069E+01  0.90007657805E+02  0.89999918088E+02 0.  0.
        -12    1    1    2    0    0  0.10800317650E+00 -0.42555947396E+00 -0.10956469069E+01  0.11803421947E+01  0.00000000000E+00 0.  1.
         11    1    3    3    0    0  0.46822987636E+00 -0.70528156572E+01  0.58800939444E+01  0.91943979122E+01  0.51100000000E-03 0. -1.
        -11    1    3    3    0    0  0.11022308447E+02 -0.31163760948E+02 -0.18891110341E+02  0.38072894953E+02  0.51100000000E-03 0.  1.
         12    1    3    3    0    0 -0.11598541500E+02  0.38642136079E+02  0.14106663303E+02  0.42740364940E+02  0.00000000000E+00 0. -1.
</event>
<event>
 7    1  0.2895479E-015  0.9000767E+02  0.7816164E-02  0.1186339E+00
        -11   -1    0    0    0    0  0.00000000000E+00  0.00000000000E+00  0.45593999997E+02  0.45594000000E+02  0.51100000000E-03 0.  1.
         11   -1    0    0    0    0 -0.00000000000E+00 -0.00000000000E+00 -0.45593999997E+02  0.45594000000E+02  0.51100000000E-03 0. -1.
    9900012    2    1    2    0    0  0.75336073479E+00  0.70171050032E+00  0.57726133993E+00  0.90007669251E+02  0.89999929685E+02 0.  0.
        -12    1    1    2    0    0 -0.75336073479E+00 -0.70171050032E+00 -0.57726133993E+00  0.11803307492E+01  0.00000000000E+00 0.  1.
         11    1    3    3    0    0  0.20658158197E+02 -0.23887853373E+02  0.13975132372E+02  0.34535392917E+02  0.51100000000E-03 0. -1.
        -11    1    3    3    0    0  0.12701692714E+02 -0.40249098287E+00 -0.40705934700E+01  0.13344089638E+02  0.51100000000E-03 0.  1.
        -12    1    3    3    0    0 -0.32606490176E+02  0.24992054857E+02 -0.93272775621E+01  0.42128186696E+02  0.00000000000E+00 0.  1.
</event>
<event>
 7    1  0.2895479E-015  0.9000775E+02  0.7816164E-02  0.1186339E+00
        -11   -1    0    0    0    0  0.00000000000E+00  0.00000000000E+00  0.45593999997E+02  0.45594000000E+02  0.51100000000E-03 0.  1.
         11   -1    0    0    0    0 -0.00000000000E+00 -0.00000000000E+00 -0.45593999997E+02  0.45594000000E+02  0.51100000000E-03 0. -1.
    9900012    2    1    2    0    0  0.48966856946E+00  0.14964049876E+00 -0.10634008397E+01  0.90007750479E+02  0.90000011985E+02 0.  0.
        -12    1    1    2    0    0 -0.48966856946E+00 -0.14964049876E+00  0.10634008397E+01  0.11802495213E+01  0.00000000000E+00 0.  1.
         11    1    3    3    0    0  0.42653990319E+01 -0.16209647975E+01 -0.87444688226E+01  0.98634117336E+01  0.51100000000E-03 0. -1.
        -11    1    3    3    0    0  0.27624807439E+02  0.24017261180E+02 -0.97744084077E+01  0.37887964852E+02  0.51100000000E-03 0.  1.
         12    1    3    3    0    0 -0.31400537902E+02 -0.22246655884E+02  0.17455476391E+02  0.42256373893E+02  0.00000000000E+00 0. -1.
</event>
<event>
 7    1  0.2895479E-015  0.9000808E+02  0.7816164E-02  0.1186338E+00
        -11   -1    0    0    0    0  0.00000000000E+00  0.00000000000E+00  0.45593999997E+02  0.45594000000E+02  0.51100000000E-03 0.  1.
         11   -1    0    0    0    0 -0.00000000000E+00 -0.00000000000E+00 -0.45593999997E+02  0.45594000000E+02  0.51100000000E-03 0. -1.
    9900012    2    1    2    0    0 -0.11631050690E+01 -0.19831123496E+00  0.77002366000E-02  0.90008084731E+02  0.90000350649E+02 0.  0.
        -12    1    1    2    0    0  0.11631050690E+01  0.19831123496E+00 -0.77002366000E-02  0.11799152686E+01  0.00000000000E+00 0.  1.
         11    1    3    3    0    0  0.83143742884E+01 -0.53955707771E+01  0.27286005131E+01  0.10280382524E+02  0.51100000000E-03 0. -1.
        -11    1    3    3    0    0  0.21259653952E+02 -0.18546096335E+02  0.20136469515E+02  0.34661332638E+02  0.51100000000E-03 0.  1.
         12    1    3    3    0    0 -0.30737133309E+02  0.23743355877E+02 -0.22857369792E+02  0.45066369570E+02  0.00000000000E+00 0. -1.
</event>
<event>
 7    1  0.2895479E-015  0.9000740E+02  0.7816164E-02  0.1186340E+00
        -11   -1    0    0    0    0  0.00000000000E+00  0.00000000000E+00  0.45593999997E+02  0.45594000000E+02  0.51100000000E-03 0.  1.
         11   -1    0    0    0    0 -0.00000000000E+00 -0.00000000000E+00 -0.45593999997E+02  0.45594000000E+02  0.51100000000E-03 0. -1.
    9900012    2    1    2    0    0  0.88219595822E+00  0.46968754429E+00 -0.62843524986E+00  0.90007403981E+02  0.89999660912E+02 0.  0.
        -12    1    1    2    0    0 -0.88219595822E+00 -0.46968754429E+00  0.62843524986E+00  0.11805960195E+01  0.00000000000E+00 0.  1.
         11    1    3    3    0    0 -0.74995979854E+01 -0.23712548818E+02 -0.28054126174E+02  0.37490838041E+02  0.51100000000E-03 0. -1.
        -11    1    3    3    0    0  0.38818397989E+01 -0.64917055109E+01 -0.38428898190E+01  0.84840275274E+01  0.51100000000E-03 0.  1.
        -12    1    3    3    0    0  0.44999541447E+01  0.30673941873E+02  0.31268580743E+02  0.44032538412E+02  0.00000000000E+00 0.  1.
</event>
<event>
 7    1  0.2895479E-015  0.9000773E+02  0.7816164E-02  0.1186339E+00
        -11   -1    0    0    0    0  0.00000000000E+00  0.00000000000E+00  0.45593999997E+02  0.45594000000E+02  0.51100000000E-03 0.  1.
         11   -1    0    0    0    0 -0.00000000000E+00 -0.00000000000E+00 -0.45593999997E+02  0.45594000000E+02  0.51100000000E-03 0. -1.
    9900012    2    1    2    0    0  0.76515864525E+00 -0.11075744751E+00 -0.89179972734E+00  0.90007728117E+02  0.89999989328E+02 0.  0.
        -12    1    1    2    0    0 -0.76515864525E+00  0.11075744751E+00  0.89179972734E+00  0.11802718832E+01  0.00000000000E+00 0.  1.
         11    1    3    3    0    0  0.42019528449E+02 -0.75685750973E+00 -0.16385243572E+02  0.45107536084E+02  0.51100000000E-03 0. -1.
        -11    1    3    3    0    0 -0.83202253754E+01  0.25397567677E+01  0.64247030101E+00  0.87229171202E+01  0.51100000000E-03 0.  1.
        -12    1    3    3    0    0 -0.32934144428E+02 -0.18936567055E+01  0.14850973544E+02  0.36177274913E+02  0.00000000000E+00 0.  1.
</event>
<event>
 7    1  0.2895479E-015  0.9000781E+02  0.7816164E-02  0.1186339E+00
        -11   -1    0    0    0    0  0.00000000000E+00  0.00000000000E+00  0.45593999997E+02  0.45594000000E+02  0.51100000000E-03 0.  1.
         11   -1    0    0    0    0 -0.00000000000E+00 -0.00000000000E+00 -0.45593999997E+02  0.45594000000E+02  0.51100000000E-03 0. -1.
    9900012    2    1    2    0    0 -0.18621556088E-01  0.10618829589E+01 -0.51468889181E+00  0.90007810678E+02  0.90000072979E+02 0.  0.
        -12    1    1    2    0    0  0.18621556088E-01 -0.10618829589E+01  0.51468889181E+00  0.11801893221E+01  0.00000000000E+00 0.  1.
         11    1    3    3    0    0 -0.13532813985E+02  0.13135791232E+02 -0.38853329560E+02  0.43188740243E+02  0.51100000000E-03 0. -1.
        -11    1    3    3    0    0 -0.44284444188E+01 -0.60177191345E+01  0.72122198130E+01  0.10384612580E+02  0.51100000000E-03 0.  1.
        -12    1    3    3    0    0  0.17942636847E+02 -0.60561891382E+01  0.31126420855E+02  0.36434457855E+02  0.00000000000E+00 0.  1.
</event>
<event>
 7    1  0.2895479E-015  0.9000769E+02  0.7816164E-02  0.1186339E+00
        -11   -1    0    0    0    0  0.00000000000E+00  0.00000000000E+00  0.45593999997E+02  0.45594000000E+02  0.51100000000E-03 0. -1.
         11   -1    0    0    0    0 -0.00000000000E+00 -0.00000000000E+00 -0.45593999997E+02  0.45594000000E+02  0.51100000000E-03 0.  1.
    9900012    2    1    2    0    0  0.12160339458E+00  0.25128553182E-01  0.11737561940E+01  0.90007693924E+02  0.89999954684E+02 0.  0.
        -12    1    1    2    0    0 -0.12160339458E+00 -0.25128553182E-01 -0.11737561940E+01  0.11803060759E+01  0.00000000000E+00 0.  1.
         11    1    3    3    0    0 -0.55099403884E-02  0.18589284527E+02  0.35966401486E+02  0.40486338013E+02  0.51100000000E-03 0. -1.
        -11    1    3    3    0    0 -0.45576323235E+01 -0.72916784856E+01  0.35346601963E+01  0.92970108367E+01  0.51100000000E-03 0.  1.
        -12    1    3    3    0    0  0.46847456585E+01 -0.11272477488E+02 -0.38327305489E+02  0.40224345074E+02  0.00000000000E+00 0.  1.
</event>
<event>
 7    1  0.2895479E-015  0.9000751E+02  0.7816164E-02  0.1186340E+00
        -11   -1    0    0    0    0  0.00000000000E+00  0.00000000000E+00  0.45593999997E+02  0.45594000000E+02  0.51100000000E-03 0.  1.
         11   -1    0    0    0    0 -0.00000000000E+00 -0.00000000000E+00 -0.45593999997E+02  0.45594000000E+02  0.51100000000E-03 0. -1.
    9900012    2    1    2    0    0 -0.23454404410E+00  0.89066172017E+00 -0.73842906803E+00  0.90007505740E+02  0.89999764016E+02 0.  0.
        -12    1    1    2    0    0  0.23454404410E+00 -0.89066172017E+00  0.73842906803E+00  0.11804942596E+01  0.00000000000E+00 0.  1.
         11    1    3    3    0    0 -0.56697772696E+01 -0.84668901015E+01  0.14275957172E+01  0.10289442748E+02  0.51100000000E-03 0. -1.
        -11    1    3    3    0    0 -0.16117623535E+02  0.39455760274E+02  0.22811690330E+00  0.42621436447E+02  0.51100000000E-03 0.  1.
         12    1    3    3    0    0  0.21552856760E+02 -0.30098208453E+02 -0.23941416885E+01  0.37096626545E+02  0.00000000000E+00 0. -1.
</event>
<event>
 7    1  0.2895479E-015  0.9000774E+02  0.7816164E-02  0.1186339E+00
        -11   -1    0    0    0    0  0.00000000000E+00  0.00000000000E+00  0.45593999997E+02  0.45594000000E+02  0.51100000000E-03 0. -1.
         11   -1    0    0    0    0 -0.00000000000E+00 -0.00000000000E+00 -0.45593999997E+02  0.45594000000E+02  0.51100000000E-03 0.  1.
    9900012    2    1    2    0    0  0.36752303896E+00 -0.11210556480E+01 -0.34322104080E-01  0.90007738607E+02  0.89999999956E+02 0.  0.
        -12    1    1    2    0    0 -0.36752303896E+00  0.11210556480E+01  0.34322104081E-01  0.11802613934E+01  0.00000000000E+00 0.  1.
         11    1    3    3    0    0 -0.78904007794E+01  0.47416054945E+01 -0.58215218562E+01  0.10891802611E+02  0.51100000000E-03 0. -1.
        -11    1    3    3    0    0 -0.20710291928E+02  0.69697958569E+01 -0.26184524250E+02  0.34104597293E+02  0.51100000000E-03 0.  1.
         12    1    3    3    0    0  0.28968215747E+02 -0.12832456999E+02  0.31971724002E+02  0.45011338703E+02  0.00000000000E+00 0. -1.
</event>
<event>
 7    1  0.2895479E-015  0.9000775E+02  0.7816164E-02  0.1186339E+00
        -11   -1    0    0    0    0  0.00000000000E+00  0.00000000000E+00  0.45593999997E+02  0.45594000000E+02  0.51100000000E-03 0. -1.
         11   -1    0    0    0    0 -0.00000000000E+00 -0.00000000000E+00 -0.45593999997E+02  0.45594000000E+02  0.51100000000E-03 0.  1.
    9900012    2    1    2    0    0 -0.10145254535E+01 -0.40311327492E+00  0.44859466311E+00  0.90007746053E+02  0.90000007501E+02 0.  0.
        -12    1    1    2    0    0  0.10145254535E+01  0.40311327492E+00 -0.44859466311E+00  0.11802539473E+01  0.00000000000E+00 0.  1.
         11    1    3    3    0    0 -0.10007298880E+01  0.68931211582E+01 -0.56716341583E+01  0.89824280624E+01  0.51100000000E-03 0. -1.
        -11    1    3    3    0    0  0.49083846209E+01 -0.69225533912E+01 -0.36828646858E+02  0.37793692790E+02  0.51100000000E-03 0.  1.
         12    1    3    3    0    0 -0.49221801864E+01 -0.37368104188E+00  0.42948875680E+02  0.43231625200E+02  0.00000000000E+00 0. -1.
</event>
<event>
 7    1  0.2895479E-015  0.9000771E+02  0.7816164E-02  0.1186339E+00
        -11   -1    0    0    0    0  0.00000000000E+00  0.00000000000E+00  0.45593999997E+02  0.45594000000E+02  0.51100000000E-03 0.  1.
         11   -1    0    0    0    0 -0.00000000000E+00 -0.00000000000E+00 -0.45593999997E+02  0.45594000000E+02  0.51100000000E-03 0. -1.
    9900012    2    1    2    0    0  0.10545267026E+01  0.52659039463E+00  0.61385978524E-01  0.90007706711E+02  0.89999967639E+02 0.  0.
        -12    1    1    2    0    0 -0.10545267026E+01 -0.52659039463E+00 -0.61385978524E-01  0.11802932892E+01  0.00000000000E+00 0.  1.
         11    1    3    3    0    0 -0.27127364478E+02 -0.20863442489E+02 -0.23049342220E+02  0.41260747849E+02  0.51100000000E-03 0. -1.
        -11    1    3    3    0    0  0.50777556698E+01 -0.53469262720E+01  0.22365215398E+01  0.77055338595E+01  0.51100000000E-03 0.  1.
        -12    1    3    3    0    0  0.23104135511E+02  0.26736959155E+02  0.20874206659E+02  0.41041425002E+02  0.00000000000E+00 0.  1.
</event>
<event>
 7    1  0.2895479E-015  0.9000768E+02  0.7816164E-02  0.1186339E+00
        -11   -1    0    0    0    0  0.00000000000E+00  0.00000000000E+00  0.45593999997E+02  0.45594000000E+02  0.51100000000E-03 0.  1.
         11   -1    0    0    0    0 -0.00000000000E+00 -0.00000000000E+00 -0.45593999997E+02  0.45594000000E+02  0.51100000000E-03 0. -1.
    9900012    2    1    2    0    0  0.10697783190E+01 -0.32317679611E-01 -0.49767127021E+00  0.90007683611E+02  0.89999944235E+02 0.  0.
        -12    1    1    2    0    0 -0.10697783190E+01  0.32317679611E-01  0.49767127021E+00  0.11803163886E+01  0.00000000000E+00 0.  1.
         11    1    3    3    0    0 -0.78511561045E+01  0.35196578869E+01 -0.39521247569E+01  0.94682593001E+01  0.51100000000E-03 0. -1.
        -11    1    3    3    0    0  0.13209586955E+02  0.37178885582E+02  0.22770007400E+00  0.39456489557E+02  0.51100000000E-03 0.  1.
         12    1    3    3    0    0 -0.42886525314E+01 -0.40730861148E+02  0.32267534127E+01  0.41082934754E+02  0.00000000000E+00 0. -1.
</event>
<event>
 7    1  0.2895479E-015  0.9000765E+02  0.7816164E-02  0.1186339E+00
        -11   -1    0    0    0    0  0.00000000000E+00  0.00000000000E+00  0.45593999997E+02  0.45594000000E+02  0.51100000000E-03 0.  1.
         11   -1    0    0    0    0 -0.00000000000E+00 -0.00000000000E+00 -0.45593999997E+02  0.45594000000E+02  0.51100000000E-03 0. -1.
    9900012    2    1    2    0    0 -0.70125885432E-01 -0.11215493430E+01  0.36114549958E+00  0.90007654017E+02  0.89999914250E+02 0.  0.
        -12    1    1    2    0    0  0.70125885432E-01  0.11215493430E+01 -0.36114549958E+00  0.11803459834E+01  0.00000000000E+00 0.  1.
         11    1    3    3    0    0 -0.55771893504E+01 -0.47962759415E+01  0.54831013940E+01  0.91746228868E+01  0.51100000000E-03 0. -1.
        -11    1    3    3    0    0 -0.63102306232E+01  0.31884891641E+02  0.22572366786E+02  0.39572428129E+02  0.51100000000E-03 0.  1.
         12    1    3    3    0    0  0.11817294088E+02 -0.28210165042E+02 -0.27694322680E+02  0.41260603001E+02  0.00000000000E+00 0. -1.
</event>
<event>
 7    1  0.2895479E-015  0.9000772E+02  0.7816164E-02  0.1186339E+00
        -11   -1    0    0    0    0  0.00000000000E+00  0.00000000000E+00  0.45593999997E+02  0.45594000000E+02  0.51100000000E-03 0.  1.
         11   -1    0    0    0    0 -0.00000000000E+00 -0.00000000000E+00 -0.45593999997E+02  0.45594000000E+02  0.51100000000E-03 0. -1.
    9900012    2    1    2    0    0 -0.31432432846E+00 -0.24892577458E+00 -0.11100835266E+01  0.90007724922E+02  0.89999986091E+02 0.  0.
        -12    1    1    2    0    0  0.31432432846E+00  0.24892577458E+00  0.11100835266E+01  0.11802750784E+01  0.00000000000E+00 0.  1.
         11    1    3    3    0    0  0.24592482869E+02  0.44556590579E+01 -0.25452191936E+02  0.35671517852E+02  0.51100000000E-03 0. -1.
        -11    1    3    3    0    0  0.27873546031E+00  0.83166317530E+01 -0.78493144622E+01  0.11439221781E+02  0.51100000000E-03 0.  1.
        -12    1    3    3    0    0 -0.25185542657E+02 -0.13021216586E+02  0.32191422872E+02  0.42896985288E+02  0.00000000000E+00 0.  1.
</event>
<event>
 7    1  0.2895479E-015  0.9000774E+02  0.7816164E-02  0.1186339E+00
        -11   -1    0    0    0    0  0.00000000000E+00  0.00000000000E+00  0.45593999997E+02  0.45594000000E+02  0.51100000000E-03 0.  1.
         11   -1    0    0    0    0 -0.00000000000E+00 -0.00000000000E+00 -0.45593999997E+02  0.45594000000E+02  0.51100000000E-03 0. -1.
    9900012    2    1    2    0    0  0.15689879089E+00  0.43481863085E+00 -0.10859715137E+01  0.90007737910E+02  0.89999999251E+02 0.  0.
        -12    1    1    2    0    0 -0.15689879089E+00 -0.43481863085E+00  0.10859715137E+01  0.11802620899E+01  0.00000000000E+00 0.  1.
         11    1    3    3    0    0 -0.17958732641E+02  0.12147480230E+02  0.17952357406E+01  0.21755464270E+02  0.51100000000E-03 0. -1.
        -11    1    3    3    0    0 -0.25875670610E+01  0.25486867571E+02 -0.12556736453E+01  0.25648638140E+02  0.51100000000E-03 0.  1.
        -12    1    3    3    0    0  0.20703198492E+02 -0.37199529170E+02 -0.16255336090E+01  0.42603635500E+02  0.00000000000E+00 0.  1.
</event>
<event>
 7    1  0.2895479E-015  0.9000767E+02  0.7816164E-02  0.1186339E+00
        -11   -1    0    0    0    0  0.00000000000E+00  0.00000000000E+00  0.45593999997E+02  0.45594000000E+02  0.51100000000E-03 0.  1.
         11   -1    0    0    0    0 -0.00000000000E+00 -0.00000000000E+00 -0.45593999997E+02  0.45594000000E+02  0.51100000000E-03 0. -1.
    9900012    2    1    2    0    0  0.66725805485E+00 -0.52420677141E+00 -0.82045936681E+00  0.90007669697E+02  0.89999930137E+02 0.  0.
        -12    1    1    2    0    0 -0.66725805485E+00  0.52420677141E+00  0.82045936681E+00  0.11803303027E+01  0.00000000000E+00 0.  1.
         11    1    3    3    0    0  0.11687975514E+02  0.98103784214E+01 -0.36794197331E+02  0.39832966923E+02  0.51100000000E-03 0. -1.
        -11    1    3    3    0    0  0.74433547901E+01 -0.55216020048E+01 -0.20774424426E+00  0.92701012488E+01  0.51100000000E-03 0.  1.
        -12    1    3    3    0    0 -0.18464072249E+02 -0.48129831880E+01  0.36181482208E+02  0.40904601526E+02  0.00000000000E+00 0.  1.
</event>
<event>
 7    1  0.2895479E-015  0.9000776E+02  0.7816164E-02  0.1186339E+00
        -11   -1    0    0    0    0  0.00000000000E+00  0.00000000000E+00  0.45593999997E+02  0.45594000000E+02  0.51100000000E-03 0. -1.
         11   -1    0    0    0    0 -0.00000000000E+00 -0.00000000000E+00 -0.45593999997E+02  0.45594000000E+02  0.51100000000E-03 0.  1.
    9900012    2    1    2    0    0  0.92517107591E+00 -0.73128481975E+00 -0.47495407051E-01  0.90007756457E+02  0.90000018042E+02 0.  0.
        -12    1    1    2    0    0 -0.92517107591E+00  0.73128481975E+00  0.47495407051E-01  0.11802435431E+01  0.00000000000E+00 0.  1.
         11    1    3    3    0    0  0.29882663676E+02  0.16579798904E+02  0.77121947014E+01  0.35033430712E+02  0.51100000000E-03 0. -1.
        -11    1    3    3    0    0  0.40454923665E+01  0.10507347900E+02 -0.17701262321E+01  0.11397531115E+02  0.51100000000E-03 0.  1.
        -12    1    3    3    0    0 -0.33002984967E+02 -0.27818431624E+02 -0.59895638763E+01  0.43576794629E+02  0.00000000000E+00 0.  1.
</event>
<event>
 7    1  0.2895479E-015  0.9000759E+02  0.7816164E-02  0.1186339E+00
        -11   -1    0    0    0    0  0.00000000000E+00  0.00000000000E+00  0.45593999997E+02  0.45594000000E+02  0.51100000000E-03 0.  1.
         11   -1    0    0    0    0 -0.00000000000E+00 -0.00000000000E+00 -0.45593999997E+02  0.45594000000E+02  0.51100000000E-03 0. -1.
    9900012    2    1    2    0    0 -0.95320440982E+00  0.92012889427E-01 -0.69015183396E+00  0.90007587118E+02  0.89999846468E+02 0.  0.
        -12    1    1    2    0    0  0.95320440982E+00 -0.92012889427E-01  0.69015183396E+00  0.11804128823E+01  0.00000000000E+00 0.  1.
         11    1    3    3    0    0  0.22365521765E+02  0.18065229827E+02 -0.28638468752E+02  0.40579933283E+02  0.51100000000E-03 0. -1.
        -11    1    3    3    0    0 -0.16917861267E+01 -0.63741843518E+01 -0.50483921800E+01  0.83053374594E+01  0.51100000000E-03 0.  1.
        -12    1    3    3    0    0 -0.21626940048E+02 -0.11599032586E+02  0.32996709098E+02  0.41122316375E+02  0.00000000000E+00 0.  1.
</event>
<event>
 7    1  0.2895479E-015  0.9000766E+02  0.7816164E-02  0.1186339E+00
        -11   -1    0    0    0    0  0.00000000000E+00  0.00000000000E+00  0.45593999997E+02  0.45594000000E+02  0.51100000000E-03 0.  1.
         11   -1    0    0    0    0 -0.00000000000E+00 -0.00000000000E+00 -0.45593999997E+02  0.45594000000E+02  0.51100000000E-03 0. -1.
    9900012    2    1    2    0    0  0.71865816375E+00  0.54424933693E+00 -0.76191880917E+00  0.90007662265E+02  0.89999922607E+02 0.  0.
        -12    1    1    2    0    0 -0.71865816375E+00 -0.54424933693E+00  0.76191880917E+00  0.11803377351E+01  0.00000000000E+00 0.  1.
         11    1    3    3    0    0 -0.32203703253E+01  0.25446679575E+01 -0.36168341126E+02  0.36400481043E+02  0.51100000000E-03 0. -1.
        -11    1    3    3    0    0 -0.39572441138E+01  0.46296479402E+01 -0.73957034429E+01  0.95807019942E+01  0.51100000000E-03 0.  1.
        -12    1    3    3    0    0  0.78962726028E+01 -0.66300665607E+01  0.42802125760E+02  0.44026479228E+02  0.00000000000E+00 0.  1.
</event>
<event>
 7    1  0.2895479E-015  0.9000775E+02  0.7816164E-02  0.1186339E+00
        -11   -1    0    0    0    0  0.00000000000E+00  0.00000000000E+00  0.45593999997E+02  0.45594000000E+02  0.51100000000E-03 0. -1.
         11   -1    0    0    0    0 -0.00000000000E+00 -0.00000000000E+00 -0.45593999997E+02  0.45594000000E+02  0.51100000000E-03 0.  1.
    9900012    2    1    2    0    0  0.50056216077E+00 -0.20152504621E+00  0.10496689622E+01  0.90007754368E+02  0.90000015926E+02 0.  0.
        -12    1    1    2    0    0 -0.50056216077E+00  0.20152504621E+00 -0.10496689622E+01  0.11802456318E+01  0.00000000000E+00 0.  1.
         11    1    3    3    0    0  0.97815508481E+01  0.15329624858E+02  0.32827615097E+02  0.37527702415E+02  0.51100000000E-03 0. -1.
        -11    1    3    3    0    0  0.12203992621E+01  0.90498811025E+01  0.20567307909E+01  0.93605482818E+01  0.51100000000E-03 0.  1.
        -12    1    3    3    0    0 -0.10501387949E+02 -0.24581031007E+02 -0.33834676926E+02  0.43119503672E+02  0.00000000000E+00 0.  1.
</event>
<event>
 7    1  0.2895479E-015  0.9000774E+02  0.7816164E-02  0.1186339E+00
        -11   -1    0    0    0    0  0.00000000000E+00  0.00000000000E+00  0.45593999997E+02  0.45594000000E+02  0.51100000000E-03 0. -1.
         11   -1    0    0    0    0 -0.00000000000E+00 -0.00000000000E+00 -0.45593999997E+02  0.45594000000E+02  0.51100000000E-03 0.  1.
    9900012    2    1    2    0    0  0.96049571315E+00 -0.49732885537E+00  0.47235526593E+00  0.90007742612E+02  0.90000004014E+02 0.  0.
        -12    1    1    2    0    0 -0.96049571315E+00  0.49732885537E+00 -0.47235526593E+00  0.11802573883E+01  0.00000000000E+00 0.  1.
         11    1    3    3    0    0  0.33471336916E+02 -0.89485818740E+01  0.19221079107E+02  0.39621425956E+02  0.51100000000E-03 0. -1.
        -11    1    3    3    0    0  0.53990979082E+01 -0.10323365950E+01 -0.82655137025E+01  0.99264643300E+01  0.51100000000E-03 0.  1.
        -12    1    3    3    0    0 -0.37909939111E+02  0.94835896136E+01 -0.10483210139E+02  0.40459852325E+02  0.00000000000E+00 0.  1.
</event>
<event>
 7    1  0.2895479E-015  0.9000763E+02  0.7816164E-02  0.1186339E+00
        -11   -1    0    0    0    0  0.00000000000E+00  0.00000000000E+00  0.45593999997E+02  0.45594000000E+02  0.51100000000E-03 0.  1.
         11   -1    0    0    0    0 -0.00000000000E+00 -0.00000000000E+00 -0.45593999997E+02  0.45594000000E+02  0.51100000000E-03 0. -1.
    9900012    2    1    2    0    0 -0.10312503336E+01  0.57007371284E+00 -0.69397840046E-01  0.90007628301E+02  0.89999888194E+02 0.  0.
        -12    1    1    2    0    0  0.10312503336E+01 -0.57007371284E+00  0.69397840046E-01  0.11803716994E+01  0.00000000000E+00 0.  1.
         11    1    3    3    0    0  0.62388737204E+01 -0.54417211055E+01  0.70503677528E+01  0.10873985452E+02  0.51100000000E-03 0. -1.
        -11    1    3    3    0    0  0.25287282278E+02 -0.20515512298E+02  0.95741118568E+01  0.33941074055E+02  0.51100000000E-03 0.  1.
         12    1    3    3    0    0 -0.32557406332E+02  0.26527307116E+02 -0.16693877450E+02  0.45192568794E+02  0.00000000000E+00 0. -1.
</event>
<event>
 7    1  0.2895479E-015  0.9000776E+02  0.7816164E-02  0.1186339E+00
        -11   -1    0    0    0    0  0.00000000000E+00  0.00000000000E+00  0.45593999997E+02  0.45594000000E+02  0.51100000000E-03 0.  1.
         11   -1    0    0    0    0 -0.00000000000E+00 -0.00000000000E+00 -0.45593999997E+02  0.45594000000E+02  0.51100000000E-03 0. -1.
    9900012    2    1    2    0    0  0.42790930107E+00  0.92054027753E+00 -0.60204202486E+00  0.90007764696E+02  0.90000026390E+02 0.  0.
        -12    1    1    2    0    0 -0.42790930107E+00 -0.92054027753E+00  0.60204202486E+00  0.11802353037E+01  0.00000000000E+00 0.  1.
         11    1    3    3    0    0  0.62401257202E+01 -0.23842036650E+02 -0.30414592645E+02  0.39146255589E+02  0.51100000000E-03 0. -1.
        -11    1    3    3    0    0 -0.36747974048E+01  0.58432144031E+01 -0.67399390982E+01  0.96474903387E+01  0.51100000000E-03 0.  1.
        -12    1    3    3    0    0 -0.21374190143E+01  0.18919362525E+02  0.36552489719E+02  0.41214018768E+02  0.00000000000E+00 0.  1.
</event>
<event>
 7    1  0.2895479E-015  0.9000771E+02  0.7816164E-02  0.1186339E+00
        -11   -1    0    0    0    0  0.00000000000E+00  0.00000000000E+00  0.45593999997E+02  0.45594000000E+02  0.51100000000E-03 0. -1.
         11   -1    0    0    0    0 -0.00000000000E+00 -0.00000000000E+00 -0.45593999997E+02  0.45594000000E+02  0.51100000000E-03 0.  1.
    9900012    2    1    2    0    0  0.10336466659E+01 -0.54525221185E+00 -0.16537645220E+00  0.90007714113E+02  0.89999975139E+02 0.  0.
        -12    1    1    2    0    0 -0.10336466659E+01  0.54525221185E+00  0.16537645220E+00  0.11802858871E+01  0.00000000000E+00 0.  1.
         11    1    3    3    0    0 -0.81779852168E+01  0.41299905088E+01  0.63330141025E+01  0.11137474206E+02  0.51100000000E-03 0. -1.
        -11    1    3    3    0    0  0.73990426136E+01  0.31150768860E+02 -0.22962647671E+02  0.39400500257E+02  0.51100000000E-03 0.  1.
         12    1    3    3    0    0  0.18125892690E+01 -0.35826011581E+02  0.16464257116E+02  0.39469739650E+02  0.00000000000E+00 0. -1.
</event>
<event>
 7    1  0.2895479E-015  0.9000780E+02  0.7816164E-02  0.1186339E+00
        -11   -1    0    0    0    0  0.00000000000E+00  0.00000000000E+00  0.45593999997E+02  0.45594000000E+02  0.51100000000E-03 0.  1.
         11   -1    0    0    0    0 -0.00000000000E+00 -0.00000000000E+00 -0.45593999997E+02  0.45594000000E+02  0.51100000000E-03 0. -1.
    9900012    2    1    2    0    0  0.55427533218E+00  0.20043499902E+00 -0.10224847899E+01  0.90007800662E+02  0.90000062830E+02 0.  0.
        -12    1    1    2    0    0 -0.55427533218E+00 -0.20043499902E+00  0.10224847899E+01  0.11801993384E+01  0.00000000000E+00 0.  1.
         11    1    3    3    0    0 -0.21162207517E+01 -0.90676348238E+01 -0.34712196168E+01  0.99372912535E+01  0.51100000000E-03 0. -1.
        -11    1    3    3    0    0 -0.13248282923E+01 -0.28553699979E+02  0.23137633944E+02  0.36775250608E+02  0.51100000000E-03 0.  1.
         12    1    3    3    0    0  0.39953243762E+01  0.37821769802E+02 -0.20688899118E+02  0.43295258800E+02  0.00000000000E+00 0. -1.
</event>
<event>
 7    1  0.2895479E-015  0.9000758E+02  0.7816164E-02  0.1186339E+00
        -11   -1    0    0    0    0  0.00000000000E+00  0.00000000000E+00  0.45593999997E+02  0.45594000000E+02  0.51100000000E-03 0. -1.
         11   -1    0    0    0    0 -0.00000000000E+00 -0.00000000000E+00 -0.45593999997E+02  0.45594000000E+02  0.51100000000E-03 0.  1.
    9900012    2    1    2    0    0  0.68542252722E+00  0.39399212243E+00  0.87655609409E+00  0.90007582947E+02  0.89999842242E+02 0.  0.
        -12    1    1    2    0    0 -0.68542252722E+00 -0.39399212243E+00 -0.87655609409E+00  0.11804170532E+01  0.00000000000E+00 0.  1.
         11    1    3    3    0    0 -0.21795152615E+02  0.77494033715E+01  0.30712403408E+02  0.38449104716E+02  0.51100000000E-03 0. -1.
        -11    1    3    3    0    0 -0.65114025744E+01 -0.56308998976E+01  0.16043467254E+01  0.87566732164E+01  0.51100000000E-03 0.  1.
        -12    1    3    3    0    0  0.28991977716E+02 -0.17245113515E+01 -0.31440194039E+02  0.42801805015E+02  0.00000000000E+00 0.  1.
</event>
<event>
 7    1  0.2895479E-015  0.9000772E+02  0.7816164E-02  0.1186339E+00
        -11   -1    0    0    0    0  0.00000000000E+00  0.00000000000E+00  0.45593999997E+02  0.45594000000E+02  0.51100000000E-03 0.  1.
         11   -1    0    0    0    0 -0.00000000000E+00 -0.00000000000E+00 -0.45593999997E+02  0.45594000000E+02  0.51100000000E-03 0. -1.
    9900012    2    1    2    0    0 -0.17387523458E+00 -0.15414731010E+00 -0.11571776975E+01  0.90007722823E+02  0.89999983965E+02 0.  0.
        -12    1    1    2    0    0  0.17387523458E+00  0.15414731010E+00  0.11571776975E+01  0.11802771768E+01  0.00000000000E+00 0.  1.
         11    1    3    3    0    0 -0.25639986154E+02 -0.19006316227E+02 -0.27654828503E+02  0.42230776529E+02  0.51100000000E-03 0. -1.
        -11    1    3    3    0    0  0.40986307913E+01 -0.58180792958E+01  0.49081118078E+01  0.86451363688E+01  0.51100000000E-03 0.  1.
        -12    1    3    3    0    0  0.21367480128E+02  0.24670248213E+02  0.21589538997E+02  0.39131809925E+02  0.00000000000E+00 0.  1.
</event>
<event>
 7    1  0.2895479E-015  0.9000765E+02  0.7816164E-02  0.1186339E+00
        -11   -1    0    0    0    0  0.00000000000E+00  0.00000000000E+00  0.45593999997E+02  0.45594000000E+02  0.51100000000E-03 0.  1.
         11   -1    0    0    0    0 -0.00000000000E+00 -0.00000000000E+00 -0.45593999997E+02  0.45594000000E+02  0.51100000000E-03 0. -1.
    9900012    2    1    2    0    0  0.70167958221E+00  0.84073215295E+00 -0.44050805488E+00  0.90007647453E+02  0.89999907599E+02 0.  0.
        -12    1    1    2    0    0 -0.70167958221E+00 -0.84073215295E+00  0.44050805488E+00  0.11803525471E+01  0.00000000000E+00 0.  1.
         11    1    3    3    0    0  0.64391786194E+00 -0.87847704305E+00  0.96280180959E+01  0.96894316058E+01  0.51100000000E-03 0. -1.
        -11    1    3    3    0    0 -0.20642789161E+02  0.31029808017E+02  0.10807045241E+02  0.38804200250E+02  0.51100000000E-03 0.  1.
         12    1    3    3    0    0  0.20700550881E+02 -0.29310598821E+02 -0.20875571392E+02  0.41514015597E+02  0.00000000000E+00 0. -1.
</event>
<event>
 7    1  0.2895479E-015  0.9000773E+02  0.7816164E-02  0.1186339E+00
        -11   -1    0    0    0    0  0.00000000000E+00  0.00000000000E+00  0.45593999997E+02  0.45594000000E+02  0.51100000000E-03 0.  1.
         11   -1    0    0    0    0 -0.00000000000E+00 -0.00000000000E+00 -0.45593999997E+02  0.45594000000E+02  0.51100000000E-03 0. -1.
    9900012    2    1    2    0    0 -0.59711743912E-01  0.11716601951E+01 -0.12917981722E+00  0.90007728620E+02  0.89999989838E+02 0.  0.
        -12    1    1    2    0    0  0.59711743912E-01 -0.11716601951E+01  0.12917981722E+00  0.11802713800E+01  0.00000000000E+00 0.  1.
         11    1    3    3    0    0 -0.26498975750E+02 -0.11730014350E+02 -0.24534265645E+02  0.37969976869E+02  0.51100000000E-03 0. -1.
        -11    1    3    3    0    0 -0.39380976280E+01 -0.67422269271E+01 -0.94389664999E+00  0.78649334397E+01  0.51100000000E-03 0.  1.
        -12    1    3    3    0    0  0.30377361634E+02  0.19643901472E+02  0.25348982478E+02  0.44172818311E+02  0.00000000000E+00 0.  1.
</event>
<event>
 7    1  0.2895479E-015  0.9000770E+02  0.7816164E-02  0.1186339E+00
        -11   -1    0    0    0    0  0.00000000000E+00  0.00000000000E+00  0.45593999997E+02  0.45594000000E+02  0.51100000000E-03 0. -1.
         11   -1    0    0    0    0 -0.00000000000E+00 -0.00000000000E+00 -0.45593999997E+02  0.45594000000E+02  0.51100000000E-03 0.  1.
    9900012    2    1    2    0    0 -0.10464365933E+01  0.95159739319E-01 -0.53761758517E+00  0.90007695977E+02  0.89999956763E+02 0.  0.
        -12    1    1    2    0    0  0.10464365933E+01 -0.95159739319E-01  0.53761758517E+00  0.11803040234E+01  0.00000000000E+00 0.  1.
         11    1    3    3    0    0 -0.28142320280E+01  0.35234540434E+02  0.12746343086E+02  0.37574752213E+02  0.51100000000E-03 0. -1.
        -11    1    3    3    0    0 -0.47996664783E+01  0.61825519259E+01 -0.62261331829E+01  0.10001273983E+02  0.51100000000E-03 0.  1.
        -12    1    3    3    0    0  0.65674619131E+01 -0.41321932621E+02 -0.70578274883E+01  0.42431669780E+02  0.00000000000E+00 0.  1.
</event>
<event>
 7    1  0.2895479E-015  0.9000773E+02  0.7816164E-02  0.1186339E+00
        -11   -1    0    0    0    0  0.00000000000E+00  0.00000000000E+00  0.45593999997E+02  0.45594000000E+02  0.51100000000E-03 0.  1.
         11   -1    0    0    0    0 -0.00000000000E+00 -0.00000000000E+00 -0.45593999997E+02  0.45594000000E+02  0.51100000000E-03 0. -1.
    9900012    2    1    2    0    0  0.61829760958E+00 -0.96460318797E+00  0.28333463451E+00  0.90007733183E+02  0.89999994461E+02 0.  0.
        -12    1    1    2    0    0 -0.61829760958E+00  0.96460318797E+00 -0.28333463451E+00  0.11802668170E+01  0.00000000000E+00 0.  1.
         11    1    3    3    0    0  0.31882907081E+01  0.61241723513E+01 -0.57409276229E+01  0.89793616065E+01  0.51100000000E-03 0. -1.
        -11    1    3    3    0    0 -0.14798094069E+01 -0.28577507108E+02  0.34827625340E+02  0.45075794342E+02  0.51100000000E-03 0.  1.
         12    1    3    3    0    0 -0.10901836916E+01  0.21488731569E+02 -0.28803363083E+02  0.35952577235E+02  0.00000000000E+00 0. -1.
</event>
<event>
 7    1  0.2895479E-015  0.9000775E+02  0.7816164E-02  0.1186339E+00
        -11   -1    0    0    0    0  0.00000000000E+00  0.00000000000E+00  0.45593999997E+02  0.45594000000E+02  0.51100000000E-03 0.  1.
         11   -1    0    0    0    0 -0.00000000000E+00 -0.00000000000E+00 -0.45593999997E+02  0.45594000000E+02  0.51100000000E-03 0. -1.
    9900012    2    1    2    0    0 -0.72706873009E+00 -0.24995765332E-01 -0.92937290828E+00  0.90007750988E+02  0.90000012502E+02 0.  0.
        -12    1    1    2    0    0  0.72706873009E+00  0.24995765332E-01  0.92937290828E+00  0.11802490115E+01  0.00000000000E+00 0.  1.
         11    1    3    3    0    0 -0.12866118869E+02 -0.50165810331E+01 -0.31616269088E+02  0.34500602477E+02  0.51100000000E-03 0. -1.
        -11    1    3    3    0    0 -0.51799676329E+01  0.66607921638E+00 -0.98860821017E+01  0.11180802555E+02  0.51100000000E-03 0.  1.
        -12    1    3    3    0    0  0.17319017772E+02  0.43255060514E+01  0.40572978281E+02  0.44326345956E+02  0.00000000000E+00 0.  1.
</event>
<event>
 7    1  0.2895479E-015  0.9000770E+02  0.7816164E-02  0.1186339E+00
        -11   -1    0    0    0    0  0.00000000000E+00  0.00000000000E+00  0.45593999997E+02  0.45594000000E+02  0.51100000000E-03 0.  1.
         11   -1    0    0    0    0 -0.00000000000E+00 -0.00000000000E+00 -0.45593999997E+02  0.45594000000E+02  0.51100000000E-03 0. -1.
    9900012    2    1    2    0    0  0.28252400173E+00 -0.12660151960E+00 -0.11389708518E+01  0.90007702428E+02  0.89999963300E+02 0.  0.
        -12    1    1    2    0    0 -0.28252400173E+00  0.12660151960E+00  0.11389708518E+01  0.11802975716E+01  0.00000000000E+00 0.  1.
         11    1    3    3    0    0 -0.17073587531E+00  0.27957255258E+02 -0.87727583193E+01  0.29301852520E+02  0.51100000000E-03 0. -1.
        -11    1    3    3    0    0  0.11077754398E+02  0.11797235311E+02 -0.59707425286E+01  0.17249381731E+02  0.51100000000E-03 0.  1.
         12    1    3    3    0    0 -0.10624494521E+02 -0.39881092089E+02  0.13604529996E+02  0.43456468177E+02  0.00000000000E+00 0. -1.
</event>
<event>
 7    1  0.2895479E-015  0.9000776E+02  0.7816164E-02  0.1186339E+00
        -11   -1    0    0    0    0  0.00000000000E+00  0.00000000000E+00  0.45593999997E+02  0.45594000000E+02  0.51100000000E-03 0. -1.
         11   -1    0    0    0    0 -0.00000000000E+00 -0.00000000000E+00 -0.45593999997E+02  0.45594000000E+02  0.51100000000E-03 0.  1.
    9900012    2    1    2    0    0  0.89802727535E+00 -0.73591314735E+00  0.21202114595E+00  0.90007756756E+02  0.90000018346E+02 0.  0.
        -12    1    1    2    0    0 -0.89802727535E+00  0.73591314735E+00 -0.21202114595E+00  0.11802432436E+01  0.00000000000E+00 0.  1.
         11    1    3    3    0    0  0.57761716356E+01  0.44660194839E+01  0.10645608548E+02  0.12908852405E+02  0.51100000000E-03 0. -1.
        -11    1    3    3    0    0 -0.96353156473E+01  0.33426672864E+02 -0.15053947848E+02  0.37905185826E+02  0.51100000000E-03 0.  1.
         12    1    3    3    0    0  0.47571712870E+01 -0.38628605496E+02  0.46203604456E+01  0.39193718525E+02  0.00000000000E+00 0. -1.
</event>
<event>
 7    1  0.2895479E-015  0.9000759E+02  0.7816164E-02  0.1186339E+00
        -11   -1    0    0    0    0  0.00000000000E+00  0.00000000000E+00  0.45593999997E+02  0.45594000000E+02  0.51100000000E-03 0.  1.
         11   -1    0    0    0    0 -0.00000000000E+00 -0.00000000000E+00 -0.45593999997E+02  0.45594000000E+02  0.51100000000E-03 0. -1.
    9900012    2    1    2    0    0 -0.10157310066E+01  0.56918906127E+00  0.19413395774E+00  0.90007587505E+02  0.89999846860E+02 0.  0.
        -12    1    1    2    0    0  0.10157310066E+01 -0.56918906127E+00 -0.19413395774E+00  0.11804124952E+01  0.00000000000E+00 0.  1.
         11    1    3    3    0    0  0.31277518268E+02  0.21457030167E+02 -0.91693913377E+01  0.39022622033E+02  0.51100000000E-03 0. -1.
        -11    1    3    3    0    0  0.13613386826E+00  0.72074431622E+01  0.15090684617E+01  0.73649886117E+01  0.51100000000E-03 0.  1.
        -12    1    3    3    0    0 -0.32429383143E+02 -0.28095284268E+02  0.78544568338E+01  0.43619976860E+02  0.00000000000E+00 0.  1.
</event>
<event>
 7    1  0.2895479E-015  0.9000771E+02  0.7816164E-02  0.1186339E+00
        -11   -1    0    0    0    0  0.00000000000E+00  0.00000000000E+00  0.45593999997E+02  0.45594000000E+02  0.51100000000E-03 0.  1.
         11   -1    0    0    0    0 -0.00000000000E+00 -0.00000000000E+00 -0.45593999997E+02  0.45594000000E+02  0.51100000000E-03 0. -1.
    9900012    2    1    2    0    0 -0.11328625235E+01 -0.15323495348E+00  0.29365681619E+00  0.90007706488E+02  0.89999967414E+02 0.  0.
        -12    1    1    2    0    0  0.11328625235E+01  0.15323495348E+00 -0.29365681619E+00  0.11802935117E+01  0.00000000000E+00 0.  1.
         11    1    3    3    0    0  0.18837116801E+02  0.12834815722E+02 -0.27820522139E+02  0.35965968864E+02  0.51100000000E-03 0. -1.
        -11    1    3    3    0    0  0.71739737912E+01  0.60786951109E+01 -0.15636089557E+01  0.95321197766E+01  0.51100000000E-03 0.  1.
        -12    1    3    3    0    0 -0.27143953116E+02 -0.19066745787E+02  0.29677787911E+02  0.44509617847E+02  0.00000000000E+00 0.  1.
</event>
<event>
 7    1  0.2895479E-015  0.9000748E+02  0.7816164E-02  0.1186340E+00
        -11   -1    0    0    0    0  0.00000000000E+00  0.00000000000E+00  0.45593999997E+02  0.45594000000E+02  0.51100000000E-03 0.  1.
         11   -1    0    0    0    0 -0.00000000000E+00 -0.00000000000E+00 -0.45593999997E+02  0.45594000000E+02  0.51100000000E-03 0. -1.
    9900012    2    1    2    0    0 -0.10478180819E+01 -0.34774474228E+00 -0.41807372708E+00  0.90007476904E+02  0.89999734799E+02 0.  0.
        -12    1    1    2    0    0  0.10478180819E+01  0.34774474228E+00  0.41807372708E+00  0.11805230959E+01  0.00000000000E+00 0.  1.
         11    1    3    3    0    0 -0.24023244647E+01 -0.18809879486E+02 -0.37625124510E+02  0.42133510698E+02  0.51100000000E-03 0. -1.
        -11    1    3    3    0    0  0.78547742559E+01  0.55468519363E+01  0.20112383643E+01  0.98239566893E+01  0.51100000000E-03 0.  1.
        -12    1    3    3    0    0 -0.65002678731E+01  0.12915282807E+02  0.35195812419E+02  0.38050009517E+02  0.00000000000E+00 0.  1.
</event>
<event>
 7    1  0.2895479E-015  0.9000773E+02  0.7816164E-02  0.1186339E+00
        -11   -1    0    0    0    0  0.00000000000E+00  0.00000000000E+00  0.45593999997E+02  0.45594000000E+02  0.51100000000E-03 0. -1.
         11   -1    0    0    0    0 -0.00000000000E+00 -0.00000000000E+00 -0.45593999997E+02  0.45594000000E+02  0.51100000000E-03 0.  1.
    9900012    2    1    2    0    0  0.28506410342E+00  0.70331960772E+00  0.90394164095E+00  0.90007732868E+02  0.89999994141E+02 0.  0.
        -12    1    1    2    0    0 -0.28506410342E+00 -0.70331960772E+00 -0.90394164095E+00  0.11802671324E+01  0.00000000000E+00 0.  1.
         11    1    3    3    0    0 -0.11071188699E+02 -0.11189732025E+02  0.32733281067E+02  0.36321467642E+02  0.51100000000E-03 0. -1.
        -11    1    3    3    0    0  0.27245561516E+01  0.89471222654E+00  0.95697080280E+01  0.99901465552E+01  0.51100000000E-03 0.  1.
        -12    1    3    3    0    0  0.86316966510E+01  0.10998339406E+02 -0.41399047454E+02  0.43696118670E+02  0.00000000000E+00 0.  1.
</event>
<event>
 7    1  0.2895479E-015  0.9000779E+02  0.7816164E-02  0.1186339E+00
        -11   -1    0    0    0    0  0.00000000000E+00  0.00000000000E+00  0.45593999997E+02  0.45594000000E+02  0.51100000000E-03 0. -1.
         11   -1    0    0    0    0 -0.00000000000E+00 -0.00000000000E+00 -0.45593999997E+02  0.45594000000E+02  0.51100000000E-03 0.  1.
    9900012    2    1    2    0    0  0.62803212778E+00  0.48846757694E+00  0.87170262155E+00  0.90007792227E+02  0.90000054284E+02 0.  0.
        -12    1    1    2    0    0 -0.62803212778E+00 -0.48846757694E+00 -0.87170262155E+00  0.11802077731E+01  0.00000000000E+00 0.  1.
         11    1    3    3    0    0  0.78342066981E+01  0.19795738123E+01 -0.70106730484E+01  0.10697805566E+02  0.51100000000E-03 0. -1.
        -11    1    3    3    0    0  0.28610032460E+02  0.21258379788E+02  0.93667757241E+01  0.36853617954E+02  0.51100000000E-03 0.  1.
         12    1    3    3    0    0 -0.35816207030E+02 -0.22749486023E+02 -0.14844000542E+01  0.42456368708E+02  0.00000000000E+00 0. -1.
</event>
<event>
 7    1  0.2895479E-015  0.9000779E+02  0.7816164E-02  0.1186339E+00
        -11   -1    0    0    0    0  0.00000000000E+00  0.00000000000E+00  0.45593999997E+02  0.45594000000E+02  0.51100000000E-03 0.  1.
         11   -1    0    0    0    0 -0.00000000000E+00 -0.00000000000E+00 -0.45593999997E+02  0.45594000000E+02  0.51100000000E-03 0. -1.
    9900012    2    1    2    0    0 -0.67944966588E+00  0.29826624825E-01 -0.96454592520E+00  0.90007792256E+02  0.90000054314E+02 0.  0.
        -12    1    1    2    0    0  0.67944966588E+00 -0.29826624825E-01  0.96454592520E+00  0.11802077435E+01  0.00000000000E+00 0.  1.
         11    1    3    3    0    0 -0.45146827048E+01  0.25519237670E+01  0.67583441809E+01  0.85187963449E+01  0.51100000000E-03 0. -1.
        -11    1    3    3    0    0 -0.75065372591E+01 -0.29023626669E+02  0.24163171249E+02  0.38504257579E+02  0.51100000000E-03 0.  1.
         12    1    3    3    0    0  0.11341770298E+02  0.26501529527E+02 -0.31886061355E+02  0.42984738332E+02  0.00000000000E+00 0. -1.
</event>
<event>
 7    1  0.2895479E-015  0.9000766E+02  0.7816164E-02  0.1186339E+00
        -11   -1    0    0    0    0  0.00000000000E+00  0.00000000000E+00  0.45593999997E+02  0.45594000000E+02  0.51100000000E-03 0.  1.
         11   -1    0    0    0    0 -0.00000000000E+00 -0.00000000000E+00 -0.45593999997E+02  0.45594000000E+02  0.51100000000E-03 0. -1.
    9900012    2    1    2    0    0  0.79758439562E+00  0.76474216968E+00  0.41501053659E+00  0.90007658863E+02  0.89999919160E+02 0.  0.
        -12    1    1    2    0    0 -0.79758439562E+00 -0.76474216968E+00 -0.41501053659E+00  0.11803411370E+01  0.00000000000E+00 0.  1.
         11    1    3    3    0    0  0.47457947935E+01  0.27015687953E+01  0.27510004056E+02  0.28046771037E+02  0.51100000000E-03 0. -1.
        -11    1    3    3    0    0 -0.23824623386E+02  0.15238871176E+02 -0.77100450806E+01  0.29313489550E+02  0.51100000000E-03 0.  1.
         12    1    3    3    0    0  0.19876412988E+02 -0.17175697802E+02 -0.19384948439E+02  0.32647398276E+02  0.00000000000E+00 0. -1.
</event>
<event>
 7    1  0.2895479E-015  0.9000794E+02  0.7816164E-02  0.1186339E+00
        -11   -1    0    0    0    0  0.00000000000E+00  0.00000000000E+00  0.45593999997E+02  0.45594000000E+02  0.51100000000E-03 0.  1.
         11   -1    0    0    0    0 -0.00000000000E+00 -0.00000000000E+00 -0.45593999997E+02  0.45594000000E+02  0.51100000000E-03 0. -1.
    9900012    2    1    2    0    0  0.62385856742E+00 -0.12086758151E+00  0.99435626692E+00  0.90007935226E+02  0.90000199171E+02 0.  0.
        -12    1    1    2    0    0 -0.62385856742E+00  0.12086758151E+00 -0.99435626692E+00  0.11800647736E+01  0.00000000000E+00 0.  1.
         11    1    3    3    0    0 -0.29340554101E+02 -0.15872476010E+02 -0.12930652351E+02  0.35777162829E+02  0.51100000000E-03 0. -1.
        -11    1    3    3    0    0 -0.39879833707E+01 -0.66726506405E+01  0.10955667262E+02  0.13433351159E+02  0.51100000000E-03 0.  1.
        -12    1    3    3    0    0  0.33952396040E+02  0.22424259069E+02  0.29693413555E+01  0.40797421238E+02  0.00000000000E+00 0.  1.
</event>
<event>
 7    1  0.2895479E-015  0.9000756E+02  0.7816164E-02  0.1186339E+00
        -11   -1    0    0    0    0  0.00000000000E+00  0.00000000000E+00  0.45593999997E+02  0.45594000000E+02  0.51100000000E-03 0.  1.
         11   -1    0    0    0    0 -0.00000000000E+00 -0.00000000000E+00 -0.45593999997E+02  0.45594000000E+02  0.51100000000E-03 0. -1.
    9900012    2    1    2    0    0  0.10530238629E+01  0.12343717555E+00 -0.51898937615E+00  0.90007556878E+02  0.89999815828E+02 0.  0.
        -12    1    1    2    0    0 -0.10530238629E+01 -0.12343717555E+00  0.51898937615E+00  0.11804431222E+01  0.00000000000E+00 0.  1.
         11    1    3    3    0    0  0.11646399095E+02 -0.97464356464E+01 -0.38178959115E+02  0.41088496433E+02  0.51100000000E-03 0. -1.
        -11    1    3    3    0    0 -0.69437788633E+01  0.65391512291E+01 -0.13183336006E+01  0.96288403997E+01  0.51100000000E-03 0.  1.
        -12    1    3    3    0    0 -0.36495963689E+01  0.33307215929E+01  0.38978303340E+02  0.39290220046E+02  0.00000000000E+00 0.  1.
</event>
<event>
 7    1  0.2895479E-015  0.9000773E+02  0.7816164E-02  0.1186339E+00
        -11   -1    0    0    0    0  0.00000000000E+00  0.00000000000E+00  0.45593999997E+02  0.45594000000E+02  0.51100000000E-03 0.  1.
         11   -1    0    0    0    0 -0.00000000000E+00 -0.00000000000E+00 -0.45593999997E+02  0.45594000000E+02  0.51100000000E-03 0. -1.
    9900012    2    1    2    0    0 -0.46108165550E+00 -0.10706647305E+01 -0.18471491311E+00  0.90007729329E+02  0.89999990556E+02 0.  0.
        -12    1    1    2    0    0  0.46108165550E+00  0.10706647305E+01  0.18471491311E+00  0.11802706712E+01  0.00000000000E+00 0.  1.
         11    1    3    3    0    0  0.52379136063E+01 -0.90395609132E+01 -0.21610484392E+00  0.10449693872E+02  0.51100000000E-03 0. -1.
        -11    1    3    3    0    0 -0.34630275100E+02 -0.18704953338E+02 -0.57763504771E+01  0.39780616612E+02  0.51100000000E-03 0.  1.
         12    1    3    3    0    0  0.28931279839E+02  0.26673849521E+02  0.58077404080E+01  0.39777418845E+02  0.00000000000E+00 0. -1.
</event>
<event>
 7    1  0.2895479E-015  0.9000773E+02  0.7816164E-02  0.1186339E+00
        -11   -1    0    0    0    0  0.00000000000E+00  0.00000000000E+00  0.45593999997E+02  0.45594000000E+02  0.51100000000E-03 0. -1.
         11   -1    0    0    0    0 -0.00000000000E+00 -0.00000000000E+00 -0.45593999997E+02  0.45594000000E+02  0.51100000000E-03 0.  1.
    9900012    2    1    2    0    0 -0.71964100244E+00 -0.92252230851E+00 -0.15529388277E+00  0.90007725976E+02  0.89999987159E+02 0.  0.
        -12    1    1    2    0    0  0.71964100244E+00  0.92252230851E+00  0.15529388277E+00  0.11802740242E+01  0.00000000000E+00 0.  1.
         11    1    3    3    0    0 -0.44969663750E+01  0.80637633809E+01  0.32871237028E+02  0.34143304035E+02  0.51100000000E-03 0. -1.
        -11    1    3    3    0    0  0.70834112905E+01  0.41456655122E+01  0.87209070467E+01  0.11975620152E+02  0.51100000000E-03 0.  1.
         12    1    3    3    0    0 -0.33060859179E+01 -0.13131951202E+02 -0.41747437957E+02  0.43888801789E+02  0.00000000000E+00 0. -1.
</event>
<event>
 7    1  0.2895479E-015  0.9000779E+02  0.7816164E-02  0.1186339E+00
        -11   -1    0    0    0    0  0.00000000000E+00  0.00000000000E+00  0.45593999997E+02  0.45594000000E+02  0.51100000000E-03 0. -1.
         11   -1    0    0    0    0 -0.00000000000E+00 -0.00000000000E+00 -0.45593999997E+02  0.45594000000E+02  0.51100000000E-03 0.  1.
    9900012    2    1    2    0    0 -0.23166700079E-01 -0.15472241143E+00  0.11697982012E+01  0.90007786650E+02  0.90000048634E+02 0.  0.
        -12    1    1    2    0    0  0.23166700079E-01  0.15472241143E+00 -0.11697982012E+01  0.11802133503E+01  0.00000000000E+00 0.  1.
         11    1    3    3    0    0  0.64484750309E+01 -0.83795981615E+01  0.32852933785E+01  0.11072201607E+02  0.51100000000E-03 0. -1.
        -11    1    3    3    0    0  0.35355825030E+02 -0.21419091948E+01 -0.48738326012E+01  0.35754389703E+02  0.51100000000E-03 0.  1.
         12    1    3    3    0    0 -0.41827466761E+02  0.10366784945E+02  0.27583374239E+01  0.43181195341E+02  0.00000000000E+00 0. -1.
</event>
<event>
 7    1  0.2895479E-015  0.9000778E+02  0.7816164E-02  0.1186339E+00
        -11   -1    0    0    0    0  0.00000000000E+00  0.00000000000E+00  0.45593999997E+02  0.45594000000E+02  0.51100000000E-03 0.  1.
         11   -1    0    0    0    0 -0.00000000000E+00 -0.00000000000E+00 -0.45593999997E+02  0.45594000000E+02  0.51100000000E-03 0. -1.
    9900012    2    1    2    0    0  0.93119940257E+00  0.24827429571E+00 -0.68127902655E+00  0.90007782408E+02  0.90000044335E+02 0.  0.
        -12    1    1    2    0    0 -0.93119940257E+00 -0.24827429571E+00  0.68127902655E+00  0.11802175923E+01  0.00000000000E+00 0.  1.
         11    1    3    3    0    0 -0.24172978563E+02  0.26612732410E+02 -0.18325358635E+01  0.35999008415E+02  0.51100000000E-03 0. -1.
        -11    1    3    3    0    0 -0.92840759083E+01  0.14136020046E+01  0.27132051280E+01  0.97751633452E+01  0.51100000000E-03 0.  1.
        -12    1    3    3    0    0  0.34388253874E+02 -0.27778060119E+02 -0.15619482910E+01  0.44233610647E+02  0.00000000000E+00 0.  1.
</event>
<event>
 7    1  0.3668247E-015  0.9000766E+02  0.7816164E-02  0.1186339E+00
        -11   -1    0    0    0    0  0.00000000000E+00  0.00000000000E+00  0.45593999997E+02  0.45594000000E+02  0.51100000000E-03 0. -1.
         11   -1    0    0    0    0 -0.00000000000E+00 -0.00000000000E+00 -0.45593999997E+02  0.45594000000E+02  0.51100000000E-03 0.  1.
    9900012    2    1    2    0    0  0.28159636070E+00  0.24024351719E+00  0.11207964799E+01  0.90007661825E+02  0.89999922161E+02 0.  0.
        -12    1    1    2    0    0 -0.28159636070E+00 -0.24024351719E+00 -0.11207964799E+01  0.11803381750E+01  0.00000000000E+00 0.  1.
         11    1    3    3    0    0 -0.84659506588E+00  0.48898145332E+01 -0.87551918365E+01  0.10063816062E+02  0.51100000000E-03 0. -1.
        -11    1    3    3    0    0  0.29531651537E+02  0.51928624748E+01 -0.21188919319E+02  0.36715862585E+02  0.51100000000E-03 0.  1.
         12    1    3    3    0    0 -0.28403460110E+02 -0.98424334908E+01  0.31064907635E+02  0.43227983178E+02  0.00000000000E+00 0. -1.
</event>
<event>
 7    1  0.2895479E-015  0.9000734E+02  0.7816164E-02  0.1186340E+00
        -11   -1    0    0    0    0  0.00000000000E+00  0.00000000000E+00  0.45593999997E+02  0.45594000000E+02  0.51100000000E-03 0. -1.
         11   -1    0    0    0    0 -0.00000000000E+00 -0.00000000000E+00 -0.45593999997E+02  0.45594000000E+02  0.51100000000E-03 0.  1.
    9900012    2    1    2    0    0 -0.10885668853E+01  0.41698674097E+00 -0.18737841115E+00  0.90007336426E+02  0.89999592466E+02 0.  0.
        -12    1    1    2    0    0  0.10885668853E+01 -0.41698674097E+00  0.18737841115E+00  0.11806635740E+01  0.00000000000E+00 0.  1.
         11    1    3    3    0    0  0.22270835952E+01 -0.15014882417E+02  0.30865937942E+02  0.34396405635E+02  0.51100000000E-03 0. -1.
        -11    1    3    3    0    0  0.12132613454E+01  0.42571756907E+01  0.11003109887E+02  0.11860184459E+02  0.51100000000E-03 0.  1.
        -12    1    3    3    0    0 -0.45289118259E+01  0.11174693467E+02 -0.42056426240E+02  0.43750746331E+02  0.00000000000E+00 0.  1.
</event>
<event>
 7    1  0.2895479E-015  0.9000775E+02  0.7816164E-02  0.1186339E+00
        -11   -1    0    0    0    0  0.00000000000E+00  0.00000000000E+00  0.45593999997E+02  0.45594000000E+02  0.51100000000E-03 0. -1.
         11   -1    0    0    0    0 -0.00000000000E+00 -0.00000000000E+00 -0.45593999997E+02  0.45594000000E+02  0.51100000000E-03 0.  1.
    9900012    2    1    2    0    0  0.99407030740E+00 -0.61429423822E+00 -0.16569782282E+00  0.90007750469E+02  0.90000011975E+02 0.  0.
        -12    1    1    2    0    0 -0.99407030740E+00  0.61429423822E+00  0.16569782282E+00  0.11802495311E+01  0.00000000000E+00 0.  1.
         11    1    3    3    0    0 -0.22989807439E+02 -0.33402796169E+02 -0.34633642003E+01  0.40697333203E+02  0.51100000000E-03 0. -1.
        -11    1    3    3    0    0  0.98756015131E+01 -0.30473508361E+01  0.31243833753E+01  0.10797019223E+02  0.51100000000E-03 0.  1.
        -12    1    3    3    0    0  0.14108276233E+02  0.35835852767E+02  0.17328300213E+00  0.38513398043E+02  0.00000000000E+00 0.  1.
</event>
<event>
 7    1  0.2895479E-015  0.9000775E+02  0.7816164E-02  0.1186339E+00
        -11   -1    0    0    0    0  0.00000000000E+00  0.00000000000E+00  0.45593999997E+02  0.45594000000E+02  0.51100000000E-03 0. -1.
         11   -1    0    0    0    0 -0.00000000000E+00 -0.00000000000E+00 -0.45593999997E+02  0.45594000000E+02  0.51100000000E-03 0.  1.
    9900012    2    1    2    0    0 -0.11583790528E+01  0.22103532276E+00  0.47919332717E-01  0.90007747948E+02  0.90000009421E+02 0.  0.
        -12    1    1    2    0    0  0.11583790528E+01 -0.22103532276E+00 -0.47919332717E-01  0.11802520521E+01  0.00000000000E+00 0.  1.
         11    1    3    3    0    0 -0.60877467810E+01 -0.35462228175E+01 -0.60900716330E+01  0.93126435504E+01  0.51100000000E-03 0. -1.
        -11    1    3    3    0    0  0.69152704591E+01 -0.38009503419E+02  0.25482541465E+01  0.38717398094E+02  0.51100000000E-03 0.  1.
         12    1    3    3    0    0 -0.19859027309E+01  0.41776761560E+02  0.35897368192E+01  0.41977706303E+02  0.00000000000E+00 0. -1.
</event>
<event>
 7    1  0.2895479E-015  0.9000783E+02  0.7816164E-02  0.1186339E+00
        -11   -1    0    0    0    0  0.00000000000E+00  0.00000000000E+00  0.45593999997E+02  0.45594000000E+02  0.51100000000E-03 0.  1.
         11   -1    0    0    0    0 -0.00000000000E+00 -0.00000000000E+00 -0.45593999997E+02  0.45594000000E+02  0.51100000000E-03 0. -1.
    9900012    2    1    2    0    0  0.39007215247E+00  0.10857803528E+01  0.24845374328E+00  0.90007828605E+02  0.90000091143E+02 0.  0.
        -12    1    1    2    0    0 -0.39007215247E+00 -0.10857803528E+01 -0.24845374328E+00  0.11801713949E+01  0.00000000000E+00 0.  1.
         11    1    3    3    0    0  0.27836386417E+02 -0.19383201066E+02 -0.20759443442E+02  0.39768421953E+02  0.51100000000E-03 0. -1.
        -11    1    3    3    0    0 -0.43084837527E+01  0.92074247559E+00 -0.74647642950E+01  0.86679585368E+01  0.51100000000E-03 0.  1.
        -12    1    3    3    0    0 -0.23137830512E+02  0.19548238944E+02  0.28472661481E+02  0.41571448115E+02  0.00000000000E+00 0.  1.
</event>
<event>
 7    1  0.2895479E-015  0.9000777E+02  0.7816164E-02  0.1186339E+00
        -11   -1    0    0    0    0  0.00000000000E+00  0.00000000000E+00  0.45593999997E+02  0.45594000000E+02  0.51100000000E-03 0. -1.
         11   -1    0    0    0    0 -0.00000000000E+00 -0.00000000000E+00 -0.45593999997E+02  0.45594000000E+02  0.51100000000E-03 0.  1.
    9900012    2    1    2    0    0 -0.34396372412E+00  0.11242036925E+01  0.10390472636E+00  0.90007770710E+02  0.90000032483E+02 0.  0.
        -12    1    1    2    0    0  0.34396372412E+00 -0.11242036925E+01 -0.10390472636E+00  0.11802292904E+01  0.00000000000E+00 0.  1.
         11    1    3    3    0    0 -0.94141599698E+01  0.36071423406E+01 -0.93998775111E+00  0.10125288195E+02  0.51100000000E-03 0. -1.
        -11    1    3    3    0    0 -0.19779283633E+02  0.30273638097E+02  0.20616584291E+01  0.36221038919E+02  0.51100000000E-03 0.  1.
         12    1    3    3    0    0  0.28849479879E+02 -0.32756576745E+02 -0.10177659516E+01  0.43661443595E+02  0.00000000000E+00 0. -1.
</event>
<event>
 7    1  0.2895479E-015  0.9000770E+02  0.7816164E-02  0.1186339E+00
        -11   -1    0    0    0    0  0.00000000000E+00  0.00000000000E+00  0.45593999997E+02  0.45594000000E+02  0.51100000000E-03 0. -1.
         11   -1    0    0    0    0 -0.00000000000E+00 -0.00000000000E+00 -0.45593999997E+02  0.45594000000E+02  0.51100000000E-03 0.  1.
    9900012    2    1    2    0    0 -0.10430088399E+01  0.40585310281E+00 -0.37486989396E+00  0.90007698505E+02  0.89999959326E+02 0.  0.
        -12    1    1    2    0    0  0.10430088399E+01 -0.40585310281E+00  0.37486989396E+00  0.11803014948E+01  0.00000000000E+00 0.  1.
         11    1    3    3    0    0  0.32839962150E+01 -0.40576192383E+00 -0.91393996407E+01  0.97199742763E+01  0.51100000000E-03 0. -1.
        -11    1    3    3    0    0  0.78206452817E+01  0.38849749851E+02  0.12031768018E+01  0.39647360452E+02  0.51100000000E-03 0.  1.
         12    1    3    3    0    0 -0.12147650337E+02 -0.38038134824E+02  0.75613529449E+01  0.40640363777E+02  0.00000000000E+00 0. -1.
</event>
<event>
 7    1  0.2895479E-015  0.9000773E+02  0.7816164E-02  0.1186339E+00
        -11   -1    0    0    0    0  0.00000000000E+00  0.00000000000E+00  0.45593999997E+02  0.45594000000E+02  0.51100000000E-03 0.  1.
         11   -1    0    0    0    0 -0.00000000000E+00 -0.00000000000E+00 -0.45593999997E+02  0.45594000000E+02  0.51100000000E-03 0. -1.
    9900012    2    1    2    0    0  0.10855863381E+01 -0.43035502552E+00  0.17126780111E+00  0.90007730622E+02  0.89999991866E+02 0.  0.
        -12    1    1    2    0    0 -0.10855863381E+01  0.43035502552E+00 -0.17126780111E+00  0.11802693782E+01  0.00000000000E+00 0.  1.
         11    1    3    3    0    0 -0.39950039440E+01  0.22936179261E+02 -0.33142005677E+02  0.40502110021E+02  0.51100000000E-03 0. -1.
        -11    1    3    3    0    0 -0.96598805923E+01 -0.10259558373E+01  0.70131969222E+01  0.11981269122E+02  0.51100000000E-03 0.  1.
        -12    1    3    3    0    0  0.14740470874E+02 -0.22340578450E+02  0.26300076556E+02  0.37524351479E+02  0.00000000000E+00 0.  1.
</event>
<event>
 7    1  0.2895479E-015  0.9000776E+02  0.7816164E-02  0.1186339E+00
        -11   -1    0    0    0    0  0.00000000000E+00  0.00000000000E+00  0.45593999997E+02  0.45594000000E+02  0.51100000000E-03 0.  1.
         11   -1    0    0    0    0 -0.00000000000E+00 -0.00000000000E+00 -0.45593999997E+02  0.45594000000E+02  0.51100000000E-03 0. -1.
    9900012    2    1    2    0    0  0.99844725327E+00 -0.21092727856E+00 -0.59293517256E+00  0.90007763010E+02  0.90000024681E+02 0.  0.
        -12    1    1    2    0    0 -0.99844725327E+00  0.21092727856E+00  0.59293517256E+00  0.11802369903E+01  0.00000000000E+00 0.  1.
         11    1    3    3    0    0 -0.12259476812E+02  0.50505527507E+01 -0.35355523394E+02  0.37759977350E+02  0.51100000000E-03 0. -1.
        -11    1    3    3    0    0  0.82873744395E+01 -0.44257357766E+01 -0.60177745339E+01  0.11157119828E+02  0.51100000000E-03 0.  1.
        -12    1    3    3    0    0  0.49705496254E+01 -0.83574425269E+00  0.40780362755E+02  0.41090665831E+02  0.00000000000E+00 0.  1.
</event>
<event>
 7    1  0.2895479E-015  0.9000766E+02  0.7816164E-02  0.1186339E+00
        -11   -1    0    0    0    0  0.00000000000E+00  0.00000000000E+00  0.45593999997E+02  0.45594000000E+02  0.51100000000E-03 0. -1.
         11   -1    0    0    0    0 -0.00000000000E+00 -0.00000000000E+00 -0.45593999997E+02  0.45594000000E+02  0.51100000000E-03 0.  1.
    9900012    2    1    2    0    0  0.16869192202E+00  0.11681150113E+01 -0.15715832917E-01  0.90007662493E+02  0.89999922837E+02 0.  0.
        -12    1    1    2    0    0 -0.16869192202E+00 -0.11681150113E+01  0.15715832917E-01  0.11803375074E+01  0.00000000000E+00 0.  1.
         11    1    3    3    0    0 -0.45394992866E+01  0.69338991560E+01 -0.42991681568E+01  0.93364264245E+01  0.51100000000E-03 0. -1.
        -11    1    3    3    0    0 -0.32810495334E+02  0.49092472856E+01 -0.15857304384E+02  0.36770686906E+02  0.51100000000E-03 0.  1.
         12    1    3    3    0    0  0.37518686543E+02 -0.10675031430E+02  0.20140756708E+02  0.43900549162E+02  0.00000000000E+00 0. -1.
</event>
<event>
 7    1  0.2895479E-015  0.9000787E+02  0.7816164E-02  0.1186339E+00
        -11   -1    0    0    0    0  0.00000000000E+00  0.00000000000E+00  0.45593999997E+02  0.45594000000E+02  0.51100000000E-03 0.  1.
         11   -1    0    0    0    0 -0.00000000000E+00 -0.00000000000E+00 -0.45593999997E+02  0.45594000000E+02  0.51100000000E-03 0. -1.
    9900012    2    1    2    0    0 -0.61880380413E+00  0.21450651258E+00 -0.98172288895E+00  0.90007868218E+02  0.90000131278E+02 0.  0.
        -12    1    1    2    0    0  0.61880380413E+00 -0.21450651258E+00  0.98172288895E+00  0.11801317819E+01  0.00000000000E+00 0.  1.
         11    1    3    3    0    0  0.53881865600E+00  0.72183951938E+01  0.10284507794E+02  0.12576432544E+02  0.51100000000E-03 0. -1.
        -11    1    3    3    0    0 -0.31202246739E+02  0.68119773060E+01  0.14919599957E+02  0.35250215595E+02  0.51100000000E-03 0.  1.
         12    1    3    3    0    0  0.30044624279E+02 -0.13815865987E+02 -0.26185830639E+02  0.42181220079E+02  0.00000000000E+00 0. -1.
</event>
<event>
 7    1  0.2895479E-015  0.9000776E+02  0.7816164E-02  0.1186339E+00
        -11   -1    0    0    0    0  0.00000000000E+00  0.00000000000E+00  0.45593999997E+02  0.45594000000E+02  0.51100000000E-03 0. -1.
         11   -1    0    0    0    0 -0.00000000000E+00 -0.00000000000E+00 -0.45593999997E+02  0.45594000000E+02  0.51100000000E-03 0.  1.
    9900012    2    1    2    0    0  0.42534318815E+00  0.69406512858E+00  0.85458683715E+00  0.90007761934E+02  0.90000023591E+02 0.  0.
        -12    1    1    2    0    0 -0.42534318815E+00 -0.69406512858E+00 -0.85458683715E+00  0.11802380661E+01  0.00000000000E+00 0.  1.
         11    1    3    3    0    0 -0.32194279664E+02  0.15486673986E+02 -0.10901337404E+02  0.37351678298E+02  0.51100000000E-03 0. -1.
        -11    1    3    3    0    0 -0.13234468477E+01 -0.19543309366E+01 -0.10046834122E+02  0.10320358381E+02  0.51100000000E-03 0.  1.
        -12    1    3    3    0    0  0.33943069700E+02 -0.12838277921E+02  0.21802758363E+02  0.42335725255E+02  0.00000000000E+00 0.  1.
</event>
<event>
 7    1  0.2895479E-015  0.9000775E+02  0.7816164E-02  0.1186339E+00
        -11   -1    0    0    0    0  0.00000000000E+00  0.00000000000E+00  0.45593999997E+02  0.45594000000E+02  0.51100000000E-03 0.  1.
         11   -1    0    0    0    0 -0.00000000000E+00 -0.00000000000E+00 -0.45593999997E+02  0.45594000000E+02  0.51100000000E-03 0. -1.
    9900012    2    1    2    0    0  0.10615479066E+01  0.11674397843E+00 -0.50247603899E+00  0.90007747788E+02  0.90000009259E+02 0.  0.
        -12    1    1    2    0    0 -0.10615479066E+01 -0.11674397843E+00  0.50247603899E+00  0.11802522121E+01  0.00000000000E+00 0.  1.
         11    1    3    3    0    0  0.24816901408E+02 -0.19602410887E+02 -0.19930130396E+02  0.37381054104E+02  0.51100000000E-03 0. -1.
        -11    1    3    3    0    0  0.92678281568E+00 -0.48653174233E+01 -0.72278042706E+01  0.87619287176E+01  0.51100000000E-03 0.  1.
        -12    1    3    3    0    0 -0.24682136317E+02  0.24584472289E+02  0.26655458627E+02  0.43864764966E+02  0.00000000000E+00 0.  1.
</event>
<event>
 7    1  0.2895479E-015  0.9000766E+02  0.7816164E-02  0.1186339E+00
        -11   -1    0    0    0    0  0.00000000000E+00  0.00000000000E+00  0.45593999997E+02  0.45594000000E+02  0.51100000000E-03 0.  1.
         11   -1    0    0    0    0 -0.00000000000E+00 -0.00000000000E+00 -0.45593999997E+02  0.45594000000E+02  0.51100000000E-03 0. -1.
    9900012    2    1    2    0    0 -0.92124285800E+00 -0.72904958257E+00  0.11405290598E+00  0.90007656930E+02  0.89999917202E+02 0.  0.
        -12    1    1    2    0    0  0.92124285800E+00  0.72904958257E+00 -0.11405290598E+00  0.11803430699E+01  0.00000000000E+00 0.  1.
         11    1    3    3    0    0 -0.25201328141E+01  0.83731263689E+01 -0.28151224354E+01  0.91861433245E+01  0.51100000000E-03 0. -1.
        -11    1    3    3    0    0 -0.34120024163E+01  0.27938209953E+02  0.24801930128E+02  0.37514278271E+02  0.51100000000E-03 0.  1.
         12    1    3    3    0    0  0.50108923723E+01 -0.37040385905E+02 -0.21872754787E+02  0.43307235334E+02  0.00000000000E+00 0. -1.
</event>
<event>
 7    1  0.2895479E-015  0.9000780E+02  0.7816164E-02  0.1186339E+00
        -11   -1    0    0    0    0  0.00000000000E+00  0.00000000000E+00  0.45593999997E+02  0.45594000000E+02  0.51100000000E-03 0.  1.
         11   -1    0    0    0    0 -0.00000000000E+00 -0.00000000000E+00 -0.45593999997E+02  0.45594000000E+02  0.51100000000E-03 0. -1.
    9900012    2    1    2    0    0  0.18740261136E+00  0.10469009115E+01 -0.51161287303E+00  0.90007801293E+02  0.90000063470E+02 0.  0.
        -12    1    1    2    0    0 -0.18740261136E+00 -0.10469009115E+01  0.51161287303E+00  0.11801987075E+01  0.00000000000E+00 0.  1.
         11    1    3    3    0    0 -0.25053561436E+02  0.16444029843E+02  0.22019331536E+02  0.37187874632E+02  0.51100000000E-03 0. -1.
        -11    1    3    3    0    0 -0.90621748891E+01  0.14139311967E+01 -0.17668364893E+01  0.93404457384E+01  0.51100000000E-03 0.  1.
        -12    1    3    3    0    0  0.34303138936E+02 -0.16811060129E+02 -0.20764107920E+02  0.43479480922E+02  0.00000000000E+00 0.  1.
</event>
<event>
 7    1  0.2895479E-015  0.9000761E+02  0.7816164E-02  0.1186339E+00
        -11   -1    0    0    0    0  0.00000000000E+00  0.00000000000E+00  0.45593999997E+02  0.45594000000E+02  0.51100000000E-03 0.  1.
         11   -1    0    0    0    0 -0.00000000000E+00 -0.00000000000E+00 -0.45593999997E+02  0.45594000000E+02  0.51100000000E-03 0. -1.
    9900012    2    1    2    0    0 -0.55221299372E+00 -0.44948527965E+00 -0.94145562045E+00  0.90007612397E+02  0.89999872081E+02 0.  0.
        -12    1    1    2    0    0  0.55221299372E+00  0.44948527965E+00  0.94145562045E+00  0.11803876026E+01  0.00000000000E+00 0.  1.
         11    1    3    3    0    0  0.29447608401E+01  0.25040334513E+02 -0.31115622891E+02  0.40048370217E+02  0.51100000000E-03 0. -1.
        -11    1    3    3    0    0  0.84859731580E+01 -0.13164341826E+02  0.50595662650E+00  0.15670597580E+02  0.51100000000E-03 0.  1.
        -12    1    3    3    0    0 -0.11982946992E+02 -0.12325477966E+02  0.29668210644E+02  0.34288644600E+02  0.00000000000E+00 0.  1.
</event>
<event>
 7    1  0.2895479E-015  0.9000768E+02  0.7816164E-02  0.1186339E+00
        -11   -1    0    0    0    0  0.00000000000E+00  0.00000000000E+00  0.45593999997E+02  0.45594000000E+02  0.51100000000E-03 0. -1.
         11   -1    0    0    0    0 -0.00000000000E+00 -0.00000000000E+00 -0.45593999997E+02  0.45594000000E+02  0.51100000000E-03 0.  1.
    9900012    2    1    2    0    0  0.31501738721E+00  0.11174767134E+01  0.21250033282E+00  0.90007683707E+02  0.89999944332E+02 0.  0.
        -12    1    1    2    0    0 -0.31501738721E+00 -0.11174767134E+01 -0.21250033282E+00  0.11803162926E+01  0.00000000000E+00 0.  1.
         11    1    3    3    0    0 -0.68876549764E+01  0.10290922749E+02 -0.10748184770E+02  0.16397144819E+02  0.51100000000E-03 0. -1.
        -11    1    3    3    0    0 -0.23653761234E+02  0.51273741743E+01 -0.17004996787E+02  0.29579727896E+02  0.51100000000E-03 0.  1.
         12    1    3    3    0    0  0.30856433597E+02 -0.14300820210E+02  0.27965681890E+02  0.44030810992E+02  0.00000000000E+00 0. -1.
</event>
<event>
 7    1  0.2895479E-015  0.9000770E+02  0.7816164E-02  0.1186339E+00
        -11   -1    0    0    0    0  0.00000000000E+00  0.00000000000E+00  0.45593999997E+02  0.45594000000E+02  0.51100000000E-03 0. -1.
         11   -1    0    0    0    0 -0.00000000000E+00 -0.00000000000E+00 -0.45593999997E+02  0.45594000000E+02  0.51100000000E-03 0.  1.
    9900012    2    1    2    0    0  0.71457516492E+00 -0.80765789981E+00 -0.47977299968E+00  0.90007698733E+02  0.89999959556E+02 0.  0.
        -12    1    1    2    0    0 -0.71457516492E+00  0.80765789981E+00  0.47977299968E+00  0.11803012669E+01  0.00000000000E+00 0.  1.
         11    1    3    3    0    0  0.45250420306E+01  0.10090123453E+02 -0.10143551139E+00  0.11058792253E+02  0.51100000000E-03 0. -1.
        -11    1    3    3    0    0 -0.16780674921E+02  0.24274072680E+02 -0.20948186943E+02  0.36189061769E+02  0.51100000000E-03 0.  1.
         12    1    3    3    0    0  0.12970208056E+02 -0.35171854033E+02  0.20569849455E+02  0.42759844711E+02  0.00000000000E+00 0. -1.
</event>
<event>
 7    1  0.2895479E-015  0.9000772E+02  0.7816164E-02  0.1186339E+00
        -11   -1    0    0    0    0  0.00000000000E+00  0.00000000000E+00  0.45593999997E+02  0.45594000000E+02  0.51100000000E-03 0. -1.
         11   -1    0    0    0    0 -0.00000000000E+00 -0.00000000000E+00 -0.45593999997E+02  0.45594000000E+02  0.51100000000E-03 0.  1.
    9900012    2    1    2    0    0 -0.74313375000E+00 -0.87127351016E+00 -0.28582087805E+00  0.90007720849E+02  0.89999981964E+02 0.  0.
        -12    1    1    2    0    0  0.74313375000E+00  0.87127351016E+00  0.28582087805E+00  0.11802791510E+01  0.00000000000E+00 0.  1.
         11    1    3    3    0    0  0.65742483256E+01 -0.24897386116E+01  0.56033161486E+01  0.89898104275E+01  0.51100000000E-03 0. -1.
        -11    1    3    3    0    0  0.29117369913E+02  0.21621935982E+02 -0.13619449129E+02  0.38740401922E+02  0.51100000000E-03 0.  1.
         12    1    3    3    0    0 -0.36434751988E+02 -0.20003470881E+02  0.77303121019E+01  0.42277508499E+02  0.00000000000E+00 0. -1.
</event>
<event>
 7    1  0.2895479E-015  0.9000776E+02  0.7816164E-02  0.1186339E+00
        -11   -1    0    0    0    0  0.00000000000E+00  0.00000000000E+00  0.45593999997E+02  0.45594000000E+02  0.51100000000E-03 0.  1.
         11   -1    0    0    0    0 -0.00000000000E+00 -0.00000000000E+00 -0.45593999997E+02  0.45594000000E+02  0.51100000000E-03 0. -1.
    9900012    2    1    2    0    0 -0.83761692879E+00  0.58614503062E+00 -0.58974516258E+00  0.90007759570E+02  0.90000021196E+02 0.  0.
        -12    1    1    2    0    0  0.83761692879E+00 -0.58614503062E+00  0.58974516258E+00  0.11802404302E+01  0.00000000000E+00 0.  1.
         11    1    3    3    0    0 -0.22202887011E+02  0.35786568449E+01  0.59663084498E+01  0.23267398075E+02  0.51100000000E-03 0. -1.
        -11    1    3    3    0    0 -0.11257278121E+02 -0.18474135489E+02  0.13435191870E+02  0.25466141710E+02  0.51100000000E-03 0.  1.
         12    1    3    3    0    0  0.32622548203E+02  0.15481623675E+02 -0.19991245482E+02  0.41274219784E+02  0.00000000000E+00 0. -1.
</event>
<event>
 7    1  0.2895479E-015  0.9000778E+02  0.7816164E-02  0.1186339E+00
        -11   -1    0    0    0    0  0.00000000000E+00  0.00000000000E+00  0.45593999997E+02  0.45594000000E+02  0.51100000000E-03 0. -1.
         11   -1    0    0    0    0 -0.00000000000E+00 -0.00000000000E+00 -0.45593999997E+02  0.45594000000E+02  0.51100000000E-03 0.  1.
    9900012    2    1    2    0    0  0.34395678113E+00  0.11154099004E+01 -0.17456206834E+00  0.90007780771E+02  0.90000042677E+02 0.  0.
        -12    1    1    2    0    0 -0.34395678113E+00 -0.11154099004E+01  0.17456206834E+00  0.11802192291E+01  0.00000000000E+00 0.  1.
         11    1    3    3    0    0 -0.13764005643E+02 -0.54366946576E+01  0.29805765463E+01  0.15096004006E+02  0.51100000000E-03 0. -1.
        -11    1    3    3    0    0 -0.20390024476E+02 -0.20089450035E+02 -0.10922918275E+02  0.30637383125E+02  0.51100000000E-03 0.  1.
         12    1    3    3    0    0  0.34497986900E+02  0.26641554593E+02  0.77677796605E+01  0.44274393640E+02  0.00000000000E+00 0. -1.
</event>
<event>
 7    1  0.2895479E-015  0.9000803E+02  0.7816164E-02  0.1186338E+00
        -11   -1    0    0    0    0  0.00000000000E+00  0.00000000000E+00  0.45593999997E+02  0.45594000000E+02  0.51100000000E-03 0. -1.
         11   -1    0    0    0    0 -0.00000000000E+00 -0.00000000000E+00 -0.45593999997E+02  0.45594000000E+02  0.51100000000E-03 0.  1.
    9900012    2    1    2    0    0 -0.41360832174E+00 -0.10409798757E+01  0.37097366425E+00  0.90008028642E+02  0.90000293820E+02 0.  0.
        -12    1    1    2    0    0  0.41360832174E+00  0.10409798757E+01 -0.37097366425E+00  0.11799713577E+01  0.00000000000E+00 0.  1.
         11    1    3    3    0    0 -0.84728394561E+01 -0.23161767608E+01 -0.86393080316E+01  0.12320362282E+02  0.51100000000E-03 0. -1.
        -11    1    3    3    0    0 -0.23676752981E+02 -0.25821941281E+02  0.18473266065E+00  0.35034203425E+02  0.51100000000E-03 0.  1.
         12    1    3    3    0    0  0.31735984115E+02  0.27097138166E+02  0.88255490352E+01  0.42653462935E+02  0.00000000000E+00 0. -1.
</event>
<event>
 7    1  0.2895479E-015  0.9000684E+02  0.7816164E-02  0.1186341E+00
        -11   -1    0    0    0    0  0.00000000000E+00  0.00000000000E+00  0.45593999997E+02  0.45594000000E+02  0.51100000000E-03 0.  1.
         11   -1    0    0    0    0 -0.00000000000E+00 -0.00000000000E+00 -0.45593999997E+02  0.45594000000E+02  0.51100000000E-03 0. -1.
    9900012    2    1    2    0    0 -0.10116621797E+01  0.24048341398E+00 -0.56022078360E+00  0.90006839569E+02  0.89999089046E+02 0.  0.
        -12    1    1    2    0    0  0.10116621797E+01 -0.24048341398E+00  0.56022078360E+00  0.11811604314E+01  0.00000000000E+00 0.  1.
         11    1    3    3    0    0  0.40493084535E+01 -0.28554741385E+02 -0.27498729978E+02  0.39849094157E+02  0.51100000000E-03 0. -1.
        -11    1    3    3    0    0 -0.10056277049E+02 -0.14645756968E+01  0.14215076310E+01  0.10261304706E+02  0.51100000000E-03 0.  1.
        -12    1    3    3    0    0  0.49953064161E+01  0.30259800495E+02  0.25517001563E+02  0.39896440706E+02  0.00000000000E+00 0.  1.
</event>
<event>
 7    1  0.2895479E-015  0.9000786E+02  0.7816164E-02  0.1186339E+00
        -11   -1    0    0    0    0  0.00000000000E+00  0.00000000000E+00  0.45593999997E+02  0.45594000000E+02  0.51100000000E-03 0.  1.
         11   -1    0    0    0    0 -0.00000000000E+00 -0.00000000000E+00 -0.45593999997E+02  0.45594000000E+02  0.51100000000E-03 0. -1.
    9900012    2    1    2    0    0 -0.96204920820E+00 -0.26802005285E+00 -0.62877617793E+00  0.90007858945E+02  0.90000121883E+02 0.  0.
        -12    1    1    2    0    0  0.96204920820E+00  0.26802005285E+00  0.62877617793E+00  0.11801410550E+01  0.00000000000E+00 0.  1.
         11    1    3    3    0    0 -0.45112480979E+01  0.95948026764E+01 -0.20906024699E+02  0.23440850385E+02  0.51100000000E-03 0. -1.
        -11    1    3    3    0    0  0.11654875828E+02  0.22850298355E+02 -0.26768840350E+01  0.25790268976E+02  0.51100000000E-03 0.  1.
        -12    1    3    3    0    0 -0.81056769388E+01 -0.32713121084E+02  0.22954132556E+02  0.40776739584E+02  0.00000000000E+00 0.  1.
</event>
<event>
 7    1  0.2895479E-015  0.9000778E+02  0.7816164E-02  0.1186339E+00
        -11   -1    0    0    0    0  0.00000000000E+00  0.00000000000E+00  0.45593999997E+02  0.45594000000E+02  0.51100000000E-03 0. -1.
         11   -1    0    0    0    0 -0.00000000000E+00 -0.00000000000E+00 -0.45593999997E+02  0.45594000000E+02  0.51100000000E-03 0.  1.
    9900012    2    1    2    0    0  0.42850830506E+00  0.10432285254E+01  0.34782958515E+00  0.90007775215E+02  0.90000037047E+02 0.  0.
        -12    1    1    2    0    0 -0.42850830506E+00 -0.10432285254E+01 -0.34782958515E+00  0.11802247854E+01  0.00000000000E+00 0.  1.
         11    1    3    3    0    0  0.63450237574E+01 -0.72897783864E+01 -0.58652909477E+01  0.11304947305E+02  0.51100000000E-03 0. -1.
        -11    1    3    3    0    0 -0.37034478032E+02 -0.72354213009E+01 -0.11780060476E+02  0.39530667963E+02  0.51100000000E-03 0.  1.
         12    1    3    3    0    0  0.31117962580E+02  0.15568428213E+02  0.17993181009E+02  0.39172159947E+02  0.00000000000E+00 0. -1.
</event>
<event>
 7    1  0.2895479E-015  0.9000766E+02  0.7816164E-02  0.1186339E+00
        -11   -1    0    0    0    0  0.00000000000E+00  0.00000000000E+00  0.45593999997E+02  0.45594000000E+02  0.51100000000E-03 0.  1.
         11   -1    0    0    0    0 -0.00000000000E+00 -0.00000000000E+00 -0.45593999997E+02  0.45594000000E+02  0.51100000000E-03 0. -1.
    9900012    2    1    2    0    0  0.35043513199E-01 -0.59320672217E+00 -0.10198448354E+01  0.90007658629E+02  0.89999918923E+02 0.  0.
        -12    1    1    2    0    0 -0.35043513199E-01  0.59320672217E+00  0.10198448354E+01  0.11803413706E+01  0.00000000000E+00 0.  1.
         11    1    3    3    0    0 -0.13329216618E+02 -0.15094017203E+01 -0.36463489596E+02  0.38852701103E+02  0.51100000000E-03 0. -1.
        -11    1    3    3    0    0  0.61184703813E+01  0.78465050765E+01 -0.37997958422E+01  0.10650904676E+02  0.51100000000E-03 0.  1.
        -12    1    3    3    0    0  0.72457897498E+01 -0.69303100784E+01  0.39243440603E+02  0.40504052850E+02  0.00000000000E+00 0.  1.
</event>
<event>
 7    1  0.2895479E-015  0.9000775E+02  0.7816164E-02  0.1186339E+00
        -11   -1    0    0    0    0  0.00000000000E+00  0.00000000000E+00  0.45593999997E+02  0.45594000000E+02  0.51100000000E-03 0.  1.
         11   -1    0    0    0    0 -0.00000000000E+00 -0.00000000000E+00 -0.45593999997E+02  0.45594000000E+02  0.51100000000E-03 0. -1.
    9900012    2    1    2    0    0 -0.55049867980E+00 -0.85387456615E+00  0.60070804954E+00  0.90007745480E+02  0.90000006920E+02 0.  0.
        -12    1    1    2    0    0  0.55049867980E+00  0.85387456615E+00 -0.60070804954E+00  0.11802545200E+01  0.00000000000E+00 0.  1.
         11    1    3    3    0    0 -0.53245481874E+00  0.51037906488E+01  0.66693376997E+01  0.84150016479E+01  0.51100000000E-03 0. -1.
        -11    1    3    3    0    0  0.25416644924E+02  0.42866862945E+01  0.27869510199E+02  0.37961705936E+02  0.51100000000E-03 0.  1.
         12    1    3    3    0    0 -0.25434688785E+02 -0.10244351509E+02 -0.33938139850E+02  0.43631037896E+02  0.00000000000E+00 0. -1.
</event>
<event>
 7    1  0.2895479E-015  0.9000764E+02  0.7816164E-02  0.1186339E+00
        -11   -1    0    0    0    0  0.00000000000E+00  0.00000000000E+00  0.45593999997E+02  0.45594000000E+02  0.51100000000E-03 0. -1.
         11   -1    0    0    0    0 -0.00000000000E+00 -0.00000000000E+00 -0.45593999997E+02  0.45594000000E+02  0.51100000000E-03 0.  1.
    9900012    2    1    2    0    0  0.10819695713E+01 -0.45805378413E+00  0.11303923850E+00  0.90007640185E+02  0.89999900236E+02 0.  0.
        -12    1    1    2    0    0 -0.10819695713E+01  0.45805378413E+00 -0.11303923850E+00  0.11803598146E+01  0.00000000000E+00 0.  1.
         11    1    3    3    0    0 -0.22314087748E+00  0.29470331884E+02  0.31133650220E+02  0.42870204449E+02  0.51100000000E-03 0. -1.
        -11    1    3    3    0    0  0.43467107969E+01 -0.79978612580E+01 -0.94860115991E-01  0.91032235036E+01  0.51100000000E-03 0.  1.
        -12    1    3    3    0    0 -0.30416003481E+01 -0.21930524410E+02 -0.30925750866E+02  0.38034212233E+02  0.00000000000E+00 0.  1.
</event>
<event>
 7    1  0.2895479E-015  0.9000778E+02  0.7816164E-02  0.1186339E+00
        -11   -1    0    0    0    0  0.00000000000E+00  0.00000000000E+00  0.45593999997E+02  0.45594000000E+02  0.51100000000E-03 0. -1.
         11   -1    0    0    0    0 -0.00000000000E+00 -0.00000000000E+00 -0.45593999997E+02  0.45594000000E+02  0.51100000000E-03 0.  1.
    9900012    2    1    2    0    0  0.22854335259E+00 -0.35869905686E+00  0.11009168323E+01  0.90007781821E+02  0.90000043741E+02 0.  0.
        -12    1    1    2    0    0 -0.22854335259E+00  0.35869905686E+00 -0.11009168323E+01  0.11802181786E+01  0.00000000000E+00 0.  1.
         11    1    3    3    0    0 -0.26388006481E+01  0.93930476294E+01  0.54749054209E+01  0.11187814901E+02  0.51100000000E-03 0. -1.
        -11    1    3    3    0    0  0.25085059808E+02  0.14818056537E+02 -0.26173560054E+02  0.39164911225E+02  0.51100000000E-03 0.  1.
         12    1    3    3    0    0 -0.22217715807E+02 -0.24569803223E+02  0.21799571466E+02  0.39655055695E+02  0.00000000000E+00 0. -1.
</event>
<event>
 7    1  0.2895479E-015  0.9000782E+02  0.7816164E-02  0.1186339E+00
        -11   -1    0    0    0    0  0.00000000000E+00  0.00000000000E+00  0.45593999997E+02  0.45594000000E+02  0.51100000000E-03 0.  1.
         11   -1    0    0    0    0 -0.00000000000E+00 -0.00000000000E+00 -0.45593999997E+02  0.45594000000E+02  0.51100000000E-03 0. -1.
    9900012    2    1    2    0    0 -0.85073735881E+00  0.53805984774E+00 -0.61608145374E+00  0.90007822551E+02  0.90000085009E+02 0.  0.
        -12    1    1    2    0    0  0.85073735881E+00 -0.53805984774E+00  0.61608145374E+00  0.11801774490E+01  0.00000000000E+00 0.  1.
         11    1    3    3    0    0 -0.19869711910E+02 -0.28533929374E+02 -0.77208789553E+01  0.35617447256E+02  0.51100000000E-03 0. -1.
        -11    1    3    3    0    0 -0.41405686147E+00 -0.97184830045E+01 -0.23027971862E+01  0.99961607698E+01  0.51100000000E-03 0.  1.
        -12    1    3    3    0    0  0.19433031413E+02  0.38790472227E+02  0.94075946878E+01  0.44394214525E+02  0.00000000000E+00 0.  1.
</event>
<event>
 7    1  0.2895479E-015  0.9000707E+02  0.7816164E-02  0.1186340E+00
        -11   -1    0    0    0    0  0.00000000000E+00  0.00000000000E+00  0.45593999997E+02  0.45594000000E+02  0.51100000000E-03 0.  1.
         11   -1    0    0    0    0 -0.00000000000E+00 -0.00000000000E+00 -0.45593999997E+02  0.45594000000E+02  0.51100000000E-03 0. -1.
    9900012    2    1    2    0    0 -0.50198182285E+00  0.31502303243E+00 -0.10214513721E+01  0.90007073175E+02  0.89999325738E+02 0.  0.
        -12    1    1    2    0    0  0.50198182285E+00 -0.31502303243E+00  0.10214513721E+01  0.11809268254E+01  0.00000000000E+00 0.  1.
         11    1    3    3    0    0  0.22936241128E+01  0.80886625674E+01  0.35067874990E+01  0.91095956290E+01  0.51100000000E-03 0. -1.
        -11    1    3    3    0    0 -0.23557522136E+02  0.88281346370E+00  0.30940044691E+02  0.38897590858E+02  0.51100000000E-03 0.  1.
         12    1    3    3    0    0  0.20761916201E+02 -0.86564529987E+01 -0.35468283563E+02  0.41999886687E+02  0.00000000000E+00 0. -1.
</event>
<event>
 7    1  0.2895479E-015  0.9000762E+02  0.7816164E-02  0.1186339E+00
        -11   -1    0    0    0    0  0.00000000000E+00  0.00000000000E+00  0.45593999997E+02  0.45594000000E+02  0.51100000000E-03 0.  1.
         11   -1    0    0    0    0 -0.00000000000E+00 -0.00000000000E+00 -0.45593999997E+02  0.45594000000E+02  0.51100000000E-03 0. -1.
    9900012    2    1    2    0    0  0.10825920488E-01  0.28155829062E+00 -0.11462601551E+01  0.90007616751E+02  0.89999876492E+02 0.  0.
        -12    1    1    2    0    0 -0.10825920488E-01 -0.28155829062E+00  0.11462601551E+01  0.11803832491E+01  0.00000000000E+00 0.  1.
         11    1    3    3    0    0  0.13812361366E+02 -0.12520851922E+01 -0.33618962871E+02  0.36367343986E+02  0.51100000000E-03 0. -1.
        -11    1    3    3    0    0 -0.13711730610E+01 -0.39911309380E+01 -0.90287893580E+01  0.99663573717E+01  0.51100000000E-03 0.  1.
        -12    1    3    3    0    0 -0.12430362384E+02  0.55247744209E+01  0.41501492074E+02  0.43673915393E+02  0.00000000000E+00 0.  1.
</event>
<event>
 7    1  0.2895479E-015  0.9000769E+02  0.7816164E-02  0.1186339E+00
        -11   -1    0    0    0    0  0.00000000000E+00  0.00000000000E+00  0.45593999997E+02  0.45594000000E+02  0.51100000000E-03 0.  1.
         11   -1    0    0    0    0 -0.00000000000E+00 -0.00000000000E+00 -0.45593999997E+02  0.45594000000E+02  0.51100000000E-03 0. -1.
    9900012    2    1    2    0    0  0.67561733077E+00  0.79371475297E+00 -0.55380052824E+00  0.90007687791E+02  0.89999948469E+02 0.  0.
        -12    1    1    2    0    0 -0.67561733077E+00 -0.79371475297E+00  0.55380052824E+00  0.11803122095E+01  0.00000000000E+00 0.  1.
         11    1    3    3    0    0  0.30529718074E+02  0.14068670122E+02 -0.17335520172E+02  0.37822102329E+02  0.51100000000E-03 0. -1.
        -11    1    3    3    0    0  0.28316124585E+00  0.57928806179E+00 -0.97125656287E+01  0.97339450534E+01  0.51100000000E-03 0.  1.
        -12    1    3    3    0    0 -0.30137261989E+02 -0.13854243431E+02  0.26494285272E+02  0.42451640408E+02  0.00000000000E+00 0.  1.
</event>
<event>
 7    1  0.2895479E-015  0.9000793E+02  0.7816164E-02  0.1186339E+00
        -11   -1    0    0    0    0  0.00000000000E+00  0.00000000000E+00  0.45593999997E+02  0.45594000000E+02  0.51100000000E-03 0. -1.
         11   -1    0    0    0    0 -0.00000000000E+00 -0.00000000000E+00 -0.45593999997E+02  0.45594000000E+02  0.51100000000E-03 0.  1.
    9900012    2    1    2    0    0  0.88164510806E+00  0.76958617054E+00  0.15165220244E+00  0.90007932476E+02  0.90000196385E+02 0.  0.
        -12    1    1    2    0    0 -0.88164510806E+00 -0.76958617054E+00 -0.15165220244E+00  0.11800675239E+01  0.00000000000E+00 0.  1.
         11    1    3    3    0    0 -0.57850848957E+01  0.50991184953E+01 -0.76316314645E+01  0.10849424674E+02  0.51100000000E-03 0. -1.
        -11    1    3    3    0    0  0.52035859494E+01 -0.35769713150E+02 -0.16177868165E+02  0.39601428057E+02  0.51100000000E-03 0.  1.
         12    1    3    3    0    0  0.14631440543E+01  0.31440180825E+02  0.23961151832E+02  0.39557079745E+02  0.00000000000E+00 0. -1.
</event>
<event>
 7    1  0.2895479E-015  0.9000761E+02  0.7816164E-02  0.1186339E+00
        -11   -1    0    0    0    0  0.00000000000E+00  0.00000000000E+00  0.45593999997E+02  0.45594000000E+02  0.51100000000E-03 0.  1.
         11   -1    0    0    0    0 -0.00000000000E+00 -0.00000000000E+00 -0.45593999997E+02  0.45594000000E+02  0.51100000000E-03 0. -1.
    9900012    2    1    2    0    0  0.29171667355E+00  0.50231511496E+00 -0.10275710073E+01  0.90007609697E+02  0.89999869345E+02 0.  0.
        -12    1    1    2    0    0 -0.29171667355E+00 -0.50231511496E+00  0.10275710073E+01  0.11803903030E+01  0.00000000000E+00 0.  1.
         11    1    3    3    0    0  0.30628304031E+02  0.20087479883E+02 -0.12731553266E+02  0.38777471614E+02  0.51100000000E-03 0. -1.
        -11    1    3    3    0    0 -0.66625833421E+01  0.82793382659E+01 -0.41087535064E+01  0.11393827915E+02  0.51100000000E-03 0.  1.
        -12    1    3    3    0    0 -0.23674004016E+02 -0.27864503034E+02  0.15812735765E+02  0.39836310169E+02  0.00000000000E+00 0.  1.
</event>
<event>
 7    1  0.2895479E-015  0.9000770E+02  0.7816164E-02  0.1186339E+00
        -11   -1    0    0    0    0  0.00000000000E+00  0.00000000000E+00  0.45593999997E+02  0.45594000000E+02  0.51100000000E-03 0. -1.
         11   -1    0    0    0    0 -0.00000000000E+00 -0.00000000000E+00 -0.45593999997E+02  0.45594000000E+02  0.51100000000E-03 0.  1.
    9900012    2    1    2    0    0 -0.10324497849E+01 -0.27063484531E-01 -0.57133970417E+00  0.90007697476E+02  0.89999958283E+02 0.  0.
        -12    1    1    2    0    0  0.10324497849E+01  0.27063484531E-01  0.57133970417E+00  0.11803025240E+01  0.00000000000E+00 0.  1.
         11    1    3    3    0    0 -0.27133691954E+01 -0.11202379341E+02  0.16945742216E+01  0.11650204176E+02  0.51100000000E-03 0. -1.
        -11    1    3    3    0    0  0.35994142624E+02  0.38738834429E+01  0.15085720968E+02  0.39219437191E+02  0.51100000000E-03 0.  1.
         12    1    3    3    0    0 -0.34313223213E+02  0.73014324132E+01 -0.17351634894E+02  0.39138056110E+02  0.00000000000E+00 0. -1.
</event>
<event>
 7    1  0.2895479E-015  0.9000774E+02  0.7816164E-02  0.1186339E+00
        -11   -1    0    0    0    0  0.00000000000E+00  0.00000000000E+00  0.45593999997E+02  0.45594000000E+02  0.51100000000E-03 0.  1.
         11   -1    0    0    0    0 -0.00000000000E+00 -0.00000000000E+00 -0.45593999997E+02  0.45594000000E+02  0.51100000000E-03 0. -1.
    9900012    2    1    2    0    0  0.16411349858E+00  0.30723473224E+00 -0.11276886614E+01  0.90007742342E+02  0.90000003741E+02 0.  0.
        -12    1    1    2    0    0 -0.16411349858E+00 -0.30723473224E+00  0.11276886614E+01  0.11802576575E+01  0.00000000000E+00 0.  1.
         11    1    3    3    0    0  0.52846413380E+01 -0.21656476863E+01  0.13814048987E+01  0.58758611052E+01  0.51100000000E-03 0. -1.
        -11    1    3    3    0    0  0.19855878818E+02  0.36638836158E+02  0.79994632025E+00  0.41680932727E+02  0.51100000000E-03 0.  1.
         12    1    3    3    0    0 -0.24976406657E+02 -0.34165953740E+02 -0.33090398804E+01  0.42450948510E+02  0.00000000000E+00 0. -1.
</event>
<event>
 7    1  0.2895479E-015  0.9000753E+02  0.7816164E-02  0.1186339E+00
        -11   -1    0    0    0    0  0.00000000000E+00  0.00000000000E+00  0.45593999997E+02  0.45594000000E+02  0.51100000000E-03 0.  1.
         11   -1    0    0    0    0 -0.00000000000E+00 -0.00000000000E+00 -0.45593999997E+02  0.45594000000E+02  0.51100000000E-03 0. -1.
    9900012    2    1    2    0    0  0.78927600745E-01  0.31484176151E+00 -0.11349659260E+01  0.90007532908E+02  0.89999791543E+02 0.  0.
        -12    1    1    2    0    0 -0.78927600745E-01 -0.31484176151E+00  0.11349659260E+01  0.11804670915E+01  0.00000000000E+00 0.  1.
         11    1    3    3    0    0 -0.27992243873E-01  0.36592013098E+02 -0.85524294834E+01  0.37578188573E+02  0.51100000000E-03 0. -1.
        -11    1    3    3    0    0 -0.46084420501E+01  0.32791242723E+01 -0.79286686776E+01  0.97393111349E+01  0.51100000000E-03 0.  1.
        -12    1    3    3    0    0  0.47153618947E+01 -0.39556295609E+02  0.15346132235E+02  0.42690033200E+02  0.00000000000E+00 0.  1.
</event>
<event>
 7    1  0.2895479E-015  0.9000763E+02  0.7816164E-02  0.1186339E+00
        -11   -1    0    0    0    0  0.00000000000E+00  0.00000000000E+00  0.45593999997E+02  0.45594000000E+02  0.51100000000E-03 0. -1.
         11   -1    0    0    0    0 -0.00000000000E+00 -0.00000000000E+00 -0.45593999997E+02  0.45594000000E+02  0.51100000000E-03 0.  1.
    9900012    2    1    2    0    0 -0.10098388623E+01  0.38422056353E+00  0.47526840118E+00  0.90007627168E+02  0.89999887047E+02 0.  0.
        -12    1    1    2    0    0  0.10098388623E+01 -0.38422056353E+00 -0.47526840118E+00  0.11803728319E+01  0.00000000000E+00 0.  1.
         11    1    3    3    0    0 -0.69441781510E+00  0.12756698171E+01  0.11072304738E+02  0.11167160877E+02  0.51100000000E-03 0. -1.
        -11    1    3    3    0    0 -0.34510845770E+02  0.17910545773E+02 -0.23344173016E+01  0.38951708949E+02  0.51100000000E-03 0.  1.
         12    1    3    3    0    0  0.34195424723E+02 -0.18801995027E+02 -0.82626190354E+01  0.39888757342E+02  0.00000000000E+00 0. -1.
</event>
<event>
 7    1  0.2895479E-015  0.9000781E+02  0.7816164E-02  0.1186339E+00
        -11   -1    0    0    0    0  0.00000000000E+00  0.00000000000E+00  0.45593999997E+02  0.45594000000E+02  0.51100000000E-03 0.  1.
         11   -1    0    0    0    0 -0.00000000000E+00 -0.00000000000E+00 -0.45593999997E+02  0.45594000000E+02  0.51100000000E-03 0. -1.
    9900012    2    1    2    0    0  0.82863413250E+00  0.38145476319E+00 -0.74879703822E+00  0.90007813885E+02  0.90000076228E+02 0.  0.
        -12    1    1    2    0    0 -0.82863413250E+00 -0.38145476319E+00  0.74879703822E+00  0.11801861151E+01  0.00000000000E+00 0.  1.
         11    1    3    3    0    0  0.24277062989E+01  0.26430809315E+02 -0.24605295228E+02  0.36192568193E+02  0.51100000000E-03 0. -1.
        -11    1    3    3    0    0  0.12240989334E+02  0.23921058271E+01 -0.24071346829E+01  0.12702688212E+02  0.51100000000E-03 0.  1.
        -12    1    3    3    0    0 -0.13840061501E+02 -0.28441460379E+02  0.26263632872E+02  0.41112557479E+02  0.00000000000E+00 0.  1.
</event>
<event>
 7    1  0.2895479E-015  0.9000733E+02  0.7816164E-02  0.1186340E+00
        -11   -1    0    0    0    0  0.00000000000E+00  0.00000000000E+00  0.45593999997E+02  0.45594000000E+02  0.51100000000E-03 0.  1.
         11   -1    0    0    0    0 -0.00000000000E+00 -0.00000000000E+00 -0.45593999997E+02  0.45594000000E+02  0.51100000000E-03 0. -1.
    9900012    2    1    2    0    0 -0.52657597513E+00  0.73951019318E+00 -0.75486817327E+00  0.90007329198E+02  0.89999585143E+02 0.  0.
        -12    1    1    2    0    0  0.52657597513E+00 -0.73951019318E+00  0.75486817327E+00  0.11806708019E+01  0.00000000000E+00 0.  1.
         11    1    3    3    0    0  0.14145709110E+02 -0.24354267779E+01 -0.18104756491E+02  0.23104428097E+02  0.51100000000E-03 0. -1.
        -11    1    3    3    0    0 -0.29320997142E+02 -0.42560477674E+01 -0.13029932159E+02  0.32366864975E+02  0.51100000000E-03 0.  1.
        -12    1    3    3    0    0  0.14648712057E+02  0.74309847385E+01  0.30379820477E+02  0.34536036126E+02  0.00000000000E+00 0.  1.
</event>
<event>
 7    1  0.2895479E-015  0.9000771E+02  0.7816164E-02  0.1186339E+00
        -11   -1    0    0    0    0  0.00000000000E+00  0.00000000000E+00  0.45593999997E+02  0.45594000000E+02  0.51100000000E-03 0.  1.
         11   -1    0    0    0    0 -0.00000000000E+00 -0.00000000000E+00 -0.45593999997E+02  0.45594000000E+02  0.51100000000E-03 0. -1.
    9900012    2    1    2    0    0  0.34549143113E-01  0.93582723229E+00 -0.71840751108E+00  0.90007713762E+02  0.89999974784E+02 0.  0.
        -12    1    1    2    0    0 -0.34549143113E-01 -0.93582723229E+00  0.71840751108E+00  0.11802862381E+01  0.00000000000E+00 0.  1.
         11    1    3    3    0    0 -0.90944896001E+00 -0.27396508845E+01  0.10790124079E+02  0.11169582010E+02  0.51100000000E-03 0. -1.
        -11    1    3    3    0    0  0.15550766474E+02 -0.33325918312E+02  0.19920229150E+01  0.36829489880E+02  0.51100000000E-03 0.  1.
         12    1    3    3    0    0 -0.14606768370E+02  0.37001396429E+02 -0.13500554505E+02  0.42008641871E+02  0.00000000000E+00 0. -1.
</event>
<event>
 7    1  0.2895479E-015  0.9000774E+02  0.7816164E-02  0.1186339E+00
        -11   -1    0    0    0    0  0.00000000000E+00  0.00000000000E+00  0.45593999997E+02  0.45594000000E+02  0.51100000000E-03 0.  1.
         11   -1    0    0    0    0 -0.00000000000E+00 -0.00000000000E+00 -0.45593999997E+02  0.45594000000E+02  0.51100000000E-03 0. -1.
    9900012    2    1    2    0    0 -0.11727977435E+00 -0.11744136737E+01  0.12451647552E-02  0.90007744277E+02  0.90000005701E+02 0.  0.
        -12    1    1    2    0    0  0.11727977435E+00  0.11744136737E+01 -0.12451647552E-02  0.11802557235E+01  0.00000000000E+00 0.  1.
         11    1    3    3    0    0  0.17344495522E+01 -0.47916016661E+01  0.76656765263E+01  0.92049094858E+01  0.51100000000E-03 0. -1.
        -11    1    3    3    0    0 -0.23078437503E+02 -0.24968819065E+02  0.16479015125E+02  0.37783781479E+02  0.51100000000E-03 0.  1.
         12    1    3    3    0    0  0.21226708177E+02  0.28586007058E+02 -0.24143446487E+02  0.43019053311E+02  0.00000000000E+00 0. -1.
</event>
<event>
 7    1  0.2895479E-015  0.9000805E+02  0.7816164E-02  0.1186338E+00
        -11   -1    0    0    0    0  0.00000000000E+00  0.00000000000E+00  0.45593999997E+02  0.45594000000E+02  0.51100000000E-03 0.  1.
         11   -1    0    0    0    0 -0.00000000000E+00 -0.00000000000E+00 -0.45593999997E+02  0.45594000000E+02  0.51100000000E-03 0. -1.
    9900012    2    1    2    0    0 -0.89855705384E+00 -0.75949563730E+00 -0.89652804767E-01  0.90008052532E+02  0.90000318025E+02 0.  0.
        -12    1    1    2    0    0  0.89855705384E+00  0.75949563730E+00  0.89652804767E-01  0.11799474681E+01  0.00000000000E+00 0.  1.
         11    1    3    3    0    0  0.10552819744E+02  0.24154810617E+01  0.80767997187E+01  0.13506711193E+02  0.51100000000E-03 0. -1.
        -11    1    3    3    0    0 -0.24565686193E+02 -0.32893144920E+02  0.51873298584E+01  0.41380433929E+02  0.51100000000E-03 0.  1.
         12    1    3    3    0    0  0.13114309395E+02  0.29718168221E+02 -0.13353782382E+02  0.35120907409E+02  0.00000000000E+00 0. -1.
</event>
<event>
 7    1  0.2895479E-015  0.9000855E+02  0.7816164E-02  0.1186337E+00
        -11   -1    0    0    0    0  0.00000000000E+00  0.00000000000E+00  0.45593999997E+02  0.45594000000E+02  0.51100000000E-03 0.  1.
         11   -1    0    0    0    0 -0.00000000000E+00 -0.00000000000E+00 -0.45593999997E+02  0.45594000000E+02  0.51100000000E-03 0. -1.
    9900012    2    1    2    0    0 -0.60333725614E+00  0.78056324993E+00 -0.64638434859E+00  0.90008547772E+02  0.90000819799E+02 0.  0.
        -12    1    1    2    0    0  0.60333725614E+00 -0.78056324993E+00  0.64638434859E+00  0.11794522279E+01  0.00000000000E+00 0.  1.
         11    1    3    3    0    0 -0.34893974081E+02  0.16421773449E+02 -0.34593143371E+01  0.38719903491E+02  0.51100000000E-03 0. -1.
        -11    1    3    3    0    0 -0.23150718212E+01  0.31778902396E+01  0.88540701182E+01  0.96877810581E+01  0.51100000000E-03 0.  1.
        -12    1    3    3    0    0  0.36605708646E+02 -0.18819100439E+02 -0.60411401296E+01  0.41600863223E+02  0.00000000000E+00 0.  1.
</event>
<event>
 7    1  0.2895479E-015  0.9000809E+02  0.7816164E-02  0.1186338E+00
        -11   -1    0    0    0    0  0.00000000000E+00  0.00000000000E+00  0.45593999997E+02  0.45594000000E+02  0.51100000000E-03 0. -1.
         11   -1    0    0    0    0 -0.00000000000E+00 -0.00000000000E+00 -0.45593999997E+02  0.45594000000E+02  0.51100000000E-03 0.  1.
    9900012    2    1    2    0    0  0.16757978532E+00 -0.10961889275E+01  0.40307312407E+00  0.90008092761E+02  0.90000358785E+02 0.  0.
        -12    1    1    2    0    0 -0.16757978532E+00  0.10961889275E+01 -0.40307312407E+00  0.11799072389E+01  0.00000000000E+00 0.  1.
         11    1    3    3    0    0 -0.22902094831E+02  0.13352277160E+02  0.15424171395E+02  0.30670740397E+02  0.51100000000E-03 0. -1.
        -11    1    3    3    0    0 -0.25396906048E+00  0.12488677380E+02  0.98303194886E+01  0.15895494471E+02  0.51100000000E-03 0.  1.
        -12    1    3    3    0    0  0.23323643677E+02 -0.26937143467E+02 -0.24851417760E+02  0.43441857893E+02  0.00000000000E+00 0.  1.
</event>
<event>
 7    1  0.2895479E-015  0.9000773E+02  0.7816164E-02  0.1186339E+00
        -11   -1    0    0    0    0  0.00000000000E+00  0.00000000000E+00  0.45593999997E+02  0.45594000000E+02  0.51100000000E-03 0.  1.
         11   -1    0    0    0    0 -0.00000000000E+00 -0.00000000000E+00 -0.45593999997E+02  0.45594000000E+02  0.51100000000E-03 0. -1.
    9900012    2    1    2    0    0  0.33713672420E+00  0.10627825914E+01 -0.38712441975E+00  0.90007731673E+02  0.89999992931E+02 0.  0.
        -12    1    1    2    0    0 -0.33713672420E+00 -0.10627825914E+01  0.38712441975E+00  0.11802683270E+01  0.00000000000E+00 0.  1.
         11    1    3    3    0    0 -0.36789484690E+02 -0.26611033092E+01  0.36974138891E+01  0.37070453522E+02  0.51100000000E-03 0. -1.
        -11    1    3    3    0    0 -0.37752004489E+01 -0.44120313079E+00  0.90182440983E+01  0.97864971011E+01  0.51100000000E-03 0.  1.
        -12    1    3    3    0    0  0.40901821864E+02  0.41650890314E+01 -0.13102782407E+02  0.43150781050E+02  0.00000000000E+00 0.  1.
</event>
<event>
 7    1  0.2895479E-015  0.9000777E+02  0.7816164E-02  0.1186339E+00
        -11   -1    0    0    0    0  0.00000000000E+00  0.00000000000E+00  0.45593999997E+02  0.45594000000E+02  0.51100000000E-03 0.  1.
         11   -1    0    0    0    0 -0.00000000000E+00 -0.00000000000E+00 -0.45593999997E+02  0.45594000000E+02  0.51100000000E-03 0. -1.
    9900012    2    1    2    0    0 -0.58152351619E+00  0.10152050500E+01  0.15535255261E+00  0.90007768959E+02  0.90000030710E+02 0.  0.
        -12    1    1    2    0    0  0.58152351619E+00 -0.10152050500E+01 -0.15535255261E+00  0.11802310406E+01  0.00000000000E+00 0.  1.
         11    1    3    3    0    0 -0.99533107584E+01 -0.27993938576E+02 -0.31677485748E+02  0.43430313096E+02  0.51100000000E-03 0. -1.
        -11    1    3    3    0    0  0.85412761676E+01  0.99435803328E+01  0.58879803331E+01  0.14369986119E+02  0.51100000000E-03 0.  1.
        -12    1    3    3    0    0  0.83051107467E+00  0.19065563293E+02  0.25944857968E+02  0.32207469744E+02  0.00000000000E+00 0.  1.
</event>
<event>
 7    1  0.2895479E-015  0.9000771E+02  0.7816164E-02  0.1186339E+00
        -11   -1    0    0    0    0  0.00000000000E+00  0.00000000000E+00  0.45593999997E+02  0.45594000000E+02  0.51100000000E-03 0.  1.
         11   -1    0    0    0    0 -0.00000000000E+00 -0.00000000000E+00 -0.45593999997E+02  0.45594000000E+02  0.51100000000E-03 0. -1.
    9900012    2    1    2    0    0  0.95953263416E+00  0.67530089857E+00 -0.12787858823E+00  0.90007708886E+02  0.89999969844E+02 0.  0.
        -12    1    1    2    0    0 -0.95953263416E+00 -0.67530089857E+00  0.12787858823E+00  0.11802911136E+01  0.00000000000E+00 0.  1.
         11    1    3    3    0    0 -0.34250979907E+02 -0.13474390390E+02 -0.90340605548E+01  0.37898589305E+02  0.51100000000E-03 0. -1.
        -11    1    3    3    0    0 -0.68560135077E+01  0.41780148225E+01  0.33711267754E+00  0.80358182093E+01  0.51100000000E-03 0.  1.
        -12    1    3    3    0    0  0.42066526049E+02  0.99716764659E+01  0.85690692891E+01  0.44073301372E+02  0.00000000000E+00 0.  1.
</event>
<event>
 7    1  0.2895479E-015  0.9000778E+02  0.7816164E-02  0.1186339E+00
        -11   -1    0    0    0    0  0.00000000000E+00  0.00000000000E+00  0.45593999997E+02  0.45594000000E+02  0.51100000000E-03 0. -1.
         11   -1    0    0    0    0 -0.00000000000E+00 -0.00000000000E+00 -0.45593999997E+02  0.45594000000E+02  0.51100000000E-03 0.  1.
    9900012    2    1    2    0    0  0.59502188731E+00 -0.10127765392E+01 -0.11472894755E+00  0.90007775404E+02  0.90000037240E+02 0.  0.
        -12    1    1    2    0    0 -0.59502188731E+00  0.10127765392E+01  0.11472894755E+00  0.11802245956E+01  0.00000000000E+00 0.  1.
         11    1    3    3    0    0 -0.69206600643E+01  0.40802489425E+01  0.49658053803E+01  0.94447440672E+01  0.51100000000E-03 0. -1.
        -11    1    3    3    0    0 -0.35372874315E+01 -0.91112699649E+01 -0.41321439962E+02  0.42461618475E+02  0.51100000000E-03 0.  1.
         12    1    3    3    0    0  0.11052969383E+02  0.40182444832E+01  0.36240905634E+02  0.38101412862E+02  0.00000000000E+00 0. -1.
</event>
<event>
 7    1  0.4871354E-015  0.9000774E+02  0.7816164E-02  0.1186339E+00
        -11   -1    0    0    0    0  0.00000000000E+00  0.00000000000E+00  0.45593999997E+02  0.45594000000E+02  0.51100000000E-03 0.  1.
         11   -1    0    0    0    0 -0.00000000000E+00 -0.00000000000E+00 -0.45593999997E+02  0.45594000000E+02  0.51100000000E-03 0. -1.
    9900012    2    1    2    0    0 -0.82676369548E+00 -0.70266968418E+00 -0.46447069333E+00  0.90007739047E+02  0.90000000402E+02 0.  0.
        -12    1    1    2    0    0  0.82676369548E+00  0.70266968418E+00  0.46447069333E+00  0.11802609534E+01  0.00000000000E+00 0.  1.
         11    1    3    3    0    0 -0.95667728115E+00  0.32670824513E+01  0.87536839624E+01  0.93923395562E+01  0.51100000000E-03 0. -1.
        -11    1    3    3    0    0  0.27678223503E+02 -0.21065243809E+02  0.17191069324E+02  0.38798987329E+02  0.51100000000E-03 0.  1.
         12    1    3    3    0    0 -0.27548309917E+02  0.17095491673E+02 -0.26409223980E+02  0.41816412161E+02  0.00000000000E+00 0. -1.
</event>
<event>
 7    1  0.2895479E-015  0.9000803E+02  0.7816164E-02  0.1186338E+00
        -11   -1    0    0    0    0  0.00000000000E+00  0.00000000000E+00  0.45593999997E+02  0.45594000000E+02  0.51100000000E-03 0. -1.
         11   -1    0    0    0    0 -0.00000000000E+00 -0.00000000000E+00 -0.45593999997E+02  0.45594000000E+02  0.51100000000E-03 0.  1.
    9900012    2    1    2    0    0  0.10350365206E+01 -0.26961821081E+00  0.49833339436E+00  0.90008029343E+02  0.90000294530E+02 0.  0.
        -12    1    1    2    0    0 -0.10350365206E+01  0.26961821081E+00 -0.49833339436E+00  0.11799706566E+01  0.00000000000E+00 0.  1.
         11    1    3    3    0    0  0.21572317828E+02  0.28834794012E+02  0.81500098550E+01  0.36921984008E+02  0.51100000000E-03 0. -1.
        -11    1    3    3    0    0 -0.94945081278E+00  0.70529189393E+01 -0.95618687707E+01  0.11919499027E+02  0.51100000000E-03 0.  1.
        -12    1    3    3    0    0 -0.19587830495E+02 -0.36157331162E+02  0.19101923101E+01  0.41166546308E+02  0.00000000000E+00 0.  1.
</event>
<event>
 7    1  0.2895479E-015  0.9000772E+02  0.7816164E-02  0.1186339E+00
        -11   -1    0    0    0    0  0.00000000000E+00  0.00000000000E+00  0.45593999997E+02  0.45594000000E+02  0.51100000000E-03 0. -1.
         11   -1    0    0    0    0 -0.00000000000E+00 -0.00000000000E+00 -0.45593999997E+02  0.45594000000E+02  0.51100000000E-03 0.  1.
    9900012    2    1    2    0    0  0.97379063595E+00 -0.15809696710E+00  0.64791007682E+00  0.90007724472E+02  0.89999985635E+02 0.  0.
        -12    1    1    2    0    0 -0.97379063595E+00  0.15809696710E+00 -0.64791007682E+00  0.11802755277E+01  0.00000000000E+00 0.  1.
         11    1    3    3    0    0 -0.15213952464E+02  0.31613649191E+02  0.87989891256E+00  0.35095033653E+02  0.51100000000E-03 0. -1.
        -11    1    3    3    0    0 -0.82786350406E+01 -0.18836712120E+02 -0.13100184080E+02  0.24392054952E+02  0.51100000000E-03 0.  1.
        -12    1    3    3    0    0  0.24466378141E+02 -0.12935034038E+02  0.12868195244E+02  0.30520635867E+02  0.00000000000E+00 0.  1.
</event>
<event>
 7    1  0.2895479E-015  0.9000775E+02  0.7816164E-02  0.1186339E+00
        -11   -1    0    0    0    0  0.00000000000E+00  0.00000000000E+00  0.45593999997E+02  0.45594000000E+02  0.51100000000E-03 0. -1.
         11   -1    0    0    0    0 -0.00000000000E+00 -0.00000000000E+00 -0.45593999997E+02  0.45594000000E+02  0.51100000000E-03 0.  1.
    9900012    2    1    2    0    0  0.10133531822E+01  0.35674116056E+00  0.48871870804E+00  0.90007747949E+02  0.90000009422E+02 0.  0.
        -12    1    1    2    0    0 -0.10133531822E+01 -0.35674116056E+00 -0.48871870804E+00  0.11802520507E+01  0.00000000000E+00 0.  1.
         11    1    3    3    0    0  0.34159723651E+02 -0.85239738341E+01  0.13128274657E+02  0.37575210519E+02  0.51100000000E-03 0. -1.
        -11    1    3    3    0    0 -0.12229958571E+02 -0.13148360138E+02  0.30956690318E+01  0.18221811874E+02  0.51100000000E-03 0.  1.
        -12    1    3    3    0    0 -0.20916411898E+02  0.22029075133E+02 -0.15735224980E+02  0.34210725556E+02  0.00000000000E+00 0.  1.
</event>
<event>
 7    1  0.2895479E-015  0.9000774E+02  0.7816164E-02  0.1186339E+00
        -11   -1    0    0    0    0  0.00000000000E+00  0.00000000000E+00  0.45593999997E+02  0.45594000000E+02  0.51100000000E-03 0. -1.
         11   -1    0    0    0    0 -0.00000000000E+00 -0.00000000000E+00 -0.45593999997E+02  0.45594000000E+02  0.51100000000E-03 0.  1.
    9900012    2    1    2    0    0  0.93137834527E+00  0.63523509434E+00  0.34930765496E+00  0.90007743636E+02  0.90000005052E+02 0.  0.
        -12    1    1    2    0    0 -0.93137834527E+00 -0.63523509434E+00 -0.34930765496E+00  0.11802563641E+01  0.00000000000E+00 0.  1.
         11    1    3    3    0    0  0.31752547842E+01  0.52073407719E+01 -0.12792878002E+02  0.14172380488E+02  0.51100000000E-03 0. -1.
        -11    1    3    3    0    0 -0.89354932988E+01 -0.26513406605E+02 -0.20803823645E+02  0.34865496537E+02  0.51100000000E-03 0.  1.
         12    1    3    3    0    0  0.66916168599E+01  0.21941300927E+02  0.33946009302E+02  0.40969866611E+02  0.00000000000E+00 0. -1.
</event>
<event>
 7    1  0.2895479E-015  0.9000778E+02  0.7816164E-02  0.1186339E+00
        -11   -1    0    0    0    0  0.00000000000E+00  0.00000000000E+00  0.45593999997E+02  0.45594000000E+02  0.51100000000E-03 0.  1.
         11   -1    0    0    0    0 -0.00000000000E+00 -0.00000000000E+00 -0.45593999997E+02  0.45594000000E+02  0.51100000000E-03 0. -1.
    9900012    2    1    2    0    0 -0.20593545770E+00 -0.17201404069E+00 -0.11493178090E+01  0.90007775585E+02  0.90000037423E+02 0.  0.
        -12    1    1    2    0    0  0.20593545770E+00  0.17201404069E+00  0.11493178090E+01  0.11802244147E+01  0.00000000000E+00 0.  1.
         11    1    3    3    0    0  0.36698630662E+02  0.90841588213E+01 -0.17880688745E+02  0.41821411552E+02  0.51100000000E-03 0. -1.
        -11    1    3    3    0    0 -0.43774200716E+01  0.53765184341E+01  0.95537757846E+01  0.11804380075E+02  0.51100000000E-03 0.  1.
        -12    1    3    3    0    0 -0.32527146048E+02 -0.14632691296E+02  0.71775951512E+01  0.36381983958E+02  0.00000000000E+00 0.  1.
</event>
<event>
 7    1  0.2895479E-015  0.9000775E+02  0.7816164E-02  0.1186339E+00
        -11   -1    0    0    0    0  0.00000000000E+00  0.00000000000E+00  0.45593999997E+02  0.45594000000E+02  0.51100000000E-03 0.  1.
         11   -1    0    0    0    0 -0.00000000000E+00 -0.00000000000E+00 -0.45593999997E+02  0.45594000000E+02  0.51100000000E-03 0. -1.
    9900012    2    1    2    0    0  0.36909069418E+00 -0.78106453069E+00 -0.80417971772E+00  0.90007748010E+02  0.90000009484E+02 0.  0.
        -12    1    1    2    0    0 -0.36909069418E+00  0.78106453069E+00  0.80417971772E+00  0.11802519901E+01  0.00000000000E+00 0.  1.
         11    1    3    3    0    0 -0.15007195482E+02  0.85914824747E+01 -0.83794194696E+01  0.19215726847E+02  0.51100000000E-03 0. -1.
        -11    1    3    3    0    0  0.29485370827E+01  0.42339468271E+01  0.36299738567E+02  0.36664576868E+02  0.51100000000E-03 0.  1.
         12    1    3    3    0    0  0.12427749093E+02 -0.13606493832E+02 -0.28724498815E+02  0.34127444295E+02  0.00000000000E+00 0. -1.
</event>
<event>
 7    1  0.2895479E-015  0.9000779E+02  0.7816164E-02  0.1186339E+00
        -11   -1    0    0    0    0  0.00000000000E+00  0.00000000000E+00  0.45593999997E+02  0.45594000000E+02  0.51100000000E-03 0. -1.
         11   -1    0    0    0    0 -0.00000000000E+00 -0.00000000000E+00 -0.45593999997E+02  0.45594000000E+02  0.51100000000E-03 0.  1.
    9900012    2    1    2    0    0 -0.27302508452E+00 -0.11215471498E+01  0.24594221234E+00  0.90007788884E+02  0.90000050898E+02 0.  0.
        -12    1    1    2    0    0  0.27302508452E+00  0.11215471498E+01 -0.24594221234E+00  0.11802111157E+01  0.00000000000E+00 0.  1.
         11    1    3    3    0    0  0.34477090557E+01 -0.65327570299E+01 -0.46418330729E+01  0.87241175303E+01  0.51100000000E-03 0. -1.
        -11    1    3    3    0    0 -0.19417880467E+02  0.33601790491E+02 -0.16922081770E+02  0.42337823016E+02  0.51100000000E-03 0.  1.
         12    1    3    3    0    0  0.15697146327E+02 -0.28190580611E+02  0.21809857055E+02  0.38945848338E+02  0.00000000000E+00 0. -1.
</event>
<event>
 7    1  0.2895479E-015  0.9000769E+02  0.7816164E-02  0.1186339E+00
        -11   -1    0    0    0    0  0.00000000000E+00  0.00000000000E+00  0.45593999997E+02  0.45594000000E+02  0.51100000000E-03 0. -1.
         11   -1    0    0    0    0 -0.00000000000E+00 -0.00000000000E+00 -0.45593999997E+02  0.45594000000E+02  0.51100000000E-03 0.  1.
    9900012    2    1    2    0    0 -0.12232926096E+00  0.72246494523E+00  0.92531755439E+00  0.90007689608E+02  0.89999950311E+02 0.  0.
        -12    1    1    2    0    0  0.12232926096E+00 -0.72246494523E+00 -0.92531755439E+00  0.11803103921E+01  0.00000000000E+00 0.  1.
         11    1    3    3    0    0 -0.12073808420E+02 -0.84485007721E+00  0.56112366551E+01  0.13340787026E+02  0.51100000000E-03 0. -1.
        -11    1    3    3    0    0  0.26906276567E+02 -0.29659262716E+02 -0.10874037702E+02  0.41495352508E+02  0.51100000000E-03 0.  1.
         12    1    3    3    0    0 -0.14954797408E+02  0.31226577738E+02  0.61881186009E+01  0.35171550074E+02  0.00000000000E+00 0. -1.
</event>
<event>
 7    1  0.2895479E-015  0.9000759E+02  0.7816164E-02  0.1186339E+00
        -11   -1    0    0    0    0  0.00000000000E+00  0.00000000000E+00  0.45593999997E+02  0.45594000000E+02  0.51100000000E-03 0. -1.
         11   -1    0    0    0    0 -0.00000000000E+00 -0.00000000000E+00 -0.45593999997E+02  0.45594000000E+02  0.51100000000E-03 0.  1.
    9900012    2    1    2    0    0  0.33347696980E+00  0.11034430553E+01  0.25411975004E+00  0.90007588922E+02  0.89999848296E+02 0.  0.
        -12    1    1    2    0    0 -0.33347696980E+00 -0.11034430553E+01 -0.25411975004E+00  0.11804110780E+01  0.00000000000E+00 0.  1.
         11    1    3    3    0    0 -0.60622700413E+01 -0.60681499600E+00  0.35243838567E+01  0.70385100926E+01  0.51100000000E-03 0. -1.
        -11    1    3    3    0    0  0.26730234739E+01 -0.15877203403E+02 -0.39428103502E+02  0.42588801209E+02  0.51100000000E-03 0.  1.
         12    1    3    3    0    0  0.37227235372E+01  0.17587461454E+02  0.36157839396E+02  0.40380277620E+02  0.00000000000E+00 0. -1.
</event>
<event>
 7    1  0.2895479E-015  0.9000774E+02  0.7816164E-02  0.1186339E+00
        -11   -1    0    0    0    0  0.00000000000E+00  0.00000000000E+00  0.45593999997E+02  0.45594000000E+02  0.51100000000E-03 0.  1.
         11   -1    0    0    0    0 -0.00000000000E+00 -0.00000000000E+00 -0.45593999997E+02  0.45594000000E+02  0.51100000000E-03 0. -1.
    9900012    2    1    2    0    0  0.72126574542E+00 -0.43461454836E+00 -0.82698749447E+00  0.90007736302E+02  0.89999997621E+02 0.  0.
        -12    1    1    2    0    0 -0.72126574542E+00  0.43461454836E+00  0.82698749447E+00  0.11802636982E+01  0.00000000000E+00 0.  1.
         11    1    3    3    0    0  0.54891532927E+01  0.26103725175E+00  0.65030190545E+01  0.85140003172E+01  0.51100000000E-03 0. -1.
        -11    1    3    3    0    0  0.23921460390E+02 -0.29529864092E+02  0.64515468810E+01  0.38547005044E+02  0.51100000000E-03 0.  1.
         12    1    3    3    0    0 -0.28689347937E+02  0.28834212292E+02 -0.13781553430E+02  0.42946730940E+02  0.00000000000E+00 0. -1.
</event>
<event>
 7    1  0.3717055E-015  0.9000762E+02  0.7816164E-02  0.1186339E+00
        -11   -1    0    0    0    0  0.00000000000E+00  0.00000000000E+00  0.45593999997E+02  0.45594000000E+02  0.51100000000E-03 0. -1.
         11   -1    0    0    0    0 -0.00000000000E+00 -0.00000000000E+00 -0.45593999997E+02  0.45594000000E+02  0.51100000000E-03 0.  1.
    9900012    2    1    2    0    0 -0.37802024709E+00 -0.18857202736E+00  0.11021919301E+01  0.90007624734E+02  0.89999884581E+02 0.  0.
        -12    1    1    2    0    0  0.37802024709E+00  0.18857202736E+00 -0.11021919301E+01  0.11803752656E+01  0.00000000000E+00 0.  1.
         11    1    3    3    0    0 -0.97927424702E+01 -0.13347186316E+00  0.24794721692E+00  0.97967901840E+01  0.51100000000E-03 0. -1.
        -11    1    3    3    0    0 -0.24277782114E+02  0.10980085360E+02 -0.24838046284E+02  0.36426659501E+02  0.51100000000E-03 0.  1.
         12    1    3    3    0    0  0.33692504337E+02 -0.11035185524E+02  0.25692290998E+02  0.43784175050E+02  0.00000000000E+00 0. -1.
</event>
<event>
 7    1  0.2895479E-015  0.9000784E+02  0.7816164E-02  0.1186339E+00
        -11   -1    0    0    0    0  0.00000000000E+00  0.00000000000E+00  0.45593999997E+02  0.45594000000E+02  0.51100000000E-03 0. -1.
         11   -1    0    0    0    0 -0.00000000000E+00 -0.00000000000E+00 -0.45593999997E+02  0.45594000000E+02  0.51100000000E-03 0.  1.
    9900012    2    1    2    0    0 -0.30033350643E+00 -0.60369200469E+00  0.96857808509E+00  0.90007835707E+02  0.90000098338E+02 0.  0.
        -12    1    1    2    0    0  0.30033350643E+00  0.60369200469E+00 -0.96857808509E+00  0.11801642930E+01  0.00000000000E+00 0.  1.
         11    1    3    3    0    0  0.35442739565E+01 -0.62780200841E+01 -0.10985703881E+02  0.13140057233E+02  0.51100000000E-03 0. -1.
        -11    1    3    3    0    0 -0.23876058675E+02  0.11108664679E+02 -0.23819928774E+02  0.35508556939E+02  0.51100000000E-03 0.  1.
         12    1    3    3    0    0  0.20031451212E+02 -0.54343366000E+01  0.35774210740E+02  0.41359221535E+02  0.00000000000E+00 0. -1.
</event>
<event>
 7    1  0.2895479E-015  0.9000649E+02  0.7816164E-02  0.1186342E+00
        -11   -1    0    0    0    0  0.00000000000E+00  0.00000000000E+00  0.45593999997E+02  0.45594000000E+02  0.51100000000E-03 0. -1.
         11   -1    0    0    0    0 -0.00000000000E+00 -0.00000000000E+00 -0.45593999997E+02  0.45594000000E+02  0.51100000000E-03 0.  1.
    9900012    2    1    2    0    0 -0.12843255305E+00  0.11546723284E+01 -0.21496392023E+00  0.90006487159E+02  0.89998731980E+02 0.  0.
        -12    1    1    2    0    0  0.12843255305E+00 -0.11546723284E+01  0.21496392023E+00  0.11815128411E+01  0.00000000000E+00 0.  1.
         11    1    3    3    0    0  0.83417264509E+01  0.10755637479E+01  0.39820593072E+01  0.93058064747E+01  0.51100000000E-03 0. -1.
        -11    1    3    3    0    0 -0.22439265742E+02 -0.23592027323E+02  0.24663596001E+02  0.40846020225E+02  0.51100000000E-03 0.  1.
         12    1    3    3    0    0  0.13969106738E+02  0.23671135904E+02 -0.28860619229E+02  0.39854660459E+02  0.00000000000E+00 0. -1.
</event>
<event>
 7    1  0.2895479E-015  0.9000764E+02  0.7816164E-02  0.1186339E+00
        -11   -1    0    0    0    0  0.00000000000E+00  0.00000000000E+00  0.45593999997E+02  0.45594000000E+02  0.51100000000E-03 0.  1.
         11   -1    0    0    0    0 -0.00000000000E+00 -0.00000000000E+00 -0.45593999997E+02  0.45594000000E+02  0.51100000000E-03 0. -1.
    9900012    2    1    2    0    0 -0.55758466453E+00  0.73577930899E+00 -0.73551938009E+00  0.90007635392E+02  0.89999895379E+02 0.  0.
        -12    1    1    2    0    0  0.55758466453E+00 -0.73577930899E+00  0.73551938009E+00  0.11803646081E+01  0.00000000000E+00 0.  1.
         11    1    3    3    0    0 -0.32081003413E+02 -0.65725172420E+01 -0.17158024271E+02  0.36970076549E+02  0.51100000000E-03 0. -1.
        -11    1    3    3    0    0 -0.65352800286E+01  0.33958582772E+01 -0.52702539042E+01  0.90563411468E+01  0.51100000000E-03 0.  1.
        -12    1    3    3    0    0  0.38058698777E+02  0.39124382738E+01  0.21692758795E+02  0.43981217696E+02  0.00000000000E+00 0.  1.
</event>
<event>
 7    1  0.2895479E-015  0.9000775E+02  0.7816164E-02  0.1186339E+00
        -11   -1    0    0    0    0  0.00000000000E+00  0.00000000000E+00  0.45593999997E+02  0.45594000000E+02  0.51100000000E-03 0. -1.
         11   -1    0    0    0    0 -0.00000000000E+00 -0.00000000000E+00 -0.45593999997E+02  0.45594000000E+02  0.51100000000E-03 0.  1.
    9900012    2    1    2    0    0  0.66417547191E+00  0.70996338484E+00  0.66919451078E+00  0.90007746485E+02  0.90000007939E+02 0.  0.
        -12    1    1    2    0    0 -0.66417547191E+00 -0.70996338484E+00 -0.66919451078E+00  0.11802535145E+01  0.00000000000E+00 0.  1.
         11    1    3    3    0    0  0.40468382175E+01 -0.25362078793E+02  0.28157258459E+02  0.38110932086E+02  0.51100000000E-03 0. -1.
        -11    1    3    3    0    0 -0.79900615755E+01  0.31351574267E+01  0.64077566783E+01  0.10711192370E+02  0.51100000000E-03 0.  1.
        -12    1    3    3    0    0  0.46073988298E+01  0.22936884751E+02 -0.33895820626E+02  0.41185622030E+02  0.00000000000E+00 0.  1.
</event>
<event>
 7    1  0.2895479E-015  0.9000773E+02  0.7816164E-02  0.1186339E+00
        -11   -1    0    0    0    0  0.00000000000E+00  0.00000000000E+00  0.45593999997E+02  0.45594000000E+02  0.51100000000E-03 0.  1.
         11   -1    0    0    0    0 -0.00000000000E+00 -0.00000000000E+00 -0.45593999997E+02  0.45594000000E+02  0.51100000000E-03 0. -1.
    9900012    2    1    2    0    0 -0.90463796265E+00 -0.71510539177E+00 -0.25156542609E+00  0.90007732772E+02  0.89999994045E+02 0.  0.
        -12    1    1    2    0    0  0.90463796265E+00  0.71510539177E+00  0.25156542609E+00  0.11802672275E+01  0.00000000000E+00 0.  1.
         11    1    3    3    0    0 -0.23051298404E+01 -0.14147021389E+02 -0.36453770467E+02  0.39170514667E+02  0.51100000000E-03 0. -1.
        -11    1    3    3    0    0 -0.11494299094E+02 -0.28964548567E+01  0.40231847135E+01  0.12517762496E+02  0.51100000000E-03 0.  1.
        -12    1    3    3    0    0  0.12894790972E+02  0.16328370854E+02  0.32179020328E+02  0.38319455609E+02  0.00000000000E+00 0.  1.
</event>
<event>
 7    1  0.2895479E-015  0.9000777E+02  0.7816164E-02  0.1186339E+00
        -11   -1    0    0    0    0  0.00000000000E+00  0.00000000000E+00  0.45593999997E+02  0.45594000000E+02  0.51100000000E-03 0.  1.
         11   -1    0    0    0    0 -0.00000000000E+00 -0.00000000000E+00 -0.45593999997E+02  0.45594000000E+02  0.51100000000E-03 0. -1.
    9900012    2    1    2    0    0  0.23628500278E+00  0.10316201286E+01 -0.52236839036E+00  0.90007771451E+02  0.90000033234E+02 0.  0.
        -12    1    1    2    0    0 -0.23628500278E+00 -0.10316201286E+01  0.52236839036E+00  0.11802285489E+01  0.00000000000E+00 0.  1.
         11    1    3    3    0    0  0.21988690806E+01  0.88606207880E+01  0.34147338109E+01  0.97471038387E+01  0.51100000000E-03 0. -1.
        -11    1    3    3    0    0 -0.37625789371E+02 -0.93353803015E+01  0.12815446767E+02  0.40829952575E+02  0.51100000000E-03 0.  1.
         12    1    3    3    0    0  0.35663205294E+02  0.15063796422E+01 -0.16752548968E+02  0.39430715037E+02  0.00000000000E+00 0. -1.
</event>
<event>
 7    1  0.2895479E-015  0.9000769E+02  0.7816164E-02  0.1186339E+00
        -11   -1    0    0    0    0  0.00000000000E+00  0.00000000000E+00  0.45593999997E+02  0.45594000000E+02  0.51100000000E-03 0. -1.
         11   -1    0    0    0    0 -0.00000000000E+00 -0.00000000000E+00 -0.45593999997E+02  0.45594000000E+02  0.51100000000E-03 0.  1.
    9900012    2    1    2    0    0 -0.76902185800E+00  0.71160496548E+00  0.54345813430E+00  0.90007693689E+02  0.89999954445E+02 0.  0.
        -12    1    1    2    0    0  0.76902185800E+00 -0.71160496548E+00 -0.54345813430E+00  0.11803063114E+01  0.00000000000E+00 0.  1.
         11    1    3    3    0    0  0.26648075265E+02 -0.25858029301E+02  0.16465342096E+02  0.40618531303E+02  0.51100000000E-03 0. -1.
        -11    1    3    3    0    0 -0.22783075067E+01  0.14722964474E+01  0.67320290421E+01  0.72579995322E+01  0.51100000000E-03 0.  1.
        -12    1    3    3    0    0 -0.25138789616E+02  0.25097337819E+02 -0.22653913004E+02  0.42131162853E+02  0.00000000000E+00 0.  1.
</event>
<event>
 7    1  0.2895479E-015  0.9000770E+02  0.7816164E-02  0.1186339E+00
        -11   -1    0    0    0    0  0.00000000000E+00  0.00000000000E+00  0.45593999997E+02  0.45594000000E+02  0.51100000000E-03 0.  1.
         11   -1    0    0    0    0 -0.00000000000E+00 -0.00000000000E+00 -0.45593999997E+02  0.45594000000E+02  0.51100000000E-03 0. -1.
    9900012    2    1    2    0    0 -0.91946839071E+00  0.50552008299E+00 -0.54049302075E+00  0.90007701147E+02  0.89999962003E+02 0.  0.
        -12    1    1    2    0    0  0.91946839071E+00 -0.50552008299E+00  0.54049302075E+00  0.11802988525E+01  0.00000000000E+00 0.  1.
         11    1    3    3    0    0  0.22493694326E+02  0.25756842594E+02  0.65353547127E+01  0.34815112901E+02  0.51100000000E-03 0. -1.
        -11    1    3    3    0    0  0.88581927055E+01  0.47885458741E+01 -0.44973372344E+01  0.11028317735E+02  0.51100000000E-03 0.  1.
        -12    1    3    3    0    0 -0.32271355422E+02 -0.30039868385E+02 -0.25785104990E+01  0.44164270511E+02  0.00000000000E+00 0.  1.
</event>
<event>
 7    1  0.2895479E-015  0.9000796E+02  0.7816164E-02  0.1186339E+00
        -11   -1    0    0    0    0  0.00000000000E+00  0.00000000000E+00  0.45593999997E+02  0.45594000000E+02  0.51100000000E-03 0. -1.
         11   -1    0    0    0    0 -0.00000000000E+00 -0.00000000000E+00 -0.45593999997E+02  0.45594000000E+02  0.51100000000E-03 0.  1.
    9900012    2    1    2    0    0  0.75225284542E+00 -0.76627865588E+00  0.48931094879E+00  0.90007960795E+02  0.90000225077E+02 0.  0.
        -12    1    1    2    0    0 -0.75225284542E+00  0.76627865588E+00 -0.48931094879E+00  0.11800392055E+01  0.00000000000E+00 0.  1.
         11    1    3    3    0    0 -0.31815560310E+02  0.11291304933E+01  0.10037660594E+02  0.33380524921E+02  0.51100000000E-03 0. -1.
        -11    1    3    3    0    0 -0.78637533867E+01  0.96765525692E+01  0.28350088939E+01  0.12787163980E+02  0.51100000000E-03 0.  1.
        -12    1    3    3    0    0  0.40431566542E+02 -0.11571961718E+02 -0.12383358539E+02  0.43840271894E+02  0.00000000000E+00 0.  1.
</event>
<event>
 7    1  0.2895479E-015  0.9000761E+02  0.7816164E-02  0.1186339E+00
        -11   -1    0    0    0    0  0.00000000000E+00  0.00000000000E+00  0.45593999997E+02  0.45594000000E+02  0.51100000000E-03 0. -1.
         11   -1    0    0    0    0 -0.00000000000E+00 -0.00000000000E+00 -0.45593999997E+02  0.45594000000E+02  0.51100000000E-03 0.  1.
    9900012    2    1    2    0    0 -0.61152734366E+00  0.99710854473E+00 -0.15851954110E+00  0.90007610409E+02  0.89999870066E+02 0.  0.
        -12    1    1    2    0    0  0.61152734366E+00 -0.99710854473E+00  0.15851954110E+00  0.11803895912E+01  0.00000000000E+00 0.  1.
         11    1    3    3    0    0 -0.72324637654E+01  0.61757137611E+01 -0.52962021805E+01  0.10885666281E+02  0.51100000000E-03 0. -1.
        -11    1    3    3    0    0 -0.24584171449E+02  0.16733688119E+01 -0.25070927976E+02  0.35152995305E+02  0.51100000000E-03 0.  1.
         12    1    3    3    0    0  0.31205107871E+02 -0.68519740283E+01  0.30208610616E+02  0.43968948824E+02  0.00000000000E+00 0. -1.
</event>
<event>
 7    1  0.2895479E-015  0.9000776E+02  0.7816164E-02  0.1186339E+00
        -11   -1    0    0    0    0  0.00000000000E+00  0.00000000000E+00  0.45593999997E+02  0.45594000000E+02  0.51100000000E-03 0.  1.
         11   -1    0    0    0    0 -0.00000000000E+00 -0.00000000000E+00 -0.45593999997E+02  0.45594000000E+02  0.51100000000E-03 0. -1.
    9900012    2    1    2    0    0 -0.11580812543E+01 -0.22762456672E+00  0.14618033639E-02  0.90007759655E+02  0.90000021283E+02 0.  0.
        -12    1    1    2    0    0  0.11580812543E+01  0.22762456672E+00 -0.14618033639E-02  0.11802403449E+01  0.00000000000E+00 0.  1.
         11    1    3    3    0    0  0.56439352373E+01 -0.64909007607E+01 -0.44645551481E+01  0.96911325747E+01  0.51100000000E-03 0. -1.
        -11    1    3    3    0    0 -0.43088930644E+02  0.64811953977E+01 -0.11956681246E+01  0.43590038545E+02  0.51100000000E-03 0.  1.
         12    1    3    3    0    0  0.36286914153E+02 -0.21791920371E+00  0.56616850760E+01  0.36726588535E+02  0.00000000000E+00 0. -1.
</event>
<event>
 7    1  0.2895479E-015  0.9000775E+02  0.7816164E-02  0.1186339E+00
        -11   -1    0    0    0    0  0.00000000000E+00  0.00000000000E+00  0.45593999997E+02  0.45594000000E+02  0.51100000000E-03 0. -1.
         11   -1    0    0    0    0 -0.00000000000E+00 -0.00000000000E+00 -0.45593999997E+02  0.45594000000E+02  0.51100000000E-03 0.  1.
    9900012    2    1    2    0    0 -0.50405889161E+00  0.11342872267E+00  0.10611520049E+01  0.90007752137E+02  0.90000013665E+02 0.  0.
        -12    1    1    2    0    0  0.50405889161E+00 -0.11342872267E+00 -0.10611520049E+01  0.11802478633E+01  0.00000000000E+00 0.  1.
         11    1    3    3    0    0 -0.27967105629E+02 -0.13450485417E+02  0.12758360818E+02  0.33553693183E+02  0.51100000000E-03 0. -1.
        -11    1    3    3    0    0 -0.12564759617E+02  0.66513475614E+01 -0.60209037104E+01  0.15439070256E+02  0.51100000000E-03 0.  1.
        -12    1    3    3    0    0  0.40027806355E+02  0.69125665781E+01 -0.56763051022E+01  0.41014988698E+02  0.00000000000E+00 0.  1.
</event>
<event>
 7    1  0.2895479E-015  0.9000804E+02  0.7816164E-02  0.1186338E+00
        -11   -1    0    0    0    0  0.00000000000E+00  0.00000000000E+00  0.45593999997E+02  0.45594000000E+02  0.51100000000E-03 0.  1.
         11   -1    0    0    0    0 -0.00000000000E+00 -0.00000000000E+00 -0.45593999997E+02  0.45594000000E+02  0.51100000000E-03 0. -1.
    9900012    2    1    2    0    0 -0.92285161558E+00  0.29772186647E+00 -0.67231115782E+00  0.90008044193E+02  0.90000309576E+02 0.  0.
        -12    1    1    2    0    0  0.92285161558E+00 -0.29772186647E+00  0.67231115782E+00  0.11799558073E+01  0.00000000000E+00 0.  1.
         11    1    3    3    0    0 -0.25380337346E+02  0.25768793934E+02 -0.92769997418E+01  0.37339724009E+02  0.51100000000E-03 0. -1.
        -11    1    3    3    0    0 -0.74983740203E+00  0.90958167107E+01  0.24179616756E+01  0.94415399533E+01  0.51100000000E-03 0.  1.
        -12    1    3    3    0    0  0.25207323132E+02 -0.34566888778E+02  0.61867269085E+01  0.43226780231E+02  0.00000000000E+00 0.  1.
</event>
<event>
 7    1  0.2895479E-015  0.9000766E+02  0.7816164E-02  0.1186339E+00
        -11   -1    0    0    0    0  0.00000000000E+00  0.00000000000E+00  0.45593999997E+02  0.45594000000E+02  0.51100000000E-03 0. -1.
         11   -1    0    0    0    0 -0.00000000000E+00 -0.00000000000E+00 -0.45593999997E+02  0.45594000000E+02  0.51100000000E-03 0.  1.
    9900012    2    1    2    0    0 -0.20123607489E+00 -0.46793924058E+00  0.10647728261E+01  0.90007659260E+02  0.89999919562E+02 0.  0.
        -12    1    1    2    0    0  0.20123607489E+00  0.46793924058E+00 -0.10647728261E+01  0.11803407398E+01  0.00000000000E+00 0.  1.
         11    1    3    3    0    0  0.12716320483E+02  0.10640442790E+02  0.37856461452E+02  0.41328386169E+02  0.51100000000E-03 0. -1.
        -11    1    3    3    0    0  0.47668587427E+01 -0.10949636308E+02 -0.64836094064E+01  0.13588769950E+02  0.51100000000E-03 0.  1.
        -12    1    3    3    0    0 -0.17684415301E+02 -0.15874572240E+00 -0.30308079219E+02  0.35090503141E+02  0.00000000000E+00 0.  1.
</event>
<event>
 7    1  0.2895479E-015  0.9000778E+02  0.7816164E-02  0.1186339E+00
        -11   -1    0    0    0    0  0.00000000000E+00  0.00000000000E+00  0.45593999997E+02  0.45594000000E+02  0.51100000000E-03 0.  1.
         11   -1    0    0    0    0 -0.00000000000E+00 -0.00000000000E+00 -0.45593999997E+02  0.45594000000E+02  0.51100000000E-03 0. -1.
    9900012    2    1    2    0    0 -0.45182960462E+00 -0.29743440653E+00 -0.10489531154E+01  0.90007779743E+02  0.90000041635E+02 0.  0.
        -12    1    1    2    0    0  0.45182960462E+00  0.29743440653E+00  0.10489531154E+01  0.11802202574E+01  0.00000000000E+00 0.  1.
         11    1    3    3    0    0 -0.11166176383E+02  0.71079319734E+00 -0.37089000504E+01  0.11787479027E+02  0.51100000000E-03 0. -1.
        -11    1    3    3    0    0  0.16956568563E+02  0.36151843190E+02  0.60530137777E+01  0.40387126161E+02  0.51100000000E-03 0.  1.
         12    1    3    3    0    0 -0.62422217850E+01 -0.37160070794E+02 -0.33930668427E+01  0.37833174554E+02  0.00000000000E+00 0. -1.
</event>
<event>
 7    1  0.2895479E-015  0.9000771E+02  0.7816164E-02  0.1186339E+00
        -11   -1    0    0    0    0  0.00000000000E+00  0.00000000000E+00  0.45593999997E+02  0.45594000000E+02  0.51100000000E-03 0.  1.
         11   -1    0    0    0    0 -0.00000000000E+00 -0.00000000000E+00 -0.45593999997E+02  0.45594000000E+02  0.51100000000E-03 0. -1.
    9900012    2    1    2    0    0 -0.13314651939E+00 -0.72083188623E+00 -0.92507291700E+00  0.90007709144E+02  0.89999970104E+02 0.  0.
        -12    1    1    2    0    0  0.13314651939E+00  0.72083188623E+00  0.92507291700E+00  0.11802908564E+01  0.00000000000E+00 0.  1.
         11    1    3    3    0    0 -0.91904137742E+01 -0.32721444327E+02 -0.19477280151E+02  0.39172963464E+02  0.51100000000E-03 0. -1.
        -11    1    3    3    0    0  0.81517642151E+01 -0.54827461202E+01  0.34266810629E+01  0.10404513838E+02  0.51100000000E-03 0.  1.
        -12    1    3    3    0    0  0.90550303968E+00  0.37483358561E+02  0.15125526171E+02  0.40430231841E+02  0.00000000000E+00 0.  1.
</event>
<event>
 7    1  0.2895479E-015  0.9000830E+02  0.7816164E-02  0.1186338E+00
        -11   -1    0    0    0    0  0.00000000000E+00  0.00000000000E+00  0.45593999997E+02  0.45594000000E+02  0.51100000000E-03 0. -1.
         11   -1    0    0    0    0 -0.00000000000E+00 -0.00000000000E+00 -0.45593999997E+02  0.45594000000E+02  0.51100000000E-03 0.  1.
    9900012    2    1    2    0    0 -0.10965687910E+01 -0.35398841249E+00 -0.25284788533E+00  0.90008295392E+02  0.90000564089E+02 0.  0.
        -12    1    1    2    0    0  0.10965687910E+01  0.35398841249E+00  0.25284788533E+00  0.11797046082E+01  0.00000000000E+00 0.  1.
         11    1    3    3    0    0  0.10749060779E+01 -0.58685580527E+01  0.39599342645E+01  0.71607594803E+01  0.51100000000E-03 0. -1.
        -11    1    3    3    0    0  0.21046710822E+02 -0.31112905800E+02 -0.10559672960E+02  0.39019016351E+02  0.51100000000E-03 0.  1.
         12    1    3    3    0    0 -0.23218185691E+02  0.36627475440E+02  0.63468908103E+01  0.43828519560E+02  0.00000000000E+00 0. -1.
</event>
<event>
 7    1  0.2895479E-015  0.9000780E+02  0.7816164E-02  0.1186339E+00
        -11   -1    0    0    0    0  0.00000000000E+00  0.00000000000E+00  0.45593999997E+02  0.45594000000E+02  0.51100000000E-03 0.  1.
         11   -1    0    0    0    0 -0.00000000000E+00 -0.00000000000E+00 -0.45593999997E+02  0.45594000000E+02  0.51100000000E-03 0. -1.
    9900012    2    1    2    0    0 -0.34457728157E+00 -0.18333499720E+00 -0.11137853626E+01  0.90007803805E+02  0.90000066015E+02 0.  0.
        -12    1    1    2    0    0  0.34457728157E+00  0.18333499720E+00  0.11137853626E+01  0.11801961948E+01  0.00000000000E+00 0.  1.
         11    1    3    3    0    0  0.70640896585E+01  0.84449086859E+01  0.44011123466E+01  0.11856965698E+02  0.51100000000E-03 0. -1.
        -11    1    3    3    0    0 -0.32476656802E+02 -0.21794310745E+02  0.16334569230E+02  0.42385650521E+02  0.51100000000E-03 0.  1.
         12    1    3    3    0    0  0.25067989862E+02  0.13166067062E+02 -0.21849466939E+02  0.35765187587E+02  0.00000000000E+00 0. -1.
</event>
<event>
 7    1  0.2895479E-015  0.9000778E+02  0.7816164E-02  0.1186339E+00
        -11   -1    0    0    0    0  0.00000000000E+00  0.00000000000E+00  0.45593999997E+02  0.45594000000E+02  0.51100000000E-03 0.  1.
         11   -1    0    0    0    0 -0.00000000000E+00 -0.00000000000E+00 -0.45593999997E+02  0.45594000000E+02  0.51100000000E-03 0. -1.
    9900012    2    1    2    0    0 -0.10922760659E+01 -0.43356578969E+00  0.10891593606E+00  0.90007784350E+02  0.90000046304E+02 0.  0.
        -12    1    1    2    0    0  0.10922760659E+01  0.43356578969E+00 -0.10891593606E+00  0.11802156495E+01  0.00000000000E+00 0.  1.
         11    1    3    3    0    0 -0.33202379670E+02  0.22349842527E+02 -0.61772165646E+01  0.40497796008E+02  0.51100000000E-03 0. -1.
        -11    1    3    3    0    0 -0.53576189716E+01 -0.44562989504E+01  0.32513497869E+01  0.76898606670E+01  0.51100000000E-03 0.  1.
        -12    1    3    3    0    0  0.37467722576E+02 -0.18327109366E+02  0.30347827138E+01  0.41820127676E+02  0.00000000000E+00 0.  1.
</event>
<event>
 7    1  0.2895479E-015  0.9000778E+02  0.7816164E-02  0.1186339E+00
        -11   -1    0    0    0    0  0.00000000000E+00  0.00000000000E+00  0.45593999997E+02  0.45594000000E+02  0.51100000000E-03 0. -1.
         11   -1    0    0    0    0 -0.00000000000E+00 -0.00000000000E+00 -0.45593999997E+02  0.45594000000E+02  0.51100000000E-03 0.  1.
    9900012    2    1    2    0    0 -0.10312004330E+00 -0.49538111285E+00  0.10662484292E+01  0.90007778875E+02  0.90000040756E+02 0.  0.
        -12    1    1    2    0    0  0.10312004330E+00  0.49538111285E+00 -0.10662484292E+01  0.11802211247E+01  0.00000000000E+00 0.  1.
         11    1    3    3    0    0  0.48380634235E+01 -0.31946474385E+02  0.13392087603E+02  0.34976164655E+02  0.51100000000E-03 0. -1.
        -11    1    3    3    0    0  0.12365986411E+02 -0.42142377832E+01  0.12610576211E+01  0.13125078537E+02  0.51100000000E-03 0.  1.
        -12    1    3    3    0    0 -0.17307169878E+02  0.35665331055E+02 -0.13586896795E+02  0.41906535684E+02  0.00000000000E+00 0.  1.
</event>
<event>
 7    1  0.2895479E-015  0.9000771E+02  0.7816164E-02  0.1186339E+00
        -11   -1    0    0    0    0  0.00000000000E+00  0.00000000000E+00  0.45593999997E+02  0.45594000000E+02  0.51100000000E-03 0. -1.
         11   -1    0    0    0    0 -0.00000000000E+00 -0.00000000000E+00 -0.45593999997E+02  0.45594000000E+02  0.51100000000E-03 0.  1.
    9900012    2    1    2    0    0  0.97815528924E+00  0.10736192355E+00  0.65174528027E+00  0.90007709246E+02  0.89999970209E+02 0.  0.
        -12    1    1    2    0    0 -0.97815528924E+00 -0.10736192355E+00 -0.65174528027E+00  0.11802907535E+01  0.00000000000E+00 0.  1.
         11    1    3    3    0    0  0.63773620896E+00 -0.43243928231E+01 -0.95534519338E+01  0.10505975675E+02  0.51100000000E-03 0. -1.
        -11    1    3    3    0    0 -0.27398055700E+02  0.56358812014E+01 -0.23003412628E+02  0.36215654155E+02  0.51100000000E-03 0.  1.
         12    1    3    3    0    0  0.27738474780E+02 -0.12041264547E+01  0.33208609842E+02  0.43286079417E+02  0.00000000000E+00 0. -1.
</event>
<event>
 7    1  0.2895479E-015  0.9000768E+02  0.7816164E-02  0.1186339E+00
        -11   -1    0    0    0    0  0.00000000000E+00  0.00000000000E+00  0.45593999997E+02  0.45594000000E+02  0.51100000000E-03 0. -1.
         11   -1    0    0    0    0 -0.00000000000E+00 -0.00000000000E+00 -0.45593999997E+02  0.45594000000E+02  0.51100000000E-03 0.  1.
    9900012    2    1    2    0    0 -0.30277594352E+00 -0.11315964818E+01 -0.14480429805E+00  0.90007681334E+02  0.89999941927E+02 0.  0.
        -12    1    1    2    0    0  0.30277594352E+00  0.11315964818E+01  0.14480429805E+00  0.11803186664E+01  0.00000000000E+00 0.  1.
         11    1    3    3    0    0 -0.49430595429E+01 -0.17324381246E+01  0.38639656511E+02  0.38993053677E+02  0.51100000000E-03 0. -1.
        -11    1    3    3    0    0  0.56470840037E+01  0.69619559449E+01  0.24397655564E+01  0.92903629938E+01  0.51100000000E-03 0.  1.
        -12    1    3    3    0    0 -0.10068004044E+01 -0.63611143022E+01 -0.41224226366E+02  0.41724264663E+02  0.00000000000E+00 0.  1.
</event>
<event>
 7    1  0.2895479E-015  0.9000772E+02  0.7816164E-02  0.1186339E+00
        -11   -1    0    0    0    0  0.00000000000E+00  0.00000000000E+00  0.45593999997E+02  0.45594000000E+02  0.51100000000E-03 0. -1.
         11   -1    0    0    0    0 -0.00000000000E+00 -0.00000000000E+00 -0.45593999997E+02  0.45594000000E+02  0.51100000000E-03 0.  1.
    9900012    2    1    2    0    0 -0.99431405698E+00 -0.61960177174E+00  0.14317083412E+00  0.90007718386E+02  0.89999979469E+02 0.  0.
        -12    1    1    2    0    0  0.99431405698E+00  0.61960177174E+00 -0.14317083412E+00  0.11802816135E+01  0.00000000000E+00 0.  1.
         11    1    3    3    0    0 -0.48011202411E+00 -0.78181345417E+01 -0.18262647559E+01  0.80429458837E+01  0.51100000000E-03 0. -1.
        -11    1    3    3    0    0  0.12103439027E+02 -0.34520842650E+02  0.93534840731E+01  0.37758038589E+02  0.51100000000E-03 0.  1.
         12    1    3    3    0    0 -0.12617641060E+02  0.41719375420E+02 -0.73840484831E+01  0.44206733914E+02  0.00000000000E+00 0. -1.
</event>
<event>
 7    1  0.2895479E-015  0.9000775E+02  0.7816164E-02  0.1186339E+00
        -11   -1    0    0    0    0  0.00000000000E+00  0.00000000000E+00  0.45593999997E+02  0.45594000000E+02  0.51100000000E-03 0.  1.
         11   -1    0    0    0    0 -0.00000000000E+00 -0.00000000000E+00 -0.45593999997E+02  0.45594000000E+02  0.51100000000E-03 0. -1.
    9900012    2    1    2    0    0 -0.10129748070E+01 -0.57658794284E+00 -0.18554079769E+00  0.90007747060E+02  0.90000008521E+02 0.  0.
        -12    1    1    2    0    0  0.10129748070E+01  0.57658794284E+00  0.18554079769E+00  0.11802529403E+01  0.00000000000E+00 0.  1.
         11    1    3    3    0    0  0.14216932722E+02 -0.54653175271E+01 -0.36722258261E+02  0.39755692972E+02  0.51100000000E-03 0. -1.
        -11    1    3    3    0    0 -0.72342525904E+01  0.31352324225E+01 -0.40390905472E+01  0.88588004602E+01  0.51100000000E-03 0.  1.
        -12    1    3    3    0    0 -0.79956549382E+01  0.17534971618E+01  0.40575808010E+02  0.41393253627E+02  0.00000000000E+00 0.  1.
</event>
<event>
 7    1  0.2895479E-015  0.9000762E+02  0.7816164E-02  0.1186339E+00
        -11   -1    0    0    0    0  0.00000000000E+00  0.00000000000E+00  0.45593999997E+02  0.45594000000E+02  0.51100000000E-03 0.  1.
         11   -1    0    0    0    0 -0.00000000000E+00 -0.00000000000E+00 -0.45593999997E+02  0.45594000000E+02  0.51100000000E-03 0. -1.
    9900012    2    1    2    0    0 -0.11796478807E+01  0.40788156362E-01 -0.81877130880E-02  0.90007618776E+02  0.89999878543E+02 0.  0.
        -12    1    1    2    0    0  0.11796478807E+01 -0.40788156362E-01  0.81877130880E-02  0.11803812243E+01  0.00000000000E+00 0.  1.
         11    1    3    3    0    0 -0.16785360803E-02  0.12588145466E+02 -0.52322577201E+01  0.13632238635E+02  0.51100000000E-03 0. -1.
        -11    1    3    3    0    0 -0.14113679595E+02  0.29172092203E+02  0.19087102201E+00  0.32407458204E+02  0.51100000000E-03 0.  1.
         12    1    3    3    0    0  0.12935710250E+02 -0.41719449513E+02  0.50331989850E+01  0.43967921936E+02  0.00000000000E+00 0. -1.
</event>
<event>
 7    1  0.2895479E-015  0.9000771E+02  0.7816164E-02  0.1186339E+00
        -11   -1    0    0    0    0  0.00000000000E+00  0.00000000000E+00  0.45593999997E+02  0.45594000000E+02  0.51100000000E-03 0. -1.
         11   -1    0    0    0    0 -0.00000000000E+00 -0.00000000000E+00 -0.45593999997E+02  0.45594000000E+02  0.51100000000E-03 0.  1.
    9900012    2    1    2    0    0  0.22618336845E+00  0.76002847637E+00 -0.87422725858E+00  0.90007713806E+02  0.89999974828E+02 0.  0.
        -12    1    1    2    0    0 -0.22618336845E+00 -0.76002847637E+00  0.87422725858E+00  0.11802861944E+01  0.00000000000E+00 0.  1.
         11    1    3    3    0    0  0.26833576481E+02  0.10463036148E+02  0.15709118476E+02  0.32806894942E+02  0.51100000000E-03 0. -1.
        -11    1    3    3    0    0 -0.11156239120E+00  0.99889080757E+00  0.14755640496E+02  0.14789832850E+02  0.51100000000E-03 0.  1.
        -12    1    3    3    0    0 -0.26495830721E+02 -0.10701898479E+02 -0.31338986231E+02  0.42410986014E+02  0.00000000000E+00 0.  1.
</event>
<event>
 7    1  0.2895479E-015  0.9000777E+02  0.7816164E-02  0.1186339E+00
        -11   -1    0    0    0    0  0.00000000000E+00  0.00000000000E+00  0.45593999997E+02  0.45594000000E+02  0.51100000000E-03 0.  1.
         11   -1    0    0    0    0 -0.00000000000E+00 -0.00000000000E+00 -0.45593999997E+02  0.45594000000E+02  0.51100000000E-03 0. -1.
    9900012    2    1    2    0    0 -0.70483972668E+00 -0.92532594806E+00 -0.19979685961E+00  0.90007768694E+02  0.90000030441E+02 0.  0.
        -12    1    1    2    0    0  0.70483972668E+00  0.92532594806E+00  0.19979685961E+00  0.11802313060E+01  0.00000000000E+00 0.  1.
         11    1    3    3    0    0  0.17927323168E+00 -0.18839011551E+02  0.23989471343E+01  0.18991983644E+02  0.51100000000E-03 0. -1.
        -11    1    3    3    0    0 -0.28758521064E+02  0.27227218582E+02  0.67535355166E+01  0.40174422307E+02  0.51100000000E-03 0.  1.
         12    1    3    3    0    0  0.27874408105E+02 -0.93135329791E+01 -0.93522795105E+01  0.30841362743E+02  0.00000000000E+00 0. -1.
</event>
<event>
 7    1  0.2895479E-015  0.9000773E+02  0.7816164E-02  0.1186339E+00
        -11   -1    0    0    0    0  0.00000000000E+00  0.00000000000E+00  0.45593999997E+02  0.45594000000E+02  0.51100000000E-03 0. -1.
         11   -1    0    0    0    0 -0.00000000000E+00 -0.00000000000E+00 -0.45593999997E+02  0.45594000000E+02  0.51100000000E-03 0.  1.
    9900012    2    1    2    0    0  0.52829232040E+00 -0.37393376695E+00  0.98696942546E+00  0.90007733977E+02  0.89999995266E+02 0.  0.
        -12    1    1    2    0    0 -0.52829232040E+00  0.37393376695E+00 -0.98696942546E+00  0.11802660228E+01  0.00000000000E+00 0.  1.
         11    1    3    3    0    0 -0.31802480334E+01 -0.85272672857E+01 -0.26295826473E+00  0.91048016028E+01  0.51100000000E-03 0. -1.
        -11    1    3    3    0    0 -0.78282933737E+01  0.23068773579E+02 -0.33467717715E+02  0.41394910567E+02  0.51100000000E-03 0.  1.
         12    1    3    3    0    0  0.11536833727E+02 -0.14915440061E+02  0.34717645405E+02  0.39508021807E+02  0.00000000000E+00 0. -1.
</event>
<event>
 7    1  0.2895479E-015  0.9000764E+02  0.7816164E-02  0.1186339E+00
        -11   -1    0    0    0    0  0.00000000000E+00  0.00000000000E+00  0.45593999997E+02  0.45594000000E+02  0.51100000000E-03 0.  1.
         11   -1    0    0    0    0 -0.00000000000E+00 -0.00000000000E+00 -0.45593999997E+02  0.45594000000E+02  0.51100000000E-03 0. -1.
    9900012    2    1    2    0    0 -0.43314675839E+00  0.97903667457E+00 -0.49710557755E+00  0.90007642902E+02  0.89999902988E+02 0.  0.
        -12    1    1    2    0    0  0.43314675839E+00 -0.97903667457E+00  0.49710557755E+00  0.11803570984E+01  0.00000000000E+00 0.  1.
         11    1    3    3    0    0  0.72820922274E+01  0.21573997296E+02 -0.30962453046E+02  0.38433575496E+02  0.51100000000E-03 0. -1.
        -11    1    3    3    0    0 -0.28030621742E+01 -0.65880632189E+01 -0.77658114825E+01  0.10562554747E+02  0.51100000000E-03 0.  1.
        -12    1    3    3    0    0 -0.49121768115E+01 -0.14006897402E+02  0.38231158951E+02  0.41011512659E+02  0.00000000000E+00 0.  1.
</event>
<event>
 7    1  0.2895479E-015  0.9000780E+02  0.7816164E-02  0.1186339E+00
        -11   -1    0    0    0    0  0.00000000000E+00  0.00000000000E+00  0.45593999997E+02  0.45594000000E+02  0.51100000000E-03 0. -1.
         11   -1    0    0    0    0 -0.00000000000E+00 -0.00000000000E+00 -0.45593999997E+02  0.45594000000E+02  0.51100000000E-03 0.  1.
    9900012    2    1    2    0    0 -0.11047739232E+01  0.28312812070E+00  0.30363677383E+00  0.90007795677E+02  0.90000057780E+02 0.  0.
        -12    1    1    2    0    0  0.11047739232E+01 -0.28312812070E+00 -0.30363677383E+00  0.11802043232E+01  0.00000000000E+00 0.  1.
         11    1    3    3    0    0  0.32875087481E+02 -0.19773282405E+02  0.49837914340E+01  0.38685814600E+02  0.51100000000E-03 0. -1.
        -11    1    3    3    0    0 -0.38525214627E+01 -0.86656014790E+01 -0.91096493218E+00  0.95270366842E+01  0.51100000000E-03 0.  1.
        -12    1    3    3    0    0 -0.30127339942E+02  0.28722012005E+02 -0.37691897280E+01  0.41794944392E+02  0.00000000000E+00 0.  1.
</event>
<event>
 7    1  0.2895479E-015  0.9000773E+02  0.7816164E-02  0.1186339E+00
        -11   -1    0    0    0    0  0.00000000000E+00  0.00000000000E+00  0.45593999997E+02  0.45594000000E+02  0.51100000000E-03 0. -1.
         11   -1    0    0    0    0 -0.00000000000E+00 -0.00000000000E+00 -0.45593999997E+02  0.45594000000E+02  0.51100000000E-03 0.  1.
    9900012    2    1    2    0    0  0.53314233861E+00  0.91448273999E+00 -0.52202893853E+00  0.90007731536E+02  0.89999992792E+02 0.  0.
        -12    1    1    2    0    0 -0.53314233861E+00 -0.91448273999E+00  0.52202893853E+00  0.11802684642E+01  0.00000000000E+00 0.  1.
         11    1    3    3    0    0 -0.28336241338E+01 -0.39777811783E+01 -0.11142568608E+02  0.12165895129E+02  0.51100000000E-03 0. -1.
        -11    1    3    3    0    0 -0.20133316756E+02  0.29085997729E+02 -0.11858556184E+02  0.37309128407E+02  0.51100000000E-03 0.  1.
         12    1    3    3    0    0  0.23500083228E+02 -0.24193733810E+02  0.22479095854E+02  0.40532708000E+02  0.00000000000E+00 0. -1.
</event>
<event>
 7    1  0.2963956E-015  0.9000776E+02  0.7816164E-02  0.1186339E+00
        -11   -1    0    0    0    0  0.00000000000E+00  0.00000000000E+00  0.45593999997E+02  0.45594000000E+02  0.51100000000E-03 0. -1.
         11   -1    0    0    0    0 -0.00000000000E+00 -0.00000000000E+00 -0.45593999997E+02  0.45594000000E+02  0.51100000000E-03 0.  1.
    9900012    2    1    2    0    0 -0.52126578871E+00  0.55680806335E+00  0.90067254292E+00  0.90007760926E+02  0.90000022570E+02 0.  0.
        -12    1    1    2    0    0  0.52126578871E+00 -0.55680806335E+00 -0.90067254292E+00  0.11802390739E+01  0.00000000000E+00 0.  1.
         11    1    3    3    0    0 -0.35134790358E+01  0.20657941783E+01 -0.80305268536E+01  0.90056317007E+01  0.51100000000E-03 0. -1.
        -11    1    3    3    0    0 -0.21913438568E+02 -0.10463003664E+02 -0.27040134974E+02  0.36343391906E+02  0.51100000000E-03 0.  1.
         12    1    3    3    0    0  0.24905651815E+02  0.89540175495E+01  0.35971334370E+02  0.44658737320E+02  0.00000000000E+00 0. -1.
</event>
<event>
 7    1  0.2895479E-015  0.9000777E+02  0.7816164E-02  0.1186339E+00
        -11   -1    0    0    0    0  0.00000000000E+00  0.00000000000E+00  0.45593999997E+02  0.45594000000E+02  0.51100000000E-03 0. -1.
         11   -1    0    0    0    0 -0.00000000000E+00 -0.00000000000E+00 -0.45593999997E+02  0.45594000000E+02  0.51100000000E-03 0.  1.
    9900012    2    1    2    0    0 -0.10119420529E+00  0.10987161038E+01  0.41895919474E+00  0.90007769450E+02  0.90000031207E+02 0.  0.
        -12    1    1    2    0    0  0.10119420529E+00 -0.10987161038E+01 -0.41895919474E+00  0.11802305498E+01  0.00000000000E+00 0.  1.
         11    1    3    3    0    0  0.12942571275E+02  0.95237930889E+00 -0.47074496907E+01  0.13804972307E+02  0.51100000000E-03 0. -1.
        -11    1    3    3    0    0  0.27060759156E+02  0.13751645291E+01  0.19715572065E+02  0.33509394887E+02  0.51100000000E-03 0.  1.
         12    1    3    3    0    0 -0.40104524636E+02 -0.12288277342E+01 -0.14589163179E+02  0.42693402256E+02  0.00000000000E+00 0. -1.
</event>
<event>
 7    1  0.2895479E-015  0.9000775E+02  0.7816164E-02  0.1186339E+00
        -11   -1    0    0    0    0  0.00000000000E+00  0.00000000000E+00  0.45593999997E+02  0.45594000000E+02  0.51100000000E-03 0.  1.
         11   -1    0    0    0    0 -0.00000000000E+00 -0.00000000000E+00 -0.45593999997E+02  0.45594000000E+02  0.51100000000E-03 0. -1.
    9900012    2    1    2    0    0 -0.10055471373E+01  0.58619207129E+00  0.19556726166E+00  0.90007748864E+02  0.90000010349E+02 0.  0.
        -12    1    1    2    0    0  0.10055471373E+01 -0.58619207129E+00 -0.19556726166E+00  0.11802511358E+01  0.00000000000E+00 0.  1.
         11    1    3    3    0    0 -0.66781947217E+01  0.38798618462E+02  0.64690048295E+00  0.39374478534E+02  0.51100000000E-03 0. -1.
        -11    1    3    3    0    0  0.80134582955E+01  0.26491769218E+01 -0.43938482278E+01  0.95152275184E+01  0.51100000000E-03 0.  1.
        -12    1    3    3    0    0 -0.23408107112E+01 -0.40861603313E+02  0.39425150065E+01  0.41118042812E+02  0.00000000000E+00 0.  1.
</event>
<event>
 7    1  0.2895479E-015  0.9000758E+02  0.7816164E-02  0.1186339E+00
        -11   -1    0    0    0    0  0.00000000000E+00  0.00000000000E+00  0.45593999997E+02  0.45594000000E+02  0.51100000000E-03 0.  1.
         11   -1    0    0    0    0 -0.00000000000E+00 -0.00000000000E+00 -0.45593999997E+02  0.45594000000E+02  0.51100000000E-03 0. -1.
    9900012    2    1    2    0    0  0.53881569070E+00 -0.20439464365E+00 -0.10301947846E+01  0.90007576003E+02  0.89999835206E+02 0.  0.
        -12    1    1    2    0    0 -0.53881569070E+00  0.20439464365E+00  0.10301947846E+01  0.11804239972E+01  0.00000000000E+00 0.  1.
         11    1    3    3    0    0 -0.29849556004E+02 -0.22183684864E+01  0.24158231630E+02  0.38464754102E+02  0.51100000000E-03 0. -1.
        -11    1    3    3    0    0  0.39357162582E+01  0.72817751123E+01  0.60639070164E+01  0.10260851808E+02  0.51100000000E-03 0.  1.
        -12    1    3    3    0    0  0.26452655436E+02 -0.52678012696E+01 -0.31252333431E+02  0.41281970093E+02  0.00000000000E+00 0.  1.
</event>
<event>
 7    1  0.3963571E-015  0.9000775E+02  0.7816164E-02  0.1186339E+00
        -11   -1    0    0    0    0  0.00000000000E+00  0.00000000000E+00  0.45593999997E+02  0.45594000000E+02  0.51100000000E-03 0. -1.
         11   -1    0    0    0    0 -0.00000000000E+00 -0.00000000000E+00 -0.45593999997E+02  0.45594000000E+02  0.51100000000E-03 0.  1.
    9900012    2    1    2    0    0  0.27813114990E+00 -0.81720534240E+00  0.80485987109E+00  0.90007753873E+02  0.90000015424E+02 0.  0.
        -12    1    1    2    0    0 -0.27813114990E+00  0.81720534240E+00 -0.80485987109E+00  0.11802461270E+01  0.00000000000E+00 0.  1.
         11    1    3    3    0    0  0.89311514089E+01 -0.29673650639E+01  0.11348415594E+01  0.94793769066E+01  0.51100000000E-03 0. -1.
        -11    1    3    3    0    0 -0.12285298859E+01 -0.19434445264E+02 -0.34393824102E+02  0.39523943186E+02  0.51100000000E-03 0.  1.
         12    1    3    3    0    0 -0.74244903730E+01  0.21584604985E+02  0.34063842414E+02  0.41004433780E+02  0.00000000000E+00 0. -1.
</event>
<event>
 7    1  0.2895479E-015  0.9000765E+02  0.7816164E-02  0.1186339E+00
        -11   -1    0    0    0    0  0.00000000000E+00  0.00000000000E+00  0.45593999997E+02  0.45594000000E+02  0.51100000000E-03 0.  1.
         11   -1    0    0    0    0 -0.00000000000E+00 -0.00000000000E+00 -0.45593999997E+02  0.45594000000E+02  0.51100000000E-03 0. -1.
    9900012    2    1    2    0    0 -0.93722639347E-01  0.11472919523E+01 -0.26109688148E+00  0.90007646520E+02  0.89999906654E+02 0.  0.
        -12    1    1    2    0    0  0.93722639347E-01 -0.11472919523E+01  0.26109688148E+00  0.11803534803E+01  0.00000000000E+00 0.  1.
         11    1    3    3    0    0 -0.77109547695E+01  0.12614812586E+01 -0.56848328102E+01  0.96626850701E+01  0.51100000000E-03 0. -1.
        -11    1    3    3    0    0 -0.18348045240E+02 -0.23597157789E+02  0.26103131129E+02  0.39684380742E+02  0.51100000000E-03 0.  1.
         12    1    3    3    0    0  0.25965277370E+02  0.23482968483E+02 -0.20679395200E+02  0.40660580708E+02  0.00000000000E+00 0. -1.
</event>
<event>
 7    1  0.2895479E-015  0.9000774E+02  0.7816164E-02  0.1186339E+00
        -11   -1    0    0    0    0  0.00000000000E+00  0.00000000000E+00  0.45593999997E+02  0.45594000000E+02  0.51100000000E-03 0. -1.
         11   -1    0    0    0    0 -0.00000000000E+00 -0.00000000000E+00 -0.45593999997E+02  0.45594000000E+02  0.51100000000E-03 0.  1.
    9900012    2    1    2    0    0  0.19912634231E+00  0.11518863030E+01 -0.16286251718E+00  0.90007738353E+02  0.89999999700E+02 0.  0.
        -12    1    1    2    0    0 -0.19912634231E+00 -0.11518863030E+01  0.16286251718E+00  0.11802616467E+01  0.00000000000E+00 0.  1.
         11    1    3    3    0    0  0.96770119386E+01  0.90192892237E+01  0.86303319584E+01  0.15794770278E+02  0.51100000000E-03 0. -1.
        -11    1    3    3    0    0 -0.76569689056E+01  0.97514536705E+01 -0.38046155709E+02  0.40015371872E+02  0.51100000000E-03 0.  1.
         12    1    3    3    0    0 -0.18209166907E+01 -0.17618856591E+02  0.29252961234E+02  0.34197596204E+02  0.00000000000E+00 0. -1.
</event>
<event>
 7    1  0.2895479E-015  0.9000797E+02  0.7816164E-02  0.1186339E+00
        -11   -1    0    0    0    0  0.00000000000E+00  0.00000000000E+00  0.45593999997E+02  0.45594000000E+02  0.51100000000E-03 0. -1.
         11   -1    0    0    0    0 -0.00000000000E+00 -0.00000000000E+00 -0.45593999997E+02  0.45594000000E+02  0.51100000000E-03 0.  1.
    9900012    2    1    2    0    0 -0.10013683250E+01  0.61768467276E-01  0.62121970993E+00  0.90007971274E+02  0.90000235695E+02 0.  0.
        -12    1    1    2    0    0  0.10013683250E+01 -0.61768467276E-01 -0.62121970993E+00  0.11800287259E+01  0.00000000000E+00 0.  1.
         11    1    3    3    0    0  0.15744934358E+02  0.24941371723E+02  0.31130516793E+02  0.42884543340E+02  0.51100000000E-03 0. -1.
        -11    1    3    3    0    0  0.22313117876E+01  0.25391625660E+00 -0.82692079019E+01  0.85687236707E+01  0.51100000000E-03 0.  1.
        -12    1    3    3    0    0 -0.18977614470E+02 -0.25133519512E+02 -0.22240089182E+02  0.38554704264E+02  0.00000000000E+00 0.  1.
</event>
<event>
 7    1  0.2895479E-015  0.9000862E+02  0.7816164E-02  0.1186337E+00
        -11   -1    0    0    0    0  0.00000000000E+00  0.00000000000E+00  0.45593999997E+02  0.45594000000E+02  0.51100000000E-03 0.  1.
         11   -1    0    0    0    0 -0.00000000000E+00 -0.00000000000E+00 -0.45593999997E+02  0.45594000000E+02  0.51100000000E-03 0. -1.
    9900012    2    1    2    0    0  0.43835024791E+00 -0.21888005362E+00 -0.10727917991E+01  0.90008618102E+02  0.90000891056E+02 0.  0.
        -12    1    1    2    0    0 -0.43835024791E+00  0.21888005362E+00  0.10727917991E+01  0.11793818983E+01  0.00000000000E+00 0.  1.
         11    1    3    3    0    0 -0.12923643763E+02 -0.31101472213E+00 -0.14923669023E+01  0.13013241621E+02  0.51100000000E-03 0. -1.
        -11    1    3    3    0    0 -0.25781138466E+02  0.19297390678E+02  0.68475558446E+01  0.32923326212E+02  0.51100000000E-03 0.  1.
         12    1    3    3    0    0  0.39143132476E+02 -0.19205256010E+02 -0.64279807414E+01  0.44072050268E+02  0.00000000000E+00 0. -1.
</event>
<event>
 7    1  0.2895479E-015  0.9000771E+02  0.7816164E-02  0.1186339E+00
        -11   -1    0    0    0    0  0.00000000000E+00  0.00000000000E+00  0.45593999997E+02  0.45594000000E+02  0.51100000000E-03 0. -1.
         11   -1    0    0    0    0 -0.00000000000E+00 -0.00000000000E+00 -0.45593999997E+02  0.45594000000E+02  0.51100000000E-03 0.  1.
    9900012    2    1    2    0    0  0.67972588843E+00  0.96005283947E+00  0.96748010706E-01  0.90007708123E+02  0.89999969070E+02 0.  0.
        -12    1    1    2    0    0 -0.67972588843E+00 -0.96005283947E+00 -0.96748010706E-01  0.11802918773E+01  0.00000000000E+00 0.  1.
         11    1    3    3    0    0  0.27421226464E+01 -0.46107674736E+01 -0.70727095205E+01  0.88770284176E+01  0.51100000000E-03 0. -1.
        -11    1    3    3    0    0  0.24527985142E+02  0.47004741610E+00 -0.27688312862E+02  0.36993048929E+02  0.51100000000E-03 0.  1.
         12    1    3    3    0    0 -0.26590381900E+02  0.51007728970E+01  0.34857770393E+02  0.44137630776E+02  0.00000000000E+00 0. -1.
</event>
<event>
 7    1  0.2895479E-015  0.9000788E+02  0.7816164E-02  0.1186339E+00
        -11   -1    0    0    0    0  0.00000000000E+00  0.00000000000E+00  0.45593999997E+02  0.45594000000E+02  0.51100000000E-03 0. -1.
         11   -1    0    0    0    0 -0.00000000000E+00 -0.00000000000E+00 -0.45593999997E+02  0.45594000000E+02  0.51100000000E-03 0.  1.
    9900012    2    1    2    0    0  0.81944924229E+00  0.76196119437E-01 -0.84580742376E+00  0.90007875808E+02  0.90000138969E+02 0.  0.
        -12    1    1    2    0    0 -0.81944924229E+00 -0.76196119437E-01  0.84580742376E+00  0.11801241915E+01  0.00000000000E+00 0.  1.
         11    1    3    3    0    0 -0.21961090206E+01  0.87176053010E+00 -0.80200865429E+01  0.83609000514E+01  0.51100000000E-03 0. -1.
        -11    1    3    3    0    0  0.14819399846E+02 -0.94626736117E+01 -0.33818924315E+02  0.38116616400E+02  0.51100000000E-03 0.  1.
         12    1    3    3    0    0 -0.11803841583E+02  0.86671092010E+01  0.40993203434E+02  0.43530359358E+02  0.00000000000E+00 0. -1.
</event>
<event>
 7    1  0.2895479E-015  0.9000764E+02  0.7816164E-02  0.1186339E+00
        -11   -1    0    0    0    0  0.00000000000E+00  0.00000000000E+00  0.45593999997E+02  0.45594000000E+02  0.51100000000E-03 0. -1.
         11   -1    0    0    0    0 -0.00000000000E+00 -0.00000000000E+00 -0.45593999997E+02  0.45594000000E+02  0.51100000000E-03 0.  1.
    9900012    2    1    2    0    0 -0.39163448370E+00 -0.11033764452E+01 -0.14974164974E+00  0.90007644244E+02  0.89999904348E+02 0.  0.
        -12    1    1    2    0    0  0.39163448370E+00  0.11033764452E+01  0.14974164974E+00  0.11803557558E+01  0.00000000000E+00 0.  1.
         11    1    3    3    0    0  0.30218526813E+01  0.73786459810E+00  0.29443065554E+01  0.42831039149E+01  0.51100000000E-03 0. -1.
        -11    1    3    3    0    0  0.25697177008E+02 -0.26964647464E+02 -0.21591747439E+02  0.43053927541E+02  0.51100000000E-03 0.  1.
         12    1    3    3    0    0 -0.29110664173E+02  0.25123406420E+02  0.18497699234E+02  0.42670612788E+02  0.00000000000E+00 0. -1.
</event>
<event>
 7    1  0.2895479E-015  0.9000782E+02  0.7816164E-02  0.1186339E+00
        -11   -1    0    0    0    0  0.00000000000E+00  0.00000000000E+00  0.45593999997E+02  0.45594000000E+02  0.51100000000E-03 0.  1.
         11   -1    0    0    0    0 -0.00000000000E+00 -0.00000000000E+00 -0.45593999997E+02  0.45594000000E+02  0.51100000000E-03 0. -1.
    9900012    2    1    2    0    0  0.10113284931E+01 -0.43293824343E+00 -0.42733466857E+00  0.90007815369E+02  0.90000077732E+02 0.  0.
        -12    1    1    2    0    0 -0.10113284931E+01  0.43293824343E+00  0.42733466857E+00  0.11801846307E+01  0.00000000000E+00 0.  1.
         11    1    3    3    0    0  0.64554083605E+01 -0.19354001106E+02 -0.38255330716E+02  0.43355737617E+02  0.51100000000E-03 0. -1.
        -11    1    3    3    0    0  0.22872643975E+01 -0.29079372551E+01  0.85992729718E+01  0.93613660012E+01  0.51100000000E-03 0.  1.
        -12    1    3    3    0    0 -0.77313442650E+01  0.21829000118E+02  0.29228723075E+02  0.37290711751E+02  0.00000000000E+00 0.  1.
</event>
<event>
 7    1  0.2895479E-015  0.9000806E+02  0.7816164E-02  0.1186338E+00
        -11   -1    0    0    0    0  0.00000000000E+00  0.00000000000E+00  0.45593999997E+02  0.45594000000E+02  0.51100000000E-03 0.  1.
         11   -1    0    0    0    0 -0.00000000000E+00 -0.00000000000E+00 -0.45593999997E+02  0.45594000000E+02  0.51100000000E-03 0. -1.
    9900012    2    1    2    0    0 -0.27761028780E+00 -0.40888977624E+00 -0.10714454811E+01  0.90008061976E+02  0.90000327594E+02 0.  0.
        -12    1    1    2    0    0  0.27761028780E+00  0.40888977624E+00  0.10714454811E+01  0.11799380238E+01  0.00000000000E+00 0.  1.
         11    1    3    3    0    0 -0.11398795877E+02  0.11904362362E+02 -0.34044628566E+02  0.37824372105E+02  0.51100000000E-03 0. -1.
        -11    1    3    3    0    0  0.43802378373E+01  0.82731514615E+01 -0.33073996993E+01  0.99282632745E+01  0.51100000000E-03 0.  1.
        -12    1    3    3    0    0  0.67409477517E+01 -0.20586403600E+02  0.36280582784E+02  0.42255426597E+02  0.00000000000E+00 0.  1.
</event>
<event>
 7    1  0.2895479E-015  0.9000776E+02  0.7816164E-02  0.1186339E+00
        -11   -1    0    0    0    0  0.00000000000E+00  0.00000000000E+00  0.45593999997E+02  0.45594000000E+02  0.51100000000E-03 0. -1.
         11   -1    0    0    0    0 -0.00000000000E+00 -0.00000000000E+00 -0.45593999997E+02  0.45594000000E+02  0.51100000000E-03 0.  1.
    9900012    2    1    2    0    0 -0.11299992168E+01  0.64049565397E-01  0.33462903564E+00  0.90007755463E+02  0.90000017035E+02 0.  0.
        -12    1    1    2    0    0  0.11299992168E+01 -0.64049565397E-01 -0.33462903564E+00  0.11802445375E+01  0.00000000000E+00 0.  1.
         11    1    3    3    0    0 -0.50489585738E+01  0.84211996925E+01 -0.12059691528E+01  0.98925703839E+01  0.51100000000E-03 0. -1.
        -11    1    3    3    0    0  0.23454739652E+02  0.24326245810E+01 -0.32047922146E+02  0.39788337344E+02  0.51100000000E-03 0.  1.
         12    1    3    3    0    0 -0.19535780295E+02 -0.10789774708E+02  0.33588520334E+02  0.40326847735E+02  0.00000000000E+00 0. -1.
</event>
<event>
 7    1  0.2895479E-015  0.9000786E+02  0.7816164E-02  0.1186339E+00
        -11   -1    0    0    0    0  0.00000000000E+00  0.00000000000E+00  0.45593999997E+02  0.45594000000E+02  0.51100000000E-03 0. -1.
         11   -1    0    0    0    0 -0.00000000000E+00 -0.00000000000E+00 -0.45593999997E+02  0.45594000000E+02  0.51100000000E-03 0.  1.
    9900012    2    1    2    0    0  0.59977792686E+00 -0.61297522789E+00 -0.81070877033E+00  0.90007864032E+02  0.90000127038E+02 0.  0.
        -12    1    1    2    0    0 -0.59977792686E+00  0.61297522789E+00  0.81070877033E+00  0.11801359675E+01  0.00000000000E+00 0.  1.
         11    1    3    3    0    0  0.56421469740E-01  0.83018081716E+01  0.27362947158E+00  0.83065080298E+01  0.51100000000E-03 0. -1.
        -11    1    3    3    0    0  0.20354920150E+02 -0.11563390371E+02 -0.35133807943E+02  0.42218707133E+02  0.51100000000E-03 0.  1.
         12    1    3    3    0    0 -0.19811563692E+02  0.26486069712E+01  0.34049469701E+02  0.39482648870E+02  0.00000000000E+00 0. -1.
</event>
<event>
 7    1  0.2895479E-015  0.9000790E+02  0.7816164E-02  0.1186339E+00
        -11   -1    0    0    0    0  0.00000000000E+00  0.00000000000E+00  0.45593999997E+02  0.45594000000E+02  0.51100000000E-03 0.  1.
         11   -1    0    0    0    0 -0.00000000000E+00 -0.00000000000E+00 -0.45593999997E+02  0.45594000000E+02  0.51100000000E-03 0. -1.
    9900012    2    1    2    0    0  0.10834340753E+01  0.42734186591E+00  0.19021898614E+00  0.90007900967E+02  0.90000164459E+02 0.  0.
        -12    1    1    2    0    0 -0.10834340753E+01 -0.42734186591E+00 -0.19021898614E+00  0.11800990334E+01  0.00000000000E+00 0.  1.
         11    1    3    3    0    0  0.88043189576E+01 -0.13970483580E+01 -0.34080331001E+01  0.95437134436E+01  0.51100000000E-03 0. -1.
        -11    1    3    3    0    0  0.30504707006E+02  0.21170948204E+02 -0.23743790841E+01  0.37207309412E+02  0.51100000000E-03 0.  1.
         12    1    3    3    0    0 -0.38225591888E+02 -0.19346557980E+02  0.59726311704E+01  0.43256878111E+02  0.00000000000E+00 0. -1.
</event>
<event>
 7    1  0.2895479E-015  0.9000773E+02  0.7816164E-02  0.1186339E+00
        -11   -1    0    0    0    0  0.00000000000E+00  0.00000000000E+00  0.45593999997E+02  0.45594000000E+02  0.51100000000E-03 0.  1.
         11   -1    0    0    0    0 -0.00000000000E+00 -0.00000000000E+00 -0.45593999997E+02  0.45594000000E+02  0.51100000000E-03 0. -1.
    9900012    2    1    2    0    0  0.11703769876E+00 -0.21854231998E+00 -0.11539378954E+01  0.90007732558E+02  0.89999993828E+02 0.  0.
        -12    1    1    2    0    0 -0.11703769876E+00  0.21854231998E+00  0.11539378954E+01  0.11802674421E+01  0.00000000000E+00 0.  1.
         11    1    3    3    0    0  0.22587364311E+01 -0.69966497917E+01  0.41873136073E+01  0.84610043186E+01  0.51100000000E-03 0. -1.
        -11    1    3    3    0    0  0.86019455157E+00  0.43646991767E+02  0.25259898421E+01  0.43728485566E+02  0.51100000000E-03 0.  1.
         12    1    3    3    0    0 -0.30018932839E+01 -0.36868884295E+02 -0.78672413448E+01  0.37818242673E+02  0.00000000000E+00 0. -1.
</event>
<event>
 7    1  0.4166968E-015  0.9000757E+02  0.7816164E-02  0.1186339E+00
        -11   -1    0    0    0    0  0.00000000000E+00  0.00000000000E+00  0.45593999997E+02  0.45594000000E+02  0.51100000000E-03 0. -1.
         11   -1    0    0    0    0 -0.00000000000E+00 -0.00000000000E+00 -0.45593999997E+02  0.45594000000E+02  0.51100000000E-03 0.  1.
    9900012    2    1    2    0    0 -0.86766773104E+00  0.73320646709E+00  0.32090317120E+00  0.90007568782E+02  0.89999827890E+02 0.  0.
        -12    1    1    2    0    0  0.86766773104E+00 -0.73320646709E+00 -0.32090317120E+00  0.11804312179E+01  0.00000000000E+00 0.  1.
         11    1    3    3    0    0 -0.21958340288E+01 -0.26300854235E+01 -0.85877019402E+01  0.92459537794E+01  0.51100000000E-03 0. -1.
        -11    1    3    3    0    0  0.18257325027E+02 -0.25947020380E+02 -0.18922336047E+02  0.36940933739E+02  0.51100000000E-03 0.  1.
         12    1    3    3    0    0 -0.16929158729E+02  0.29310312271E+02  0.27830941158E+02  0.43820681264E+02  0.00000000000E+00 0. -1.
</event>
<event>
 7    1  0.2895479E-015  0.9000768E+02  0.7816164E-02  0.1186339E+00
        -11   -1    0    0    0    0  0.00000000000E+00  0.00000000000E+00  0.45593999997E+02  0.45594000000E+02  0.51100000000E-03 0.  1.
         11   -1    0    0    0    0 -0.00000000000E+00 -0.00000000000E+00 -0.45593999997E+02  0.45594000000E+02  0.51100000000E-03 0. -1.
    9900012    2    1    2    0    0  0.31348729167E+00  0.83786414590E+00 -0.76997382399E+00  0.90007682120E+02  0.89999942724E+02 0.  0.
        -12    1    1    2    0    0 -0.31348729167E+00 -0.83786414590E+00  0.76997382399E+00  0.11803178803E+01  0.00000000000E+00 0.  1.
         11    1    3    3    0    0  0.16268168404E+02  0.28961662378E+02 -0.19306989922E+02  0.38421231774E+02  0.51100000000E-03 0. -1.
        -11    1    3    3    0    0  0.99149712700E+01 -0.14621538587E+00  0.23801484454E+01  0.10197702737E+02  0.51100000000E-03 0.  1.
        -12    1    3    3    0    0 -0.25869652383E+02 -0.27977582846E+02  0.16156867653E+02  0.41388747609E+02  0.00000000000E+00 0.  1.
</event>
<event>
 7    1  0.2895479E-015  0.9000773E+02  0.7816164E-02  0.1186339E+00
        -11   -1    0    0    0    0  0.00000000000E+00  0.00000000000E+00  0.45593999997E+02  0.45594000000E+02  0.51100000000E-03 0.  1.
         11   -1    0    0    0    0 -0.00000000000E+00 -0.00000000000E+00 -0.45593999997E+02  0.45594000000E+02  0.51100000000E-03 0. -1.
    9900012    2    1    2    0    0 -0.67424787092E+00  0.91201886342E+00  0.32655401399E+00  0.90007734724E+02  0.89999996022E+02 0.  0.
        -12    1    1    2    0    0  0.67424787092E+00 -0.91201886342E+00 -0.32655401399E+00  0.11802652764E+01  0.00000000000E+00 0.  1.
         11    1    3    3    0    0 -0.11081778274E+02  0.30421405072E+02 -0.23251629097E+02  0.39861083179E+02  0.51100000000E-03 0. -1.
        -11    1    3    3    0    0 -0.13317631240E+01 -0.37339274814E+01 -0.72623720221E+01  0.82739262206E+01  0.51100000000E-03 0.  1.
        -12    1    3    3    0    0  0.11739293528E+02 -0.25775458727E+02  0.30840555133E+02  0.41872725324E+02  0.00000000000E+00 0.  1.
</event>
<event>
 7    1  0.2895479E-015  0.9000753E+02  0.7816164E-02  0.1186339E+00
        -11   -1    0    0    0    0  0.00000000000E+00  0.00000000000E+00  0.45593999997E+02  0.45594000000E+02  0.51100000000E-03 0. -1.
         11   -1    0    0    0    0 -0.00000000000E+00 -0.00000000000E+00 -0.45593999997E+02  0.45594000000E+02  0.51100000000E-03 0.  1.
    9900012    2    1    2    0    0 -0.12751135318E+00  0.11455555810E+01 -0.25486944600E+00  0.90007527565E+02  0.89999786129E+02 0.  0.
        -12    1    1    2    0    0  0.12751135318E+00 -0.11455555810E+01  0.25486944600E+00  0.11804724346E+01  0.00000000000E+00 0.  1.
         11    1    3    3    0    0 -0.25658754641E+01  0.88342551008E+01 -0.67362154616E+00  0.92239658678E+01  0.51100000000E-03 0. -1.
        -11    1    3    3    0    0 -0.11331317630E+02  0.34020981263E+02 -0.61161772585E+01  0.36376277295E+02  0.51100000000E-03 0.  1.
         12    1    3    3    0    0  0.13769681741E+02 -0.41709680783E+02  0.65349293587E+01  0.44407284402E+02  0.00000000000E+00 0. -1.
</event>
<event>
 7    1  0.2895479E-015  0.9000775E+02  0.7816164E-02  0.1186339E+00
        -11   -1    0    0    0    0  0.00000000000E+00  0.00000000000E+00  0.45593999997E+02  0.45594000000E+02  0.51100000000E-03 0.  1.
         11   -1    0    0    0    0 -0.00000000000E+00 -0.00000000000E+00 -0.45593999997E+02  0.45594000000E+02  0.51100000000E-03 0. -1.
    9900012    2    1    2    0    0  0.11240390366E+01 -0.16875814255E+00  0.31788871407E+00  0.90007747357E+02  0.90000008822E+02 0.  0.
        -12    1    1    2    0    0 -0.11240390366E+01  0.16875814255E+00 -0.31788871407E+00  0.11802526428E+01  0.00000000000E+00 0.  1.
         11    1    3    3    0    0 -0.55933866856E+01 -0.86141960602E+01  0.24430555957E+01  0.10557408265E+02  0.51100000000E-03 0. -1.
        -11    1    3    3    0    0 -0.10007692416E+02 -0.29982065870E+02 -0.15838356456E+02  0.35354373376E+02  0.51100000000E-03 0.  1.
         12    1    3    3    0    0  0.16725118138E+02  0.38427503788E+02  0.13713189574E+02  0.44095965716E+02  0.00000000000E+00 0. -1.
</event>
<event>
 7    1  0.2895479E-015  0.9000760E+02  0.7816164E-02  0.1186339E+00
        -11   -1    0    0    0    0  0.00000000000E+00  0.00000000000E+00  0.45593999997E+02  0.45594000000E+02  0.51100000000E-03 0.  1.
         11   -1    0    0    0    0 -0.00000000000E+00 -0.00000000000E+00 -0.45593999997E+02  0.45594000000E+02  0.51100000000E-03 0. -1.
    9900012    2    1    2    0    0  0.83708318910E+00  0.52150391024E+00  0.64858277744E+00  0.90007604213E+02  0.89999863789E+02 0.  0.
        -12    1    1    2    0    0 -0.83708318910E+00 -0.52150391024E+00 -0.64858277744E+00  0.11803957866E+01  0.00000000000E+00 0.  1.
         11    1    3    3    0    0 -0.95787882212E+01 -0.30116438714E+02  0.18435005172E+02  0.36586916795E+02  0.51100000000E-03 0. -1.
        -11    1    3    3    0    0 -0.10637694492E+02 -0.26225062920E+01 -0.48921937892E+01  0.11998818429E+02  0.51100000000E-03 0.  1.
        -12    1    3    3    0    0  0.21053565902E+02  0.33260448916E+02 -0.12894228606E+02  0.41421868990E+02  0.00000000000E+00 0.  1.
</event>
<event>
 7    1  0.2895479E-015  0.9000773E+02  0.7816164E-02  0.1186339E+00
        -11   -1    0    0    0    0  0.00000000000E+00  0.00000000000E+00  0.45593999997E+02  0.45594000000E+02  0.51100000000E-03 0. -1.
         11   -1    0    0    0    0 -0.00000000000E+00 -0.00000000000E+00 -0.45593999997E+02  0.45594000000E+02  0.51100000000E-03 0.  1.
    9900012    2    1    2    0    0 -0.30285676923E+00  0.34649223994E+00  0.10868607223E+01  0.90007726589E+02  0.89999987780E+02 0.  0.
        -12    1    1    2    0    0  0.30285676923E+00 -0.34649223994E+00 -0.10868607223E+01  0.11802734110E+01  0.00000000000E+00 0.  1.
         11    1    3    3    0    0  0.78220693412E+01 -0.68372765434E+01 -0.42155638988E+01  0.11211783915E+02  0.51100000000E-03 0. -1.
        -11    1    3    3    0    0  0.19765765998E+02  0.83732881948E+01 -0.28037827227E+02  0.35311715004E+02  0.51100000000E-03 0.  1.
         12    1    3    3    0    0 -0.27890692108E+02 -0.11895194114E+01  0.33340251848E+02  0.43484227670E+02  0.00000000000E+00 0. -1.
</event>
<event>
 7    1  0.2895479E-015  0.9000776E+02  0.7816164E-02  0.1186339E+00
        -11   -1    0    0    0    0  0.00000000000E+00  0.00000000000E+00  0.45593999997E+02  0.45594000000E+02  0.51100000000E-03 0.  1.
         11   -1    0    0    0    0 -0.00000000000E+00 -0.00000000000E+00 -0.45593999997E+02  0.45594000000E+02  0.51100000000E-03 0. -1.
    9900012    2    1    2    0    0  0.82163909426E+00 -0.78277655074E+00 -0.32424735159E+00  0.90007760078E+02  0.90000021711E+02 0.  0.
        -12    1    1    2    0    0 -0.82163909426E+00  0.78277655074E+00  0.32424735159E+00  0.11802399225E+01  0.00000000000E+00 0.  1.
         11    1    3    3    0    0  0.37367563954E+01 -0.31701746832E+01  0.10020136369E+02  0.11154213957E+02  0.51100000000E-03 0. -1.
        -11    1    3    3    0    0 -0.31255753586E+02 -0.21760761617E+02  0.53288814019E+01  0.38455816928E+02  0.51100000000E-03 0.  1.
         12    1    3    3    0    0  0.28340636285E+02  0.24148159749E+02 -0.15673265123E+02  0.40397729192E+02  0.00000000000E+00 0. -1.
</event>
<event>
 7    1  0.2895479E-015  0.9000782E+02  0.7816164E-02  0.1186339E+00
        -11   -1    0    0    0    0  0.00000000000E+00  0.00000000000E+00  0.45593999997E+02  0.45594000000E+02  0.51100000000E-03 0.  1.
         11   -1    0    0    0    0 -0.00000000000E+00 -0.00000000000E+00 -0.45593999997E+02  0.45594000000E+02  0.51100000000E-03 0. -1.
    9900012    2    1    2    0    0 -0.47677059859E+00 -0.53072398978E+00 -0.94013503387E+00  0.90007816947E+02  0.90000079331E+02 0.  0.
        -12    1    1    2    0    0  0.47677059859E+00  0.53072398978E+00  0.94013503387E+00  0.11801830531E+01  0.00000000000E+00 0.  1.
         11    1    3    3    0    0 -0.88060979109E+01  0.20939237829E+00 -0.35842924065E+02  0.36909435262E+02  0.51100000000E-03 0. -1.
        -11    1    3    3    0    0  0.54544359160E+01  0.59577662446E+01 -0.69254033122E+01  0.10639880689E+02  0.51100000000E-03 0.  1.
        -12    1    3    3    0    0  0.28748913963E+01 -0.66978826126E+01  0.41828192343E+02  0.42458500995E+02  0.00000000000E+00 0.  1.
</event>
<event>
 7    1  0.2895479E-015  0.9000763E+02  0.7816164E-02  0.1186339E+00
        -11   -1    0    0    0    0  0.00000000000E+00  0.00000000000E+00  0.45593999997E+02  0.45594000000E+02  0.51100000000E-03 0.  1.
         11   -1    0    0    0    0 -0.00000000000E+00 -0.00000000000E+00 -0.45593999997E+02  0.45594000000E+02  0.51100000000E-03 0. -1.
    9900012    2    1    2    0    0  0.89905482655E+00  0.69891613562E+00 -0.31063875725E+00  0.90007627269E+02  0.89999887149E+02 0.  0.
        -12    1    1    2    0    0 -0.89905482655E+00 -0.69891613562E+00  0.31063875725E+00  0.11803727307E+01  0.00000000000E+00 0.  1.
         11    1    3    3    0    0 -0.76463677963E+01  0.53225861933E+01  0.92712611259E+00  0.93625011269E+01  0.51100000000E-03 0. -1.
        -11    1    3    3    0    0  0.31568272903E+02  0.18759058818E+02  0.19747184297E+02  0.41694237369E+02  0.51100000000E-03 0.  1.
         12    1    3    3    0    0 -0.23022850280E+02 -0.23382728876E+02 -0.20984949167E+02  0.38950888774E+02  0.00000000000E+00 0. -1.
</event>
<event>
 7    1  0.2895479E-015  0.9000777E+02  0.7816164E-02  0.1186339E+00
        -11   -1    0    0    0    0  0.00000000000E+00  0.00000000000E+00  0.45593999997E+02  0.45594000000E+02  0.51100000000E-03 0.  1.
         11   -1    0    0    0    0 -0.00000000000E+00 -0.00000000000E+00 -0.45593999997E+02  0.45594000000E+02  0.51100000000E-03 0. -1.
    9900012    2    1    2    0    0  0.11179153475E+01 -0.30841702818E+00  0.21928777332E+00  0.90007769974E+02  0.90000031737E+02 0.  0.
        -12    1    1    2    0    0 -0.11179153475E+01  0.30841702818E+00 -0.21928777332E+00  0.11802300263E+01  0.00000000000E+00 0.  1.
         11    1    3    3    0    0 -0.18536559560E+02 -0.19586676169E+02 -0.20519859703E+02  0.33886672397E+02  0.51100000000E-03 0. -1.
        -11    1    3    3    0    0 -0.51293978133E+01 -0.10235378993E+02 -0.16237772829E+01  0.11563319505E+02  0.51100000000E-03 0.  1.
        -12    1    3    3    0    0  0.24783872721E+02  0.29513638133E+02  0.22362924759E+02  0.44557778072E+02  0.00000000000E+00 0.  1.
</event>
<event>
 7    1  0.2895479E-015  0.9000775E+02  0.7816164E-02  0.1186339E+00
        -11   -1    0    0    0    0  0.00000000000E+00  0.00000000000E+00  0.45593999997E+02  0.45594000000E+02  0.51100000000E-03 0. -1.
         11   -1    0    0    0    0 -0.00000000000E+00 -0.00000000000E+00 -0.45593999997E+02  0.45594000000E+02  0.51100000000E-03 0.  1.
    9900012    2    1    2    0    0  0.68753724971E-01 -0.11963175809E+00  0.11721528522E+01  0.90007753779E+02  0.90000015329E+02 0.  0.
        -12    1    1    2    0    0 -0.68753724971E-01  0.11963175809E+00 -0.11721528522E+01  0.11802462205E+01  0.00000000000E+00 0.  1.
         11    1    3    3    0    0  0.74980195244E+01 -0.99743510836E+01  0.18912072113E+01  0.12620801928E+02  0.51100000000E-03 0. -1.
        -11    1    3    3    0    0  0.27831090302E+02 -0.20128339571E+01  0.20437933818E+02  0.34588006981E+02  0.51100000000E-03 0.  1.
         12    1    3    3    0    0 -0.35260356101E+02  0.11867553283E+02 -0.21156988177E+02  0.42798944870E+02  0.00000000000E+00 0. -1.
</event>
<event>
 7    1  0.2895479E-015  0.9000787E+02  0.7816164E-02  0.1186339E+00
        -11   -1    0    0    0    0  0.00000000000E+00  0.00000000000E+00  0.45593999997E+02  0.45594000000E+02  0.51100000000E-03 0. -1.
         11   -1    0    0    0    0 -0.00000000000E+00 -0.00000000000E+00 -0.45593999997E+02  0.45594000000E+02  0.51100000000E-03 0.  1.
    9900012    2    1    2    0    0  0.61721646722E+00 -0.39471248153E+00 -0.92517558256E+00  0.90007871207E+02  0.90000134306E+02 0.  0.
        -12    1    1    2    0    0 -0.61721646722E+00  0.39471248153E+00  0.92517558256E+00  0.11801287934E+01  0.00000000000E+00 0.  1.
         11    1    3    3    0    0 -0.43299596384E+01  0.24872872977E+02  0.28171531359E+02  0.37829136125E+02  0.51100000000E-03 0. -1.
        -11    1    3    3    0    0 -0.92568694385E+01  0.38102196696E+01 -0.25713029989E+01  0.10335328012E+02  0.51100000000E-03 0.  1.
        -12    1    3    3    0    0  0.14204045544E+02 -0.29077805128E+02 -0.26525403943E+02  0.41843407070E+02  0.00000000000E+00 0.  1.
</event>
<event>
 7    1  0.2895479E-015  0.9000777E+02  0.7816164E-02  0.1186339E+00
        -11   -1    0    0    0    0  0.00000000000E+00  0.00000000000E+00  0.45593999997E+02  0.45594000000E+02  0.51100000000E-03 0. -1.
         11   -1    0    0    0    0 -0.00000000000E+00 -0.00000000000E+00 -0.45593999997E+02  0.45594000000E+02  0.51100000000E-03 0.  1.
    9900012    2    1    2    0    0 -0.59875959435E+00  0.51939000396E+00  0.87445453284E+00  0.90007767075E+02  0.90000028800E+02 0.  0.
        -12    1    1    2    0    0  0.59875959435E+00 -0.51939000396E+00 -0.87445453284E+00  0.11802329253E+01  0.00000000000E+00 0.  1.
         11    1    3    3    0    0 -0.10401802676E+00 -0.32017861965E+01  0.54630804892E+01  0.63330484990E+01  0.51100000000E-03 0. -1.
        -11    1    3    3    0    0  0.15529454438E+02  0.33240628401E+02 -0.24975695265E+02  0.44383428054E+02  0.51100000000E-03 0.  1.
         12    1    3    3    0    0 -0.16024196005E+02 -0.29519452201E+02  0.20387069308E+02  0.39291290521E+02  0.00000000000E+00 0. -1.
</event>
<event>
 7    1  0.2895479E-015  0.9000766E+02  0.7816164E-02  0.1186339E+00
        -11   -1    0    0    0    0  0.00000000000E+00  0.00000000000E+00  0.45593999997E+02  0.45594000000E+02  0.51100000000E-03 0. -1.
         11   -1    0    0    0    0 -0.00000000000E+00 -0.00000000000E+00 -0.45593999997E+02  0.45594000000E+02  0.51100000000E-03 0.  1.
    9900012    2    1    2    0    0  0.25512541955E+00 -0.11497916018E+01 -0.78100364210E-01  0.90007657095E+02  0.89999917368E+02 0.  0.
        -12    1    1    2    0    0 -0.25512541955E+00  0.11497916018E+01  0.78100364210E-01  0.11803429053E+01  0.00000000000E+00 0.  1.
         11    1    3    3    0    0  0.83461783971E+01 -0.18991244206E+01  0.16560552666E+01  0.87182502091E+01  0.51100000000E-03 0. -1.
        -11    1    3    3    0    0  0.27957691046E+02  0.25175694554E+02  0.12417513304E+01  0.37642928041E+02  0.51100000000E-03 0.  1.
         12    1    3    3    0    0 -0.36048744023E+02 -0.24426361735E+02 -0.29759069612E+01  0.43646478844E+02  0.00000000000E+00 0. -1.
</event>
<event>
 7    1  0.2895479E-015  0.9000769E+02  0.7816164E-02  0.1186339E+00
        -11   -1    0    0    0    0  0.00000000000E+00  0.00000000000E+00  0.45593999997E+02  0.45594000000E+02  0.51100000000E-03 0. -1.
         11   -1    0    0    0    0 -0.00000000000E+00 -0.00000000000E+00 -0.45593999997E+02  0.45594000000E+02  0.51100000000E-03 0.  1.
    9900012    2    1    2    0    0  0.49514223334E+00  0.10346023219E+01  0.27848648824E+00  0.90007693887E+02  0.89999954646E+02 0.  0.
        -12    1    1    2    0    0 -0.49514223334E+00 -0.10346023219E+01 -0.27848648824E+00  0.11803061128E+01  0.00000000000E+00 0.  1.
         11    1    3    3    0    0 -0.68204875074E+01  0.13114389638E+02  0.13781811320E+02  0.20210012097E+02  0.51100000000E-03 0. -1.
        -11    1    3    3    0    0  0.50877280324E+01 -0.11522129412E+02 -0.40648667246E+02  0.42555359144E+02  0.51100000000E-03 0.  1.
         12    1    3    3    0    0  0.22279017083E+01 -0.55765790433E+00  0.27145342414E+02  0.27242322646E+02  0.00000000000E+00 0. -1.
</event>
<event>
 7    1  0.2895479E-015  0.9000784E+02  0.7816164E-02  0.1186339E+00
        -11   -1    0    0    0    0  0.00000000000E+00  0.00000000000E+00  0.45593999997E+02  0.45594000000E+02  0.51100000000E-03 0.  1.
         11   -1    0    0    0    0 -0.00000000000E+00 -0.00000000000E+00 -0.45593999997E+02  0.45594000000E+02  0.51100000000E-03 0. -1.
    9900012    2    1    2    0    0  0.84592363781E+00 -0.53835106783E+00 -0.62239139030E+00  0.90007839114E+02  0.90000101791E+02 0.  0.
        -12    1    1    2    0    0 -0.84592363781E+00  0.53835106783E+00  0.62239139030E+00  0.11801608856E+01  0.00000000000E+00 0.  1.
         11    1    3    3    0    0 -0.88848415743E+01  0.25224765990E+01 -0.10325925306E+01  0.92935217000E+01  0.51100000000E-03 0. -1.
        -11    1    3    3    0    0 -0.18471709978E+02 -0.24286958738E+02 -0.23128244445E+02  0.38288067666E+02  0.51100000000E-03 0.  1.
         12    1    3    3    0    0  0.28202475190E+02  0.21226131071E+02  0.23538445586E+02  0.42426249748E+02  0.00000000000E+00 0. -1.
</event>
<event>
 7    1  0.2895479E-015  0.9000780E+02  0.7816164E-02  0.1186339E+00
        -11   -1    0    0    0    0  0.00000000000E+00  0.00000000000E+00  0.45593999997E+02  0.45594000000E+02  0.51100000000E-03 0. -1.
         11   -1    0    0    0    0 -0.00000000000E+00 -0.00000000000E+00 -0.45593999997E+02  0.45594000000E+02  0.51100000000E-03 0.  1.
    9900012    2    1    2    0    0 -0.52927998574E+00  0.51069295857E+00  0.92299942419E+00  0.90007799789E+02  0.90000061946E+02 0.  0.
        -12    1    1    2    0    0  0.52927998574E+00 -0.51069295857E+00 -0.92299942419E+00  0.11802002111E+01  0.00000000000E+00 0.  1.
         11    1    3    3    0    0  0.22866433874E+01  0.50537175747E+00  0.10033797200E+02  0.10303456949E+02  0.51100000000E-03 0. -1.
        -11    1    3    3    0    0  0.36615420353E+02  0.10314889876E+02 -0.47951839242E+00  0.38043605231E+02  0.51100000000E-03 0.  1.
         12    1    3    3    0    0 -0.39431343726E+02 -0.10309568675E+02 -0.86312793832E+01  0.41660737609E+02  0.00000000000E+00 0. -1.
</event>
<event>
 7    1  0.2895479E-015  0.9000767E+02  0.7816164E-02  0.1186339E+00
        -11   -1    0    0    0    0  0.00000000000E+00  0.00000000000E+00  0.45593999997E+02  0.45594000000E+02  0.51100000000E-03 0. -1.
         11   -1    0    0    0    0 -0.00000000000E+00 -0.00000000000E+00 -0.45593999997E+02  0.45594000000E+02  0.51100000000E-03 0.  1.
    9900012    2    1    2    0    0  0.10677010554E+00 -0.52435965203E+00  0.10520555551E+01  0.90007672168E+02  0.89999932641E+02 0.  0.
        -12    1    1    2    0    0 -0.10677010554E+00  0.52435965203E+00 -0.10520555551E+01  0.11803278320E+01  0.00000000000E+00 0.  1.
         11    1    3    3    0    0  0.14219757087E+02  0.31723408995E+02 -0.10553105491E+02  0.36331036396E+02  0.51100000000E-03 0. -1.
        -11    1    3    3    0    0  0.32034585196E+01  0.76893572637E+01  0.48123275355E+01  0.96201277635E+01  0.51100000000E-03 0.  1.
        -12    1    3    3    0    0 -0.17316445501E+02 -0.39937125911E+02  0.67928335100E+01  0.44056508008E+02  0.00000000000E+00 0.  1.
</event>
<event>
 7    1  0.2895479E-015  0.9000703E+02  0.7816164E-02  0.1186340E+00
        -11   -1    0    0    0    0  0.00000000000E+00  0.00000000000E+00  0.45593999997E+02  0.45594000000E+02  0.51100000000E-03 0.  1.
         11   -1    0    0    0    0 -0.00000000000E+00 -0.00000000000E+00 -0.45593999997E+02  0.45594000000E+02  0.51100000000E-03 0. -1.
    9900012    2    1    2    0    0 -0.11669405491E+01 -0.18064690453E+00  0.17221315343E-01  0.90007034241E+02  0.89999286291E+02 0.  0.
        -12    1    1    2    0    0  0.11669405491E+01  0.18064690453E+00 -0.17221315343E-01  0.11809657586E+01  0.00000000000E+00 0.  1.
         11    1    3    3    0    0 -0.25271367260E+02  0.17223530755E+02 -0.99420848507E+01  0.32158001590E+02  0.51100000000E-03 0. -1.
        -11    1    3    3    0    0  0.12418536945E+00  0.15217964407E+02 -0.26409823052E+01  0.15445926664E+02  0.51100000000E-03 0.  1.
        -12    1    3    3    0    0  0.23980241341E+02 -0.32622142067E+02  0.12600288471E+02  0.42403105987E+02  0.00000000000E+00 0.  1.
</event>
<event>
 7    1  0.2895479E-015  0.9000774E+02  0.7816164E-02  0.1186339E+00
        -11   -1    0    0    0    0  0.00000000000E+00  0.00000000000E+00  0.45593999997E+02  0.45594000000E+02  0.51100000000E-03 0.  1.
         11   -1    0    0    0    0 -0.00000000000E+00 -0.00000000000E+00 -0.45593999997E+02  0.45594000000E+02  0.51100000000E-03 0. -1.
    9900012    2    1    2    0    0 -0.45353374854E+00 -0.10236154203E+01  0.37352915156E+00  0.90007743495E+02  0.90000004909E+02 0.  0.
        -12    1    1    2    0    0  0.45353374854E+00  0.10236154203E+01 -0.37352915156E+00  0.11802565047E+01  0.00000000000E+00 0.  1.
         11    1    3    3    0    0 -0.15683839624E+02 -0.33011088413E+02  0.11749349202E+02  0.38389607844E+02  0.51100000000E-03 0. -1.
        -11    1    3    3    0    0  0.11448918009E+02 -0.23163031307E+01  0.58304445158E+01  0.13055154817E+02  0.51100000000E-03 0.  1.
        -12    1    3    3    0    0  0.37813878658E+01  0.34303776123E+02 -0.17206264566E+02  0.38562980834E+02  0.00000000000E+00 0.  1.
</event>
<event>
 7    1  0.2895479E-015  0.9000772E+02  0.7816164E-02  0.1186339E+00
        -11   -1    0    0    0    0  0.00000000000E+00  0.00000000000E+00  0.45593999997E+02  0.45594000000E+02  0.51100000000E-03 0. -1.
         11   -1    0    0    0    0 -0.00000000000E+00 -0.00000000000E+00 -0.45593999997E+02  0.45594000000E+02  0.51100000000E-03 0.  1.
    9900012    2    1    2    0    0 -0.61163391115E+00 -0.66629291997E+00  0.75829582495E+00  0.90007722552E+02  0.89999983690E+02 0.  0.
        -12    1    1    2    0    0  0.61163391115E+00  0.66629291997E+00 -0.75829582495E+00  0.11802774481E+01  0.00000000000E+00 0.  1.
         11    1    3    3    0    0 -0.31657586954E+02  0.20527593757E+02  0.58786279023E+01  0.38185641064E+02  0.51100000000E-03 0. -1.
        -11    1    3    3    0    0  0.15746022503E+01  0.68933814247E+01  0.63728827283E+01  0.95190185546E+01  0.51100000000E-03 0.  1.
        -12    1    3    3    0    0  0.29471350792E+02 -0.28087268102E+02 -0.11493214806E+02  0.42303062933E+02  0.00000000000E+00 0.  1.
</event>
<event>
 7    1  0.2895479E-015  0.9000776E+02  0.7816164E-02  0.1186339E+00
        -11   -1    0    0    0    0  0.00000000000E+00  0.00000000000E+00  0.45593999997E+02  0.45594000000E+02  0.51100000000E-03 0. -1.
         11   -1    0    0    0    0 -0.00000000000E+00 -0.00000000000E+00 -0.45593999997E+02  0.45594000000E+02  0.51100000000E-03 0.  1.
    9900012    2    1    2    0    0 -0.51268087974E+00 -0.10341591464E+01  0.24626480879E+00  0.90007757152E+02  0.90000018746E+02 0.  0.
        -12    1    1    2    0    0  0.51268087974E+00  0.10341591464E+01 -0.24626480879E+00  0.11802428481E+01  0.00000000000E+00 0.  1.
         11    1    3    3    0    0  0.25349201476E+02  0.12868725609E+02  0.18625499184E+02  0.33986693490E+02  0.51100000000E-03 0. -1.
        -11    1    3    3    0    0  0.11933973777E+02 -0.86657086611E+01 -0.45275909907E+01  0.15427680226E+02  0.51100000000E-03 0.  1.
        -12    1    3    3    0    0 -0.37795856133E+02 -0.52371760943E+01 -0.13851643385E+02  0.40593383436E+02  0.00000000000E+00 0.  1.
</event>
<event>
 7    1  0.2895479E-015  0.9000798E+02  0.7816164E-02  0.1186339E+00
        -11   -1    0    0    0    0  0.00000000000E+00  0.00000000000E+00  0.45593999997E+02  0.45594000000E+02  0.51100000000E-03 0. -1.
         11   -1    0    0    0    0 -0.00000000000E+00 -0.00000000000E+00 -0.45593999997E+02  0.45594000000E+02  0.51100000000E-03 0.  1.
    9900012    2    1    2    0    0 -0.11724657689E+01 -0.42689328598E-01  0.12627665922E+00  0.90007981291E+02  0.90000245844E+02 0.  0.
        -12    1    1    2    0    0  0.11724657689E+01  0.42689328598E-01 -0.12627665922E+00  0.11800187086E+01  0.00000000000E+00 0.  1.
         11    1    3    3    0    0  0.37320291030E+02  0.17600407782E+01  0.11894795445E+02  0.39209539974E+02  0.51100000000E-03 0. -1.
        -11    1    3    3    0    0 -0.22442592117E+01 -0.87558744123E+01  0.49204377744E+01  0.10291391757E+02  0.51100000000E-03 0.  1.
        -12    1    3    3    0    0 -0.36248497587E+02  0.69531443055E+01 -0.16688956560E+02  0.40507049560E+02  0.00000000000E+00 0.  1.
</event>
<event>
 7    1  0.2895479E-015  0.9000786E+02  0.7816164E-02  0.1186339E+00
        -11   -1    0    0    0    0  0.00000000000E+00  0.00000000000E+00  0.45593999997E+02  0.45594000000E+02  0.51100000000E-03 0. -1.
         11   -1    0    0    0    0 -0.00000000000E+00 -0.00000000000E+00 -0.45593999997E+02  0.45594000000E+02  0.51100000000E-03 0.  1.
    9900012    2    1    2    0    0  0.80020241182E+00 -0.52505957052E+00  0.69045596402E+00  0.90007855564E+02  0.90000118457E+02 0.  0.
        -12    1    1    2    0    0 -0.80020241182E+00  0.52505957052E+00 -0.69045596402E+00  0.11801444364E+01  0.00000000000E+00 0.  1.
         11    1    3    3    0    0 -0.21297890765E+02  0.22826757944E+02  0.27455341449E+02  0.41574713512E+02  0.51100000000E-03 0. -1.
        -11    1    3    3    0    0 -0.78714687792E+00 -0.93882636477E+01  0.14278967097E+01  0.95287976052E+01  0.51100000000E-03 0.  1.
        -12    1    3    3    0    0  0.22885240055E+02 -0.13963553867E+02 -0.28192782194E+02  0.38904344447E+02  0.00000000000E+00 0.  1.
</event>
<event>
 7    1  0.2895479E-015  0.9000769E+02  0.7816164E-02  0.1186339E+00
        -11   -1    0    0    0    0  0.00000000000E+00  0.00000000000E+00  0.45593999997E+02  0.45594000000E+02  0.51100000000E-03 0.  1.
         11   -1    0    0    0    0 -0.00000000000E+00 -0.00000000000E+00 -0.45593999997E+02  0.45594000000E+02  0.51100000000E-03 0. -1.
    9900012    2    1    2    0    0  0.11608687011E+01 -0.13270900100E-02 -0.21331354991E+00  0.90007694712E+02  0.89999955482E+02 0.  0.
        -12    1    1    2    0    0 -0.11608687011E+01  0.13270900100E-02  0.21331354991E+00  0.11803052880E+01  0.00000000000E+00 0.  1.
         11    1    3    3    0    0  0.23320840852E+02  0.12061066949E+02 -0.28902467633E+02  0.39047196948E+02  0.51100000000E-03 0. -1.
        -11    1    3    3    0    0  0.33155677290E+01  0.84633066215E+01  0.37924454744E+01  0.98490198128E+01  0.51100000000E-03 0.  1.
        -12    1    3    3    0    0 -0.25475539880E+02 -0.20525700661E+02  0.24896708609E+02  0.41111477951E+02  0.00000000000E+00 0.  1.
</event>
<event>
 7    1  0.2895479E-015  0.9000776E+02  0.7816164E-02  0.1186339E+00
        -11   -1    0    0    0    0  0.00000000000E+00  0.00000000000E+00  0.45593999997E+02  0.45594000000E+02  0.51100000000E-03 0. -1.
         11   -1    0    0    0    0 -0.00000000000E+00 -0.00000000000E+00 -0.45593999997E+02  0.45594000000E+02  0.51100000000E-03 0.  1.
    9900012    2    1    2    0    0 -0.10700982755E+01 -0.46800290223E+00 -0.16981432003E+00  0.90007756831E+02  0.90000018421E+02 0.  0.
        -12    1    1    2    0    0  0.10700982755E+01  0.46800290223E+00  0.16981432003E+00  0.11802431695E+01  0.00000000000E+00 0.  1.
         11    1    3    3    0    0 -0.79961587284E+01 -0.72826328111E+01  0.27698308290E+01  0.11164553648E+02  0.51100000000E-03 0. -1.
        -11    1    3    3    0    0  0.75930304180E+01 -0.35193482412E+02 -0.68467625755E+01  0.36648512565E+02  0.51100000000E-03 0.  1.
         12    1    3    3    0    0 -0.66696996511E+00  0.42008112321E+02  0.39071174265E+01  0.42194690617E+02  0.00000000000E+00 0. -1.
</event>
<event>
 7    1  0.2895479E-015  0.9000771E+02  0.7816164E-02  0.1186339E+00
        -11   -1    0    0    0    0  0.00000000000E+00  0.00000000000E+00  0.45593999997E+02  0.45594000000E+02  0.51100000000E-03 0. -1.
         11   -1    0    0    0    0 -0.00000000000E+00 -0.00000000000E+00 -0.45593999997E+02  0.45594000000E+02  0.51100000000E-03 0.  1.
    9900012    2    1    2    0    0  0.36206771600E+00 -0.39027752633E+00  0.10534080725E+01  0.90007712685E+02  0.89999973693E+02 0.  0.
        -12    1    1    2    0    0 -0.36206771600E+00  0.39027752633E+00 -0.10534080725E+01  0.11802873149E+01  0.00000000000E+00 0.  1.
         11    1    3    3    0    0  0.14097694003E+02  0.25764423264E+02  0.22779854673E+02  0.37168161933E+02  0.51100000000E-03 0. -1.
        -11    1    3    3    0    0  0.37105493889E+01 -0.62081306720E+00  0.86861589478E+01  0.94658831156E+01  0.51100000000E-03 0.  1.
        -12    1    3    3    0    0 -0.17446175676E+02 -0.25533887723E+02 -0.30412605548E+02  0.43373667636E+02  0.00000000000E+00 0.  1.
</event>
<event>
 7    1  0.2895479E-015  0.9000775E+02  0.7816164E-02  0.1186339E+00
        -11   -1    0    0    0    0  0.00000000000E+00  0.00000000000E+00  0.45593999997E+02  0.45594000000E+02  0.51100000000E-03 0. -1.
         11   -1    0    0    0    0 -0.00000000000E+00 -0.00000000000E+00 -0.45593999997E+02  0.45594000000E+02  0.51100000000E-03 0.  1.
    9900012    2    1    2    0    0 -0.22374971148E+00 -0.90185447994E+00  0.72772586274E+00  0.90007749871E+02  0.90000011369E+02 0.  0.
        -12    1    1    2    0    0  0.22374971148E+00  0.90185447994E+00 -0.72772586274E+00  0.11802501293E+01  0.00000000000E+00 0.  1.
         11    1    3    3    0    0 -0.81658473923E+01  0.10556067425E+01  0.62772504617E+01  0.10353706720E+02  0.51100000000E-03 0. -1.
        -11    1    3    3    0    0 -0.12101458366E+02  0.33512385118E+02 -0.13576816962E+02  0.38129453313E+02  0.51100000000E-03 0.  1.
         12    1    3    3    0    0  0.20043556047E+02 -0.35469846341E+02  0.80272923626E+01  0.41524589837E+02  0.00000000000E+00 0. -1.
</event>
<event>
 7    1  0.2895479E-015  0.9000764E+02  0.7816164E-02  0.1186339E+00
        -11   -1    0    0    0    0  0.00000000000E+00  0.00000000000E+00  0.45593999997E+02  0.45594000000E+02  0.51100000000E-03 0.  1.
         11   -1    0    0    0    0 -0.00000000000E+00 -0.00000000000E+00 -0.45593999997E+02  0.45594000000E+02  0.51100000000E-03 0. -1.
    9900012    2    1    2    0    0 -0.13291314576E+00  0.50517703737E+00 -0.10584751481E+01  0.90007644383E+02  0.89999904489E+02 0.  0.
        -12    1    1    2    0    0  0.13291314576E+00 -0.50517703737E+00  0.10584751481E+01  0.11803556170E+01  0.00000000000E+00 0.  1.
         11    1    3    3    0    0 -0.23550867789E+02  0.36951222415E+01  0.32298445743E+02  0.40143329454E+02  0.51100000000E-03 0. -1.
        -11    1    3    3    0    0 -0.58838535204E+01  0.36551008166E+01 -0.72471597238E+01  0.10025009653E+02  0.51100000000E-03 0.  1.
        -12    1    3    3    0    0  0.29301808163E+02 -0.68450460208E+01 -0.26109761167E+02  0.39839305276E+02  0.00000000000E+00 0.  1.
</event>
<event>
 7    1  0.2895479E-015  0.9000714E+02  0.7816164E-02  0.1186340E+00
        -11   -1    0    0    0    0  0.00000000000E+00  0.00000000000E+00  0.45593999997E+02  0.45594000000E+02  0.51100000000E-03 0.  1.
         11   -1    0    0    0    0 -0.00000000000E+00 -0.00000000000E+00 -0.45593999997E+02  0.45594000000E+02  0.51100000000E-03 0. -1.
    9900012    2    1    2    0    0 -0.18168879382E+00  0.19098385799E+00 -0.11510573257E+01  0.90007144963E+02  0.89999398474E+02 0.  0.
        -12    1    1    2    0    0  0.18168879382E+00 -0.19098385799E+00  0.11510573257E+01  0.11808550372E+01  0.00000000000E+00 0.  1.
         11    1    3    3    0    0 -0.13051933035E+01  0.24168941502E+02  0.48376989251E+01  0.24682880586E+02  0.51100000000E-03 0. -1.
        -11    1    3    3    0    0  0.21859224953E+01  0.18652178464E+02 -0.11960000622E+02  0.22264851981E+02  0.51100000000E-03 0.  1.
        -12    1    3    3    0    0 -0.10624179856E+01 -0.42630136107E+02  0.59712443715E+01  0.43059412396E+02  0.00000000000E+00 0.  1.
</event>
<event>
 7    1  0.2895479E-015  0.9000762E+02  0.7816164E-02  0.1186339E+00
        -11   -1    0    0    0    0  0.00000000000E+00  0.00000000000E+00  0.45593999997E+02  0.45594000000E+02  0.51100000000E-03 0. -1.
         11   -1    0    0    0    0 -0.00000000000E+00 -0.00000000000E+00 -0.45593999997E+02  0.45594000000E+02  0.51100000000E-03 0.  1.
    9900012    2    1    2    0    0  0.40422830764E+00  0.70114639673E+00  0.85923527869E+00  0.90007622070E+02  0.89999881881E+02 0.  0.
        -12    1    1    2    0    0 -0.40422830764E+00 -0.70114639673E+00 -0.85923527869E+00  0.11803779304E+01  0.00000000000E+00 0.  1.
         11    1    3    3    0    0 -0.15974895511E+02 -0.12703844627E+02 -0.16509785540E+02  0.26251818485E+02  0.51100000000E-03 0. -1.
        -11    1    3    3    0    0  0.29139644636E+02 -0.12969085063E+02  0.11277308951E+02  0.33830367340E+02  0.51100000000E-03 0.  1.
         12    1    3    3    0    0 -0.12760520817E+02  0.26374076087E+02  0.60917118673E+01  0.29925436245E+02  0.00000000000E+00 0. -1.
</event>
<event>
 7    1  0.2895479E-015  0.9000785E+02  0.7816164E-02  0.1186339E+00
        -11   -1    0    0    0    0  0.00000000000E+00  0.00000000000E+00  0.45593999997E+02  0.45594000000E+02  0.51100000000E-03 0.  1.
         11   -1    0    0    0    0 -0.00000000000E+00 -0.00000000000E+00 -0.45593999997E+02  0.45594000000E+02  0.51100000000E-03 0. -1.
    9900012    2    1    2    0    0 -0.52688487922E+00 -0.10452835778E+01 -0.15008237517E+00  0.90007851639E+02  0.90000114481E+02 0.  0.
        -12    1    1    2    0    0  0.52688487922E+00  0.10452835778E+01  0.15008237517E+00  0.11801483607E+01  0.00000000000E+00 0.  1.
         11    1    3    3    0    0  0.51592574179E+01  0.84898992341E+01  0.79331617390E+00  0.99662268148E+01  0.51100000000E-03 0. -1.
        -11    1    3    3    0    0  0.14258856749E+02  0.18639948834E+01  0.34742393405E+02  0.37600842710E+02  0.51100000000E-03 0.  1.
         12    1    3    3    0    0 -0.19944999046E+02 -0.11399177695E+02 -0.35685791955E+02  0.42440782114E+02  0.00000000000E+00 0. -1.
</event>
<event>
 7    1  0.2895479E-015  0.9000776E+02  0.7816164E-02  0.1186339E+00
        -11   -1    0    0    0    0  0.00000000000E+00  0.00000000000E+00  0.45593999997E+02  0.45594000000E+02  0.51100000000E-03 0.  1.
         11   -1    0    0    0    0 -0.00000000000E+00 -0.00000000000E+00 -0.45593999997E+02  0.45594000000E+02  0.51100000000E-03 0. -1.
    9900012    2    1    2    0    0  0.10710392460E+01 -0.44064646702E+00 -0.22731791085E+00  0.90007759428E+02  0.90000021052E+02 0.  0.
        -12    1    1    2    0    0 -0.10710392460E+01  0.44064646702E+00  0.22731791085E+00  0.11802405720E+01  0.00000000000E+00 0.  1.
         11    1    3    3    0    0  0.61064803107E+01 -0.65289122348E+01  0.18095162959E+01  0.91208632399E+01  0.51100000000E-03 0. -1.
        -11    1    3    3    0    0  0.54070876207E+01 -0.10074013594E+02  0.36264226980E+02  0.38023893872E+02  0.51100000000E-03 0.  1.
         12    1    3    3    0    0 -0.10442528685E+02  0.16162279362E+02 -0.38301061187E+02  0.42863002316E+02  0.00000000000E+00 0. -1.
</event>
<event>
 7    1  0.2895479E-015  0.9000771E+02  0.7816164E-02  0.1186339E+00
        -11   -1    0    0    0    0  0.00000000000E+00  0.00000000000E+00  0.45593999997E+02  0.45594000000E+02  0.51100000000E-03 0.  1.
         11   -1    0    0    0    0 -0.00000000000E+00 -0.00000000000E+00 -0.45593999997E+02  0.45594000000E+02  0.51100000000E-03 0. -1.
    9900012    2    1    2    0    0 -0.79848968578E-01 -0.29485924444E+00 -0.11400715733E+01  0.90007711466E+02  0.89999972457E+02 0.  0.
        -12    1    1    2    0    0  0.79848968578E-01  0.29485924444E+00  0.11400715733E+01  0.11802885342E+01  0.00000000000E+00 0.  1.
         11    1    3    3    0    0  0.69977286790E+01  0.14282731028E+01 -0.56091657202E+01  0.90813496277E+01  0.51100000000E-03 0. -1.
        -11    1    3    3    0    0 -0.15900143870E+02 -0.10149993437E+02  0.39531712451E+02  0.43801749182E+02  0.51100000000E-03 0.  1.
         12    1    3    3    0    0  0.88225662223E+01  0.84268610894E+01 -0.35062618304E+02  0.37124612656E+02  0.00000000000E+00 0. -1.
</event>
<event>
 7    1  0.2895479E-015  0.9000772E+02  0.7816164E-02  0.1186339E+00
        -11   -1    0    0    0    0  0.00000000000E+00  0.00000000000E+00  0.45593999997E+02  0.45594000000E+02  0.51100000000E-03 0. -1.
         11   -1    0    0    0    0 -0.00000000000E+00 -0.00000000000E+00 -0.45593999997E+02  0.45594000000E+02  0.51100000000E-03 0.  1.
    9900012    2    1    2    0    0 -0.22586503052E+00  0.59263069032E+00  0.99540299727E+00  0.90007723221E+02  0.89999984368E+02 0.  0.
        -12    1    1    2    0    0  0.22586503052E+00 -0.59263069032E+00 -0.99540299727E+00  0.11802767786E+01  0.00000000000E+00 0.  1.
         11    1    3    3    0    0 -0.15145619549E+02  0.32157143156E+02 -0.64965428421E+01  0.36134148899E+02  0.51100000000E-03 0. -1.
        -11    1    3    3    0    0 -0.67792430584E+00  0.94462057292E+01  0.11165528042E+01  0.95360932497E+01  0.51100000000E-03 0.  1.
        -12    1    3    3    0    0  0.15597678825E+02 -0.41010718194E+02  0.63753930352E+01  0.44337481073E+02  0.00000000000E+00 0.  1.
</event>
<event>
 7    1  0.2895479E-015  0.9000759E+02  0.7816164E-02  0.1186339E+00
        -11   -1    0    0    0    0  0.00000000000E+00  0.00000000000E+00  0.45593999997E+02  0.45594000000E+02  0.51100000000E-03 0. -1.
         11   -1    0    0    0    0 -0.00000000000E+00 -0.00000000000E+00 -0.45593999997E+02  0.45594000000E+02  0.51100000000E-03 0.  1.
    9900012    2    1    2    0    0  0.15319325255E+00  0.11426569758E+01  0.25345327984E+00  0.90007588334E+02  0.89999847700E+02 0.  0.
        -12    1    1    2    0    0 -0.15319325255E+00 -0.11426569758E+01 -0.25345327984E+00  0.11804116664E+01  0.00000000000E+00 0.  1.
         11    1    3    3    0    0  0.32961716314E+02  0.74416881770E+01  0.24320608672E+02  0.41633465766E+02  0.51100000000E-03 0. -1.
        -11    1    3    3    0    0 -0.12622285177E+01 -0.73584678830E+01  0.16660475832E+01  0.76495741859E+01  0.51100000000E-03 0.  1.
        -12    1    3    3    0    0 -0.31546294543E+02  0.10594366818E+01 -0.25733202975E+02  0.40724548381E+02  0.00000000000E+00 0.  1.
</event>
<event>
 7    1  0.2895479E-015  0.9000687E+02  0.7816164E-02  0.1186341E+00
        -11   -1    0    0    0    0  0.00000000000E+00  0.00000000000E+00  0.45593999997E+02  0.45594000000E+02  0.51100000000E-03 0. -1.
         11   -1    0    0    0    0 -0.00000000000E+00 -0.00000000000E+00 -0.45593999997E+02  0.45594000000E+02  0.51100000000E-03 0.  1.
    9900012    2    1    2    0    0 -0.15374716909E+00 -0.75784597780E+00  0.89280739752E+00  0.90006867591E+02  0.89999117439E+02 0.  0.
        -12    1    1    2    0    0  0.15374716909E+00  0.75784597780E+00 -0.89280739752E+00  0.11811324088E+01  0.00000000000E+00 0.  1.
         11    1    3    3    0    0 -0.33218604338E+01 -0.41457862843E+01  0.58055499978E+01  0.78693526859E+01  0.51100000000E-03 0. -1.
        -11    1    3    3    0    0 -0.34746306039E+02 -0.75764803000E+01 -0.18889116125E+02  0.40267946872E+02  0.51100000000E-03 0.  1.
         12    1    3    3    0    0  0.37914419304E+02  0.10964420606E+02  0.13976373525E+02  0.41869568033E+02  0.00000000000E+00 0. -1.
</event>
<event>
 7    1  0.2895479E-015  0.9000773E+02  0.7816164E-02  0.1186339E+00
        -11   -1    0    0    0    0  0.00000000000E+00  0.00000000000E+00  0.45593999997E+02  0.45594000000E+02  0.51100000000E-03 0. -1.
         11   -1    0    0    0    0 -0.00000000000E+00 -0.00000000000E+00 -0.45593999997E+02  0.45594000000E+02  0.51100000000E-03 0.  1.
    9900012    2    1    2    0    0  0.54548569298E+00  0.83088334040E+00 -0.63647772811E+00  0.90007734917E+02  0.89999996218E+02 0.  0.
        -12    1    1    2    0    0 -0.54548569298E+00 -0.83088334040E+00  0.63647772811E+00  0.11802650825E+01  0.00000000000E+00 0.  1.
         11    1    3    3    0    0 -0.93681261998E+01 -0.20771091222E+01 -0.24885022080E+01  0.99130628113E+01  0.51100000000E-03 0. -1.
        -11    1    3    3    0    0 -0.21960688381E+02 -0.74737668099E+01 -0.27190395002E+02  0.35741385048E+02  0.51100000000E-03 0.  1.
         12    1    3    3    0    0  0.31874300274E+02  0.10381759273E+02  0.29042419482E+02  0.44353287059E+02  0.00000000000E+00 0. -1.
</event>
<event>
 7    1  0.2895479E-015  0.9000775E+02  0.7816164E-02  0.1186339E+00
        -11   -1    0    0    0    0  0.00000000000E+00  0.00000000000E+00  0.45593999997E+02  0.45594000000E+02  0.51100000000E-03 0.  1.
         11   -1    0    0    0    0 -0.00000000000E+00 -0.00000000000E+00 -0.45593999997E+02  0.45594000000E+02  0.51100000000E-03 0. -1.
    9900012    2    1    2    0    0 -0.61917562196E+00 -0.47550865859E+00 -0.88515932635E+00  0.90007748345E+02  0.90000009824E+02 0.  0.
        -12    1    1    2    0    0  0.61917562196E+00  0.47550865859E+00  0.88515932635E+00  0.11802516546E+01  0.00000000000E+00 0.  1.
         11    1    3    3    0    0  0.42130354601E+01 -0.28319145875E+02  0.20205406146E+02  0.35042575942E+02  0.51100000000E-03 0. -1.
        -11    1    3    3    0    0 -0.87309672231E+01 -0.72059204231E+01  0.36410523203E+01  0.11891692060E+02  0.51100000000E-03 0.  1.
        -12    1    3    3    0    0  0.38987561410E+01  0.35049557640E+02 -0.24731617793E+02  0.43073480343E+02  0.00000000000E+00 0.  1.
</event>
<event>
 7    1  0.2895479E-015  0.9000774E+02  0.7816164E-02  0.1186339E+00
        -11   -1    0    0    0    0  0.00000000000E+00  0.00000000000E+00  0.45593999997E+02  0.45594000000E+02  0.51100000000E-03 0.  1.
         11   -1    0    0    0    0 -0.00000000000E+00 -0.00000000000E+00 -0.45593999997E+02  0.45594000000E+02  0.51100000000E-03 0. -1.
    9900012    2    1    2    0    0  0.78743442560E+00  0.48486514893E+00 -0.73339776190E+00  0.90007737544E+02  0.89999998880E+02 0.  0.
        -12    1    1    2    0    0 -0.78743442560E+00 -0.48486514893E+00  0.73339776190E+00  0.11802624557E+01  0.00000000000E+00 0.  1.
         11    1    3    3    0    0 -0.27703910673E+02  0.14178498969E+02 -0.21139885429E+02  0.37622217582E+02  0.51100000000E-03 0. -1.
        -11    1    3    3    0    0  0.76850175003E+01 -0.38298889890E+01 -0.10677720479E+02  0.13701870622E+02  0.51100000000E-03 0.  1.
        -12    1    3    3    0    0  0.20806327599E+02 -0.98637448306E+01  0.31084208146E+02  0.38683649340E+02  0.00000000000E+00 0.  1.
</event>
<event>
 7    1  0.2895479E-015  0.9000780E+02  0.7816164E-02  0.1186339E+00
        -11   -1    0    0    0    0  0.00000000000E+00  0.00000000000E+00  0.45593999997E+02  0.45594000000E+02  0.51100000000E-03 0. -1.
         11   -1    0    0    0    0 -0.00000000000E+00 -0.00000000000E+00 -0.45593999997E+02  0.45594000000E+02  0.51100000000E-03 0.  1.
    9900012    2    1    2    0    0  0.57514887790E+00  0.37519456514E+00  0.95985079910E+00  0.90007796310E+02  0.90000058421E+02 0.  0.
        -12    1    1    2    0    0 -0.57514887790E+00 -0.37519456514E+00 -0.95985079910E+00  0.11802036900E+01  0.00000000000E+00 0.  1.
         11    1    3    3    0    0  0.78901063571E+01 -0.25352769220E+02  0.32800493037E+01  0.26753979314E+02  0.51100000000E-03 0. -1.
        -11    1    3    3    0    0  0.62030286511E+01 -0.13284524462E+02 -0.14076089424E+02  0.20324675849E+02  0.51100000000E-03 0.  1.
        -12    1    3    3    0    0 -0.13517986130E+02  0.39012488247E+02  0.11755890920E+02  0.42929141147E+02  0.00000000000E+00 0.  1.
</event>
<event>
 7    1  0.2895479E-015  0.9000777E+02  0.7816164E-02  0.1186339E+00
        -11   -1    0    0    0    0  0.00000000000E+00  0.00000000000E+00  0.45593999997E+02  0.45594000000E+02  0.51100000000E-03 0. -1.
         11   -1    0    0    0    0 -0.00000000000E+00 -0.00000000000E+00 -0.45593999997E+02  0.45594000000E+02  0.51100000000E-03 0.  1.
    9900012    2    1    2    0    0  0.95262147711E+00 -0.44933140860E+00  0.53249459226E+00  0.90007772529E+02  0.90000034326E+02 0.  0.
        -12    1    1    2    0    0 -0.95262147711E+00  0.44933140860E+00 -0.53249459226E+00  0.11802274714E+01  0.00000000000E+00 0.  1.
         11    1    3    3    0    0 -0.26863349853E+02 -0.15391317876E+02  0.21616348218E+02  0.37759750289E+02  0.51100000000E-03 0. -1.
        -11    1    3    3    0    0  0.10139333215E+02  0.77647064733E+01  0.96963222686E+01  0.16034818691E+02  0.51100000000E-03 0.  1.
        -12    1    3    3    0    0  0.17676638116E+02  0.71772799945E+01 -0.30780175894E+02  0.36213203549E+02  0.00000000000E+00 0.  1.
</event>
<event>
 7    1  0.2895479E-015  0.9000773E+02  0.7816164E-02  0.1186339E+00
        -11   -1    0    0    0    0  0.00000000000E+00  0.00000000000E+00  0.45593999997E+02  0.45594000000E+02  0.51100000000E-03 0. -1.
         11   -1    0    0    0    0 -0.00000000000E+00 -0.00000000000E+00 -0.45593999997E+02  0.45594000000E+02  0.51100000000E-03 0.  1.
    9900012    2    1    2    0    0 -0.29186880809E+00 -0.43963289719E-01  0.11427694767E+01  0.90007727892E+02  0.89999989100E+02 0.  0.
        -12    1    1    2    0    0  0.29186880809E+00  0.43963289719E-01 -0.11427694767E+01  0.11802721080E+01  0.00000000000E+00 0.  1.
         11    1    3    3    0    0  0.36387151888E+01  0.27355902730E+02  0.29812236214E+02  0.40624562652E+02  0.51100000000E-03 0. -1.
        -11    1    3    3    0    0 -0.57572173548E+01  0.50293671441E+01 -0.42467630673E+01  0.87450032791E+01  0.51100000000E-03 0.  1.
        -12    1    3    3    0    0  0.18266333579E+01 -0.32429233163E+02 -0.24422703670E+02  0.40638161961E+02  0.00000000000E+00 0.  1.
</event>
<event>
 7    1  0.2895479E-015  0.9000780E+02  0.7816164E-02  0.1186339E+00
        -11   -1    0    0    0    0  0.00000000000E+00  0.00000000000E+00  0.45593999997E+02  0.45594000000E+02  0.51100000000E-03 0. -1.
         11   -1    0    0    0    0 -0.00000000000E+00 -0.00000000000E+00 -0.45593999997E+02  0.45594000000E+02  0.51100000000E-03 0.  1.
    9900012    2    1    2    0    0  0.70053013537E+00  0.94850764982E+00  0.49560748451E-01  0.90007802771E+02  0.90000064967E+02 0.  0.
        -12    1    1    2    0    0 -0.70053013537E+00 -0.94850764982E+00 -0.49560748451E-01  0.11801972293E+01  0.00000000000E+00 0.  1.
         11    1    3    3    0    0 -0.52834797711E+01  0.73125043239E+01 -0.50370611697E+01  0.10332466476E+02  0.51100000000E-03 0. -1.
        -11    1    3    3    0    0  0.27721336344E+02  0.67531421729E+00 -0.28038350879E+02  0.39434472968E+02  0.51100000000E-03 0.  1.
         12    1    3    3    0    0 -0.21737326438E+02 -0.70393108914E+01  0.33124972797E+02  0.40240863327E+02  0.00000000000E+00 0. -1.
</event>
<event>
 7    1  0.2895479E-015  0.9000777E+02  0.7816164E-02  0.1186339E+00
        -11   -1    0    0    0    0  0.00000000000E+00  0.00000000000E+00  0.45593999997E+02  0.45594000000E+02  0.51100000000E-03 0.  1.
         11   -1    0    0    0    0 -0.00000000000E+00 -0.00000000000E+00 -0.45593999997E+02  0.45594000000E+02  0.51100000000E-03 0. -1.
    9900012    2    1    2    0    0 -0.71475249209E+00  0.93864284264E+00 -0.31942661175E-01  0.90007770427E+02  0.90000032197E+02 0.  0.
        -12    1    1    2    0    0  0.71475249209E+00 -0.93864284264E+00  0.31942661175E-01  0.11802295728E+01  0.00000000000E+00 0.  1.
         11    1    3    3    0    0  0.22738589880E+02 -0.25938732480E+02  0.10690777761E+02  0.36113073004E+02  0.51100000000E-03 0. -1.
        -11    1    3    3    0    0  0.10231474303E+02  0.40224884047E+01  0.21486296467E+01  0.11201789545E+02  0.51100000000E-03 0.  1.
        -12    1    3    3    0    0 -0.33684816675E+02  0.22854886918E+02 -0.12871350068E+02  0.42692907878E+02  0.00000000000E+00 0.  1.
</event>
<event>
 7    1  0.2895479E-015  0.9000774E+02  0.7816164E-02  0.1186339E+00
        -11   -1    0    0    0    0  0.00000000000E+00  0.00000000000E+00  0.45593999997E+02  0.45594000000E+02  0.51100000000E-03 0.  1.
         11   -1    0    0    0    0 -0.00000000000E+00 -0.00000000000E+00 -0.45593999997E+02  0.45594000000E+02  0.51100000000E-03 0. -1.
    9900012    2    1    2    0    0  0.43668747380E+00 -0.62842775568E+00 -0.89855685192E+00  0.90007736551E+02  0.89999997873E+02 0.  0.
        -12    1    1    2    0    0 -0.43668747380E+00  0.62842775568E+00  0.89855685192E+00  0.11802634494E+01  0.00000000000E+00 0.  1.
         11    1    3    3    0    0  0.15849787215E+02 -0.21981633198E+02 -0.26919173462E+02  0.38197511083E+02  0.51100000000E-03 0. -1.
        -11    1    3    3    0    0  0.34616470994E+01 -0.86706208249E+01  0.56280030574E+01  0.10901242351E+02  0.51100000000E-03 0.  1.
        -12    1    3    3    0    0 -0.18874746841E+02  0.30023826267E+02  0.20392613553E+02  0.40908983116E+02  0.00000000000E+00 0.  1.
</event>
<event>
 7    1  0.2895479E-015  0.9000774E+02  0.7816164E-02  0.1186339E+00
        -11   -1    0    0    0    0  0.00000000000E+00  0.00000000000E+00  0.45593999997E+02  0.45594000000E+02  0.51100000000E-03 0. -1.
         11   -1    0    0    0    0 -0.00000000000E+00 -0.00000000000E+00 -0.45593999997E+02  0.45594000000E+02  0.51100000000E-03 0.  1.
    9900012    2    1    2    0    0  0.61839011181E-01 -0.12006138950E+00  0.11725033806E+01  0.90007744528E+02  0.90000005956E+02 0.  0.
        -12    1    1    2    0    0 -0.61839011181E-01  0.12006138950E+00 -0.11725033806E+01  0.11802554716E+01  0.00000000000E+00 0.  1.
         11    1    3    3    0    0  0.29111585186E+01 -0.10630626197E+02  0.32961048120E+01  0.11504319382E+02  0.51100000000E-03 0. -1.
        -11    1    3    3    0    0  0.20124676426E+02 -0.18044263866E+02  0.21809855304E+02  0.34731366924E+02  0.51100000000E-03 0.  1.
         12    1    3    3    0    0 -0.22973995933E+02  0.28554828674E+02 -0.23933456736E+02  0.43772058223E+02  0.00000000000E+00 0. -1.
</event>
<event>
 7    1  0.2895479E-015  0.9000779E+02  0.7816164E-02  0.1186339E+00
        -11   -1    0    0    0    0  0.00000000000E+00  0.00000000000E+00  0.45593999997E+02  0.45594000000E+02  0.51100000000E-03 0. -1.
         11   -1    0    0    0    0 -0.00000000000E+00 -0.00000000000E+00 -0.45593999997E+02  0.45594000000E+02  0.51100000000E-03 0.  1.
    9900012    2    1    2    0    0  0.90572741823E+00  0.58309640683E+00 -0.48224838178E+00  0.90007785156E+02  0.90000047120E+02 0.  0.
        -12    1    1    2    0    0 -0.90572741823E+00 -0.58309640683E+00  0.48224838178E+00  0.11802148438E+01  0.00000000000E+00 0.  1.
         11    1    3    3    0    0 -0.15127950712E+01  0.98994848746E+01 -0.25765531730E+01  0.10340550093E+02  0.51100000000E-03 0. -1.
        -11    1    3    3    0    0 -0.26775365595E+02 -0.25273767882E+02 -0.17806330991E+02  0.40899253896E+02  0.51100000000E-03 0.  1.
         12    1    3    3    0    0  0.29193888084E+02  0.15957379414E+02  0.19900635782E+02  0.38767981167E+02  0.00000000000E+00 0. -1.
</event>
<event>
 7    1  0.2895479E-015  0.9000770E+02  0.7816164E-02  0.1186339E+00
        -11   -1    0    0    0    0  0.00000000000E+00  0.00000000000E+00  0.45593999997E+02  0.45594000000E+02  0.51100000000E-03 0.  1.
         11   -1    0    0    0    0 -0.00000000000E+00 -0.00000000000E+00 -0.45593999997E+02  0.45594000000E+02  0.51100000000E-03 0. -1.
    9900012    2    1    2    0    0 -0.11246055883E+00  0.11474309383E+01 -0.25270705218E+00  0.90007700890E+02  0.89999961741E+02 0.  0.
        -12    1    1    2    0    0  0.11246055883E+00 -0.11474309383E+01  0.25270705218E+00  0.11802991103E+01  0.00000000000E+00 0.  1.
         11    1    3    3    0    0 -0.26319280886E+02 -0.19744541284E+02 -0.25384256830E+02  0.41556130137E+02  0.51100000000E-03 0. -1.
        -11    1    3    3    0    0 -0.89578799311E+00  0.53018759846E+01 -0.32008741174E+01  0.62576289808E+01  0.51100000000E-03 0.  1.
        -12    1    3    3    0    0  0.27102608320E+02  0.15590096238E+02  0.28332423896E+02  0.42193941772E+02  0.00000000000E+00 0.  1.
</event>
<event>
 7    1  0.2895479E-015  0.9000676E+02  0.7816164E-02  0.1186341E+00
        -11   -1    0    0    0    0  0.00000000000E+00  0.00000000000E+00  0.45593999997E+02  0.45594000000E+02  0.51100000000E-03 0.  1.
         11   -1    0    0    0    0 -0.00000000000E+00 -0.00000000000E+00 -0.45593999997E+02  0.45594000000E+02  0.51100000000E-03 0. -1.
    9900012    2    1    2    0    0 -0.54209835640E-01  0.10831293083E+01  0.46819806779E+00  0.90006764530E+02  0.89999013016E+02 0.  0.
        -12    1    1    2    0    0  0.54209835640E-01 -0.10831293083E+01 -0.46819806779E+00  0.11812354699E+01  0.00000000000E+00 0.  1.
         11    1    3    3    0    0 -0.21733222724E+02 -0.69923622592E+00 -0.29166558214E+02  0.36380077234E+02  0.51100000000E-03 0. -1.
        -11    1    3    3    0    0  0.16585596115E+01  0.72466296178E+01 -0.78307643050E+01  0.10797468716E+02  0.51100000000E-03 0.  1.
        -12    1    3    3    0    0  0.20020453277E+02 -0.54642640836E+01  0.37465520587E+02  0.42829218580E+02  0.00000000000E+00 0.  1.
</event>
<event>
 7    1  0.2895479E-015  0.9000774E+02  0.7816164E-02  0.1186339E+00
        -11   -1    0    0    0    0  0.00000000000E+00  0.00000000000E+00  0.45593999997E+02  0.45594000000E+02  0.51100000000E-03 0.  1.
         11   -1    0    0    0    0 -0.00000000000E+00 -0.00000000000E+00 -0.45593999997E+02  0.45594000000E+02  0.51100000000E-03 0. -1.
    9900012    2    1    2    0    0 -0.53081036019E+00  0.63122426407E+00 -0.84428705572E+00  0.90007735478E+02  0.89999996786E+02 0.  0.
        -12    1    1    2    0    0  0.53081036019E+00 -0.63122426407E+00  0.84428705572E+00  0.11802645223E+01  0.00000000000E+00 0.  1.
         11    1    3    3    0    0  0.55967855574E+01  0.71556864085E+01 -0.67990193591E+01  0.11347004938E+02  0.51100000000E-03 0. -1.
        -11    1    3    3    0    0  0.32705471268E+02  0.10904118195E+02 -0.46693292791E+01  0.34790088828E+02  0.51100000000E-03 0.  1.
         12    1    3    3    0    0 -0.38833067186E+02 -0.17428580339E+02  0.10624061582E+02  0.43870641712E+02  0.00000000000E+00 0. -1.
</event>
<event>
 7    1  0.2895479E-015  0.9000772E+02  0.7816164E-02  0.1186339E+00
        -11   -1    0    0    0    0  0.00000000000E+00  0.00000000000E+00  0.45593999997E+02  0.45594000000E+02  0.51100000000E-03 0.  1.
         11   -1    0    0    0    0 -0.00000000000E+00 -0.00000000000E+00 -0.45593999997E+02  0.45594000000E+02  0.51100000000E-03 0. -1.
    9900012    2    1    2    0    0 -0.60419322176E+00 -0.61146726263E+00 -0.80877236659E+00  0.90007722743E+02  0.89999983883E+02 0.  0.
        -12    1    1    2    0    0  0.60419322176E+00  0.61146726263E+00  0.80877236659E+00  0.11802772570E+01  0.00000000000E+00 0.  1.
         11    1    3    3    0    0 -0.54311717021E+01  0.37111073809E+02 -0.78705260099E+01  0.38323290637E+02  0.51100000000E-03 0. -1.
        -11    1    3    3    0    0  0.45877139384E+00  0.34665848096E+01  0.95696028170E+01  0.10188472887E+02  0.51100000000E-03 0.  1.
        -12    1    3    3    0    0  0.43682070865E+01 -0.41189125881E+02 -0.25078491736E+01  0.41495959219E+02  0.00000000000E+00 0.  1.
</event>
<event>
 7    1  0.2895479E-015  0.9000777E+02  0.7816164E-02  0.1186339E+00
        -11   -1    0    0    0    0  0.00000000000E+00  0.00000000000E+00  0.45593999997E+02  0.45594000000E+02  0.51100000000E-03 0.  1.
         11   -1    0    0    0    0 -0.00000000000E+00 -0.00000000000E+00 -0.45593999997E+02  0.45594000000E+02  0.51100000000E-03 0. -1.
    9900012    2    1    2    0    0  0.33287561993E-01 -0.24774719103E+00 -0.11534558332E+01  0.90007768204E+02  0.90000029945E+02 0.  0.
        -12    1    1    2    0    0 -0.33287561993E-01  0.24774719103E+00  0.11534558332E+01  0.11802317957E+01  0.00000000000E+00 0.  1.
         11    1    3    3    0    0 -0.74249532792E+01 -0.49611539481E+01 -0.31774298694E+01  0.94783458753E+01  0.51100000000E-03 0. -1.
        -11    1    3    3    0    0  0.24945327471E+02 -0.29155914599E+02  0.13573045718E+02  0.40700912632E+02  0.51100000000E-03 0.  1.
         12    1    3    3    0    0 -0.17487086630E+02  0.33869321356E+02 -0.11549071682E+02  0.39828509697E+02  0.00000000000E+00 0. -1.
</event>
<event>
 7    1  0.2895479E-015  0.9000769E+02  0.7816164E-02  0.1186339E+00
        -11   -1    0    0    0    0  0.00000000000E+00  0.00000000000E+00  0.45593999997E+02  0.45594000000E+02  0.51100000000E-03 0. -1.
         11   -1    0    0    0    0 -0.00000000000E+00 -0.00000000000E+00 -0.45593999997E+02  0.45594000000E+02  0.51100000000E-03 0.  1.
    9900012    2    1    2    0    0  0.30933978119E+00 -0.64590969265E+00  0.93820610557E+00  0.90007694477E+02  0.89999955244E+02 0.  0.
        -12    1    1    2    0    0 -0.30933978119E+00  0.64590969265E+00 -0.93820610557E+00  0.11803055231E+01  0.00000000000E+00 0.  1.
         11    1    3    3    0    0  0.26178413917E+02  0.16738338302E+02  0.25046532460E+02  0.39910025218E+02  0.51100000000E-03 0. -1.
        -11    1    3    3    0    0  0.21673222218E+00  0.75531821568E+01 -0.63836346142E+01  0.98918312106E+01  0.51100000000E-03 0.  1.
        -12    1    3    3    0    0 -0.26085806358E+02 -0.24937430152E+02 -0.17724691740E+02  0.40205838049E+02  0.00000000000E+00 0.  1.
</event>
<event>
 7    1  0.2895479E-015  0.9000783E+02  0.7816164E-02  0.1186339E+00
        -11   -1    0    0    0    0  0.00000000000E+00  0.00000000000E+00  0.45593999997E+02  0.45594000000E+02  0.51100000000E-03 0.  1.
         11   -1    0    0    0    0 -0.00000000000E+00 -0.00000000000E+00 -0.45593999997E+02  0.45594000000E+02  0.51100000000E-03 0. -1.
    9900012    2    1    2    0    0  0.74910488974E+00  0.55152807533E+00 -0.72626267685E+00  0.90007831017E+02  0.90000093586E+02 0.  0.
        -12    1    1    2    0    0 -0.74910488974E+00 -0.55152807533E+00  0.72626267685E+00  0.11801689835E+01  0.00000000000E+00 0.  1.
         11    1    3    3    0    0 -0.30729341803E+02  0.21884150978E+02 -0.34507012906E+01  0.37882922951E+02  0.51100000000E-03 0. -1.
        -11    1    3    3    0    0 -0.34376825346E+01 -0.98111911482E+01  0.10244943935E+02  0.14595753131E+02  0.51100000000E-03 0.  1.
        -12    1    3    3    0    0  0.34916129227E+02 -0.11521431754E+02 -0.75205053217E+01  0.37529154935E+02  0.00000000000E+00 0.  1.
</event>
<event>
 7    1  0.2895479E-015  0.9000777E+02  0.7816164E-02  0.1186339E+00
        -11   -1    0    0    0    0  0.00000000000E+00  0.00000000000E+00  0.45593999997E+02  0.45594000000E+02  0.51100000000E-03 0.  1.
         11   -1    0    0    0    0 -0.00000000000E+00 -0.00000000000E+00 -0.45593999997E+02  0.45594000000E+02  0.51100000000E-03 0. -1.
    9900012    2    1    2    0    0  0.20797828272E+00 -0.69710902123E+00 -0.92936509811E+00  0.90007773141E+02  0.90000034946E+02 0.  0.
        -12    1    1    2    0    0 -0.20797828272E+00  0.69710902123E+00  0.92936509811E+00  0.11802268592E+01  0.00000000000E+00 0.  1.
         11    1    3    3    0    0  0.18965604149E+02 -0.12537799323E+02 -0.37587800275E+02  0.43928729578E+02  0.51100000000E-03 0. -1.
        -11    1    3    3    0    0  0.28128907877E+01  0.74239456823E+00  0.81104824703E+01  0.86164627568E+01  0.51100000000E-03 0.  1.
        -12    1    3    3    0    0 -0.21570516654E+02  0.11098295733E+02  0.28547952707E+02  0.37462580806E+02  0.00000000000E+00 0.  1.
</event>
<event>
 7    1  0.2895479E-015  0.9000772E+02  0.7816164E-02  0.1186339E+00
        -11   -1    0    0    0    0  0.00000000000E+00  0.00000000000E+00  0.45593999997E+02  0.45594000000E+02  0.51100000000E-03 0.  1.
         11   -1    0    0    0    0 -0.00000000000E+00 -0.00000000000E+00 -0.45593999997E+02  0.45594000000E+02  0.51100000000E-03 0. -1.
    9900012    2    1    2    0    0  0.44253616001E+00  0.10440785784E+01  0.32730843205E+00  0.90007716500E+02  0.89999977558E+02 0.  0.
        -12    1    1    2    0    0 -0.44253616001E+00 -0.10440785784E+01 -0.32730843205E+00  0.11802835000E+01  0.00000000000E+00 0.  1.
         11    1    3    3    0    0 -0.53440119066E+01  0.57375902276E+00 -0.35245923872E+02  0.35653370283E+02  0.51100000000E-03 0. -1.
        -11    1    3    3    0    0 -0.12171101163E+01 -0.34319522054E+01 -0.86631312503E+01  0.93973132488E+01  0.51100000000E-03 0.  1.
        -12    1    3    3    0    0  0.70036581828E+01  0.39022717610E+01  0.44236363554E+02  0.44957032969E+02  0.00000000000E+00 0.  1.
</event>
<event>
 7    1  0.2895479E-015  0.9000781E+02  0.7816164E-02  0.1186339E+00
        -11   -1    0    0    0    0  0.00000000000E+00  0.00000000000E+00  0.45593999997E+02  0.45594000000E+02  0.51100000000E-03 0.  1.
         11   -1    0    0    0    0 -0.00000000000E+00 -0.00000000000E+00 -0.45593999997E+02  0.45594000000E+02  0.51100000000E-03 0. -1.
    9900012    2    1    2    0    0 -0.53140054801E+00 -0.88207839413E+00 -0.57654816661E+00  0.90007806531E+02  0.90000068777E+02 0.  0.
        -12    1    1    2    0    0  0.53140054801E+00  0.88207839413E+00  0.57654816661E+00  0.11801934690E+01  0.00000000000E+00 0.  1.
         11    1    3    3    0    0  0.30888936096E+01  0.36224293305E+02 -0.13624364097E+00  0.36356007093E+02  0.51100000000E-03 0. -1.
        -11    1    3    3    0    0  0.50483170730E+01  0.68964345638E+01  0.18506465920E+01  0.87447817601E+01  0.51100000000E-03 0.  1.
        -12    1    3    3    0    0 -0.86686112306E+01 -0.44002806263E+02 -0.22909511177E+01  0.44907017678E+02  0.00000000000E+00 0.  1.
</event>
<event>
 7    1  0.2895479E-015  0.9000773E+02  0.7816164E-02  0.1186339E+00
        -11   -1    0    0    0    0  0.00000000000E+00  0.00000000000E+00  0.45593999997E+02  0.45594000000E+02  0.51100000000E-03 0. -1.
         11   -1    0    0    0    0 -0.00000000000E+00 -0.00000000000E+00 -0.45593999997E+02  0.45594000000E+02  0.51100000000E-03 0.  1.
    9900012    2    1    2    0    0  0.41641401821E+00  0.20181069196E+00  0.10857706262E+01  0.90007734758E+02  0.89999996056E+02 0.  0.
        -12    1    1    2    0    0 -0.41641401821E+00 -0.20181069196E+00 -0.10857706262E+01  0.11802652425E+01  0.00000000000E+00 0.  1.
         11    1    3    3    0    0 -0.34655865920E+02 -0.19224701544E+02  0.17459237736E+02  0.43306387227E+02  0.51100000000E-03 0. -1.
        -11    1    3    3    0    0  0.49384689898E+01  0.11388032342E+02 -0.63496778444E+01  0.13942530816E+02  0.51100000000E-03 0.  1.
        -12    1    3    3    0    0  0.30133810948E+02  0.80384798940E+01 -0.10023789265E+02  0.32758816714E+02  0.00000000000E+00 0.  1.
</event>
<event>
 7    1  0.2895479E-015  0.9000791E+02  0.7816164E-02  0.1186339E+00
        -11   -1    0    0    0    0  0.00000000000E+00  0.00000000000E+00  0.45593999997E+02  0.45594000000E+02  0.51100000000E-03 0.  1.
         11   -1    0    0    0    0 -0.00000000000E+00 -0.00000000000E+00 -0.45593999997E+02  0.45594000000E+02  0.51100000000E-03 0. -1.
    9900012    2    1    2    0    0 -0.11033690368E+01 -0.47788937603E-01 -0.41581181075E+00  0.90007912514E+02  0.90000176159E+02 0.  0.
        -12    1    1    2    0    0  0.11033690368E+01  0.47788937603E-01  0.41581181075E+00  0.11800874865E+01  0.00000000000E+00 0.  1.
         11    1    3    3    0    0 -0.12217037845E+02 -0.54771421699E+01 -0.74533936576E+01  0.15323451874E+02  0.51100000000E-03 0. -1.
        -11    1    3    3    0    0  0.26346567860E+02 -0.16788459104E+02 -0.19534920273E+02  0.36845720341E+02  0.51100000000E-03 0.  1.
         12    1    3    3    0    0 -0.15232899052E+02  0.22217812337E+02  0.26572502119E+02  0.37838740299E+02  0.00000000000E+00 0. -1.
</event>
<event>
 7    1  0.4058380E-015  0.9000775E+02  0.7816164E-02  0.1186339E+00
        -11   -1    0    0    0    0  0.00000000000E+00  0.00000000000E+00  0.45593999997E+02  0.45594000000E+02  0.51100000000E-03 0. -1.
         11   -1    0    0    0    0 -0.00000000000E+00 -0.00000000000E+00 -0.45593999997E+02  0.45594000000E+02  0.51100000000E-03 0.  1.
    9900012    2    1    2    0    0  0.35926586847E+00 -0.23631781468E+00  0.10991199614E+01  0.90007753092E+02  0.90000014633E+02 0.  0.
        -12    1    1    2    0    0 -0.35926586847E+00  0.23631781468E+00 -0.10991199614E+01  0.11802469078E+01  0.00000000000E+00 0.  1.
         11    1    3    3    0    0 -0.42518172291E+01  0.47487823268E+01  0.78819570484E+01  0.10136771207E+02  0.51100000000E-03 0. -1.
        -11    1    3    3    0    0  0.33033456478E+02  0.98513589517E+01 -0.25379555274E+02  0.42806311991E+02  0.51100000000E-03 0.  1.
         12    1    3    3    0    0 -0.28422373381E+02 -0.14836459093E+02  0.18596718187E+02  0.37064669894E+02  0.00000000000E+00 0. -1.
</event>
<event>
 7    1  0.2895479E-015  0.9000776E+02  0.7816164E-02  0.1186339E+00
        -11   -1    0    0    0    0  0.00000000000E+00  0.00000000000E+00  0.45593999997E+02  0.45594000000E+02  0.51100000000E-03 0.  1.
         11   -1    0    0    0    0 -0.00000000000E+00 -0.00000000000E+00 -0.45593999997E+02  0.45594000000E+02  0.51100000000E-03 0. -1.
    9900012    2    1    2    0    0  0.42449854685E+00  0.53508130182E+00  0.96252957459E+00  0.90007756721E+02  0.90000018310E+02 0.  0.
        -12    1    1    2    0    0 -0.42449854685E+00 -0.53508130182E+00 -0.96252957459E+00  0.11802432791E+01  0.00000000000E+00 0.  1.
         11    1    3    3    0    0 -0.76566549148E+01 -0.20362986418E+01 -0.37455333712E+01  0.87635550514E+01  0.51100000000E-03 0. -1.
        -11    1    3    3    0    0 -0.18880851571E+02  0.26683778021E+02  0.23713722223E+02  0.40383798576E+02  0.51100000000E-03 0.  1.
         12    1    3    3    0    0  0.26962005033E+02 -0.24112398077E+02 -0.19005659277E+02  0.40860403094E+02  0.00000000000E+00 0. -1.
</event>
<event>
 7    1  0.2895479E-015  0.9000755E+02  0.7816164E-02  0.1186339E+00
        -11   -1    0    0    0    0  0.00000000000E+00  0.00000000000E+00  0.45593999997E+02  0.45594000000E+02  0.51100000000E-03 0. -1.
         11   -1    0    0    0    0 -0.00000000000E+00 -0.00000000000E+00 -0.45593999997E+02  0.45594000000E+02  0.51100000000E-03 0.  1.
    9900012    2    1    2    0    0 -0.90232066772E+00 -0.21832369630E-02  0.76109407090E+00  0.90007554517E+02  0.89999813436E+02 0.  0.
        -12    1    1    2    0    0  0.90232066772E+00  0.21832369630E-02 -0.76109407090E+00  0.11804454831E+01  0.00000000000E+00 0.  1.
         11    1    3    3    0    0  0.80670082528E+01 -0.58503310060E+01 -0.18813399699E+01  0.10141125942E+02  0.51100000000E-03 0. -1.
        -11    1    3    3    0    0 -0.23829041571E+02 -0.11802218342E+02 -0.29874757080E+02  0.39995208349E+02  0.51100000000E-03 0.  1.
         12    1    3    3    0    0  0.14859712651E+02  0.17650366111E+02  0.32517191121E+02  0.39871220226E+02  0.00000000000E+00 0. -1.
</event>
<event>
 7    1  0.2895479E-015  0.9000769E+02  0.7816164E-02  0.1186339E+00
        -11   -1    0    0    0    0  0.00000000000E+00  0.00000000000E+00  0.45593999997E+02  0.45594000000E+02  0.51100000000E-03 0.  1.
         11   -1    0    0    0    0 -0.00000000000E+00 -0.00000000000E+00 -0.45593999997E+02  0.45594000000E+02  0.51100000000E-03 0. -1.
    9900012    2    1    2    0    0  0.10765873550E+01  0.10717517892E+00 -0.47181814563E+00  0.90007686815E+02  0.89999947481E+02 0.  0.
        -12    1    1    2    0    0 -0.10765873550E+01 -0.10717517892E+00  0.47181814563E+00  0.11803131849E+01  0.00000000000E+00 0.  1.
         11    1    3    3    0    0 -0.43789814765E+01  0.51113653738E+00 -0.54758540999E+01  0.70300581588E+01  0.51100000000E-03 0. -1.
        -11    1    3    3    0    0 -0.32930328953E+02 -0.21196881263E+02  0.17829880536E+01  0.39203231842E+02  0.51100000000E-03 0.  1.
         12    1    3    3    0    0  0.38385897784E+02  0.20792919905E+02  0.32210479006E+01  0.43774396814E+02  0.00000000000E+00 0. -1.
</event>
<event>
 7    1  0.2895479E-015  0.9000764E+02  0.7816164E-02  0.1186339E+00
        -11   -1    0    0    0    0  0.00000000000E+00  0.00000000000E+00  0.45593999997E+02  0.45594000000E+02  0.51100000000E-03 0.  1.
         11   -1    0    0    0    0 -0.00000000000E+00 -0.00000000000E+00 -0.45593999997E+02  0.45594000000E+02  0.51100000000E-03 0. -1.
    9900012    2    1    2    0    0  0.49410644703E+00  0.47657318035E+00 -0.96019917019E+00  0.90007641739E+02  0.89999901810E+02 0.  0.
        -12    1    1    2    0    0 -0.49410644703E+00 -0.47657318035E+00  0.96019917019E+00  0.11803582607E+01  0.00000000000E+00 0.  1.
         11    1    3    3    0    0 -0.93490805626E+01 -0.30170405943E+01  0.28230385727E+01  0.10221418119E+02  0.51100000000E-03 0. -1.
        -11    1    3    3    0    0 -0.12375513683E+02 -0.33716553046E+02  0.24586431722E+01  0.36000058538E+02  0.51100000000E-03 0.  1.
         12    1    3    3    0    0  0.22218700693E+02  0.37210166821E+02 -0.62418809152E+01  0.43786165083E+02  0.00000000000E+00 0. -1.
</event>
<event>
 7    1  0.2895479E-015  0.9000715E+02  0.7816164E-02  0.1186340E+00
        -11   -1    0    0    0    0  0.00000000000E+00  0.00000000000E+00  0.45593999997E+02  0.45594000000E+02  0.51100000000E-03 0.  1.
         11   -1    0    0    0    0 -0.00000000000E+00 -0.00000000000E+00 -0.45593999997E+02  0.45594000000E+02  0.51100000000E-03 0. -1.
    9900012    2    1    2    0    0  0.39746927371E-01 -0.11562386594E+01 -0.23651740727E+00  0.90007149400E+02  0.89999402970E+02 0.  0.
        -12    1    1    2    0    0 -0.39746927371E-01  0.11562386594E+01  0.23651740727E+00  0.11808506001E+01  0.00000000000E+00 0.  1.
         11    1    3    3    0    0  0.73087834404E+01  0.43932833653E+01  0.17515198298E+01  0.87055772974E+01  0.51100000000E-03 0. -1.
        -11    1    3    3    0    0  0.54552976360E+01  0.35637475345E+02 -0.10092522967E+02  0.37438602289E+02  0.51100000000E-03 0.  1.
         12    1    3    3    0    0 -0.12724334149E+02 -0.41186997370E+02  0.81044857296E+01  0.43862969813E+02  0.00000000000E+00 0. -1.
</event>
<event>
 7    1  0.2895479E-015  0.9000778E+02  0.7816164E-02  0.1186339E+00
        -11   -1    0    0    0    0  0.00000000000E+00  0.00000000000E+00  0.45593999997E+02  0.45594000000E+02  0.51100000000E-03 0.  1.
         11   -1    0    0    0    0 -0.00000000000E+00 -0.00000000000E+00 -0.45593999997E+02  0.45594000000E+02  0.51100000000E-03 0. -1.
    9900012    2    1    2    0    0 -0.45426385843E+00  0.96556192178E+00 -0.50423269697E+00  0.90007781338E+02  0.90000043251E+02 0.  0.
        -12    1    1    2    0    0  0.45426385843E+00 -0.96556192178E+00  0.50423269697E+00  0.11802186622E+01  0.00000000000E+00 0.  1.
         11    1    3    3    0    0 -0.20990257937E+02  0.30896287337E+02  0.44096670787E+01  0.37611390076E+02  0.51100000000E-03 0. -1.
        -11    1    3    3    0    0 -0.94607303498E+01  0.25573175810E+00  0.60693598217E+00  0.94836274194E+01  0.51100000000E-03 0.  1.
        -12    1    3    3    0    0  0.29996724429E+02 -0.30186457173E+02 -0.55208357578E+01  0.42912763842E+02  0.00000000000E+00 0.  1.
</event>
<event>
 7    1  0.2895479E-015  0.9000785E+02  0.7816164E-02  0.1186339E+00
        -11   -1    0    0    0    0  0.00000000000E+00  0.00000000000E+00  0.45593999997E+02  0.45594000000E+02  0.51100000000E-03 0.  1.
         11   -1    0    0    0    0 -0.00000000000E+00 -0.00000000000E+00 -0.45593999997E+02  0.45594000000E+02  0.51100000000E-03 0. -1.
    9900012    2    1    2    0    0 -0.55933538396E+00 -0.10363409392E+01  0.76759378421E-01  0.90007851443E+02  0.90000114282E+02 0.  0.
        -12    1    1    2    0    0  0.55933538396E+00  0.10363409392E+01 -0.76759378421E-01  0.11801485568E+01  0.00000000000E+00 0.  1.
         11    1    3    3    0    0 -0.12168987734E+02 -0.13926075201E+01 -0.22696395827E+01  0.12456921059E+02  0.51100000000E-03 0. -1.
        -11    1    3    3    0    0  0.23835325467E+02 -0.25730448847E+02  0.23141547652E+02  0.42020351807E+02  0.51100000000E-03 0.  1.
         12    1    3    3    0    0 -0.12225673117E+02  0.26086715427E+02 -0.20795148691E+02  0.35530578577E+02  0.00000000000E+00 0. -1.
</event>
<event>
 7    1  0.2895479E-015  0.9000788E+02  0.7816164E-02  0.1186339E+00
        -11   -1    0    0    0    0  0.00000000000E+00  0.00000000000E+00  0.45593999997E+02  0.45594000000E+02  0.51100000000E-03 0.  1.
         11   -1    0    0    0    0 -0.00000000000E+00 -0.00000000000E+00 -0.45593999997E+02  0.45594000000E+02  0.51100000000E-03 0. -1.
    9900012    2    1    2    0    0 -0.15044460959E+00 -0.11515416052E+01  0.20975494806E+00  0.90007881876E+02  0.90000145116E+02 0.  0.
        -12    1    1    2    0    0  0.15044460959E+00  0.11515416052E+01 -0.20975494806E+00  0.11801181243E+01  0.00000000000E+00 0.  1.
         11    1    3    3    0    0 -0.43864351155E+01  0.48756188480E+01  0.74994071767E+01  0.99626091180E+01  0.51100000000E-03 0. -1.
        -11    1    3    3    0    0 -0.13397427004E+02  0.32578885479E+02  0.56451970589E+01  0.35675524937E+02  0.51100000000E-03 0.  1.
         12    1    3    3    0    0  0.17633417510E+02 -0.38606045932E+02 -0.12934849288E+02  0.44369747821E+02  0.00000000000E+00 0. -1.
</event>
<event>
 7    1  0.2895479E-015  0.9000779E+02  0.7816164E-02  0.1186339E+00
        -11   -1    0    0    0    0  0.00000000000E+00  0.00000000000E+00  0.45593999997E+02  0.45594000000E+02  0.51100000000E-03 0.  1.
         11   -1    0    0    0    0 -0.00000000000E+00 -0.00000000000E+00 -0.45593999997E+02  0.45594000000E+02  0.51100000000E-03 0. -1.
    9900012    2    1    2    0    0  0.38262207289E-01 -0.29465695403E+00 -0.11421927439E+01  0.90007791975E+02  0.90000054030E+02 0.  0.
        -12    1    1    2    0    0 -0.38262207289E-01  0.29465695403E+00  0.11421927439E+01  0.11802080245E+01  0.00000000000E+00 0.  1.
         11    1    3    3    0    0 -0.35666463416E+01  0.16832081085E+01 -0.85490264369E+01  0.94148823117E+01  0.51100000000E-03 0. -1.
        -11    1    3    3    0    0 -0.36423442888E+02 -0.30260074649E+01  0.15570063557E+02  0.39727204689E+02  0.51100000000E-03 0.  1.
         12    1    3    3    0    0  0.40028351437E+02  0.10481424023E+01 -0.81632298635E+01  0.40865704975E+02  0.00000000000E+00 0. -1.
</event>
<event>
 7    1  0.2895479E-015  0.9000773E+02  0.7816164E-02  0.1186339E+00
        -11   -1    0    0    0    0  0.00000000000E+00  0.00000000000E+00  0.45593999997E+02  0.45594000000E+02  0.51100000000E-03 0. -1.
         11   -1    0    0    0    0 -0.00000000000E+00 -0.00000000000E+00 -0.45593999997E+02  0.45594000000E+02  0.51100000000E-03 0.  1.
    9900012    2    1    2    0    0 -0.97283096921E+00 -0.50645541166E+00  0.43604872714E+00  0.90007730679E+02  0.89999991924E+02 0.  0.
        -12    1    1    2    0    0  0.97283096921E+00  0.50645541166E+00 -0.43604872714E+00  0.11802693214E+01  0.00000000000E+00 0.  1.
         11    1    3    3    0    0 -0.56879872116E+01  0.36672963327E+02  0.11153170803E+02  0.38751163298E+02  0.51100000000E-03 0. -1.
        -11    1    3    3    0    0 -0.45818993745E+01  0.28591029236E+01 -0.85283203031E+01  0.10094578687E+02  0.51100000000E-03 0.  1.
        -12    1    3    3    0    0  0.92970556169E+01 -0.40038521662E+02 -0.21888017729E+01  0.41161988694E+02  0.00000000000E+00 0.  1.
</event>
<event>
 7    1  0.2895479E-015  0.9000778E+02  0.7816164E-02  0.1186339E+00
        -11   -1    0    0    0    0  0.00000000000E+00  0.00000000000E+00  0.45593999997E+02  0.45594000000E+02  0.51100000000E-03 0.  1.
         11   -1    0    0    0    0 -0.00000000000E+00 -0.00000000000E+00 -0.45593999997E+02  0.45594000000E+02  0.51100000000E-03 0. -1.
    9900012    2    1    2    0    0  0.61259530328E+00  0.36876070621E+00 -0.93896953869E+00  0.90007779148E+02  0.90000041033E+02 0.  0.
        -12    1    1    2    0    0 -0.61259530328E+00 -0.36876070621E+00  0.93896953869E+00  0.11802208516E+01  0.00000000000E+00 0.  1.
         11    1    3    3    0    0  0.26147864034E+00 -0.15272989628E+01 -0.77344324115E+01  0.78881213347E+01  0.51100000000E-03 0. -1.
        -11    1    3    3    0    0 -0.28689942713E+02 -0.21943434421E+02  0.21198666142E+02  0.41880909416E+02  0.51100000000E-03 0.  1.
         12    1    3    3    0    0  0.29041059376E+02  0.23839494090E+02 -0.14403203270E+02  0.40238748397E+02  0.00000000000E+00 0. -1.
</event>
<event>
 7    1  0.2895479E-015  0.9000769E+02  0.7816164E-02  0.1186339E+00
        -11   -1    0    0    0    0  0.00000000000E+00  0.00000000000E+00  0.45593999997E+02  0.45594000000E+02  0.51100000000E-03 0. -1.
         11   -1    0    0    0    0 -0.00000000000E+00 -0.00000000000E+00 -0.45593999997E+02  0.45594000000E+02  0.51100000000E-03 0.  1.
    9900012    2    1    2    0    0 -0.11722081420E+01 -0.13698852308E+00 -0.16902108289E-01  0.90007693487E+02  0.89999954241E+02 0.  0.
        -12    1    1    2    0    0  0.11722081420E+01  0.13698852308E+00  0.16902108289E-01  0.11803065131E+01  0.00000000000E+00 0.  1.
         11    1    3    3    0    0 -0.33050705095E+01 -0.27892179330E+02 -0.53242457940E+01  0.28587492936E+02  0.51100000000E-03 0. -1.
        -11    1    3    3    0    0  0.20106494802E+02 -0.73825885147E+01 -0.10444501575E+01  0.21444454360E+02  0.51100000000E-03 0.  1.
         12    1    3    3    0    0 -0.17973632434E+02  0.35137779321E+02  0.63517938432E+01  0.39975746191E+02  0.00000000000E+00 0. -1.
</event>
<event>
 7    1  0.2895479E-015  0.9000785E+02  0.7816164E-02  0.1186339E+00
        -11   -1    0    0    0    0  0.00000000000E+00  0.00000000000E+00  0.45593999997E+02  0.45594000000E+02  0.51100000000E-03 0. -1.
         11   -1    0    0    0    0 -0.00000000000E+00 -0.00000000000E+00 -0.45593999997E+02  0.45594000000E+02  0.51100000000E-03 0.  1.
    9900012    2    1    2    0    0  0.88196684873E-01 -0.69086576020E+00  0.95272477175E+00  0.90007848042E+02  0.90000110836E+02 0.  0.
        -12    1    1    2    0    0 -0.88196684873E-01  0.69086576020E+00 -0.95272477175E+00  0.11801519582E+01  0.00000000000E+00 0.  1.
         11    1    3    3    0    0 -0.24522878730E+00  0.33496320479E+01  0.11053167579E+02  0.11552172342E+02  0.51100000000E-03 0. -1.
        -11    1    3    3    0    0 -0.37850195946E+02  0.31431287978E+01 -0.11165198315E+02  0.39587602168E+02  0.51100000000E-03 0.  1.
         12    1    3    3    0    0  0.38183621418E+02 -0.71836266059E+01  0.10647555075E+01  0.38868073532E+02  0.00000000000E+00 0. -1.
</event>
<event>
 7    1  0.2895479E-015  0.9000779E+02  0.7816164E-02  0.1186339E+00
        -11   -1    0    0    0    0  0.00000000000E+00  0.00000000000E+00  0.45593999997E+02  0.45594000000E+02  0.51100000000E-03 0. -1.
         11   -1    0    0    0    0 -0.00000000000E+00 -0.00000000000E+00 -0.45593999997E+02  0.45594000000E+02  0.51100000000E-03 0.  1.
    9900012    2    1    2    0    0  0.11758056587E+01 -0.35246596586E-01  0.95586197098E-01  0.90007789006E+02  0.90000051021E+02 0.  0.
        -12    1    1    2    0    0 -0.11758056587E+01  0.35246596586E-01 -0.95586197098E-01  0.11802109942E+01  0.00000000000E+00 0.  1.
         11    1    3    3    0    0  0.66726470459E+01  0.24312723835E+00 -0.54171495567E+01  0.85981881251E+01  0.51100000000E-03 0. -1.
        -11    1    3    3    0    0 -0.11751280759E-02 -0.68388791473E+01 -0.37212477937E+02  0.37835681358E+02  0.51100000000E-03 0.  1.
         12    1    3    3    0    0 -0.54956662591E+01  0.65605053124E+01  0.42725213691E+02  0.43573919522E+02  0.00000000000E+00 0. -1.
</event>
<event>
 7    1  0.2895479E-015  0.9000778E+02  0.7816164E-02  0.1186339E+00
        -11   -1    0    0    0    0  0.00000000000E+00  0.00000000000E+00  0.45593999997E+02  0.45594000000E+02  0.51100000000E-03 0. -1.
         11   -1    0    0    0    0 -0.00000000000E+00 -0.00000000000E+00 -0.45593999997E+02  0.45594000000E+02  0.51100000000E-03 0.  1.
    9900012    2    1    2    0    0 -0.81161664489E+00 -0.72544153207E+00 -0.45599636763E+00  0.90007779816E+02  0.90000041710E+02 0.  0.
        -12    1    1    2    0    0  0.81161664489E+00  0.72544153207E+00  0.45599636763E+00  0.11802201837E+01  0.00000000000E+00 0.  1.
         11    1    3    3    0    0  0.40532762324E+01  0.84190923081E+01  0.13362697724E+01  0.94390561326E+01  0.51100000000E-03 0. -1.
        -11    1    3    3    0    0 -0.49978655154E+01 -0.18750887094E+02 -0.38236765147E+02  0.42879186509E+02  0.51100000000E-03 0.  1.
         12    1    3    3    0    0  0.13297263808E+00  0.96063532538E+01  0.36444499007E+02  0.37689537175E+02  0.00000000000E+00 0. -1.
</event>
<event>
 7    1  0.2895479E-015  0.9000773E+02  0.7816164E-02  0.1186339E+00
        -11   -1    0    0    0    0  0.00000000000E+00  0.00000000000E+00  0.45593999997E+02  0.45594000000E+02  0.51100000000E-03 0.  1.
         11   -1    0    0    0    0 -0.00000000000E+00 -0.00000000000E+00 -0.45593999997E+02  0.45594000000E+02  0.51100000000E-03 0. -1.
    9900012    2    1    2    0    0  0.14862903332E+00 -0.97704980058E+00 -0.64522066752E+00  0.90007734516E+02  0.89999995812E+02 0.  0.
        -12    1    1    2    0    0 -0.14862903332E+00  0.97704980058E+00  0.64522066752E+00  0.11802654838E+01  0.00000000000E+00 0.  1.
         11    1    3    3    0    0 -0.24748804129E+01 -0.35567800380E+02  0.71892903354E+01  0.36371408451E+02  0.51100000000E-03 0. -1.
        -11    1    3    3    0    0  0.23326646099E+01 -0.66335065765E+01  0.69051674890E+01  0.98552560593E+01  0.51100000000E-03 0.  1.
        -12    1    3    3    0    0  0.29084483632E+00  0.41224257156E+02 -0.14739678492E+02  0.43781070006E+02  0.00000000000E+00 0.  1.
</event>
<event>
 7    1  0.2895479E-015  0.9000770E+02  0.7816164E-02  0.1186339E+00
        -11   -1    0    0    0    0  0.00000000000E+00  0.00000000000E+00  0.45593999997E+02  0.45594000000E+02  0.51100000000E-03 0. -1.
         11   -1    0    0    0    0 -0.00000000000E+00 -0.00000000000E+00 -0.45593999997E+02  0.45594000000E+02  0.51100000000E-03 0.  1.
    9900012    2    1    2    0    0  0.19675502134E+00  0.59602507328E+00  0.99957415797E+00  0.90007700494E+02  0.89999961341E+02 0.  0.
        -12    1    1    2    0    0 -0.19675502134E+00 -0.59602507328E+00 -0.99957415797E+00  0.11802995059E+01  0.00000000000E+00 0.  1.
         11    1    3    3    0    0  0.20508451757E+02  0.27050811673E+02  0.19668510167E+02  0.39232554060E+02  0.51100000000E-03 0. -1.
        -11    1    3    3    0    0 -0.63637787212E+01 -0.78546759881E+00  0.86570316668E+01  0.10773060684E+02  0.51100000000E-03 0.  1.
        -12    1    3    3    0    0 -0.13947918014E+02 -0.25669319001E+02 -0.27325967676E+02  0.40002085750E+02  0.00000000000E+00 0.  1.
</event>
<event>
 7    1  0.2895479E-015  0.9000787E+02  0.7816164E-02  0.1186339E+00
        -11   -1    0    0    0    0  0.00000000000E+00  0.00000000000E+00  0.45593999997E+02  0.45594000000E+02  0.51100000000E-03 0. -1.
         11   -1    0    0    0    0 -0.00000000000E+00 -0.00000000000E+00 -0.45593999997E+02  0.45594000000E+02  0.51100000000E-03 0.  1.
    9900012    2    1    2    0    0 -0.21943099068E+00 -0.10298127044E+01  0.53295756859E+00  0.90007869526E+02  0.90000132604E+02 0.  0.
        -12    1    1    2    0    0  0.21943099068E+00  0.10298127044E+01 -0.53295756859E+00  0.11801304740E+01  0.00000000000E+00 0.  1.
         11    1    3    3    0    0 -0.28653410871E+01  0.70461111579E+01 -0.75389709876E+00  0.76437048014E+01  0.51100000000E-03 0. -1.
        -11    1    3    3    0    0 -0.97801516083E+01  0.26025361726E+02 -0.25127770022E+02  0.37475000267E+02  0.51100000000E-03 0.  1.
         12    1    3    3    0    0  0.12426061705E+02 -0.34101285588E+02  0.26414624689E+02  0.44889164458E+02  0.00000000000E+00 0. -1.
</event>
<event>
 7    1  0.2895479E-015  0.9000771E+02  0.7816164E-02  0.1186339E+00
        -11   -1    0    0    0    0  0.00000000000E+00  0.00000000000E+00  0.45593999997E+02  0.45594000000E+02  0.51100000000E-03 0. -1.
         11   -1    0    0    0    0 -0.00000000000E+00 -0.00000000000E+00 -0.45593999997E+02  0.45594000000E+02  0.51100000000E-03 0.  1.
    9900012    2    1    2    0    0 -0.11102440417E+00  0.11669095260E+01 -0.13808965164E+00  0.90007714860E+02  0.89999975896E+02 0.  0.
        -12    1    1    2    0    0  0.11102440417E+00 -0.11669095260E+01  0.13808965164E+00  0.11802851401E+01  0.00000000000E+00 0.  1.
         11    1    3    3    0    0 -0.55679121820E+01  0.43345541025E+01  0.61214623643E+01  0.93414296054E+01  0.51100000000E-03 0. -1.
        -11    1    3    3    0    0  0.17218758828E+02  0.23082571651E+02  0.25036519034E+02  0.38159114968E+02  0.51100000000E-03 0.  1.
         12    1    3    3    0    0 -0.11761871050E+02 -0.26250216227E+02 -0.31296071050E+02  0.42507170286E+02  0.00000000000E+00 0. -1.
</event>
<event>
 7    1  0.2895479E-015  0.9000783E+02  0.7816164E-02  0.1186339E+00
        -11   -1    0    0    0    0  0.00000000000E+00  0.00000000000E+00  0.45593999997E+02  0.45594000000E+02  0.51100000000E-03 0.  1.
         11   -1    0    0    0    0 -0.00000000000E+00 -0.00000000000E+00 -0.45593999997E+02  0.45594000000E+02  0.51100000000E-03 0. -1.
    9900012    2    1    2    0    0 -0.10422132022E+01  0.52819451623E+00 -0.16611747244E+00  0.90007833562E+02  0.90000096165E+02 0.  0.
        -12    1    1    2    0    0  0.10422132022E+01 -0.52819451623E+00  0.16611747244E+00  0.11801664376E+01  0.00000000000E+00 0.  1.
         11    1    3    3    0    0 -0.83356819616E+01  0.16985838850E+01 -0.97052863651E+00  0.85621671950E+01  0.51100000000E-03 0. -1.
        -11    1    3    3    0    0 -0.21089562813E+02  0.11386893370E+02  0.30297139523E+02  0.38630915906E+02  0.51100000000E-03 0.  1.
         12    1    3    3    0    0  0.28383031572E+02 -0.12557282738E+02 -0.29492728359E+02  0.42814750461E+02  0.00000000000E+00 0. -1.
</event>
<event>
 7    1  0.2895479E-015  0.9000778E+02  0.7816164E-02  0.1186339E+00
        -11   -1    0    0    0    0  0.00000000000E+00  0.00000000000E+00  0.45593999997E+02  0.45594000000E+02  0.51100000000E-03 0. -1.
         11   -1    0    0    0    0 -0.00000000000E+00 -0.00000000000E+00 -0.45593999997E+02  0.45594000000E+02  0.51100000000E-03 0.  1.
    9900012    2    1    2    0    0 -0.92970942340E+00  0.31586730045E+00 -0.65482231620E+00  0.90007777975E+02  0.90000039844E+02 0.  0.
        -12    1    1    2    0    0  0.92970942340E+00 -0.31586730045E+00  0.65482231620E+00  0.11802220254E+01  0.00000000000E+00 0.  1.
         11    1    3    3    0    0 -0.13393940563E+02  0.10975601191E+02  0.31563501845E+02  0.36001612662E+02  0.51100000000E-03 0. -1.
        -11    1    3    3    0    0 -0.65300305749E+01  0.61705543914E+01  0.39568274055E+01  0.98170017920E+01  0.51100000000E-03 0.  1.
        -12    1    3    3    0    0  0.18994261714E+02 -0.16830288282E+02 -0.36175151567E+02  0.44189163520E+02  0.00000000000E+00 0.  1.
</event>
<event>
 7    1  0.2895479E-015  0.9000769E+02  0.7816164E-02  0.1186339E+00
        -11   -1    0    0    0    0  0.00000000000E+00  0.00000000000E+00  0.45593999997E+02  0.45594000000E+02  0.51100000000E-03 0. -1.
         11   -1    0    0    0    0 -0.00000000000E+00 -0.00000000000E+00 -0.45593999997E+02  0.45594000000E+02  0.51100000000E-03 0.  1.
    9900012    2    1    2    0    0 -0.98441616479E+00  0.60223314771E+00  0.24771010294E+00  0.90007694851E+02  0.89999955623E+02 0.  0.
        -12    1    1    2    0    0  0.98441616479E+00 -0.60223314771E+00 -0.24771010294E+00  0.11803051490E+01  0.00000000000E+00 0.  1.
         11    1    3    3    0    0  0.16218610977E+01  0.10659686494E+02  0.24689517624E+01  0.11061422722E+02  0.51100000000E-03 0. -1.
        -11    1    3    3    0    0 -0.26282444745E+02  0.20862504863E+02  0.14512272761E+02  0.36559773958E+02  0.51100000000E-03 0.  1.
         12    1    3    3    0    0  0.23676167482E+02 -0.30919958209E+02 -0.16733514421E+02  0.42386498171E+02  0.00000000000E+00 0. -1.
</event>
<event>
 7    1  0.2895479E-015  0.9000777E+02  0.7816164E-02  0.1186339E+00
        -11   -1    0    0    0    0  0.00000000000E+00  0.00000000000E+00  0.45593999997E+02  0.45594000000E+02  0.51100000000E-03 0. -1.
         11   -1    0    0    0    0 -0.00000000000E+00 -0.00000000000E+00 -0.45593999997E+02  0.45594000000E+02  0.51100000000E-03 0.  1.
    9900012    2    1    2    0    0 -0.18539418480E+00  0.82167953953E-01  0.11626814086E+01  0.90007766703E+02  0.90000028424E+02 0.  0.
        -12    1    1    2    0    0  0.18539418480E+00 -0.82167953953E-01 -0.11626814086E+01  0.11802332965E+01  0.00000000000E+00 0.  1.
         11    1    3    3    0    0 -0.69005169817E+01 -0.19294130389E+01  0.39906303698E+01  0.82015181704E+01  0.51100000000E-03 0. -1.
        -11    1    3    3    0    0  0.39657357997E+02 -0.17501470904E+02 -0.37317502948E+01  0.43507855471E+02  0.51100000000E-03 0.  1.
         12    1    3    3    0    0 -0.32942235200E+02  0.19513051897E+02  0.90380133350E+00  0.38298393063E+02  0.00000000000E+00 0. -1.
</event>
<event>
 7    1  0.2895479E-015  0.9000778E+02  0.7816164E-02  0.1186339E+00
        -11   -1    0    0    0    0  0.00000000000E+00  0.00000000000E+00  0.45593999997E+02  0.45594000000E+02  0.51100000000E-03 0.  1.
         11   -1    0    0    0    0 -0.00000000000E+00 -0.00000000000E+00 -0.45593999997E+02  0.45594000000E+02  0.51100000000E-03 0. -1.
    9900012    2    1    2    0    0 -0.99573424260E-02 -0.93679206014E+00 -0.71779606453E+00  0.90007784044E+02  0.90000045993E+02 0.  0.
        -12    1    1    2    0    0  0.99573424260E-02  0.93679206014E+00  0.71779606453E+00  0.11802159560E+01  0.00000000000E+00 0.  1.
         11    1    3    3    0    0  0.29433648590E+02  0.14553126279E+02 -0.22221957899E+02  0.39647806584E+02  0.51100000000E-03 0. -1.
        -11    1    3    3    0    0  0.23381710229E+01  0.50376845502E+01  0.88818123544E+01  0.10475299534E+02  0.51100000000E-03 0.  1.
        -12    1    3    3    0    0 -0.31781776956E+02 -0.20527602890E+02  0.12622349480E+02  0.39884677926E+02  0.00000000000E+00 0.  1.
</event>
<event>
 7    1  0.3166148E-015  0.9000776E+02  0.7816164E-02  0.1186339E+00
        -11   -1    0    0    0    0  0.00000000000E+00  0.00000000000E+00  0.45593999997E+02  0.45594000000E+02  0.51100000000E-03 0.  1.
         11   -1    0    0    0    0 -0.00000000000E+00 -0.00000000000E+00 -0.45593999997E+02  0.45594000000E+02  0.51100000000E-03 0. -1.
    9900012    2    1    2    0    0  0.23077481384E+00  0.10671637452E+01 -0.44818579336E+00  0.90007760203E+02  0.90000021837E+02 0.  0.
        -12    1    1    2    0    0 -0.23077481384E+00 -0.10671637452E+01  0.44818579336E+00  0.11802397973E+01  0.00000000000E+00 0.  1.
         11    1    3    3    0    0  0.16910567996E+01  0.91555181570E+01  0.36616931189E+01  0.10004558090E+02  0.51100000000E-03 0. -1.
        -11    1    3    3    0    0  0.19676117240E+02  0.25849052029E+01  0.31505625379E+02  0.37234872838E+02  0.51100000000E-03 0.  1.
         12    1    3    3    0    0 -0.21136399225E+02 -0.10673259615E+02 -0.35615504291E+02  0.42768329274E+02  0.00000000000E+00 0. -1.
</event>
<event>
 7    1  0.2895479E-015  0.9000771E+02  0.7816164E-02  0.1186339E+00
        -11   -1    0    0    0    0  0.00000000000E+00  0.00000000000E+00  0.45593999997E+02  0.45594000000E+02  0.51100000000E-03 0.  1.
         11   -1    0    0    0    0 -0.00000000000E+00 -0.00000000000E+00 -0.45593999997E+02  0.45594000000E+02  0.51100000000E-03 0. -1.
    9900012    2    1    2    0    0 -0.47393881342E+00  0.82204103534E+00 -0.70194499155E+00  0.90007705023E+02  0.89999965929E+02 0.  0.
        -12    1    1    2    0    0  0.47393881342E+00 -0.82204103534E+00  0.70194499155E+00  0.11802949775E+01  0.00000000000E+00 0.  1.
         11    1    3    3    0    0  0.67805825739E+01 -0.65474578891E+01 -0.51028704423E+01  0.10718432342E+02  0.51100000000E-03 0. -1.
        -11    1    3    3    0    0  0.35643899560E+01 -0.27899837475E+02  0.24479830493E+02  0.37287637470E+02  0.51100000000E-03 0.  1.
         12    1    3    3    0    0 -0.10818911343E+02  0.35269336399E+02 -0.20078905042E+02  0.42001635211E+02  0.00000000000E+00 0. -1.
</event>
<event>
 7    1  0.2895479E-015  0.9000776E+02  0.7816164E-02  0.1186339E+00
        -11   -1    0    0    0    0  0.00000000000E+00  0.00000000000E+00  0.45593999997E+02  0.45594000000E+02  0.51100000000E-03 0.  1.
         11   -1    0    0    0    0 -0.00000000000E+00 -0.00000000000E+00 -0.45593999997E+02  0.45594000000E+02  0.51100000000E-03 0. -1.
    9900012    2    1    2    0    0  0.49519778346E+00  0.81493390438E+00  0.69543471004E+00  0.90007759538E+02  0.90000021163E+02 0.  0.
        -12    1    1    2    0    0 -0.49519778346E+00 -0.81493390438E+00 -0.69543471004E+00  0.11802404624E+01  0.00000000000E+00 0.  1.
         11    1    3    3    0    0 -0.25530270178E+02 -0.23342675127E+01 -0.26963953621E+02  0.37206159373E+02  0.51100000000E-03 0. -1.
        -11    1    3    3    0    0  0.18523790792E+01 -0.62626560096E+01 -0.69582633519E+01  0.95430392267E+01  0.51100000000E-03 0.  1.
        -12    1    3    3    0    0  0.24173088883E+02  0.94118574267E+01  0.34617651683E+02  0.43258560937E+02  0.00000000000E+00 0.  1.
</event>
<event>
 7    1  0.2895479E-015  0.9000778E+02  0.7816164E-02  0.1186339E+00
        -11   -1    0    0    0    0  0.00000000000E+00  0.00000000000E+00  0.45593999997E+02  0.45594000000E+02  0.51100000000E-03 0. -1.
         11   -1    0    0    0    0 -0.00000000000E+00 -0.00000000000E+00 -0.45593999997E+02  0.45594000000E+02  0.51100000000E-03 0.  1.
    9900012    2    1    2    0    0 -0.11176668887E+01 -0.31884001175E+00 -0.20515603530E+00  0.90007776620E+02  0.90000038472E+02 0.  0.
        -12    1    1    2    0    0  0.11176668887E+01  0.31884001175E+00  0.20515603530E+00  0.11802233797E+01  0.00000000000E+00 0.  1.
         11    1    3    3    0    0 -0.63048818923E+01  0.70464656227E+01  0.10501573663E+01  0.95135190231E+01  0.51100000000E-03 0. -1.
        -11    1    3    3    0    0  0.18239969558E+02  0.15258303064E+02 -0.32181331759E+02  0.40014377615E+02  0.51100000000E-03 0.  1.
         12    1    3    3    0    0 -0.13052754554E+02 -0.22623608698E+02  0.30926018357E+02  0.40479879983E+02  0.00000000000E+00 0. -1.
</event>
<event>
 7    1  0.2895479E-015  0.9000771E+02  0.7816164E-02  0.1186339E+00
        -11   -1    0    0    0    0  0.00000000000E+00  0.00000000000E+00  0.45593999997E+02  0.45594000000E+02  0.51100000000E-03 0.  1.
         11   -1    0    0    0    0 -0.00000000000E+00 -0.00000000000E+00 -0.45593999997E+02  0.45594000000E+02  0.51100000000E-03 0. -1.
    9900012    2    1    2    0    0  0.76110757706E+00  0.78195629661E+00 -0.44981680456E+00  0.90007713784E+02  0.89999974806E+02 0.  0.
        -12    1    1    2    0    0 -0.76110757706E+00 -0.78195629661E+00  0.44981680456E+00  0.11802862159E+01  0.00000000000E+00 0.  1.
         11    1    3    3    0    0 -0.40214910391E+02  0.45212510005E+01 -0.11617565438E+02  0.42102833103E+02  0.51100000000E-03 0. -1.
        -11    1    3    3    0    0  0.58568040933E+01 -0.75249095234E+01 -0.27733011417E+01  0.99306403120E+01  0.51100000000E-03 0.  1.
        -12    1    3    3    0    0  0.35119213875E+02  0.37856148196E+01  0.13941049775E+02  0.37974240369E+02  0.00000000000E+00 0.  1.
</event>
<event>
 7    1  0.2895479E-015  0.9000810E+02  0.7816164E-02  0.1186338E+00
        -11   -1    0    0    0    0  0.00000000000E+00  0.00000000000E+00  0.45593999997E+02  0.45594000000E+02  0.51100000000E-03 0.  1.
         11   -1    0    0    0    0 -0.00000000000E+00 -0.00000000000E+00 -0.45593999997E+02  0.45594000000E+02  0.51100000000E-03 0. -1.
    9900012    2    1    2    0    0 -0.63029400115E+00 -0.22897417713E+00 -0.97080945139E+00  0.90008097168E+02  0.90000363250E+02 0.  0.
        -12    1    1    2    0    0  0.63029400115E+00  0.22897417713E+00  0.97080945139E+00  0.11799028318E+01  0.00000000000E+00 0.  1.
         11    1    3    3    0    0 -0.18117494105E+02  0.72612808011E+01 -0.28708359512E+02  0.34715122032E+02  0.51100000000E-03 0. -1.
        -11    1    3    3    0    0  0.31245172813E+01  0.39004592182E+01 -0.11195449624E+02  0.12260272546E+02  0.51100000000E-03 0.  1.
        -12    1    3    3    0    0  0.14362682823E+02 -0.11390714196E+02  0.38932999685E+02  0.43032702591E+02  0.00000000000E+00 0.  1.
</event>
<event>
 7    1  0.2895479E-015  0.9000767E+02  0.7816164E-02  0.1186339E+00
        -11   -1    0    0    0    0  0.00000000000E+00  0.00000000000E+00  0.45593999997E+02  0.45594000000E+02  0.51100000000E-03 0.  1.
         11   -1    0    0    0    0 -0.00000000000E+00 -0.00000000000E+00 -0.45593999997E+02  0.45594000000E+02  0.51100000000E-03 0. -1.
    9900012    2    1    2    0    0  0.89370120152E+00 -0.48888571108E+00  0.59621653463E+00  0.90007667321E+02  0.89999927730E+02 0.  0.
        -12    1    1    2    0    0 -0.89370120152E+00  0.48888571108E+00 -0.59621653463E+00  0.11803326786E+01  0.00000000000E+00 0.  1.
         11    1    3    3    0    0  0.32993697612E+02  0.15156248835E+02  0.17399444005E+02  0.40262098962E+02  0.51100000000E-03 0. -1.
        -11    1    3    3    0    0 -0.32531875748E+01 -0.22244480638E+01  0.83200973940E+01  0.92062706614E+01  0.51100000000E-03 0.  1.
        -12    1    3    3    0    0 -0.28846808836E+02 -0.13420686483E+02 -0.25123324864E+02  0.40539297698E+02  0.00000000000E+00 0.  1.
</event>
<event>
 7    1  0.2895479E-015  0.9000776E+02  0.7816164E-02  0.1186339E+00
        -11   -1    0    0    0    0  0.00000000000E+00  0.00000000000E+00  0.45593999997E+02  0.45594000000E+02  0.51100000000E-03 0.  1.
         11   -1    0    0    0    0 -0.00000000000E+00 -0.00000000000E+00 -0.45593999997E+02  0.45594000000E+02  0.51100000000E-03 0. -1.
    9900012    2    1    2    0    0  0.17089996241E+00  0.11636249990E+01 -0.98693237313E-01  0.90007758376E+02  0.90000019987E+02 0.  0.
        -12    1    1    2    0    0 -0.17089996241E+00 -0.11636249990E+01  0.98693237313E-01  0.11802416238E+01  0.00000000000E+00 0.  1.
         11    1    3    3    0    0 -0.41551274797E+01 -0.62899818621E+01 -0.57614957942E+00  0.75604831060E+01  0.51100000000E-03 0. -1.
        -11    1    3    3    0    0  0.61025162387E+00 -0.28069468193E+02  0.26223735397E+02  0.38418117472E+02  0.51100000000E-03 0.  1.
         12    1    3    3    0    0  0.37157758182E+01  0.35523075054E+02 -0.25746279055E+02  0.44029157798E+02  0.00000000000E+00 0. -1.
</event>
<event>
 7    1  0.2895479E-015  0.9000774E+02  0.7816164E-02  0.1186339E+00
        -11   -1    0    0    0    0  0.00000000000E+00  0.00000000000E+00  0.45593999997E+02  0.45594000000E+02  0.51100000000E-03 0.  1.
         11   -1    0    0    0    0 -0.00000000000E+00 -0.00000000000E+00 -0.45593999997E+02  0.45594000000E+02  0.51100000000E-03 0. -1.
    9900012    2    1    2    0    0  0.92654886153E+00 -0.64985454417E+00 -0.33496507990E+00  0.90007743534E+02  0.90000004948E+02 0.  0.
        -12    1    1    2    0    0 -0.92654886153E+00  0.64985454417E+00  0.33496507990E+00  0.11802564663E+01  0.00000000000E+00 0.  1.
         11    1    3    3    0    0  0.19662639215E+02  0.26040617269E+02 -0.21057542176E+02  0.38834948325E+02  0.51100000000E-03 0. -1.
        -11    1    3    3    0    0  0.85729536177E+01  0.42551356038E-01  0.38852409816E+01  0.94123558207E+01  0.51100000000E-03 0.  1.
        -12    1    3    3    0    0 -0.27309043972E+02 -0.26733023169E+02  0.16837336115E+02  0.41760439388E+02  0.00000000000E+00 0.  1.
</event>
<event>
 7    1  0.2895479E-015  0.9000775E+02  0.7816164E-02  0.1186339E+00
        -11   -1    0    0    0    0  0.00000000000E+00  0.00000000000E+00  0.45593999997E+02  0.45594000000E+02  0.51100000000E-03 0.  1.
         11   -1    0    0    0    0 -0.00000000000E+00 -0.00000000000E+00 -0.45593999997E+02  0.45594000000E+02  0.51100000000E-03 0. -1.
    9900012    2    1    2    0    0 -0.11175558877E-01 -0.10679717984E+01 -0.50229239804E+00  0.90007751590E+02  0.90000013111E+02 0.  0.
        -12    1    1    2    0    0  0.11175558877E-01  0.10679717984E+01  0.50229239804E+00  0.11802484096E+01  0.00000000000E+00 0.  1.
         11    1    3    3    0    0 -0.69871267822E+01 -0.30681125585E+01  0.45269216042E+01  0.88727828111E+01  0.51100000000E-03 0. -1.
        -11    1    3    3    0    0  0.20914502067E+02  0.12098152815E+02  0.32119490689E+02  0.40192578676E+02  0.51100000000E-03 0.  1.
         12    1    3    3    0    0 -0.13938550844E+02 -0.10098012055E+02 -0.37148704691E+02  0.40942390103E+02  0.00000000000E+00 0. -1.
</event>
<event>
 7    1  0.2895479E-015  0.9000761E+02  0.7816164E-02  0.1186339E+00
        -11   -1    0    0    0    0  0.00000000000E+00  0.00000000000E+00  0.45593999997E+02  0.45594000000E+02  0.51100000000E-03 0.  1.
         11   -1    0    0    0    0 -0.00000000000E+00 -0.00000000000E+00 -0.45593999997E+02  0.45594000000E+02  0.51100000000E-03 0. -1.
    9900012    2    1    2    0    0 -0.10949241502E+01  0.42001624760E+00 -0.13432578462E+00  0.90007611945E+02  0.89999871623E+02 0.  0.
        -12    1    1    2    0    0  0.10949241502E+01 -0.42001624760E+00  0.13432578462E+00  0.11803880546E+01  0.00000000000E+00 0.  1.
         11    1    3    3    0    0  0.34766825249E+01  0.34734907906E+01 -0.79913106779E+01  0.93815513783E+01  0.51100000000E-03 0. -1.
        -11    1    3    3    0    0 -0.23681402105E+02  0.31897805807E+02  0.91619359974E+01  0.40770331031E+02  0.51100000000E-03 0.  1.
         12    1    3    3    0    0  0.19109795430E+02 -0.34951280350E+02 -0.13049511041E+01  0.39855729536E+02  0.00000000000E+00 0. -1.
</event>
<event>
 7    1  0.2895479E-015  0.9000759E+02  0.7816164E-02  0.1186339E+00
        -11   -1    0    0    0    0  0.00000000000E+00  0.00000000000E+00  0.45593999997E+02  0.45594000000E+02  0.51100000000E-03 0.  1.
         11   -1    0    0    0    0 -0.00000000000E+00 -0.00000000000E+00 -0.45593999997E+02  0.45594000000E+02  0.51100000000E-03 0. -1.
    9900012    2    1    2    0    0  0.80452336057E+00 -0.75489651845E+00 -0.41982425396E+00  0.90007585244E+02  0.89999844569E+02 0.  0.
        -12    1    1    2    0    0 -0.80452336057E+00  0.75489651845E+00  0.41982425396E+00  0.11804147557E+01  0.00000000000E+00 0.  1.
         11    1    3    3    0    0 -0.25597142724E+02  0.13295666769E+02 -0.52119554630E+01  0.29311310965E+02  0.51100000000E-03 0. -1.
        -11    1    3    3    0    0 -0.10355040902E+02 -0.22472807139E+00 -0.13793551548E+02  0.17249331562E+02  0.51100000000E-03 0.  1.
        -12    1    3    3    0    0  0.36756706987E+02 -0.13825835216E+02  0.18585682757E+02  0.43446942717E+02  0.00000000000E+00 0.  1.
</event>
<event>
 7    1  0.2895479E-015  0.9000775E+02  0.7816164E-02  0.1186339E+00
        -11   -1    0    0    0    0  0.00000000000E+00  0.00000000000E+00  0.45593999997E+02  0.45594000000E+02  0.51100000000E-03 0.  1.
         11   -1    0    0    0    0 -0.00000000000E+00 -0.00000000000E+00 -0.45593999997E+02  0.45594000000E+02  0.51100000000E-03 0. -1.
    9900012    2    1    2    0    0  0.51238738113E+00 -0.35252325306E+00  0.10030856808E+01  0.90007748181E+02  0.90000009657E+02 0.  0.
        -12    1    1    2    0    0 -0.51238738113E+00  0.35252325306E+00 -0.10030856808E+01  0.11802518186E+01  0.00000000000E+00 0.  1.
         11    1    3    3    0    0 -0.68335274372E+01 -0.68814662610E+01 -0.22323054168E+01  0.99516261421E+01  0.51100000000E-03 0. -1.
        -11    1    3    3    0    0 -0.11221369331E+02  0.30798279251E+02  0.26092560171E+02  0.41896000179E+02  0.51100000000E-03 0.  1.
         12    1    3    3    0    0  0.18567284149E+02 -0.24269336243E+02 -0.22857169073E+02  0.38160121860E+02  0.00000000000E+00 0. -1.
</event>
<event>
 7    1  0.2895479E-015  0.9000778E+02  0.7816164E-02  0.1186339E+00
        -11   -1    0    0    0    0  0.00000000000E+00  0.00000000000E+00  0.45593999997E+02  0.45594000000E+02  0.51100000000E-03 0.  1.
         11   -1    0    0    0    0 -0.00000000000E+00 -0.00000000000E+00 -0.45593999997E+02  0.45594000000E+02  0.51100000000E-03 0. -1.
    9900012    2    1    2    0    0  0.10893197327E+01  0.20898846871E-01  0.45372485846E+00  0.90007779474E+02  0.90000041363E+02 0.  0.
        -12    1    1    2    0    0 -0.10893197327E+01 -0.20898846871E-01 -0.45372485846E+00  0.11802205256E+01  0.00000000000E+00 0.  1.
         11    1    3    3    0    0  0.47872438417E+01 -0.40248711993E+01 -0.59252240363E+01  0.86154263918E+01  0.51100000000E-03 0. -1.
        -11    1    3    3    0    0  0.14346693851E+02 -0.34302355480E+02 -0.49835272970E+01  0.37514194121E+02  0.51100000000E-03 0.  1.
         12    1    3    3    0    0 -0.18044617960E+02  0.38348125526E+02  0.11362476192E+02  0.43878158962E+02  0.00000000000E+00 0. -1.
</event>
<event>
 7    1  0.2895479E-015  0.9000783E+02  0.7816164E-02  0.1186339E+00
        -11   -1    0    0    0    0  0.00000000000E+00  0.00000000000E+00  0.45593999997E+02  0.45594000000E+02  0.51100000000E-03 0. -1.
         11   -1    0    0    0    0 -0.00000000000E+00 -0.00000000000E+00 -0.45593999997E+02  0.45594000000E+02  0.51100000000E-03 0.  1.
    9900012    2    1    2    0    0  0.14037871407E+00  0.15777974689E+00  0.11611193050E+01  0.90007831083E+02  0.90000093653E+02 0.  0.
        -12    1    1    2    0    0 -0.14037871407E+00 -0.15777974689E+00 -0.11611193050E+01  0.11801689169E+01  0.00000000000E+00 0.  1.
         11    1    3    3    0    0  0.49115077154E+01  0.80638158402E+00 -0.56563538458E+01  0.75344209059E+01  0.51100000000E-03 0. -1.
        -11    1    3    3    0    0  0.23715600011E+02  0.27069237467E+02 -0.12738655584E+02  0.38176519580E+02  0.51100000000E-03 0.  1.
         12    1    3    3    0    0 -0.28486729012E+02 -0.27717839304E+02  0.19556128735E+02  0.44296890597E+02  0.00000000000E+00 0. -1.
</event>
<event>
 7    1  0.2895479E-015  0.9000773E+02  0.7816164E-02  0.1186339E+00
        -11   -1    0    0    0    0  0.00000000000E+00  0.00000000000E+00  0.45593999997E+02  0.45594000000E+02  0.51100000000E-03 0. -1.
         11   -1    0    0    0    0 -0.00000000000E+00 -0.00000000000E+00 -0.45593999997E+02  0.45594000000E+02  0.51100000000E-03 0.  1.
    9900012    2    1    2    0    0  0.78499527063E+00 -0.44913271882E+00  0.75835284122E+00  0.90007730198E+02  0.89999991436E+02 0.  0.
        -12    1    1    2    0    0 -0.78499527063E+00  0.44913271882E+00 -0.75835284122E+00  0.11802698021E+01  0.00000000000E+00 0.  1.
         11    1    3    3    0    0 -0.48324788357E+01 -0.87878039046E+01 -0.57788423247E+01  0.11574686520E+02  0.51100000000E-03 0. -1.
        -11    1    3    3    0    0  0.10783046893E+02  0.30393383272E+02 -0.24151144077E+02  0.40290316548E+02  0.51100000000E-03 0.  1.
         12    1    3    3    0    0 -0.51655727865E+01 -0.22054712086E+02  0.30688339243E+02  0.38142727130E+02  0.00000000000E+00 0. -1.
</event>
<event>
 7    1  0.2895479E-015  0.9000780E+02  0.7816164E-02  0.1186339E+00
        -11   -1    0    0    0    0  0.00000000000E+00  0.00000000000E+00  0.45593999997E+02  0.45594000000E+02  0.51100000000E-03 0. -1.
         11   -1    0    0    0    0 -0.00000000000E+00 -0.00000000000E+00 -0.45593999997E+02  0.45594000000E+02  0.51100000000E-03 0.  1.
    9900012    2    1    2    0    0  0.10338642397E+01  0.50835368066E+00 -0.25608660338E+00  0.90007797018E+02  0.90000059138E+02 0.  0.
        -12    1    1    2    0    0 -0.10338642397E+01 -0.50835368066E+00  0.25608660338E+00  0.11802029822E+01  0.00000000000E+00 0.  1.
         11    1    3    3    0    0  0.35963273806E+02 -0.56941438184E+01 -0.12574471538E+02  0.38521392387E+02  0.51100000000E-03 0. -1.
        -11    1    3    3    0    0  0.11949787995E+01  0.12067189192E+01 -0.90573839290E+01  0.92152237509E+01  0.51100000000E-03 0.  1.
        -12    1    3    3    0    0 -0.36124388366E+02  0.49957785798E+01  0.21375768864E+02  0.42271180880E+02  0.00000000000E+00 0.  1.
</event>
<event>
 7    1  0.2895479E-015  0.9000862E+02  0.7816164E-02  0.1186337E+00
        -11   -1    0    0    0    0  0.00000000000E+00  0.00000000000E+00  0.45593999997E+02  0.45594000000E+02  0.51100000000E-03 0.  1.
         11   -1    0    0    0    0 -0.00000000000E+00 -0.00000000000E+00 -0.45593999997E+02  0.45594000000E+02  0.51100000000E-03 0. -1.
    9900012    2    1    2    0    0 -0.25367111739E+00  0.56224323272E+00 -0.10052220451E+01  0.90008619718E+02  0.90000892694E+02 0.  0.
        -12    1    1    2    0    0  0.25367111739E+00 -0.56224323272E+00  0.10052220451E+01  0.11793802816E+01  0.00000000000E+00 0.  1.
         11    1    3    3    0    0 -0.78935760591E+00  0.67472191177E+01 -0.28501576767E+01  0.73669159283E+01  0.51100000000E-03 0. -1.
        -11    1    3    3    0    0 -0.93384743323E+01  0.33869708414E+02  0.16561803215E+02  0.38841441489E+02  0.51100000000E-03 0.  1.
         12    1    3    3    0    0  0.98741608208E+01 -0.40054684299E+02 -0.14716867583E+02  0.43800262302E+02  0.00000000000E+00 0. -1.
</event>
<event>
 7    1  0.2895479E-015  0.9000782E+02  0.7816164E-02  0.1186339E+00
        -11   -1    0    0    0    0  0.00000000000E+00  0.00000000000E+00  0.45593999997E+02  0.45594000000E+02  0.51100000000E-03 0.  1.
         11   -1    0    0    0    0 -0.00000000000E+00 -0.00000000000E+00 -0.45593999997E+02  0.45594000000E+02  0.51100000000E-03 0. -1.
    9900012    2    1    2    0    0  0.46666489457E+00 -0.92879385818E+00  0.55891705296E+00  0.90007821019E+02  0.90000083457E+02 0.  0.
        -12    1    1    2    0    0 -0.46666489457E+00  0.92879385818E+00 -0.55891705296E+00  0.11801789809E+01  0.00000000000E+00 0.  1.
         11    1    3    3    0    0 -0.50947347447E+01 -0.35015393616E+02 -0.97444449823E+01  0.36701339491E+02  0.51100000000E-03 0. -1.
        -11    1    3    3    0    0  0.73231689555E+00 -0.78353059131E+01 -0.38978333247E+01  0.87818797347E+01  0.51100000000E-03 0.  1.
        -12    1    3    3    0    0  0.48290827437E+01  0.41921905670E+02  0.14201195360E+02  0.44524601793E+02  0.00000000000E+00 0.  1.
</event>
<event>
 7    1  0.2895479E-015  0.9000772E+02  0.7816164E-02  0.1186339E+00
        -11   -1    0    0    0    0  0.00000000000E+00  0.00000000000E+00  0.45593999997E+02  0.45594000000E+02  0.51100000000E-03 0.  1.
         11   -1    0    0    0    0 -0.00000000000E+00 -0.00000000000E+00 -0.45593999997E+02  0.45594000000E+02  0.51100000000E-03 0. -1.
    9900012    2    1    2    0    0  0.29386032330E+00 -0.53982896269E+00 -0.10076135731E+01  0.90007722782E+02  0.89999983923E+02 0.  0.
        -12    1    1    2    0    0 -0.29386032330E+00  0.53982896269E+00  0.10076135731E+01  0.11802772180E+01  0.00000000000E+00 0.  1.
         11    1    3    3    0    0  0.20880999102E+02  0.11127655585E+02 -0.26677149209E+02  0.35658254760E+02  0.51100000000E-03 0. -1.
        -11    1    3    3    0    0  0.28884980812E+01 -0.57813661652E+01 -0.96011233750E+01  0.11573641874E+02  0.51100000000E-03 0.  1.
        -12    1    3    3    0    0 -0.23475636860E+02 -0.58861183827E+01  0.35270659011E+02  0.42775826148E+02  0.00000000000E+00 0.  1.
</event>
<event>
 7    1  0.2895479E-015  0.9000780E+02  0.7816164E-02  0.1186339E+00
        -11   -1    0    0    0    0  0.00000000000E+00  0.00000000000E+00  0.45593999997E+02  0.45594000000E+02  0.51100000000E-03 0.  1.
         11   -1    0    0    0    0 -0.00000000000E+00 -0.00000000000E+00 -0.45593999997E+02  0.45594000000E+02  0.51100000000E-03 0. -1.
    9900012    2    1    2    0    0 -0.58057131313E+00  0.10274088473E+01  0.15740157641E-01  0.90007796737E+02  0.90000058854E+02 0.  0.
        -12    1    1    2    0    0  0.58057131313E+00 -0.10274088473E+01 -0.15740157641E-01  0.11802032629E+01  0.00000000000E+00 0.  1.
         11    1    3    3    0    0 -0.11515518134E+02  0.39002281970E+02 -0.21160692524E+01  0.40721774348E+02  0.51100000000E-03 0. -1.
        -11    1    3    3    0    0  0.99289129463E+01  0.96313454182E+00  0.26869954245E+01  0.10331064084E+02  0.51100000000E-03 0.  1.
        -12    1    3    3    0    0  0.10060338743E+01 -0.38938007664E+02 -0.55518601445E+00  0.38954958305E+02  0.00000000000E+00 0.  1.
</event>
<event>
 7    1  0.2895479E-015  0.9000760E+02  0.7816164E-02  0.1186339E+00
        -11   -1    0    0    0    0  0.00000000000E+00  0.00000000000E+00  0.45593999997E+02  0.45594000000E+02  0.51100000000E-03 0. -1.
         11   -1    0    0    0    0 -0.00000000000E+00 -0.00000000000E+00 -0.45593999997E+02  0.45594000000E+02  0.51100000000E-03 0.  1.
    9900012    2    1    2    0    0  0.51971112323E+00  0.60443044789E+00  0.87057362288E+00  0.90007604197E+02  0.89999863773E+02 0.  0.
        -12    1    1    2    0    0 -0.51971112323E+00 -0.60443044789E+00 -0.87057362288E+00  0.11803958026E+01  0.00000000000E+00 0.  1.
         11    1    3    3    0    0  0.62890559484E+01 -0.93836144662E+01 -0.40988479577E+00  0.11303647685E+02  0.51100000000E-03 0. -1.
        -11    1    3    3    0    0 -0.35874194143E+02  0.53937117722E+01  0.21480661146E+02  0.42160037187E+02  0.51100000000E-03 0.  1.
         12    1    3    3    0    0  0.30104849318E+02  0.45943331419E+01 -0.20200202727E+02  0.36543919326E+02  0.00000000000E+00 0. -1.
</event>
<event>
 7    1  0.2895479E-015  0.9000778E+02  0.7816164E-02  0.1186339E+00
        -11   -1    0    0    0    0  0.00000000000E+00  0.00000000000E+00  0.45593999997E+02  0.45594000000E+02  0.51100000000E-03 0. -1.
         11   -1    0    0    0    0 -0.00000000000E+00 -0.00000000000E+00 -0.45593999997E+02  0.45594000000E+02  0.51100000000E-03 0.  1.
    9900012    2    1    2    0    0  0.69312545775E+00  0.95178872716E+00  0.81196928077E-01  0.90007780689E+02  0.90000042594E+02 0.  0.
        -12    1    1    2    0    0 -0.69312545775E+00 -0.95178872716E+00 -0.81196928077E-01  0.11802193112E+01  0.00000000000E+00 0.  1.
         11    1    3    3    0    0  0.55846327389E+01  0.17891339535E+02  0.29336866283E+02  0.34812926863E+02  0.51100000000E-03 0. -1.
        -11    1    3    3    0    0  0.30396576697E+01  0.97218908288E+01  0.47688863908E+01  0.11247086632E+02  0.51100000000E-03 0.  1.
        -12    1    3    3    0    0 -0.79311649509E+01 -0.26661441637E+02 -0.34024555746E+02  0.43947767194E+02  0.00000000000E+00 0.  1.
</event>
<event>
 7    1  0.2895479E-015  0.9000785E+02  0.7816164E-02  0.1186339E+00
        -11   -1    0    0    0    0  0.00000000000E+00  0.00000000000E+00  0.45593999997E+02  0.45594000000E+02  0.51100000000E-03 0. -1.
         11   -1    0    0    0    0 -0.00000000000E+00 -0.00000000000E+00 -0.45593999997E+02  0.45594000000E+02  0.51100000000E-03 0.  1.
    9900012    2    1    2    0    0 -0.80889127581E+00  0.83584866931E+00 -0.19953603240E+00  0.90007846314E+02  0.90000109085E+02 0.  0.
        -12    1    1    2    0    0  0.80889127581E+00 -0.83584866931E+00  0.19953603240E+00  0.11801536859E+01  0.00000000000E+00 0.  1.
         11    1    3    3    0    0 -0.70140905572E+01  0.36602520064E+02  0.17755318862E+02  0.41281876042E+02  0.51100000000E-03 0. -1.
        -11    1    3    3    0    0 -0.64938978477E+01 -0.91891854669E+00  0.16652368506E+01  0.67666930314E+01  0.51100000000E-03 0.  1.
        -12    1    3    3    0    0  0.12699097129E+02 -0.34847752848E+02 -0.19620091745E+02  0.41959277241E+02  0.00000000000E+00 0.  1.
</event>
<event>
 7    1  0.2895479E-015  0.9000771E+02  0.7816164E-02  0.1186339E+00
        -11   -1    0    0    0    0  0.00000000000E+00  0.00000000000E+00  0.45593999997E+02  0.45594000000E+02  0.51100000000E-03 0.  1.
         11   -1    0    0    0    0 -0.00000000000E+00 -0.00000000000E+00 -0.45593999997E+02  0.45594000000E+02  0.51100000000E-03 0. -1.
    9900012    2    1    2    0    0 -0.88535307145E-01  0.11568245992E+01 -0.21682223067E+00  0.90007706166E+02  0.89999967088E+02 0.  0.
        -12    1    1    2    0    0  0.88535307145E-01 -0.11568245992E+01  0.21682223067E+00  0.11802938336E+01  0.00000000000E+00 0.  1.
         11    1    3    3    0    0 -0.79751279669E+01  0.94788598674E+01 -0.32532846611E+02  0.34811457300E+02  0.51100000000E-03 0. -1.
        -11    1    3    3    0    0  0.16397136468E+01  0.10587239216E+02 -0.58063944964E+01  0.12185750382E+02  0.51100000000E-03 0.  1.
        -12    1    3    3    0    0  0.62468790130E+01 -0.18909274484E+02  0.38122418877E+02  0.43010498485E+02  0.00000000000E+00 0.  1.
</event>
<event>
 7    1  0.2895479E-015  0.9000777E+02  0.7816164E-02  0.1186339E+00
        -11   -1    0    0    0    0  0.00000000000E+00  0.00000000000E+00  0.45593999997E+02  0.45594000000E+02  0.51100000000E-03 0.  1.
         11   -1    0    0    0    0 -0.00000000000E+00 -0.00000000000E+00 -0.45593999997E+02  0.45594000000E+02  0.51100000000E-03 0. -1.
    9900012    2    1    2    0    0  0.94984937480E+00 -0.43058878722E+00 -0.55255040224E+00  0.90007774392E+02  0.90000036214E+02 0.  0.
        -12    1    1    2    0    0 -0.94984937480E+00  0.43058878722E+00  0.55255040224E+00  0.11802256079E+01  0.00000000000E+00 0.  1.
         11    1    3    3    0    0 -0.10376608886E+02  0.17914266682E+01  0.83864687208E+01  0.13461652177E+02  0.51100000000E-03 0. -1.
        -11    1    3    3    0    0  0.11645280132E+02 -0.18304510045E+02  0.28488291852E+02  0.35808524268E+02  0.51100000000E-03 0.  1.
         12    1    3    3    0    0 -0.31882187154E+00  0.16082494590E+02 -0.37427310975E+02  0.40737597947E+02  0.00000000000E+00 0. -1.
</event>
<event>
 7    1  0.2895479E-015  0.9000786E+02  0.7816164E-02  0.1186339E+00
        -11   -1    0    0    0    0  0.00000000000E+00  0.00000000000E+00  0.45593999997E+02  0.45594000000E+02  0.51100000000E-03 0. -1.
         11   -1    0    0    0    0 -0.00000000000E+00 -0.00000000000E+00 -0.45593999997E+02  0.45594000000E+02  0.51100000000E-03 0.  1.
    9900012    2    1    2    0    0  0.77309858431E+00  0.81256537015E+00  0.36714137210E+00  0.90007857344E+02  0.90000120261E+02 0.  0.
        -12    1    1    2    0    0 -0.77309858431E+00 -0.81256537015E+00 -0.36714137210E+00  0.11801426562E+01  0.00000000000E+00 0.  1.
         11    1    3    3    0    0  0.41062071988E+01  0.11658576754E+02  0.17795195242E+02  0.21666848489E+02  0.51100000000E-03 0. -1.
        -11    1    3    3    0    0 -0.13770885682E+02  0.21159615916E+02  0.76303131969E+01  0.26374008378E+02  0.51100000000E-03 0.  1.
         12    1    3    3    0    0  0.10437777068E+02 -0.32005627300E+02 -0.25058367067E+02  0.41967000477E+02  0.00000000000E+00 0. -1.
</event>
<event>
 7    1  0.2895479E-015  0.9000776E+02  0.7816164E-02  0.1186339E+00
        -11   -1    0    0    0    0  0.00000000000E+00  0.00000000000E+00  0.45593999997E+02  0.45594000000E+02  0.51100000000E-03 0. -1.
         11   -1    0    0    0    0 -0.00000000000E+00 -0.00000000000E+00 -0.45593999997E+02  0.45594000000E+02  0.51100000000E-03 0.  1.
    9900012    2    1    2    0    0 -0.88486754934E-01 -0.10289405024E+01 -0.57132712145E+00  0.90007761404E+02  0.90000023055E+02 0.  0.
        -12    1    1    2    0    0  0.88486754934E-01  0.10289405024E+01  0.57132712145E+00  0.11802385958E+01  0.00000000000E+00 0.  1.
         11    1    3    3    0    0  0.18146906982E+02 -0.53521649502E+01  0.26489127580E+02  0.32551955131E+02  0.51100000000E-03 0. -1.
        -11    1    3    3    0    0  0.38038578998E+01 -0.60968241176E+01  0.10472294561E+02  0.12700769775E+02  0.51100000000E-03 0.  1.
        -12    1    3    3    0    0 -0.22039251637E+02  0.10420048565E+02 -0.37532749262E+02  0.44755036498E+02  0.00000000000E+00 0.  1.
</event>
<event>
 7    1  0.2895479E-015  0.9000779E+02  0.7816164E-02  0.1186339E+00
        -11   -1    0    0    0    0  0.00000000000E+00  0.00000000000E+00  0.45593999997E+02  0.45594000000E+02  0.51100000000E-03 0. -1.
         11   -1    0    0    0    0 -0.00000000000E+00 -0.00000000000E+00 -0.45593999997E+02  0.45594000000E+02  0.51100000000E-03 0.  1.
    9900012    2    1    2    0    0  0.71130625630E+00  0.74700728515E+00  0.57351453640E+00  0.90007790104E+02  0.90000052134E+02 0.  0.
        -12    1    1    2    0    0 -0.71130625630E+00 -0.74700728515E+00 -0.57351453640E+00  0.11802098956E+01  0.00000000000E+00 0.  1.
         11    1    3    3    0    0 -0.19757885635E+02  0.11265200618E+02  0.30293895497E+02  0.37881379257E+02  0.51100000000E-03 0. -1.
        -11    1    3    3    0    0 -0.78443039984E+01  0.34042476339E+01  0.32583309263E+00  0.85573462380E+01  0.51100000000E-03 0.  1.
        -12    1    3    3    0    0  0.28313495890E+02 -0.13922440967E+02 -0.30046214054E+02  0.43569064609E+02  0.00000000000E+00 0.  1.
</event>
<event>
 7    1  0.3589489E-015  0.9000774E+02  0.7816164E-02  0.1186339E+00
        -11   -1    0    0    0    0  0.00000000000E+00  0.00000000000E+00  0.45593999997E+02  0.45594000000E+02  0.51100000000E-03 0. -1.
         11   -1    0    0    0    0 -0.00000000000E+00 -0.00000000000E+00 -0.45593999997E+02  0.45594000000E+02  0.51100000000E-03 0.  1.
    9900012    2    1    2    0    0 -0.10328249191E+01  0.51709205745E+00  0.24270053278E+00  0.90007739411E+02  0.90000000771E+02 0.  0.
        -12    1    1    2    0    0  0.10328249191E+01 -0.51709205745E+00 -0.24270053278E+00  0.11802605891E+01  0.00000000000E+00 0.  1.
         11    1    3    3    0    0  0.64239454721E+01  0.71034373144E+01  0.28650088026E+01  0.99967080986E+01  0.51100000000E-03 0. -1.
        -11    1    3    3    0    0  0.35935337847E+02 -0.45334383308E+01 -0.46823574173E+01  0.36521569524E+02  0.51100000000E-03 0.  1.
         12    1    3    3    0    0 -0.43392108238E+02 -0.20529069262E+01  0.20600491475E+01  0.43489461789E+02  0.00000000000E+00 0. -1.
</event>
<event>
 7    1  0.2895479E-015  0.9000767E+02  0.7816164E-02  0.1186339E+00
        -11   -1    0    0    0    0  0.00000000000E+00  0.00000000000E+00  0.45593999997E+02  0.45594000000E+02  0.51100000000E-03 0.  1.
         11   -1    0    0    0    0 -0.00000000000E+00 -0.00000000000E+00 -0.45593999997E+02  0.45594000000E+02  0.51100000000E-03 0. -1.
    9900012    2    1    2    0    0  0.60229149520E+00  0.10130724647E+01 -0.64037158191E-01  0.90007673087E+02  0.89999933572E+02 0.  0.
        -12    1    1    2    0    0 -0.60229149520E+00 -0.10130724647E+01  0.64037158191E-01  0.11803269130E+01  0.00000000000E+00 0.  1.
         11    1    3    3    0    0 -0.74500067237E+01  0.36666664121E+02  0.59651718932E+01  0.37888390490E+02  0.51100000000E-03 0. -1.
        -11    1    3    3    0    0  0.12172707863E+02  0.14599694419E+01 -0.81431249273E+01  0.14717907845E+02  0.51100000000E-03 0.  1.
        -12    1    3    3    0    0 -0.41204096443E+01 -0.37113561098E+02  0.21139158759E+01  0.37401374752E+02  0.00000000000E+00 0.  1.
</event>
<event>
 7    1  0.2895479E-015  0.9000790E+02  0.7816164E-02  0.1186339E+00
        -11   -1    0    0    0    0  0.00000000000E+00  0.00000000000E+00  0.45593999997E+02  0.45594000000E+02  0.51100000000E-03 0. -1.
         11   -1    0    0    0    0 -0.00000000000E+00 -0.00000000000E+00 -0.45593999997E+02  0.45594000000E+02  0.51100000000E-03 0.  1.
    9900012    2    1    2    0    0  0.14520004483E+00  0.53446279120E-01  0.11699091951E+01  0.90007903783E+02  0.90000167312E+02 0.  0.
        -12    1    1    2    0    0 -0.14520004483E+00 -0.53446279120E-01 -0.11699091951E+01  0.11800962175E+01  0.00000000000E+00 0.  1.
         11    1    3    3    0    0 -0.75513103977E+01 -0.11849167241E+02 -0.11243514698E+02  0.17995601576E+02  0.51100000000E-03 0. -1.
        -11    1    3    3    0    0  0.38206124508E+02  0.11673742984E+02  0.29082018580E+01  0.40055484811E+02  0.51100000000E-03 0.  1.
         12    1    3    3    0    0 -0.30509614065E+02  0.22887053655E+00  0.95052220355E+01  0.31956817396E+02  0.00000000000E+00 0. -1.
</event>
<event>
 7    1  0.2895479E-015  0.9000767E+02  0.7816164E-02  0.1186339E+00
        -11   -1    0    0    0    0  0.00000000000E+00  0.00000000000E+00  0.45593999997E+02  0.45594000000E+02  0.51100000000E-03 0.  1.
         11   -1    0    0    0    0 -0.00000000000E+00 -0.00000000000E+00 -0.45593999997E+02  0.45594000000E+02  0.51100000000E-03 0. -1.
    9900012    2    1    2    0    0 -0.15437345691E+00 -0.11014774631E+01 -0.39508803271E+00  0.90007670250E+02  0.89999930697E+02 0.  0.
        -12    1    1    2    0    0  0.15437345691E+00  0.11014774631E+01  0.39508803271E+00  0.11803297504E+01  0.00000000000E+00 0.  1.
         11    1    3    3    0    0 -0.17328080793E+02 -0.34449179391E+02 -0.45016357228E+01  0.38823614838E+02  0.51100000000E-03 0. -1.
        -11    1    3    3    0    0 -0.67391062156E+01 -0.14021000898E+01  0.57505918077E+01  0.89694338532E+01  0.51100000000E-03 0.  1.
        -12    1    3    3    0    0  0.23912813552E+02  0.34749802017E+02 -0.16440441177E+01  0.42214621558E+02  0.00000000000E+00 0.  1.
</event>
<event>
 7    1  0.2895479E-015  0.9000780E+02  0.7816164E-02  0.1186339E+00
        -11   -1    0    0    0    0  0.00000000000E+00  0.00000000000E+00  0.45593999997E+02  0.45594000000E+02  0.51100000000E-03 0.  1.
         11   -1    0    0    0    0 -0.00000000000E+00 -0.00000000000E+00 -0.45593999997E+02  0.45594000000E+02  0.51100000000E-03 0. -1.
    9900012    2    1    2    0    0 -0.23729307365E+00 -0.84864629024E+00  0.78509561225E+00  0.90007795082E+02  0.90000057177E+02 0.  0.
        -12    1    1    2    0    0  0.23729307365E+00  0.84864629024E+00 -0.78509561225E+00  0.11802049183E+01  0.00000000000E+00 0.  1.
         11    1    3    3    0    0  0.41505695384E+01 -0.50495120744E+01 -0.98699101379E+01  0.11838071045E+02  0.51100000000E-03 0. -1.
        -11    1    3    3    0    0 -0.83760073652E+01 -0.26250144861E+02 -0.20560426959E+02  0.34379627130E+02  0.51100000000E-03 0.  1.
         12    1    3    3    0    0  0.39881447531E+01  0.30451010645E+02  0.31215432709E+02  0.43790096907E+02  0.00000000000E+00 0. -1.
</event>
<event>
 7    1  0.2895479E-015  0.9000772E+02  0.7816164E-02  0.1186339E+00
        -11   -1    0    0    0    0  0.00000000000E+00  0.00000000000E+00  0.45593999997E+02  0.45594000000E+02  0.51100000000E-03 0. -1.
         11   -1    0    0    0    0 -0.00000000000E+00 -0.00000000000E+00 -0.45593999997E+02  0.45594000000E+02  0.51100000000E-03 0.  1.
    9900012    2    1    2    0    0  0.70428760399E+00 -0.91697371109E+00  0.23708311816E+00  0.90007716042E+02  0.89999977094E+02 0.  0.
        -12    1    1    2    0    0 -0.70428760399E+00  0.91697371109E+00 -0.23708311816E+00  0.11802839577E+01  0.00000000000E+00 0.  1.
         11    1    3    3    0    0  0.71447238681E+00 -0.92216903677E+01 -0.38601644879E+01  0.10022520350E+02  0.51100000000E-03 0. -1.
        -11    1    3    3    0    0  0.24132175420E+02 -0.71905359307E+01 -0.27514254646E+02  0.37297451742E+02  0.51100000000E-03 0.  1.
         12    1    3    3    0    0 -0.24142360203E+02  0.15495252587E+02  0.31611502252E+02  0.42687743950E+02  0.00000000000E+00 0. -1.
</event>
<event>
 7    1  0.2895479E-015  0.9000775E+02  0.7816164E-02  0.1186339E+00
        -11   -1    0    0    0    0  0.00000000000E+00  0.00000000000E+00  0.45593999997E+02  0.45594000000E+02  0.51100000000E-03 0. -1.
         11   -1    0    0    0    0 -0.00000000000E+00 -0.00000000000E+00 -0.45593999997E+02  0.45594000000E+02  0.51100000000E-03 0.  1.
    9900012    2    1    2    0    0  0.54501467486E+00 -0.19561977065E+00  0.10284369771E+01  0.90007749727E+02  0.90000011224E+02 0.  0.
        -12    1    1    2    0    0 -0.54501467486E+00  0.19561977065E+00 -0.10284369771E+01  0.11802502727E+01  0.00000000000E+00 0.  1.
         11    1    3    3    0    0 -0.37414689705E+01  0.16375951615E+02  0.33280324929E+02  0.37279356338E+02  0.51100000000E-03 0. -1.
        -11    1    3    3    0    0  0.14403486851E+01  0.11555951766E+02 -0.29534260136E+01  0.12014048070E+02  0.51100000000E-03 0.  1.
        -12    1    3    3    0    0  0.28461349603E+01 -0.28127523151E+02 -0.29298461938E+02  0.40714345319E+02  0.00000000000E+00 0.  1.
</event>
<event>
 7    1  0.2895479E-015  0.9000770E+02  0.7816164E-02  0.1186339E+00
        -11   -1    0    0    0    0  0.00000000000E+00  0.00000000000E+00  0.45593999997E+02  0.45594000000E+02  0.51100000000E-03 0. -1.
         11   -1    0    0    0    0 -0.00000000000E+00 -0.00000000000E+00 -0.45593999997E+02  0.45594000000E+02  0.51100000000E-03 0.  1.
    9900012    2    1    2    0    0 -0.59833103475E+00  0.57076359034E+00  0.84222376244E+00  0.90007698357E+02  0.89999959175E+02 0.  0.
        -12    1    1    2    0    0  0.59833103475E+00 -0.57076359034E+00 -0.84222376244E+00  0.11803016433E+01  0.00000000000E+00 0.  1.
         11    1    3    3    0    0 -0.33986043121E+01 -0.29200000678E+02  0.22395963569E+02  0.36956321994E+02  0.51100000000E-03 0. -1.
        -11    1    3    3    0    0  0.80828595074E+01  0.50619212408E+01  0.91984995192E+01  0.13250209739E+02  0.51100000000E-03 0.  1.
        -12    1    3    3    0    0 -0.52825862301E+01  0.24708843027E+02 -0.30752239326E+02  0.39801166624E+02  0.00000000000E+00 0.  1.
</event>
<event>
 7    1  0.2895479E-015  0.9000767E+02  0.7816164E-02  0.1186339E+00
        -11   -1    0    0    0    0  0.00000000000E+00  0.00000000000E+00  0.45593999997E+02  0.45594000000E+02  0.51100000000E-03 0. -1.
         11   -1    0    0    0    0 -0.00000000000E+00 -0.00000000000E+00 -0.45593999997E+02  0.45594000000E+02  0.51100000000E-03 0.  1.
    9900012    2    1    2    0    0 -0.18880580891E+00  0.11585461515E+01 -0.12372631661E+00  0.90007667411E+02  0.89999927821E+02 0.  0.
        -12    1    1    2    0    0  0.18880580891E+00 -0.11585461515E+01  0.12372631661E+00  0.11803325888E+01  0.00000000000E+00 0.  1.
         11    1    3    3    0    0  0.60478342052E+01  0.45076611185E+01  0.36668077283E+01  0.83869414276E+01  0.51100000000E-03 0. -1.
        -11    1    3    3    0    0 -0.54094148327E+01  0.18582049391E+02 -0.37034112943E+02  0.41786120305E+02  0.51100000000E-03 0.  1.
         12    1    3    3    0    0 -0.82722518145E+00 -0.21931164358E+02  0.33243578898E+02  0.39834605679E+02  0.00000000000E+00 0. -1.
</event>
<event>
 7    1  0.2895479E-015  0.9000775E+02  0.7816164E-02  0.1186339E+00
        -11   -1    0    0    0    0  0.00000000000E+00  0.00000000000E+00  0.45593999997E+02  0.45594000000E+02  0.51100000000E-03 0. -1.
         11   -1    0    0    0    0 -0.00000000000E+00 -0.00000000000E+00 -0.45593999997E+02  0.45594000000E+02  0.51100000000E-03 0.  1.
    9900012    2    1    2    0    0  0.41896189993E+00  0.31740426363E+00  0.10567421473E+01  0.90007754896E+02  0.90000016460E+02 0.  0.
        -12    1    1    2    0    0 -0.41896189993E+00 -0.31740426363E+00 -0.10567421473E+01  0.11802451042E+01  0.00000000000E+00 0.  1.
         11    1    3    3    0    0  0.67243011750E+00  0.21235703854E+01  0.85561489205E+01  0.88413459414E+01  0.51100000000E-03 0. -1.
        -11    1    3    3    0    0 -0.37214828844E+02 -0.91393960657E+01  0.10023043320E+02  0.39609764503E+02  0.51100000000E-03 0.  1.
         12    1    3    3    0    0  0.36961360626E+02  0.73332299439E+01 -0.17522450093E+02  0.41556644451E+02  0.00000000000E+00 0. -1.
</event>
<event>
 7    1  0.2895479E-015  0.9000776E+02  0.7816164E-02  0.1186339E+00
        -11   -1    0    0    0    0  0.00000000000E+00  0.00000000000E+00  0.45593999997E+02  0.45594000000E+02  0.51100000000E-03 0.  1.
         11   -1    0    0    0    0 -0.00000000000E+00 -0.00000000000E+00 -0.45593999997E+02  0.45594000000E+02  0.51100000000E-03 0. -1.
    9900012    2    1    2    0    0  0.62588520304E+00  0.51311271782E+00 -0.85903361170E+00  0.90007764560E+02  0.90000026252E+02 0.  0.
        -12    1    1    2    0    0 -0.62588520304E+00 -0.51311271782E+00  0.85903361170E+00  0.11802354403E+01  0.00000000000E+00 0.  1.
         11    1    3    3    0    0  0.27533193810E+02 -0.27681736311E+02 -0.29643949965E+01  0.39155369039E+02  0.51100000000E-03 0. -1.
        -11    1    3    3    0    0  0.69290735717E+01  0.21051280123E+01 -0.29661851413E+01  0.78257190765E+01  0.51100000000E-03 0.  1.
        -12    1    3    3    0    0 -0.33836382179E+02  0.26089721017E+02  0.50715465262E+01  0.43026676445E+02  0.00000000000E+00 0.  1.
</event>
<event>
 7    1  0.2895479E-015  0.9000782E+02  0.7816164E-02  0.1186339E+00
        -11   -1    0    0    0    0  0.00000000000E+00  0.00000000000E+00  0.45593999997E+02  0.45594000000E+02  0.51100000000E-03 0. -1.
         11   -1    0    0    0    0 -0.00000000000E+00 -0.00000000000E+00 -0.45593999997E+02  0.45594000000E+02  0.51100000000E-03 0.  1.
    9900012    2    1    2    0    0 -0.82046796767E+00 -0.20115565612E+00  0.82413913901E+00  0.90007815013E+02  0.90000077371E+02 0.  0.
        -12    1    1    2    0    0  0.82046796767E+00  0.20115565612E+00 -0.82413913901E+00  0.11801849874E+01  0.00000000000E+00 0.  1.
         11    1    3    3    0    0  0.36571516501E+01  0.54489568977E+01  0.37391790433E+02  0.37963296505E+02  0.51100000000E-03 0. -1.
        -11    1    3    3    0    0  0.94286146872E+01  0.24389757036E+01  0.22757908638E+01  0.10001329998E+02  0.51100000000E-03 0.  1.
        -12    1    3    3    0    0 -0.13906234305E+02 -0.80890882574E+01 -0.38843442158E+02  0.42043188510E+02  0.00000000000E+00 0.  1.
</event>
<event>
 7    1  0.2895479E-015  0.9000768E+02  0.7816164E-02  0.1186339E+00
        -11   -1    0    0    0    0  0.00000000000E+00  0.00000000000E+00  0.45593999997E+02  0.45594000000E+02  0.51100000000E-03 0.  1.
         11   -1    0    0    0    0 -0.00000000000E+00 -0.00000000000E+00 -0.45593999997E+02  0.45594000000E+02  0.51100000000E-03 0. -1.
    9900012    2    1    2    0    0  0.46824672637E+00 -0.14420707640E+00 -0.10738240825E+01  0.90007682738E+02  0.89999943351E+02 0.  0.
        -12    1    1    2    0    0 -0.46824672637E+00  0.14420707640E+00  0.10738240825E+01  0.11803172615E+01  0.00000000000E+00 0.  1.
         11    1    3    3    0    0  0.18340606800E+01  0.31320476921E+01  0.86656673487E+01  0.93950674390E+01  0.51100000000E-03 0. -1.
        -11    1    3    3    0    0  0.27286867857E+02  0.26658804506E+02 -0.47024609025E+00  0.38150834156E+02  0.51100000000E-03 0.  1.
         12    1    3    3    0    0 -0.28652681810E+02 -0.29935059275E+02 -0.92692453410E+01  0.42461781144E+02  0.00000000000E+00 0. -1.
</event>
<event>
 7    1  0.2895479E-015  0.9000776E+02  0.7816164E-02  0.1186339E+00
        -11   -1    0    0    0    0  0.00000000000E+00  0.00000000000E+00  0.45593999997E+02  0.45594000000E+02  0.51100000000E-03 0.  1.
         11   -1    0    0    0    0 -0.00000000000E+00 -0.00000000000E+00 -0.45593999997E+02  0.45594000000E+02  0.51100000000E-03 0. -1.
    9900012    2    1    2    0    0 -0.87629573674E+00  0.51062147736E+00  0.60360585931E+00  0.90007759116E+02  0.90000020736E+02 0.  0.
        -12    1    1    2    0    0  0.87629573674E+00 -0.51062147736E+00 -0.60360585931E+00  0.11802408842E+01  0.00000000000E+00 0.  1.
         11    1    3    3    0    0  0.77563095972E+01 -0.13313439214E+02 -0.22772369473E+02  0.27495250753E+02  0.51100000000E-03 0. -1.
        -11    1    3    3    0    0 -0.29344949152E+02  0.89726851025E+00  0.97036219467E+00  0.29374695481E+02  0.51100000000E-03 0.  1.
        -12    1    3    3    0    0  0.20712343818E+02  0.12926792181E+02  0.22405613138E+02  0.33137812882E+02  0.00000000000E+00 0.  1.
</event>
<event>
 7    1  0.2895479E-015  0.9000805E+02  0.7816164E-02  0.1186338E+00
        -11   -1    0    0    0    0  0.00000000000E+00  0.00000000000E+00  0.45593999997E+02  0.45594000000E+02  0.51100000000E-03 0.  1.
         11   -1    0    0    0    0 -0.00000000000E+00 -0.00000000000E+00 -0.45593999997E+02  0.45594000000E+02  0.51100000000E-03 0. -1.
    9900012    2    1    2    0    0 -0.10690589933E+01  0.49230783003E+00 -0.83870770557E-01  0.90008047273E+02  0.90000312697E+02 0.  0.
        -12    1    1    2    0    0  0.10690589933E+01 -0.49230783003E+00  0.83870770557E-01  0.11799527265E+01  0.00000000000E+00 0.  1.
         11    1    3    3    0    0 -0.30310401469E+01  0.20335613694E+01 -0.22276261946E+01  0.42760840660E+01  0.51100000000E-03 0. -1.
        -11    1    3    3    0    0 -0.15772646094E+02  0.38346130999E+02  0.60625992404E+01  0.41904143437E+02  0.51100000000E-03 0.  1.
         12    1    3    3    0    0  0.17734627247E+02 -0.39887384539E+02 -0.39188438163E+01  0.43827819770E+02  0.00000000000E+00 0. -1.
</event>
<event>
 7    1  0.2895479E-015  0.9000761E+02  0.7816164E-02  0.1186339E+00
        -11   -1    0    0    0    0  0.00000000000E+00  0.00000000000E+00  0.45593999997E+02  0.45594000000E+02  0.51100000000E-03 0.  1.
         11   -1    0    0    0    0 -0.00000000000E+00 -0.00000000000E+00 -0.45593999997E+02  0.45594000000E+02  0.51100000000E-03 0. -1.
    9900012    2    1    2    0    0 -0.89526616468E+00 -0.73924868488E+00  0.21291688192E+00  0.90007608657E+02  0.89999868291E+02 0.  0.
        -12    1    1    2    0    0  0.89526616468E+00  0.73924868488E+00 -0.21291688192E+00  0.11803913429E+01  0.00000000000E+00 0.  1.
         11    1    3    3    0    0 -0.32312628251E+02 -0.20283022292E+02 -0.13317716173E+02  0.40408767639E+02  0.51100000000E-03 0. -1.
        -11    1    3    3    0    0  0.13069836668E+01  0.14058241648E+01 -0.81006512655E+01  0.83249684128E+01  0.51100000000E-03 0.  1.
        -12    1    3    3    0    0  0.30110378419E+02  0.18137949442E+02  0.21631284320E+02  0.41273872606E+02  0.00000000000E+00 0.  1.
</event>
<event>
 7    1  0.2895479E-015  0.9000751E+02  0.7816164E-02  0.1186339E+00
        -11   -1    0    0    0    0  0.00000000000E+00  0.00000000000E+00  0.45593999997E+02  0.45594000000E+02  0.51100000000E-03 0. -1.
         11   -1    0    0    0    0 -0.00000000000E+00 -0.00000000000E+00 -0.45593999997E+02  0.45594000000E+02  0.51100000000E-03 0.  1.
    9900012    2    1    2    0    0  0.65364907897E+00  0.44315677342E+00  0.87743938674E+00  0.90007514963E+02  0.89999773361E+02 0.  0.
        -12    1    1    2    0    0 -0.65364907897E+00 -0.44315677342E+00 -0.87743938674E+00  0.11804850366E+01  0.00000000000E+00 0.  1.
         11    1    3    3    0    0 -0.44011225006E+01 -0.53547285942E+01  0.17083746389E+02  0.18436306261E+02  0.51100000000E-03 0. -1.
        -11    1    3    3    0    0 -0.23551230057E+02  0.20167601372E+02 -0.23296594701E+02  0.38783036333E+02  0.51100000000E-03 0.  1.
         12    1    3    3    0    0  0.28606001637E+02 -0.14369716004E+02  0.70902876981E+01  0.32788172370E+02  0.00000000000E+00 0. -1.
</event>
<event>
 7    1  0.2895479E-015  0.9000772E+02  0.7816164E-02  0.1186339E+00
        -11   -1    0    0    0    0  0.00000000000E+00  0.00000000000E+00  0.45593999997E+02  0.45594000000E+02  0.51100000000E-03 0.  1.
         11   -1    0    0    0    0 -0.00000000000E+00 -0.00000000000E+00 -0.45593999997E+02  0.45594000000E+02  0.51100000000E-03 0. -1.
    9900012    2    1    2    0    0 -0.42617491397E+00  0.63332872500E+00 -0.90018701402E+00  0.90007717410E+02  0.89999978480E+02 0.  0.
        -12    1    1    2    0    0  0.42617491397E+00 -0.63332872500E+00  0.90018701402E+00  0.11802825896E+01  0.00000000000E+00 0.  1.
         11    1    3    3    0    0  0.32860848134E+00  0.66079103373E+01  0.76946310335E+01  0.10147896805E+02  0.51100000000E-03 0. -1.
        -11    1    3    3    0    0 -0.42050136919E+01 -0.23196140631E+01  0.35326710193E+02  0.35651636749E+02  0.51100000000E-03 0.  1.
         12    1    3    3    0    0  0.34502302966E+01 -0.36549675492E+01 -0.43921528241E+02  0.44208183856E+02  0.00000000000E+00 0. -1.
</event>
<event>
 7    1  0.2895479E-015  0.9000772E+02  0.7816164E-02  0.1186339E+00
        -11   -1    0    0    0    0  0.00000000000E+00  0.00000000000E+00  0.45593999997E+02  0.45594000000E+02  0.51100000000E-03 0. -1.
         11   -1    0    0    0    0 -0.00000000000E+00 -0.00000000000E+00 -0.45593999997E+02  0.45594000000E+02  0.51100000000E-03 0.  1.
    9900012    2    1    2    0    0 -0.29529321636E+00  0.81048380802E+00  0.80558826239E+00  0.90007722687E+02  0.89999983827E+02 0.  0.
        -12    1    1    2    0    0  0.29529321636E+00 -0.81048380802E+00 -0.80558826239E+00  0.11802773128E+01  0.00000000000E+00 0.  1.
         11    1    3    3    0    0  0.75437105152E+01 -0.41155082592E+01 -0.39542549274E+01  0.94594454838E+01  0.51100000000E-03 0. -1.
        -11    1    3    3    0    0 -0.16583749030E+02 -0.33418841339E+02 -0.98619818262E+01  0.38588837430E+02  0.51100000000E-03 0.  1.
         12    1    3    3    0    0  0.87447452989E+01  0.38344833407E+02  0.14621825016E+02  0.41959439774E+02  0.00000000000E+00 0. -1.
</event>
<event>
 7    1  0.2895479E-015  0.9000779E+02  0.7816164E-02  0.1186339E+00
        -11   -1    0    0    0    0  0.00000000000E+00  0.00000000000E+00  0.45593999997E+02  0.45594000000E+02  0.51100000000E-03 0. -1.
         11   -1    0    0    0    0 -0.00000000000E+00 -0.00000000000E+00 -0.45593999997E+02  0.45594000000E+02  0.51100000000E-03 0.  1.
    9900012    2    1    2    0    0  0.56313785031E-01 -0.15519607239E+00  0.11686087116E+01  0.90007786721E+02  0.90000048706E+02 0.  0.
        -12    1    1    2    0    0 -0.56313785031E-01  0.15519607239E+00 -0.11686087116E+01  0.11802132791E+01  0.00000000000E+00 0.  1.
         11    1    3    3    0    0  0.11292685748E+02  0.30340060725E+02  0.23399952317E+02  0.39944984728E+02  0.51100000000E-03 0. -1.
        -11    1    3    3    0    0  0.59091632281E+01 -0.27918361972E+01  0.44876168699E+01  0.79278789623E+01  0.51100000000E-03 0.  1.
        -12    1    3    3    0    0 -0.17145535191E+02 -0.27703420600E+02 -0.26718960476E+02  0.42134923031E+02  0.00000000000E+00 0.  1.
</event>
<event>
 7    1  0.2895479E-015  0.9000780E+02  0.7816164E-02  0.1186339E+00
        -11   -1    0    0    0    0  0.00000000000E+00  0.00000000000E+00  0.45593999997E+02  0.45594000000E+02  0.51100000000E-03 0. -1.
         11   -1    0    0    0    0 -0.00000000000E+00 -0.00000000000E+00 -0.45593999997E+02  0.45594000000E+02  0.51100000000E-03 0.  1.
    9900012    2    1    2    0    0  0.88211149637E+00 -0.14418735328E+00  0.77068308361E+00  0.90007803787E+02  0.90000065997E+02 0.  0.
        -12    1    1    2    0    0 -0.88211149637E+00  0.14418735328E+00 -0.77068308361E+00  0.11801962126E+01  0.00000000000E+00 0.  1.
         11    1    3    3    0    0 -0.30910621332E+01  0.60124495605E+01  0.32656028594E+01  0.75078876607E+01  0.51100000000E-03 0. -1.
        -11    1    3    3    0    0 -0.11029305756E+02  0.35475510494E+02 -0.77062672483E+01  0.37941322927E+02  0.51100000000E-03 0.  1.
         12    1    3    3    0    0  0.15002479386E+02 -0.41632147408E+02  0.52113474725E+01  0.44558593200E+02  0.00000000000E+00 0. -1.
</event>
<event>
 7    1  0.3567927E-015  0.9000905E+02  0.7816164E-02  0.1186336E+00
        -11   -1    0    0    0    0  0.00000000000E+00  0.00000000000E+00  0.45593999997E+02  0.45594000000E+02  0.51100000000E-03 0.  1.
         11   -1    0    0    0    0 -0.00000000000E+00 -0.00000000000E+00 -0.45593999997E+02  0.45594000000E+02  0.51100000000E-03 0. -1.
    9900012    2    1    2    0    0 -0.57764943281E+00 -0.55037009540E+00 -0.86794359262E+00  0.90009054628E+02  0.90001333340E+02 0.  0.
        -12    1    1    2    0    0  0.57764943281E+00  0.55037009540E+00  0.86794359262E+00  0.11789453716E+01  0.00000000000E+00 0.  1.
         11    1    3    3    0    0  0.43640777608E+01  0.71371460256E+01  0.33254811029E+01  0.90023804030E+01  0.51100000000E-03 0. -1.
        -11    1    3    3    0    0  0.10134811993E+02  0.17342218182E+02  0.29953208695E+02  0.36064687119E+02  0.51100000000E-03 0.  1.
         12    1    3    3    0    0 -0.15076539187E+02 -0.25029734303E+02 -0.34146633391E+02  0.44941987106E+02  0.00000000000E+00 0. -1.
</event>
<event>
 7    1  0.2895479E-015  0.9000786E+02  0.7816164E-02  0.1186339E+00
        -11   -1    0    0    0    0  0.00000000000E+00  0.00000000000E+00  0.45593999997E+02  0.45594000000E+02  0.51100000000E-03 0.  1.
         11   -1    0    0    0    0 -0.00000000000E+00 -0.00000000000E+00 -0.45593999997E+02  0.45594000000E+02  0.51100000000E-03 0. -1.
    9900012    2    1    2    0    0  0.52870305839E+00  0.98357211752E+00  0.38180911742E+00  0.90007864738E+02  0.90000127753E+02 0.  0.
        -12    1    1    2    0    0 -0.52870305839E+00 -0.98357211752E+00 -0.38180911742E+00  0.11801352619E+01  0.00000000000E+00 0.  1.
         11    1    3    3    0    0 -0.17807148810E+02 -0.33040483011E+02  0.38673561510E+01  0.37732274119E+02  0.51100000000E-03 0. -1.
        -11    1    3    3    0    0 -0.10436469656E+02  0.73078144233E+01 -0.25949642059E+01  0.13002226349E+02  0.51100000000E-03 0.  1.
        -12    1    3    3    0    0  0.28772321525E+02  0.26716240705E+02 -0.89058282770E+00  0.39273364270E+02  0.00000000000E+00 0.  1.
</event>
<event>
 7    1  0.2895479E-015  0.9000815E+02  0.7816164E-02  0.1186338E+00
        -11   -1    0    0    0    0  0.00000000000E+00  0.00000000000E+00  0.45593999997E+02  0.45594000000E+02  0.51100000000E-03 0.  1.
         11   -1    0    0    0    0 -0.00000000000E+00 -0.00000000000E+00 -0.45593999997E+02  0.45594000000E+02  0.51100000000E-03 0. -1.
    9900012    2    1    2    0    0  0.47971028207E+00 -0.10385295381E+01 -0.28873774343E+00  0.90008154654E+02  0.90000421494E+02 0.  0.
        -12    1    1    2    0    0 -0.47971028207E+00  0.10385295381E+01  0.28873774343E+00  0.11798453461E+01  0.00000000000E+00 0.  1.
         11    1    3    3    0    0 -0.57381888444E+01 -0.34334225411E+02 -0.13842066106E+02  0.37461562169E+02  0.51100000000E-03 0. -1.
        -11    1    3    3    0    0  0.45277980806E+01 -0.80609607102E+01  0.39618437106E+01  0.10058640508E+02  0.51100000000E-03 0.  1.
        -12    1    3    3    0    0  0.16901010459E+01  0.41356656584E+02  0.95914846518E+01  0.42487951976E+02  0.00000000000E+00 0.  1.
</event>
<event>
 7    1  0.2895479E-015  0.9000769E+02  0.7816164E-02  0.1186339E+00
        -11   -1    0    0    0    0  0.00000000000E+00  0.00000000000E+00  0.45593999997E+02  0.45594000000E+02  0.51100000000E-03 0.  1.
         11   -1    0    0    0    0 -0.00000000000E+00 -0.00000000000E+00 -0.45593999997E+02  0.45594000000E+02  0.51100000000E-03 0. -1.
    9900012    2    1    2    0    0 -0.91005008983E+00  0.45580732940E+00 -0.59763929721E+00  0.90007693168E+02  0.89999953918E+02 0.  0.
        -12    1    1    2    0    0  0.91005008983E+00 -0.45580732940E+00  0.59763929721E+00  0.11803068318E+01  0.00000000000E+00 0.  1.
         11    1    3    3    0    0  0.11204310433E+02 -0.19500729854E+02 -0.31622319167E+02  0.38804459884E+02  0.51100000000E-03 0. -1.
        -11    1    3    3    0    0  0.97584097799E+01  0.12070208385E+01  0.14904318420E+01  0.99450916574E+01  0.51100000000E-03 0.  1.
        -12    1    3    3    0    0 -0.21872770303E+02  0.18749516345E+02  0.29534248028E+02  0.41258141627E+02  0.00000000000E+00 0.  1.
</event>
<event>
 7    1  0.2895479E-015  0.9000773E+02  0.7816164E-02  0.1186339E+00
        -11   -1    0    0    0    0  0.00000000000E+00  0.00000000000E+00  0.45593999997E+02  0.45594000000E+02  0.51100000000E-03 0.  1.
         11   -1    0    0    0    0 -0.00000000000E+00 -0.00000000000E+00 -0.45593999997E+02  0.45594000000E+02  0.51100000000E-03 0. -1.
    9900012    2    1    2    0    0  0.11676504651E+01  0.87564337762E-01  0.14821309175E+00  0.90007727895E+02  0.89999989103E+02 0.  0.
        -12    1    1    2    0    0 -0.11676504651E+01 -0.87564337762E-01 -0.14821309175E+00  0.11802721052E+01  0.00000000000E+00 0.  1.
         11    1    3    3    0    0  0.78663107120E+01 -0.75540008147E+01 -0.38513864005E+02  0.40028233703E+02  0.51100000000E-03 0. -1.
        -11    1    3    3    0    0  0.88707029631E+01 -0.15978116747E+01  0.22120867030E+01  0.92809321218E+01  0.51100000000E-03 0.  1.
        -12    1    3    3    0    0 -0.15569363210E+02  0.92393768272E+01  0.36449990393E+02  0.40698562070E+02  0.00000000000E+00 0.  1.
</event>
<event>
 7    1  0.2895479E-015  0.9000776E+02  0.7816164E-02  0.1186339E+00
        -11   -1    0    0    0    0  0.00000000000E+00  0.00000000000E+00  0.45593999997E+02  0.45594000000E+02  0.51100000000E-03 0. -1.
         11   -1    0    0    0    0 -0.00000000000E+00 -0.00000000000E+00 -0.45593999997E+02  0.45594000000E+02  0.51100000000E-03 0.  1.
    9900012    2    1    2    0    0 -0.11579291488E+01  0.26428086028E-02  0.22839413356E+00  0.90007758170E+02  0.90000019777E+02 0.  0.
        -12    1    1    2    0    0  0.11579291488E+01 -0.26428086028E-02 -0.22839413356E+00  0.11802418305E+01  0.00000000000E+00 0.  1.
         11    1    3    3    0    0 -0.28845149748E+01 -0.16344987378E+01  0.10909522659E+02  0.11402179514E+02  0.51100000000E-03 0. -1.
        -11    1    3    3    0    0 -0.23101526133E+02 -0.16911997234E+02 -0.30489023278E+02  0.41824355355E+02  0.51100000000E-03 0.  1.
         12    1    3    3    0    0  0.24828111959E+02  0.18549138780E+02  0.19807894753E+02  0.36781223301E+02  0.00000000000E+00 0. -1.
</event>
<event>
 7    1  0.2895479E-015  0.9000775E+02  0.7816164E-02  0.1186339E+00
        -11   -1    0    0    0    0  0.00000000000E+00  0.00000000000E+00  0.45593999997E+02  0.45594000000E+02  0.51100000000E-03 0.  1.
         11   -1    0    0    0    0 -0.00000000000E+00 -0.00000000000E+00 -0.45593999997E+02  0.45594000000E+02  0.51100000000E-03 0. -1.
    9900012    2    1    2    0    0  0.28813493477E+00  0.60935036438E+00 -0.96884044183E+00  0.90007753666E+02  0.90000015214E+02 0.  0.
        -12    1    1    2    0    0 -0.28813493477E+00 -0.60935036438E+00  0.96884044183E+00  0.11802463340E+01  0.00000000000E+00 0.  1.
         11    1    3    3    0    0  0.88815508096E+01  0.52803628395E+00  0.30114068584E+01  0.93930473558E+01  0.51100000000E-03 0. -1.
        -11    1    3    3    0    0  0.29604529411E+02  0.73590591895E+01  0.18521893682E+02  0.35688155733E+02  0.51100000000E-03 0.  1.
         12    1    3    3    0    0 -0.38197945286E+02 -0.72777451091E+01 -0.22502140983E+02  0.44926550577E+02  0.00000000000E+00 0. -1.
</event>
<event>
 7    1  0.2895479E-015  0.9000768E+02  0.7816164E-02  0.1186339E+00
        -11   -1    0    0    0    0  0.00000000000E+00  0.00000000000E+00  0.45593999997E+02  0.45594000000E+02  0.51100000000E-03 0. -1.
         11   -1    0    0    0    0 -0.00000000000E+00 -0.00000000000E+00 -0.45593999997E+02  0.45594000000E+02  0.51100000000E-03 0.  1.
    9900012    2    1    2    0    0  0.80659413236E+00  0.29293242441E-01  0.86122177005E+00  0.90007680075E+02  0.89999940652E+02 0.  0.
        -12    1    1    2    0    0 -0.80659413236E+00 -0.29293242441E-01 -0.86122177005E+00  0.11803199251E+01  0.00000000000E+00 0.  1.
         11    1    3    3    0    0 -0.39169864117E+01  0.33699572134E+01  0.87693757034E-01  0.51678897652E+01  0.51100000000E-03 0. -1.
        -11    1    3    3    0    0 -0.19677288634E+02 -0.16683279468E+02 -0.32487172137E+02  0.41484260335E+02  0.51100000000E-03 0.  1.
         12    1    3    3    0    0  0.24400869178E+02  0.13342615497E+02  0.33260700150E+02  0.43355529975E+02  0.00000000000E+00 0. -1.
</event>
<event>
 7    1  0.3429977E-015  0.9000886E+02  0.7816164E-02  0.1186337E+00
        -11   -1    0    0    0    0  0.00000000000E+00  0.00000000000E+00  0.45593999997E+02  0.45594000000E+02  0.51100000000E-03 0.  1.
         11   -1    0    0    0    0 -0.00000000000E+00 -0.00000000000E+00 -0.45593999997E+02  0.45594000000E+02  0.51100000000E-03 0. -1.
    9900012    2    1    2    0    0  0.39733125471E+00  0.10856500390E+01 -0.23209707918E+00  0.90008857436E+02  0.90001133547E+02 0.  0.
        -12    1    1    2    0    0 -0.39733125471E+00 -0.10856500390E+01  0.23209707918E+00  0.11791425645E+01  0.00000000000E+00 0.  1.
         11    1    3    3    0    0  0.16737568904E+01 -0.34702833955E+01  0.82842395762E+01  0.91363534625E+01  0.51100000000E-03 0. -1.
        -11    1    3    3    0    0  0.10991845904E+02 -0.30851010949E+02  0.15635393146E+02  0.36291473820E+02  0.51100000000E-03 0.  1.
         12    1    3    3    0    0 -0.12268271540E+02  0.35406944383E+02 -0.24151729801E+02  0.44581030153E+02  0.00000000000E+00 0. -1.
</event>
<event>
 7    1  0.2895479E-015  0.9000750E+02  0.7816164E-02  0.1186340E+00
        -11   -1    0    0    0    0  0.00000000000E+00  0.00000000000E+00  0.45593999997E+02  0.45594000000E+02  0.51100000000E-03 0. -1.
         11   -1    0    0    0    0 -0.00000000000E+00 -0.00000000000E+00 -0.45593999997E+02  0.45594000000E+02  0.51100000000E-03 0.  1.
    9900012    2    1    2    0    0 -0.97648950177E+00 -0.41240085017E+00  0.51958435025E+00  0.90007502603E+02  0.89999760837E+02 0.  0.
        -12    1    1    2    0    0  0.97648950177E+00  0.41240085017E+00 -0.51958435025E+00  0.11804973974E+01  0.00000000000E+00 0.  1.
         11    1    3    3    0    0 -0.18822575088E+02  0.32668407877E+01  0.83817016711E+01  0.20861795340E+02  0.51100000000E-03 0. -1.
        -11    1    3    3    0    0 -0.12364403835E+02  0.24450077938E+02 -0.23213704769E+01  0.27496791713E+02  0.51100000000E-03 0.  1.
        -12    1    3    3    0    0  0.30210489421E+02 -0.28129319575E+02 -0.55407468440E+01  0.41648915549E+02  0.00000000000E+00 0.  1.
</event>
<event>
 7    1  0.2895479E-015  0.9000782E+02  0.7816164E-02  0.1186339E+00
        -11   -1    0    0    0    0  0.00000000000E+00  0.00000000000E+00  0.45593999997E+02  0.45594000000E+02  0.51100000000E-03 0. -1.
         11   -1    0    0    0    0 -0.00000000000E+00 -0.00000000000E+00 -0.45593999997E+02  0.45594000000E+02  0.51100000000E-03 0.  1.
    9900012    2    1    2    0    0 -0.45087437938E+00  0.10221122501E+01  0.38056563071E+00  0.90007817236E+02  0.90000079623E+02 0.  0.
        -12    1    1    2    0    0  0.45087437938E+00 -0.10221122501E+01 -0.38056563071E+00  0.11801827642E+01  0.00000000000E+00 0.  1.
         11    1    3    3    0    0 -0.67726999283E+01  0.16209844239E+01 -0.68954639054E+01  0.98002284439E+01  0.51100000000E-03 0. -1.
        -11    1    3    3    0    0 -0.12160651160E+02  0.32372355610E+02  0.20454890831E+02  0.40177772506E+02  0.51100000000E-03 0.  1.
         12    1    3    3    0    0  0.18482476709E+02 -0.32971227784E+02 -0.13178861294E+02  0.40029816286E+02  0.00000000000E+00 0. -1.
</event>
<event>
 7    1  0.2895479E-015  0.9000787E+02  0.7816164E-02  0.1186339E+00
        -11   -1    0    0    0    0  0.00000000000E+00  0.00000000000E+00  0.45593999997E+02  0.45594000000E+02  0.51100000000E-03 0.  1.
         11   -1    0    0    0    0 -0.00000000000E+00 -0.00000000000E+00 -0.45593999997E+02  0.45594000000E+02  0.51100000000E-03 0. -1.
    9900012    2    1    2    0    0  0.53103598156E+00  0.42085868813E+00 -0.96622574575E+00  0.90007867194E+02  0.90000130240E+02 0.  0.
        -12    1    1    2    0    0 -0.53103598156E+00 -0.42085868813E+00  0.96622574575E+00  0.11801328064E+01  0.00000000000E+00 0.  1.
         11    1    3    3    0    0  0.33147785872E+02 -0.15470233094E+02 -0.54688217476E+01  0.36986643964E+02  0.51100000000E-03 0. -1.
        -11    1    3    3    0    0 -0.18407983818E+02 -0.10342614688E+02 -0.50214756715E+01  0.21703427495E+02  0.51100000000E-03 0.  1.
        -12    1    3    3    0    0 -0.14208766072E+02  0.26233706470E+02  0.95240716733E+01  0.31317795735E+02  0.00000000000E+00 0.  1.
</event>
<event>
 7    1  0.2895479E-015  0.9000777E+02  0.7816164E-02  0.1186339E+00
        -11   -1    0    0    0    0  0.00000000000E+00  0.00000000000E+00  0.45593999997E+02  0.45594000000E+02  0.51100000000E-03 0.  1.
         11   -1    0    0    0    0 -0.00000000000E+00 -0.00000000000E+00 -0.45593999997E+02  0.45594000000E+02  0.51100000000E-03 0. -1.
    9900012    2    1    2    0    0  0.37907268445E+00 -0.11063657741E+01 -0.15874588483E+00  0.90007770538E+02  0.90000032309E+02 0.  0.
        -12    1    1    2    0    0 -0.37907268445E+00  0.11063657741E+01  0.15874588483E+00  0.11802294617E+01  0.00000000000E+00 0.  1.
         11    1    3    3    0    0 -0.33447419889E+02  0.10265938454E+02 -0.13903691511E+02  0.37648798486E+02  0.51100000000E-03 0. -1.
        -11    1    3    3    0    0  0.33159785770E+01  0.52114723649E+01 -0.89497946772E+01  0.10874464730E+02  0.51100000000E-03 0.  1.
        -12    1    3    3    0    0  0.30510513996E+02 -0.16583776593E+02  0.22694740303E+02  0.41484507323E+02  0.00000000000E+00 0.  1.
</event>
<event>
 7    1  0.2895479E-015  0.9000763E+02  0.7816164E-02  0.1186339E+00
        -11   -1    0    0    0    0  0.00000000000E+00  0.00000000000E+00  0.45593999997E+02  0.45594000000E+02  0.51100000000E-03 0.  1.
         11   -1    0    0    0    0 -0.00000000000E+00 -0.00000000000E+00 -0.45593999997E+02  0.45594000000E+02  0.51100000000E-03 0. -1.
    9900012    2    1    2    0    0 -0.15568512593E-01 -0.91055235838E+00 -0.75095431447E+00  0.90007627026E+02  0.89999886902E+02 0.  0.
        -12    1    1    2    0    0  0.15568512593E-01  0.91055235838E+00  0.75095431447E+00  0.11803729743E+01  0.00000000000E+00 0.  1.
         11    1    3    3    0    0  0.31815397678E+02  0.20950044549E+02 -0.15538454346E+02  0.41140824733E+02  0.51100000000E-03 0. -1.
        -11    1    3    3    0    0  0.17972842744E+01 -0.78990863706E+01 -0.26122010395E+01  0.85117207887E+01  0.51100000000E-03 0.  1.
        -12    1    3    3    0    0 -0.33628250465E+02 -0.13961510537E+02  0.17399701071E+02  0.40355081504E+02  0.00000000000E+00 0.  1.
</event>
<event>
 7    1  0.4279328E-015  0.9000773E+02  0.7816164E-02  0.1186339E+00
        -11   -1    0    0    0    0  0.00000000000E+00  0.00000000000E+00  0.45593999997E+02  0.45594000000E+02  0.51100000000E-03 0. -1.
         11   -1    0    0    0    0 -0.00000000000E+00 -0.00000000000E+00 -0.45593999997E+02  0.45594000000E+02  0.51100000000E-03 0.  1.
    9900012    2    1    2    0    0  0.23330316508E+00  0.56457133915E+00  0.10098861255E+01  0.90007728357E+02  0.89999989572E+02 0.  0.
        -12    1    1    2    0    0 -0.23330316508E+00 -0.56457133915E+00 -0.10098861255E+01  0.11802716426E+01  0.00000000000E+00 0.  1.
         11    1    3    3    0    0  0.42273368614E+00  0.81977108121E+00 -0.10075019454E+02  0.10117151064E+02  0.51100000000E-03 0. -1.
        -11    1    3    3    0    0 -0.19659533184E+02  0.22483433095E+02 -0.20614792991E+02  0.36290104699E+02  0.51100000000E-03 0.  1.
         12    1    3    3    0    0  0.19470102663E+02 -0.22738632837E+02  0.31699698570E+02  0.43600472594E+02  0.00000000000E+00 0. -1.
</event>
<event>
 7    1  0.2895479E-015  0.9000784E+02  0.7816164E-02  0.1186339E+00
        -11   -1    0    0    0    0  0.00000000000E+00  0.00000000000E+00  0.45593999997E+02  0.45594000000E+02  0.51100000000E-03 0.  1.
         11   -1    0    0    0    0 -0.00000000000E+00 -0.00000000000E+00 -0.45593999997E+02  0.45594000000E+02  0.51100000000E-03 0. -1.
    9900012    2    1    2    0    0 -0.66566963962E+00  0.25927982682E+00 -0.93938077586E+00  0.90007839697E+02  0.90000102381E+02 0.  0.
        -12    1    1    2    0    0  0.66566963962E+00 -0.25927982682E+00  0.93938077586E+00  0.11801603026E+01  0.00000000000E+00 0.  1.
         11    1    3    3    0    0  0.46668084344E+01  0.90589412788E+01  0.60648873548E+00  0.10208395903E+02  0.51100000000E-03 0. -1.
        -11    1    3    3    0    0 -0.27011862270E+01  0.73613856257E+01  0.37051735798E+02  0.37872384811E+02  0.51100000000E-03 0.  1.
         12    1    3    3    0    0 -0.26312918471E+01 -0.16161047078E+02 -0.38597605309E+02  0.41927058984E+02  0.00000000000E+00 0. -1.
</event>
<event>
 7    1  0.2895479E-015  0.9000772E+02  0.7816164E-02  0.1186339E+00
        -11   -1    0    0    0    0  0.00000000000E+00  0.00000000000E+00  0.45593999997E+02  0.45594000000E+02  0.51100000000E-03 0.  1.
         11   -1    0    0    0    0 -0.00000000000E+00 -0.00000000000E+00 -0.45593999997E+02  0.45594000000E+02  0.51100000000E-03 0. -1.
    9900012    2    1    2    0    0  0.94090333863E+00  0.33933599608E+00 -0.62658564777E+00  0.90007721395E+02  0.89999982518E+02 0.  0.
        -12    1    1    2    0    0 -0.94090333863E+00 -0.33933599608E+00  0.62658564777E+00  0.11802786048E+01  0.00000000000E+00 0.  1.
         11    1    3    3    0    0 -0.15941322260E+00  0.22344918161E+01  0.98793836150E+01  0.10130181989E+02  0.51100000000E-03 0. -1.
        -11    1    3    3    0    0 -0.19084796811E+02  0.26703065775E+02  0.15472894584E+02  0.36286273688E+02  0.51100000000E-03 0.  1.
         12    1    3    3    0    0  0.20185113372E+02 -0.28598221595E+02 -0.25978863846E+02  0.43591265719E+02  0.00000000000E+00 0. -1.
</event>
<event>
 7    1  0.2895479E-015  0.9000776E+02  0.7816164E-02  0.1186339E+00
        -11   -1    0    0    0    0  0.00000000000E+00  0.00000000000E+00  0.45593999997E+02  0.45594000000E+02  0.51100000000E-03 0.  1.
         11   -1    0    0    0    0 -0.00000000000E+00 -0.00000000000E+00 -0.45593999997E+02  0.45594000000E+02  0.51100000000E-03 0. -1.
    9900012    2    1    2    0    0 -0.91001217490E+00  0.63598385418E+00  0.40045142653E+00  0.90007763174E+02  0.90000024848E+02 0.  0.
        -12    1    1    2    0    0  0.91001217490E+00 -0.63598385418E+00 -0.40045142653E+00  0.11802368263E+01  0.00000000000E+00 0.  1.
         11    1    3    3    0    0  0.76058184585E+01 -0.43907342318E+00 -0.77668268957E+01  0.10879561580E+02  0.51100000000E-03 0. -1.
        -11    1    3    3    0    0 -0.63742463974E+01  0.39512154980E+02  0.68794642906E+01  0.40609954906E+02  0.51100000000E-03 0.  1.
         12    1    3    3    0    0 -0.21415842360E+01 -0.38437097703E+02  0.12878140316E+01  0.38518246687E+02  0.00000000000E+00 0. -1.
</event>
<event>
 7    1  0.2895479E-015  0.9000769E+02  0.7816164E-02  0.1186339E+00
        -11   -1    0    0    0    0  0.00000000000E+00  0.00000000000E+00  0.45593999997E+02  0.45594000000E+02  0.51100000000E-03 0.  1.
         11   -1    0    0    0    0 -0.00000000000E+00 -0.00000000000E+00 -0.45593999997E+02  0.45594000000E+02  0.51100000000E-03 0. -1.
    9900012    2    1    2    0    0  0.12321359167E+00  0.11667119989E+01 -0.12938405567E+00  0.90007687028E+02  0.89999947697E+02 0.  0.
        -12    1    1    2    0    0 -0.12321359167E+00 -0.11667119989E+01  0.12938405567E+00  0.11803129718E+01  0.00000000000E+00 0.  1.
         11    1    3    3    0    0  0.22754354205E+02 -0.15888473936E+01 -0.31602907774E+02  0.38974720670E+02  0.51100000000E-03 0. -1.
        -11    1    3    3    0    0 -0.51621174889E+01 -0.28313222420E+00 -0.69812741410E+01  0.86871059460E+01  0.51100000000E-03 0.  1.
        -12    1    3    3    0    0 -0.17469023124E+02  0.30386916167E+01  0.38454797859E+02  0.42345860412E+02  0.00000000000E+00 0.  1.
</event>
<event>
 7    1  0.2895479E-015  0.9000772E+02  0.7816164E-02  0.1186339E+00
        -11   -1    0    0    0    0  0.00000000000E+00  0.00000000000E+00  0.45593999997E+02  0.45594000000E+02  0.51100000000E-03 0.  1.
         11   -1    0    0    0    0 -0.00000000000E+00 -0.00000000000E+00 -0.45593999997E+02  0.45594000000E+02  0.51100000000E-03 0. -1.
    9900012    2    1    2    0    0  0.46962400248E+00 -0.77800370123E+00  0.75314140210E+00  0.90007721035E+02  0.89999982153E+02 0.  0.
        -12    1    1    2    0    0 -0.46962400248E+00  0.77800370123E+00 -0.75314140210E+00  0.11802789646E+01  0.00000000000E+00 0.  1.
         11    1    3    3    0    0 -0.18223288108E+02  0.32089501235E+01 -0.25465366915E+02  0.31478095602E+02  0.51100000000E-03 0. -1.
        -11    1    3    3    0    0 -0.10025345720E+02  0.78083083997E+01 -0.57667887681E+01  0.13954679854E+02  0.51100000000E-03 0.  1.
        -12    1    3    3    0    0  0.28718257831E+02 -0.11795262224E+02  0.31985297085E+02  0.44574945579E+02  0.00000000000E+00 0.  1.
</event>
<event>
 7    1  0.2895479E-015  0.9000780E+02  0.7816164E-02  0.1186339E+00
        -11   -1    0    0    0    0  0.00000000000E+00  0.00000000000E+00  0.45593999997E+02  0.45594000000E+02  0.51100000000E-03 0. -1.
         11   -1    0    0    0    0 -0.00000000000E+00 -0.00000000000E+00 -0.45593999997E+02  0.45594000000E+02  0.51100000000E-03 0.  1.
    9900012    2    1    2    0    0 -0.58029312495E+00  0.30036322581E+00  0.98280986108E+00  0.90007799423E+02  0.90000061576E+02 0.  0.
        -12    1    1    2    0    0  0.58029312495E+00 -0.30036322581E+00 -0.98280986108E+00  0.11802005767E+01  0.00000000000E+00 0.  1.
         11    1    3    3    0    0 -0.42384408105E+01 -0.80229847365E+01  0.56037283360E+01  0.10664634833E+02  0.51100000000E-03 0. -1.
        -11    1    3    3    0    0 -0.24023630128E+02  0.32591155597E+02  0.62280182419E+01  0.40964697474E+02  0.51100000000E-03 0.  1.
         12    1    3    3    0    0  0.27681777814E+02 -0.24267807634E+02 -0.10848936717E+02  0.38378467116E+02  0.00000000000E+00 0. -1.
</event>
<event>
 7    1  0.2895479E-015  0.9000700E+02  0.7816164E-02  0.1186341E+00
        -11   -1    0    0    0    0  0.00000000000E+00  0.00000000000E+00  0.45593999997E+02  0.45594000000E+02  0.51100000000E-03 0.  1.
         11   -1    0    0    0    0 -0.00000000000E+00 -0.00000000000E+00 -0.45593999997E+02  0.45594000000E+02  0.51100000000E-03 0. -1.
    9900012    2    1    2    0    0  0.77451062792E+00 -0.88179353299E+00  0.13168005381E+00  0.90006997805E+02  0.89999249373E+02 0.  0.
        -12    1    1    2    0    0 -0.77451062792E+00  0.88179353299E+00 -0.13168005381E+00  0.11810021948E+01  0.00000000000E+00 0.  1.
         11    1    3    3    0    0  0.16276685339E+01 -0.12370800618E+01 -0.39201645180E+02  0.39254918889E+02  0.51100000000E-03 0. -1.
        -11    1    3    3    0    0  0.90793302980E+01  0.43108018312E+01  0.61404009793E-01  0.10050921440E+02  0.51100000000E-03 0.  1.
        -12    1    3    3    0    0 -0.99324882040E+01 -0.39555153025E+01  0.39271921224E+02  0.40701157475E+02  0.00000000000E+00 0.  1.
</event>
<event>
 7    1  0.2895479E-015  0.9000777E+02  0.7816164E-02  0.1186339E+00
        -11   -1    0    0    0    0  0.00000000000E+00  0.00000000000E+00  0.45593999997E+02  0.45594000000E+02  0.51100000000E-03 0.  1.
         11   -1    0    0    0    0 -0.00000000000E+00 -0.00000000000E+00 -0.45593999997E+02  0.45594000000E+02  0.51100000000E-03 0. -1.
    9900012    2    1    2    0    0 -0.30988329423E+00  0.44222094596E+00 -0.10494593590E+01  0.90007766139E+02  0.90000027852E+02 0.  0.
        -12    1    1    2    0    0  0.30988329423E+00 -0.44222094596E+00  0.10494593590E+01  0.11802338613E+01  0.00000000000E+00 0.  1.
         11    1    3    3    0    0 -0.25034413895E+02  0.28496375495E+02 -0.16417405279E+02  0.41331543545E+02  0.51100000000E-03 0. -1.
        -11    1    3    3    0    0  0.61004237404E+01 -0.32814736329E+01 -0.74628578818E+01  0.10182214250E+02  0.51100000000E-03 0.  1.
        -12    1    3    3    0    0  0.18624106861E+02 -0.24772680916E+02  0.22830803802E+02  0.38494008344E+02  0.00000000000E+00 0.  1.
</event>
<event>
 7    1  0.2895479E-015  0.9000777E+02  0.7816164E-02  0.1186339E+00
        -11   -1    0    0    0    0  0.00000000000E+00  0.00000000000E+00  0.45593999997E+02  0.45594000000E+02  0.51100000000E-03 0.  1.
         11   -1    0    0    0    0 -0.00000000000E+00 -0.00000000000E+00 -0.45593999997E+02  0.45594000000E+02  0.51100000000E-03 0. -1.
    9900012    2    1    2    0    0  0.38250734895E+00 -0.33679971953E+00  0.10645125750E+01  0.90007774197E+02  0.90000036017E+02 0.  0.
        -12    1    1    2    0    0 -0.38250734895E+00  0.33679971953E+00 -0.10645125750E+01  0.11802258027E+01  0.00000000000E+00 0.  1.
         11    1    3    3    0    0 -0.16975139436E+02 -0.20102486120E+02 -0.27163400903E+02  0.37816869992E+02  0.51100000000E-03 0. -1.
        -11    1    3    3    0    0 -0.29364810253E+01  0.44343621824E+01 -0.69686090400E+01  0.87662991616E+01  0.51100000000E-03 0.  1.
        -12    1    3    3    0    0  0.20294127810E+02  0.15331324218E+02  0.35196522518E+02  0.43424605044E+02  0.00000000000E+00 0.  1.
</event>
<event>
 7    1  0.2895479E-015  0.9000772E+02  0.7816164E-02  0.1186339E+00
        -11   -1    0    0    0    0  0.00000000000E+00  0.00000000000E+00  0.45593999997E+02  0.45594000000E+02  0.51100000000E-03 0.  1.
         11   -1    0    0    0    0 -0.00000000000E+00 -0.00000000000E+00 -0.45593999997E+02  0.45594000000E+02  0.51100000000E-03 0. -1.
    9900012    2    1    2    0    0  0.80587875695E+00 -0.72202789785E+00  0.47148108199E+00  0.90007720683E+02  0.89999981796E+02 0.  0.
        -12    1    1    2    0    0 -0.80587875695E+00  0.72202789785E+00 -0.47148108199E+00  0.11802793173E+01  0.00000000000E+00 0.  1.
         11    1    3    3    0    0 -0.22422797539E+01  0.90866098779E+01  0.31997179759E+01  0.98910309349E+01  0.51100000000E-03 0. -1.
        -11    1    3    3    0    0 -0.16146897996E+02  0.25675581561E+02  0.17467217928E+02  0.35000878643E+02  0.51100000000E-03 0.  1.
         12    1    3    3    0    0  0.19195056507E+02 -0.35484219337E+02 -0.20195454822E+02  0.45115811105E+02  0.00000000000E+00 0. -1.
</event>
<event>
 7    1  0.3662740E-015  0.9000773E+02  0.7816164E-02  0.1186339E+00
        -11   -1    0    0    0    0  0.00000000000E+00  0.00000000000E+00  0.45593999997E+02  0.45594000000E+02  0.51100000000E-03 0.  1.
         11   -1    0    0    0    0 -0.00000000000E+00 -0.00000000000E+00 -0.45593999997E+02  0.45594000000E+02  0.51100000000E-03 0. -1.
    9900012    2    1    2    0    0 -0.78117372956E+00  0.60352402675E+00 -0.64697037260E+00  0.90007727019E+02  0.89999988216E+02 0.  0.
        -12    1    1    2    0    0  0.78117372956E+00 -0.60352402675E+00  0.64697037260E+00  0.11802729810E+01  0.00000000000E+00 0.  1.
         11    1    3    3    0    0 -0.71447211793E+01 -0.60157469348E+01 -0.35849699250E+01  0.10004412104E+02  0.51100000000E-03 0. -1.
        -11    1    3    3    0    0  0.32125259842E+01 -0.23275378080E+02  0.30988016435E+02  0.38888567868E+02  0.51100000000E-03 0.  1.
         12    1    3    3    0    0  0.31510214655E+01  0.29894649042E+02 -0.28050016883E+02  0.41114747047E+02  0.00000000000E+00 0. -1.
</event>
<event>
 7    1  0.3195969E-015  0.9000773E+02  0.7816164E-02  0.1186339E+00
        -11   -1    0    0    0    0  0.00000000000E+00  0.00000000000E+00  0.45593999997E+02  0.45594000000E+02  0.51100000000E-03 0.  1.
         11   -1    0    0    0    0 -0.00000000000E+00 -0.00000000000E+00 -0.45593999997E+02  0.45594000000E+02  0.51100000000E-03 0. -1.
    9900012    2    1    2    0    0  0.88049398396E+00 -0.60182749524E+00  0.50553307948E+00  0.90007733215E+02  0.89999994493E+02 0.  0.
        -12    1    1    2    0    0 -0.88049398396E+00  0.60182749524E+00 -0.50553307948E+00  0.11802667852E+01  0.00000000000E+00 0.  1.
         11    1    3    3    0    0 -0.25573186724E-01  0.87080704608E+01  0.24948449649E+01  0.90584433982E+01  0.51100000000E-03 0. -1.
        -11    1    3    3    0    0  0.16884278711E+02  0.26786551891E+02 -0.20114150665E+02  0.37512361790E+02  0.51100000000E-03 0.  1.
         12    1    3    3    0    0 -0.15978211541E+02 -0.36096449847E+02  0.18124838780E+02  0.43436928027E+02  0.00000000000E+00 0. -1.
</event>
<event>
 7    1  0.2895479E-015  0.9000765E+02  0.7816164E-02  0.1186339E+00
        -11   -1    0    0    0    0  0.00000000000E+00  0.00000000000E+00  0.45593999997E+02  0.45594000000E+02  0.51100000000E-03 0.  1.
         11   -1    0    0    0    0 -0.00000000000E+00 -0.00000000000E+00 -0.45593999997E+02  0.45594000000E+02  0.51100000000E-03 0. -1.
    9900012    2    1    2    0    0 -0.11666416236E+01  0.17463393908E+00 -0.40885835012E-01  0.90007652025E+02  0.89999912232E+02 0.  0.
        -12    1    1    2    0    0  0.11666416236E+01 -0.17463393908E+00  0.40885835012E-01  0.11803479750E+01  0.00000000000E+00 0.  1.
         11    1    3    3    0    0  0.64106926306E+01  0.56260354813E+01 -0.84724131158E+00  0.85712935630E+01  0.51100000000E-03 0. -1.
        -11    1    3    3    0    0  0.24282112579E+02 -0.15325616619E+02  0.26700929559E+02  0.39210140980E+02  0.51100000000E-03 0.  1.
         12    1    3    3    0    0 -0.31859446834E+02  0.98742150771E+01 -0.25894574083E+02  0.42226217482E+02  0.00000000000E+00 0. -1.
</event>
<event>
 7    1  0.2895479E-015  0.9000780E+02  0.7816164E-02  0.1186339E+00
        -11   -1    0    0    0    0  0.00000000000E+00  0.00000000000E+00  0.45593999997E+02  0.45594000000E+02  0.51100000000E-03 0.  1.
         11   -1    0    0    0    0 -0.00000000000E+00 -0.00000000000E+00 -0.45593999997E+02  0.45594000000E+02  0.51100000000E-03 0. -1.
    9900012    2    1    2    0    0  0.10738405078E+01 -0.16933253913E+00  0.45941004147E+00  0.90007803181E+02  0.90000065383E+02 0.  0.
        -12    1    1    2    0    0 -0.10738405078E+01  0.16933253913E+00 -0.45941004147E+00  0.11801968188E+01  0.00000000000E+00 0.  1.
         11    1    3    3    0    0 -0.21732243671E+02 -0.34799187110E+02  0.25924178608E+01  0.41109542312E+02  0.51100000000E-03 0. -1.
        -11    1    3    3    0    0  0.86824142113E+01 -0.14282192189E+01 -0.49046657308E+01  0.10073721897E+02  0.51100000000E-03 0.  1.
        -12    1    3    3    0    0  0.14123669967E+02  0.36058073790E+02  0.27716579115E+01  0.38824538972E+02  0.00000000000E+00 0.  1.
</event>
<event>
 7    1  0.2895479E-015  0.9000777E+02  0.7816164E-02  0.1186339E+00
        -11   -1    0    0    0    0  0.00000000000E+00  0.00000000000E+00  0.45593999997E+02  0.45594000000E+02  0.51100000000E-03 0.  1.
         11   -1    0    0    0    0 -0.00000000000E+00 -0.00000000000E+00 -0.45593999997E+02  0.45594000000E+02  0.51100000000E-03 0. -1.
    9900012    2    1    2    0    0 -0.26819381845E+00 -0.11096870962E+01 -0.29936377662E+00  0.90007766105E+02  0.90000027818E+02 0.  0.
        -12    1    1    2    0    0  0.26819381845E+00  0.11096870962E+01  0.29936377662E+00  0.11802338948E+01  0.00000000000E+00 0.  1.
         11    1    3    3    0    0  0.58917559722E+01  0.63050055218E+01 -0.19679837552E+01  0.88509233070E+01  0.51100000000E-03 0. -1.
        -11    1    3    3    0    0  0.36885987644E+02 -0.93407815306E+01  0.66062413997E+00  0.38056046939E+02  0.51100000000E-03 0.  1.
         12    1    3    3    0    0 -0.43045937435E+02  0.19260889126E+01  0.10079958386E+01  0.43100795860E+02  0.00000000000E+00 0. -1.
</event>
<event>
 7    1  0.2895479E-015  0.9000762E+02  0.7816164E-02  0.1186339E+00
        -11   -1    0    0    0    0  0.00000000000E+00  0.00000000000E+00  0.45593999997E+02  0.45594000000E+02  0.51100000000E-03 0.  1.
         11   -1    0    0    0    0 -0.00000000000E+00 -0.00000000000E+00 -0.45593999997E+02  0.45594000000E+02  0.51100000000E-03 0. -1.
    9900012    2    1    2    0    0  0.11658707469E+01  0.76871382727E-01  0.16771463825E+00  0.90007622091E+02  0.89999881903E+02 0.  0.
        -12    1    1    2    0    0 -0.11658707469E+01 -0.76871382727E-01 -0.16771463825E+00  0.11803779090E+01  0.00000000000E+00 0.  1.
         11    1    3    3    0    0 -0.55966390430E+01  0.22287445720E+01  0.42975207210E+01  0.73998888879E+01  0.51100000000E-03 0. -1.
        -11    1    3    3    0    0 -0.34080094093E+02 -0.17800859798E+02  0.16796545334E+01  0.38485642291E+02  0.51100000000E-03 0.  1.
         12    1    3    3    0    0  0.40842603883E+02  0.15648986609E+02 -0.58094606161E+01  0.44122090912E+02  0.00000000000E+00 0. -1.
</event>
<event>
 7    1  0.2895479E-015  0.9000774E+02  0.7816164E-02  0.1186339E+00
        -11   -1    0    0    0    0  0.00000000000E+00  0.00000000000E+00  0.45593999997E+02  0.45594000000E+02  0.51100000000E-03 0.  1.
         11   -1    0    0    0    0 -0.00000000000E+00 -0.00000000000E+00 -0.45593999997E+02  0.45594000000E+02  0.51100000000E-03 0. -1.
    9900012    2    1    2    0    0  0.76977521219E+00 -0.54844411370E+00 -0.70688033618E+00  0.90007735355E+02  0.89999996661E+02 0.  0.
        -12    1    1    2    0    0 -0.76977521219E+00  0.54844411370E+00  0.70688033618E+00  0.11802646453E+01  0.00000000000E+00 0.  1.
         11    1    3    3    0    0  0.79049221482E+01 -0.45274276399E+01  0.79264538012E+01  0.12075349491E+02  0.51100000000E-03 0. -1.
        -11    1    3    3    0    0  0.13768854510E+02 -0.91338754281E+01  0.28737844267E+02  0.33149249286E+02  0.51100000000E-03 0.  1.
         12    1    3    3    0    0 -0.20904001446E+02  0.13112858954E+02 -0.37371178404E+02  0.44783136578E+02  0.00000000000E+00 0. -1.
</event>
<event>
 7    1  0.2895479E-015  0.9000767E+02  0.7816164E-02  0.1186339E+00
        -11   -1    0    0    0    0  0.00000000000E+00  0.00000000000E+00  0.45593999997E+02  0.45594000000E+02  0.51100000000E-03 0.  1.
         11   -1    0    0    0    0 -0.00000000000E+00 -0.00000000000E+00 -0.45593999997E+02  0.45594000000E+02  0.51100000000E-03 0. -1.
    9900012    2    1    2    0    0 -0.13983796106E+00  0.10661674205E+01 -0.48674735088E+00  0.90007665044E+02  0.89999925423E+02 0.  0.
        -12    1    1    2    0    0  0.13983796106E+00 -0.10661674205E+01  0.48674735088E+00  0.11803349557E+01  0.00000000000E+00 0.  1.
         11    1    3    3    0    0  0.13944538144E+01 -0.81682800439E+01  0.24869930613E+00  0.82901840705E+01  0.51100000000E-03 0. -1.
        -11    1    3    3    0    0  0.13796215507E+02  0.42485893134E+02  0.37575286643E+01  0.44827510523E+02  0.51100000000E-03 0.  1.
         12    1    3    3    0    0 -0.15330507283E+02 -0.33251445670E+02 -0.44929753213E+01  0.36889970451E+02  0.00000000000E+00 0. -1.
</event>
<event>
 7    1  0.2895479E-015  0.9000771E+02  0.7816164E-02  0.1186339E+00
        -11   -1    0    0    0    0  0.00000000000E+00  0.00000000000E+00  0.45593999997E+02  0.45594000000E+02  0.51100000000E-03 0. -1.
         11   -1    0    0    0    0 -0.00000000000E+00 -0.00000000000E+00 -0.45593999997E+02  0.45594000000E+02  0.51100000000E-03 0.  1.
    9900012    2    1    2    0    0  0.27866263094E+00  0.46367150179E+00  0.10490154315E+01  0.90007712959E+02  0.89999973970E+02 0.  0.
        -12    1    1    2    0    0 -0.27866263094E+00 -0.46367150179E+00 -0.10490154315E+01  0.11802870410E+01  0.00000000000E+00 0.  1.
         11    1    3    3    0    0 -0.28637603994E+02  0.31908824319E+01  0.13433990946E+02  0.31792549540E+02  0.51100000000E-03 0. -1.
        -11    1    3    3    0    0 -0.10195607320E+02 -0.12716615280E+02 -0.12864414915E+01  0.16349851522E+02  0.51100000000E-03 0.  1.
        -12    1    3    3    0    0  0.39111873946E+02  0.99894043504E+01 -0.11098534023E+02  0.41865311897E+02  0.00000000000E+00 0.  1.
</event>
<event>
 7    1  0.4194743E-015  0.9000777E+02  0.7816164E-02  0.1186339E+00
        -11   -1    0    0    0    0  0.00000000000E+00  0.00000000000E+00  0.45593999997E+02  0.45594000000E+02  0.51100000000E-03 0.  1.
         11   -1    0    0    0    0 -0.00000000000E+00 -0.00000000000E+00 -0.45593999997E+02  0.45594000000E+02  0.51100000000E-03 0. -1.
    9900012    2    1    2    0    0 -0.10626917405E+01 -0.87502674662E-02  0.51336615038E+00  0.90007773282E+02  0.90000035089E+02 0.  0.
        -12    1    1    2    0    0  0.10626917405E+01  0.87502674662E-02 -0.51336615038E+00  0.11802267184E+01  0.00000000000E+00 0.  1.
         11    1    3    3    0    0 -0.32585226303E+01 -0.51248549822E+01  0.73865193528E+01  0.95625716589E+01  0.51100000000E-03 0. -1.
        -11    1    3    3    0    0  0.30839131456E+02 -0.23126543124E+02  0.40599575833E+01  0.38760447387E+02  0.51100000000E-03 0.  1.
         12    1    3    3    0    0 -0.28643300566E+02  0.28242647839E+02 -0.10933110786E+02  0.41684754236E+02  0.00000000000E+00 0. -1.
</event>
<event>
 7    1  0.2895479E-015  0.9000779E+02  0.7816164E-02  0.1186339E+00
        -11   -1    0    0    0    0  0.00000000000E+00  0.00000000000E+00  0.45593999997E+02  0.45594000000E+02  0.51100000000E-03 0.  1.
         11   -1    0    0    0    0 -0.00000000000E+00 -0.00000000000E+00 -0.45593999997E+02  0.45594000000E+02  0.51100000000E-03 0. -1.
    9900012    2    1    2    0    0 -0.76173851865E+00 -0.74452046664E+00 -0.50826715554E+00  0.90007791630E+02  0.90000053679E+02 0.  0.
        -12    1    1    2    0    0  0.76173851865E+00  0.74452046664E+00  0.50826715554E+00  0.11802083704E+01  0.00000000000E+00 0.  1.
         11    1    3    3    0    0  0.11414144242E+02  0.68092112019E+01 -0.30128793890E+01  0.13628113899E+02  0.51100000000E-03 0. -1.
        -11    1    3    3    0    0  0.11630904802E+02  0.22661057334E+02 -0.19486360020E+02  0.32070542451E+02  0.51100000000E-03 0.  1.
        -12    1    3    3    0    0 -0.23806787563E+02 -0.30214789003E+02  0.21990972254E+02  0.44309135279E+02  0.00000000000E+00 0.  1.
</event>
<event>
 7    1  0.2895479E-015  0.9000780E+02  0.7816164E-02  0.1186339E+00
        -11   -1    0    0    0    0  0.00000000000E+00  0.00000000000E+00  0.45593999997E+02  0.45594000000E+02  0.51100000000E-03 0. -1.
         11   -1    0    0    0    0 -0.00000000000E+00 -0.00000000000E+00 -0.45593999997E+02  0.45594000000E+02  0.51100000000E-03 0.  1.
    9900012    2    1    2    0    0 -0.47101983152E+00 -0.60663247081E+00  0.89610671015E+00  0.90007800918E+02  0.90000063090E+02 0.  0.
        -12    1    1    2    0    0  0.47101983152E+00  0.60663247081E+00 -0.89610671015E+00  0.11801990816E+01  0.00000000000E+00 0.  1.
         11    1    3    3    0    0 -0.17131762481E+02  0.27621202081E+02  0.17342674672E+01  0.32548975007E+02  0.51100000000E-03 0. -1.
        -11    1    3    3    0    0 -0.80738696344E+01  0.58576949855E+01 -0.10253203721E+02  0.14304829542E+02  0.51100000000E-03 0.  1.
        -12    1    3    3    0    0  0.24734612284E+02 -0.34085529537E+02  0.94150429637E+01  0.43153996370E+02  0.00000000000E+00 0.  1.
</event>
<event>
 7    1  0.2895479E-015  0.9000785E+02  0.7816164E-02  0.1186339E+00
        -11   -1    0    0    0    0  0.00000000000E+00  0.00000000000E+00  0.45593999997E+02  0.45594000000E+02  0.51100000000E-03 0.  1.
         11   -1    0    0    0    0 -0.00000000000E+00 -0.00000000000E+00 -0.45593999997E+02  0.45594000000E+02  0.51100000000E-03 0. -1.
    9900012    2    1    2    0    0 -0.49727998266E+00 -0.78970683378E+00 -0.72237313505E+00  0.90007852886E+02  0.90000115744E+02 0.  0.
        -12    1    1    2    0    0  0.49727998266E+00  0.78970683378E+00  0.72237313505E+00  0.11801471140E+01  0.00000000000E+00 0.  1.
         11    1    3    3    0    0  0.32225562796E+02  0.14200509419E+02 -0.85958363305E+01  0.36249548518E+02  0.51100000000E-03 0. -1.
        -11    1    3    3    0    0  0.74250368802E+01 -0.15631072979E+01 -0.54898732554E+01  0.93655317905E+01  0.51100000000E-03 0.  1.
        -12    1    3    3    0    0 -0.40147879659E+02 -0.13427108955E+02  0.13363336451E+02  0.44392772577E+02  0.00000000000E+00 0.  1.
</event>
<event>
 7    1  0.2895479E-015  0.9000775E+02  0.7816164E-02  0.1186339E+00
        -11   -1    0    0    0    0  0.00000000000E+00  0.00000000000E+00  0.45593999997E+02  0.45594000000E+02  0.51100000000E-03 0.  1.
         11   -1    0    0    0    0 -0.00000000000E+00 -0.00000000000E+00 -0.45593999997E+02  0.45594000000E+02  0.51100000000E-03 0. -1.
    9900012    2    1    2    0    0 -0.36091178392E+00  0.10179988508E+01 -0.47581502868E+00  0.90007754721E+02  0.90000016284E+02 0.  0.
        -12    1    1    2    0    0  0.36091178392E+00 -0.10179988508E+01  0.47581502868E+00  0.11802452785E+01  0.00000000000E+00 0.  1.
         11    1    3    3    0    0 -0.45195126495E+01  0.30304514163E+01  0.71131449609E+01  0.89558060425E+01  0.51100000000E-03 0. -1.
        -11    1    3    3    0    0 -0.37944508769E+02  0.13732931702E+01  0.84677560025E+00  0.37978792885E+02  0.51100000000E-03 0.  1.
         12    1    3    3    0    0  0.42103109634E+02 -0.33857457358E+01 -0.84357355898E+01  0.43073155794E+02  0.00000000000E+00 0. -1.
</event>
<event>
 7    1  0.2951898E-015  0.9000773E+02  0.7816164E-02  0.1186339E+00
        -11   -1    0    0    0    0  0.00000000000E+00  0.00000000000E+00  0.45593999997E+02  0.45594000000E+02  0.51100000000E-03 0. -1.
         11   -1    0    0    0    0 -0.00000000000E+00 -0.00000000000E+00 -0.45593999997E+02  0.45594000000E+02  0.51100000000E-03 0.  1.
    9900012    2    1    2    0    0 -0.99235016167E+00 -0.68945549840E-03  0.63896982318E+00  0.90007728102E+02  0.89999989313E+02 0.  0.
        -12    1    1    2    0    0  0.99235016167E+00  0.68945549841E-03 -0.63896982318E+00  0.11802718982E+01  0.00000000000E+00 0.  1.
         11    1    3    3    0    0  0.43389236504E+01 -0.15506651162E+01  0.82655101532E+01  0.94630586546E+01  0.51100000000E-03 0. -1.
        -11    1    3    3    0    0  0.21361049718E+01  0.40327249695E+02 -0.32210221820E+00  0.40385068559E+02  0.51100000000E-03 0.  1.
         12    1    3    3    0    0 -0.74673787838E+01 -0.38777274034E+02 -0.73044381119E+01  0.40159600889E+02  0.00000000000E+00 0. -1.
</event>
<event>
 7    1  0.2895479E-015  0.9000783E+02  0.7816164E-02  0.1186339E+00
        -11   -1    0    0    0    0  0.00000000000E+00  0.00000000000E+00  0.45593999997E+02  0.45594000000E+02  0.51100000000E-03 0. -1.
         11   -1    0    0    0    0 -0.00000000000E+00 -0.00000000000E+00 -0.45593999997E+02  0.45594000000E+02  0.51100000000E-03 0.  1.
    9900012    2    1    2    0    0 -0.39481136658E+00 -0.11112468576E+01  0.45343227939E-01  0.90007829842E+02  0.90000092396E+02 0.  0.
        -12    1    1    2    0    0  0.39481136658E+00  0.11112468576E+01 -0.45343227939E-01  0.11801701581E+01  0.00000000000E+00 0.  1.
         11    1    3    3    0    0 -0.65248766204E+01 -0.55524534845E+01  0.10739277053E+01  0.86346439178E+01  0.51100000000E-03 0. -1.
        -11    1    3    3    0    0  0.34479511211E+02 -0.22613740664E+02 -0.67095813708E+01  0.41776027128E+02  0.51100000000E-03 0.  1.
         12    1    3    3    0    0 -0.28349445958E+02  0.27054947291E+02  0.56809968935E+01  0.39597158796E+02  0.00000000000E+00 0. -1.
</event>
<event>
 7    1  0.2895479E-015  0.9000779E+02  0.7816164E-02  0.1186339E+00
        -11   -1    0    0    0    0  0.00000000000E+00  0.00000000000E+00  0.45593999997E+02  0.45594000000E+02  0.51100000000E-03 0. -1.
         11   -1    0    0    0    0 -0.00000000000E+00 -0.00000000000E+00 -0.45593999997E+02  0.45594000000E+02  0.51100000000E-03 0.  1.
    9900012    2    1    2    0    0  0.17150460059E+00 -0.73361063973E+00  0.90845411835E+00  0.90007793542E+02  0.90000055617E+02 0.  0.
        -12    1    1    2    0    0 -0.17150460059E+00  0.73361063973E+00 -0.90845411835E+00  0.11802064582E+01  0.00000000000E+00 0.  1.
         11    1    3    3    0    0  0.18794940254E+02  0.12141786665E+02  0.35342310201E+02  0.41830032909E+02  0.51100000000E-03 0. -1.
        -11    1    3    3    0    0 -0.92282997626E+01 -0.45721152912E+01  0.12318784861E+01  0.10372235999E+02  0.51100000000E-03 0.  1.
        -12    1    3    3    0    0 -0.93951358905E+01 -0.83032820138E+01 -0.35665734568E+02  0.37805524635E+02  0.00000000000E+00 0.  1.
</event>
<event>
 7    1  0.2895479E-015  0.9000774E+02  0.7816164E-02  0.1186339E+00
        -11   -1    0    0    0    0  0.00000000000E+00  0.00000000000E+00  0.45593999997E+02  0.45594000000E+02  0.51100000000E-03 0. -1.
         11   -1    0    0    0    0 -0.00000000000E+00 -0.00000000000E+00 -0.45593999997E+02  0.45594000000E+02  0.51100000000E-03 0.  1.
    9900012    2    1    2    0    0 -0.76006420956E+00 -0.11890019407E-01  0.90287365718E+00  0.90007737395E+02  0.89999998729E+02 0.  0.
        -12    1    1    2    0    0  0.76006420956E+00  0.11890019407E-01 -0.90287365718E+00  0.11802626047E+01  0.00000000000E+00 0.  1.
         11    1    3    3    0    0  0.41987050401E+01 -0.10369542287E+02  0.33549785653E+00  0.11192367503E+02  0.51100000000E-03 0. -1.
        -11    1    3    3    0    0  0.34320259642E+02  0.12319410721E+02 -0.10525197187E+02  0.37952969297E+02  0.51100000000E-03 0.  1.
         12    1    3    3    0    0 -0.39279028892E+02 -0.19617584534E+01  0.11092572987E+02  0.40862400595E+02  0.00000000000E+00 0. -1.
</event>
<event>
 7    1  0.2895479E-015  0.9000772E+02  0.7816164E-02  0.1186339E+00
        -11   -1    0    0    0    0  0.00000000000E+00  0.00000000000E+00  0.45593999997E+02  0.45594000000E+02  0.51100000000E-03 0.  1.
         11   -1    0    0    0    0 -0.00000000000E+00 -0.00000000000E+00 -0.45593999997E+02  0.45594000000E+02  0.51100000000E-03 0. -1.
    9900012    2    1    2    0    0 -0.97673614012E+00  0.60901330989E+00  0.26105719252E+00  0.90007719713E+02  0.89999980813E+02 0.  0.
        -12    1    1    2    0    0  0.97673614012E+00 -0.60901330989E+00 -0.26105719252E+00  0.11802802874E+01  0.00000000000E+00 0.  1.
         11    1    3    3    0    0  0.38535751803E+01 -0.34493724309E+01 -0.92349233966E-01  0.51726918021E+01  0.51100000000E-03 0. -1.
        -11    1    3    3    0    0  0.29999611987E+01  0.47192282975E+01  0.42042009991E+02  0.42412279911E+02  0.51100000000E-03 0.  1.
         12    1    3    3    0    0 -0.78302725192E+01 -0.66084255664E+00 -0.41688603565E+02  0.42422747999E+02  0.00000000000E+00 0. -1.
</event>
<event>
 7    1  0.2895479E-015  0.9000776E+02  0.7816164E-02  0.1186339E+00
        -11   -1    0    0    0    0  0.00000000000E+00  0.00000000000E+00  0.45593999997E+02  0.45594000000E+02  0.51100000000E-03 0.  1.
         11   -1    0    0    0    0 -0.00000000000E+00 -0.00000000000E+00 -0.45593999997E+02  0.45594000000E+02  0.51100000000E-03 0. -1.
    9900012    2    1    2    0    0  0.47777363828E+00 -0.10580523007E+01 -0.21267979822E+00  0.90007756374E+02  0.90000017958E+02 0.  0.
        -12    1    1    2    0    0 -0.47777363828E+00  0.10580523007E+01  0.21267979822E+00  0.11802436261E+01  0.00000000000E+00 0.  1.
         11    1    3    3    0    0  0.79156959989E+01 -0.24104954464E+02 -0.27039559735E+02  0.37078900520E+02  0.51100000000E-03 0. -1.
        -11    1    3    3    0    0  0.58685995907E+01  0.19109393113E+02 -0.28265476045E+01  0.20189074716E+02  0.51100000000E-03 0.  1.
        -12    1    3    3    0    0 -0.13306521951E+02  0.39375090511E+01  0.29653427541E+02  0.32739781137E+02  0.00000000000E+00 0.  1.
</event>
<event>
 7    1  0.2895479E-015  0.9000757E+02  0.7816164E-02  0.1186339E+00
        -11   -1    0    0    0    0  0.00000000000E+00  0.00000000000E+00  0.45593999997E+02  0.45594000000E+02  0.51100000000E-03 0.  1.
         11   -1    0    0    0    0 -0.00000000000E+00 -0.00000000000E+00 -0.45593999997E+02  0.45594000000E+02  0.51100000000E-03 0. -1.
    9900012    2    1    2    0    0 -0.77094315924E+00  0.62333023903E+00 -0.64071163465E+00  0.90007574085E+02  0.89999833263E+02 0.  0.
        -12    1    1    2    0    0  0.77094315924E+00 -0.62333023903E+00  0.64071163465E+00  0.11804259148E+01  0.00000000000E+00 0.  1.
         11    1    3    3    0    0  0.45153511457E+01  0.16531704871E+02 -0.31335910742E+02  0.35715892320E+02  0.51100000000E-03 0. -1.
        -11    1    3    3    0    0 -0.12711583930E+01 -0.22114764768E+01 -0.10441797848E+02  0.10748842469E+02  0.51100000000E-03 0.  1.
        -12    1    3    3    0    0 -0.40151359120E+01 -0.13696898155E+02  0.41136996955E+02  0.43542839296E+02  0.00000000000E+00 0.  1.
</event>
<event>
 7    1  0.2895479E-015  0.9000782E+02  0.7816164E-02  0.1186339E+00
        -11   -1    0    0    0    0  0.00000000000E+00  0.00000000000E+00  0.45593999997E+02  0.45594000000E+02  0.51100000000E-03 0. -1.
         11   -1    0    0    0    0 -0.00000000000E+00 -0.00000000000E+00 -0.45593999997E+02  0.45594000000E+02  0.51100000000E-03 0.  1.
    9900012    2    1    2    0    0  0.55150278567E+00  0.71671004062E+00  0.75828837714E+00  0.90007817867E+02  0.90000080262E+02 0.  0.
        -12    1    1    2    0    0 -0.55150278567E+00 -0.71671004062E+00 -0.75828837714E+00  0.11801821333E+01  0.00000000000E+00 0.  1.
         11    1    3    3    0    0  0.10191743658E+01  0.99784869600E+01  0.70659122075E+00  0.10055256825E+02  0.51100000000E-03 0. -1.
        -11    1    3    3    0    0  0.16960535076E+02 -0.17685219381E+02  0.33381428241E+02  0.41409497537E+02  0.51100000000E-03 0.  1.
         12    1    3    3    0    0 -0.17428206656E+02  0.84234424615E+01 -0.33329731084E+02  0.38543063505E+02  0.00000000000E+00 0. -1.
</event>
<event>
 7    1  0.2895479E-015  0.9000771E+02  0.7816164E-02  0.1186339E+00
        -11   -1    0    0    0    0  0.00000000000E+00  0.00000000000E+00  0.45593999997E+02  0.45594000000E+02  0.51100000000E-03 0. -1.
         11   -1    0    0    0    0 -0.00000000000E+00 -0.00000000000E+00 -0.45593999997E+02  0.45594000000E+02  0.51100000000E-03 0.  1.
    9900012    2    1    2    0    0  0.60885230918E+00  0.73321470332E+00  0.69625984529E+00  0.90007710753E+02  0.89999971734E+02 0.  0.
        -12    1    1    2    0    0 -0.60885230918E+00 -0.73321470332E+00 -0.69625984529E+00  0.11802892475E+01  0.00000000000E+00 0.  1.
         11    1    3    3    0    0  0.47314632323E+01  0.44848892941E+01  0.30224532929E+02  0.30919627542E+02  0.51100000000E-03 0. -1.
        -11    1    3    3    0    0  0.23878674011E+01  0.18990859010E+02  0.24654693586E+01  0.19298527821E+02  0.51100000000E-03 0.  1.
        -12    1    3    3    0    0 -0.65104783242E+01 -0.22742533600E+02 -0.31993742443E+02  0.39789555389E+02  0.00000000000E+00 0.  1.
</event>
<event>
 7    1  0.2895479E-015  0.9000784E+02  0.7816164E-02  0.1186339E+00
        -11   -1    0    0    0    0  0.00000000000E+00  0.00000000000E+00  0.45593999997E+02  0.45594000000E+02  0.51100000000E-03 0. -1.
         11   -1    0    0    0    0 -0.00000000000E+00 -0.00000000000E+00 -0.45593999997E+02  0.45594000000E+02  0.51100000000E-03 0.  1.
    9900012    2    1    2    0    0 -0.76518751504E+00  0.83349402296E+00 -0.33549336527E+00  0.90007838987E+02  0.90000101661E+02 0.  0.
        -12    1    1    2    0    0  0.76518751504E+00 -0.83349402296E+00  0.33549336527E+00  0.11801610134E+01  0.00000000000E+00 0.  1.
         11    1    3    3    0    0  0.25732276723E+01 -0.61492140654E+01  0.36815200579E+01  0.76149802675E+01  0.51100000000E-03 0. -1.
        -11    1    3    3    0    0  0.32030254325E+02  0.25137737500E+02 -0.10651953549E+02  0.42086900022E+02  0.51100000000E-03 0.  1.
         12    1    3    3    0    0 -0.35368669513E+02 -0.18155029412E+02  0.66349401258E+01  0.40305958697E+02  0.00000000000E+00 0. -1.
</event>
<event>
 7    1  0.2895479E-015  0.9000771E+02  0.7816164E-02  0.1186339E+00
        -11   -1    0    0    0    0  0.00000000000E+00  0.00000000000E+00  0.45593999997E+02  0.45594000000E+02  0.51100000000E-03 0.  1.
         11   -1    0    0    0    0 -0.00000000000E+00 -0.00000000000E+00 -0.45593999997E+02  0.45594000000E+02  0.51100000000E-03 0. -1.
    9900012    2    1    2    0    0  0.73756108176E+00  0.75550407812E+00 -0.52753437682E+00  0.90007713899E+02  0.89999974923E+02 0.  0.
        -12    1    1    2    0    0 -0.73756108176E+00 -0.75550407812E+00  0.52753437682E+00  0.11802861010E+01  0.00000000000E+00 0.  1.
         11    1    3    3    0    0 -0.46723030631E+00 -0.48810423871E-01  0.71618549192E+01  0.71772454856E+01  0.51100000000E-03 0. -1.
        -11    1    3    3    0    0  0.14122241482E+02  0.29974316912E+02  0.21574502704E+02  0.39539303813E+02  0.51100000000E-03 0.  1.
         12    1    3    3    0    0 -0.12917450094E+02 -0.29170002410E+02 -0.29263892000E+02  0.43291164601E+02  0.00000000000E+00 0. -1.
</event>
<event>
 7    1  0.2895479E-015  0.9000739E+02  0.7816164E-02  0.1186340E+00
        -11   -1    0    0    0    0  0.00000000000E+00  0.00000000000E+00  0.45593999997E+02  0.45594000000E+02  0.51100000000E-03 0.  1.
         11   -1    0    0    0    0 -0.00000000000E+00 -0.00000000000E+00 -0.45593999997E+02  0.45594000000E+02  0.51100000000E-03 0. -1.
    9900012    2    1    2    0    0  0.89118176970E+00 -0.39327557677E+00 -0.66705818327E+00  0.90007391155E+02  0.89999647917E+02 0.  0.
        -12    1    1    2    0    0 -0.89118176970E+00  0.39327557677E+00  0.66705818327E+00  0.11806088454E+01  0.00000000000E+00 0.  1.
         11    1    3    3    0    0 -0.10621842538E+02 -0.21677385066E+02 -0.16452042806E+02  0.29213049737E+02  0.51100000000E-03 0. -1.
        -11    1    3    3    0    0 -0.48863370611E-01 -0.80668608059E+01 -0.14800007123E+02  0.16855765838E+02  0.51100000000E-03 0.  1.
        -12    1    3    3    0    0  0.11561887678E+02  0.29350970295E+02  0.30584991745E+02  0.43938575580E+02  0.00000000000E+00 0.  1.
</event>
<event>
 7    1  0.3216778E-015  0.9000766E+02  0.7816164E-02  0.1186339E+00
        -11   -1    0    0    0    0  0.00000000000E+00  0.00000000000E+00  0.45593999997E+02  0.45594000000E+02  0.51100000000E-03 0.  1.
         11   -1    0    0    0    0 -0.00000000000E+00 -0.00000000000E+00 -0.45593999997E+02  0.45594000000E+02  0.51100000000E-03 0. -1.
    9900012    2    1    2    0    0 -0.11312570473E+01 -0.27592239282E+00 -0.19318539725E+00  0.90007662645E+02  0.89999922992E+02 0.  0.
        -12    1    1    2    0    0  0.11312570473E+01  0.27592239282E+00  0.19318539725E+00  0.11803373550E+01  0.00000000000E+00 0.  1.
         11    1    3    3    0    0  0.70734767004E+01 -0.21442810832E+00  0.58712001756E+01  0.91951641534E+01  0.51100000000E-03 0. -1.
        -11    1    3    3    0    0  0.29225025756E+02  0.17679301933E+02 -0.16739465687E+02  0.38037738616E+02  0.51100000000E-03 0.  1.
         12    1    3    3    0    0 -0.37429759504E+02 -0.17740796217E+02  0.10675080114E+02  0.42774759875E+02  0.00000000000E+00 0. -1.
</event>
<event>
 7    1  0.3793983E-015  0.9000780E+02  0.7816164E-02  0.1186339E+00
        -11   -1    0    0    0    0  0.00000000000E+00  0.00000000000E+00  0.45593999997E+02  0.45594000000E+02  0.51100000000E-03 0. -1.
         11   -1    0    0    0    0 -0.00000000000E+00 -0.00000000000E+00 -0.45593999997E+02  0.45594000000E+02  0.51100000000E-03 0.  1.
    9900012    2    1    2    0    0  0.75922769691E+00  0.90347986593E+00 -0.12837996480E-01  0.90007801975E+02  0.90000064161E+02 0.  0.
        -12    1    1    2    0    0 -0.75922769691E+00 -0.90347986593E+00  0.12837996480E-01  0.11801980249E+01  0.00000000000E+00 0.  1.
         11    1    3    3    0    0 -0.15217739527E+01 -0.86155750172E+01 -0.23177212406E+01  0.90507326141E+01  0.51100000000E-03 0. -1.
        -11    1    3    3    0    0 -0.38139830249E+02 -0.90989223462E+00 -0.53264566548E+01  0.38520717751E+02  0.51100000000E-03 0.  1.
         12    1    3    3    0    0  0.40420831898E+02  0.10428947118E+02  0.76313398990E+01  0.42436351610E+02  0.00000000000E+00 0. -1.
</event>
<event>
 7    1  0.2895479E-015  0.9000645E+02  0.7816164E-02  0.1186342E+00
        -11   -1    0    0    0    0  0.00000000000E+00  0.00000000000E+00  0.45593999997E+02  0.45594000000E+02  0.51100000000E-03 0.  1.
         11   -1    0    0    0    0 -0.00000000000E+00 -0.00000000000E+00 -0.45593999997E+02  0.45594000000E+02  0.51100000000E-03 0. -1.
    9900012    2    1    2    0    0 -0.10509648596E+01 -0.49318570993E+00  0.21975973263E+00  0.90006452870E+02  0.89998697238E+02 0.  0.
        -12    1    1    2    0    0  0.10509648596E+01  0.49318570993E+00 -0.21975973263E+00  0.11815471301E+01  0.00000000000E+00 0.  1.
         11    1    3    3    0    0  0.33863181301E+01  0.22207979158E+01  0.98508854075E+01  0.10650776377E+02  0.51100000000E-03 0. -1.
        -11    1    3    3    0    0  0.16309754023E+02  0.25468205539E+02  0.17619976134E+02  0.35001444669E+02  0.51100000000E-03 0.  1.
         12    1    3    3    0    0 -0.20747037013E+02 -0.28182189165E+02 -0.27251101808E+02  0.44354231824E+02  0.00000000000E+00 0. -1.
</event>
<event>
 7    1  0.2895479E-015  0.9000774E+02  0.7816164E-02  0.1186339E+00
        -11   -1    0    0    0    0  0.00000000000E+00  0.00000000000E+00  0.45593999997E+02  0.45594000000E+02  0.51100000000E-03 0.  1.
         11   -1    0    0    0    0 -0.00000000000E+00 -0.00000000000E+00 -0.45593999997E+02  0.45594000000E+02  0.51100000000E-03 0. -1.
    9900012    2    1    2    0    0  0.98549439637E+00  0.52420713876E+00 -0.38343359089E+00  0.90007740008E+02  0.90000001376E+02 0.  0.
        -12    1    1    2    0    0 -0.98549439637E+00 -0.52420713876E+00  0.38343359089E+00  0.11802599918E+01  0.00000000000E+00 0.  1.
         11    1    3    3    0    0  0.19652717976E+02  0.26379527235E+02 -0.18897395628E+02  0.37937057645E+02  0.51100000000E-03 0. -1.
        -11    1    3    3    0    0 -0.38268368887E+01  0.53274496358E+01 -0.66502084858E+01  0.93408604186E+01  0.51100000000E-03 0.  1.
        -12    1    3    3    0    0 -0.14840386691E+02 -0.31182769732E+02  0.25164170523E+02  0.42729821944E+02  0.00000000000E+00 0.  1.
</event>
<event>
 7    1  0.2895479E-015  0.9000787E+02  0.7816164E-02  0.1186339E+00
        -11   -1    0    0    0    0  0.00000000000E+00  0.00000000000E+00  0.45593999997E+02  0.45594000000E+02  0.51100000000E-03 0. -1.
         11   -1    0    0    0    0 -0.00000000000E+00 -0.00000000000E+00 -0.45593999997E+02  0.45594000000E+02  0.51100000000E-03 0.  1.
    9900012    2    1    2    0    0 -0.10830396881E+01 -0.21260400929E+00 -0.41777840067E+00  0.90007866862E+02  0.90000129905E+02 0.  0.
        -12    1    1    2    0    0  0.10830396881E+01  0.21260400929E+00  0.41777840067E+00  0.11801331378E+01  0.00000000000E+00 0.  1.
         11    1    3    3    0    0 -0.35044732226E+02 -0.95119507209E+01  0.15910861577E+02  0.39645503902E+02  0.51100000000E-03 0. -1.
        -11    1    3    3    0    0 -0.26147644329E+01  0.10272442389E+02 -0.85129554565E+00  0.10634132313E+02  0.51100000000E-03 0.  1.
        -12    1    3    3    0    0  0.36576456970E+02 -0.97309567741E+00 -0.15477344432E+02  0.39728230647E+02  0.00000000000E+00 0.  1.
</event>
<event>
 7    1  0.2895479E-015  0.9000818E+02  0.7816164E-02  0.1186338E+00
        -11   -1    0    0    0    0  0.00000000000E+00  0.00000000000E+00  0.45593999997E+02  0.45594000000E+02  0.51100000000E-03 0.  1.
         11   -1    0    0    0    0 -0.00000000000E+00 -0.00000000000E+00 -0.45593999997E+02  0.45594000000E+02  0.51100000000E-03 0. -1.
    9900012    2    1    2    0    0  0.10666702347E+01 -0.20306851995E+00  0.46147089692E+00  0.90008178996E+02  0.90000446157E+02 0.  0.
        -12    1    1    2    0    0 -0.10666702347E+01  0.20306851995E+00 -0.46147089692E+00  0.11798210042E+01  0.00000000000E+00 0.  1.
         11    1    3    3    0    0  0.51002859248E+01  0.22622688092E+02 -0.29958200932E+02  0.37885257507E+02  0.51100000000E-03 0. -1.
        -11    1    3    3    0    0 -0.12542512179E+02 -0.85864485049E+01 -0.23628154634E+01  0.15382607284E+02  0.51100000000E-03 0.  1.
        -12    1    3    3    0    0  0.85088964888E+01 -0.14239308107E+02  0.32782487292E+02  0.36740314205E+02  0.00000000000E+00 0.  1.
</event>
<event>
 7    1  0.2895479E-015  0.9000773E+02  0.7816164E-02  0.1186339E+00
        -11   -1    0    0    0    0  0.00000000000E+00  0.00000000000E+00  0.45593999997E+02  0.45594000000E+02  0.51100000000E-03 0. -1.
         11   -1    0    0    0    0 -0.00000000000E+00 -0.00000000000E+00 -0.45593999997E+02  0.45594000000E+02  0.51100000000E-03 0.  1.
    9900012    2    1    2    0    0  0.44488889249E-01 -0.22666270167E-01  0.11792129119E+01  0.90007730491E+02  0.89999991734E+02 0.  0.
        -12    1    1    2    0    0 -0.44488889249E-01  0.22666270167E-01 -0.11792129119E+01  0.11802695085E+01  0.00000000000E+00 0.  1.
         11    1    3    3    0    0  0.41377408784E+00 -0.67767213624E+01  0.35770759397E+02  0.36409372276E+02  0.51100000000E-03 0. -1.
        -11    1    3    3    0    0  0.52290969584E+01  0.48493060291E+01  0.79314355010E+01  0.10666156446E+02  0.51100000000E-03 0.  1.
        -12    1    3    3    0    0 -0.55983821570E+01  0.19047490631E+01 -0.42522981986E+02  0.42932201769E+02  0.00000000000E+00 0.  1.
</event>
<event>
 7    1  0.2895479E-015  0.9000778E+02  0.7816164E-02  0.1186339E+00
        -11   -1    0    0    0    0  0.00000000000E+00  0.00000000000E+00  0.45593999997E+02  0.45594000000E+02  0.51100000000E-03 0.  1.
         11   -1    0    0    0    0 -0.00000000000E+00 -0.00000000000E+00 -0.45593999997E+02  0.45594000000E+02  0.51100000000E-03 0. -1.
    9900012    2    1    2    0    0  0.58155235299E+00 -0.10207087099E+01 -0.11349667098E+00  0.90007775062E+02  0.90000036893E+02 0.  0.
        -12    1    1    2    0    0 -0.58155235299E+00  0.10207087099E+01  0.11349667098E+00  0.11802249379E+01  0.00000000000E+00 0.  1.
         11    1    3    3    0    0 -0.71713870370E+01  0.30242550066E+02 -0.23090999299E+02  0.38719954487E+02  0.51100000000E-03 0. -1.
        -11    1    3    3    0    0 -0.92374579309E+01  0.57292245462E+00  0.17441213067E+01  0.94181117299E+01  0.51100000000E-03 0.  1.
        -12    1    3    3    0    0  0.16990397321E+02 -0.31836181231E+02  0.21233381321E+02  0.41869708846E+02  0.00000000000E+00 0.  1.
</event>
<event>
 7    1  0.2895479E-015  0.9000773E+02  0.7816164E-02  0.1186339E+00
        -11   -1    0    0    0    0  0.00000000000E+00  0.00000000000E+00  0.45593999997E+02  0.45594000000E+02  0.51100000000E-03 0.  1.
         11   -1    0    0    0    0 -0.00000000000E+00 -0.00000000000E+00 -0.45593999997E+02  0.45594000000E+02  0.51100000000E-03 0. -1.
    9900012    2    1    2    0    0 -0.91534955233E+00 -0.65255025145E+00 -0.35965912997E+00  0.90007728284E+02  0.89999989497E+02 0.  0.
        -12    1    1    2    0    0  0.91534955233E+00  0.65255025145E+00  0.35965912997E+00  0.11802717159E+01  0.00000000000E+00 0.  1.
         11    1    3    3    0    0  0.25207164325E+02  0.28724504642E+02 -0.12358474708E+02  0.40165037005E+02  0.51100000000E-03 0. -1.
        -11    1    3    3    0    0  0.42368859452E+01 -0.58967175387E+01 -0.39673753570E+01  0.82742097948E+01  0.51100000000E-03 0.  1.
        -12    1    3    3    0    0 -0.30359399823E+02 -0.23480337355E+02  0.15966190935E+02  0.41568481484E+02  0.00000000000E+00 0.  1.
</event>
<event>
 7    1  0.2895479E-015  0.9000774E+02  0.7816164E-02  0.1186339E+00
        -11   -1    0    0    0    0  0.00000000000E+00  0.00000000000E+00  0.45593999997E+02  0.45594000000E+02  0.51100000000E-03 0.  1.
         11   -1    0    0    0    0 -0.00000000000E+00 -0.00000000000E+00 -0.45593999997E+02  0.45594000000E+02  0.51100000000E-03 0. -1.
    9900012    2    1    2    0    0  0.33866157312E+00 -0.16725832169E+00 -0.11181857794E+01  0.90007743060E+02  0.90000004468E+02 0.  0.
        -12    1    1    2    0    0 -0.33866157312E+00  0.16725832169E+00  0.11181857794E+01  0.11802569401E+01  0.00000000000E+00 0.  1.
         11    1    3    3    0    0  0.71593890033E+00  0.44231134388E+01 -0.81528814162E+01  0.93030090105E+01  0.51100000000E-03 0. -1.
        -11    1    3    3    0    0 -0.45087130501E+01  0.22589276630E+02  0.34734277396E+02  0.41678218994E+02  0.51100000000E-03 0.  1.
         12    1    3    3    0    0  0.41314357229E+01 -0.27179648391E+02 -0.27699581759E+02  0.39026515056E+02  0.00000000000E+00 0. -1.
</event>
<event>
 7    1  0.2895479E-015  0.9000773E+02  0.7816164E-02  0.1186339E+00
        -11   -1    0    0    0    0  0.00000000000E+00  0.00000000000E+00  0.45593999997E+02  0.45594000000E+02  0.51100000000E-03 0.  1.
         11   -1    0    0    0    0 -0.00000000000E+00 -0.00000000000E+00 -0.45593999997E+02  0.45594000000E+02  0.51100000000E-03 0. -1.
    9900012    2    1    2    0    0  0.10514419265E+01 -0.15788623859E+00  0.51243616973E+00  0.90007725025E+02  0.89999986195E+02 0.  0.
        -12    1    1    2    0    0 -0.10514419265E+01  0.15788623859E+00 -0.51243616973E+00  0.11802749752E+01  0.00000000000E+00 0.  1.
         11    1    3    3    0    0  0.92650726957E+00  0.32601439258E+02 -0.21281000615E+02  0.38943462158E+02  0.51100000000E-03 0. -1.
        -11    1    3    3    0    0 -0.20828859432E+01 -0.37656529535E+01 -0.82181524601E+01  0.92766689138E+01  0.51100000000E-03 0.  1.
        -12    1    3    3    0    0  0.22078206001E+01 -0.28993672543E+02  0.30011589245E+02  0.41787593953E+02  0.00000000000E+00 0.  1.
</event>
<event>
 7    1  0.2895479E-015  0.9000775E+02  0.7816164E-02  0.1186339E+00
        -11   -1    0    0    0    0  0.00000000000E+00  0.00000000000E+00  0.45593999997E+02  0.45594000000E+02  0.51100000000E-03 0.  1.
         11   -1    0    0    0    0 -0.00000000000E+00 -0.00000000000E+00 -0.45593999997E+02  0.45594000000E+02  0.51100000000E-03 0. -1.
    9900012    2    1    2    0    0 -0.84573719224E-01 -0.59957198884E+00 -0.10130931782E+01  0.90007747031E+02  0.90000008492E+02 0.  0.
        -12    1    1    2    0    0  0.84573719224E-01  0.59957198884E+00  0.10130931782E+01  0.11802529693E+01  0.00000000000E+00 0.  1.
         11    1    3    3    0    0  0.75347797004E+01  0.36986723326E+01  0.34881281942E+01  0.90895610850E+01  0.51100000000E-03 0. -1.
        -11    1    3    3    0    0  0.74117215812E+01 -0.20720033331E+00  0.36401750935E+02  0.37149212915E+02  0.51100000000E-03 0.  1.
         12    1    3    3    0    0 -0.15031075001E+02 -0.40910439882E+01 -0.40902972308E+02  0.43768973031E+02  0.00000000000E+00 0. -1.
</event>
<event>
 7    1  0.2895479E-015  0.9000772E+02  0.7816164E-02  0.1186339E+00
        -11   -1    0    0    0    0  0.00000000000E+00  0.00000000000E+00  0.45593999997E+02  0.45594000000E+02  0.51100000000E-03 0.  1.
         11   -1    0    0    0    0 -0.00000000000E+00 -0.00000000000E+00 -0.45593999997E+02  0.45594000000E+02  0.51100000000E-03 0. -1.
    9900012    2    1    2    0    0 -0.89476742427E+00 -0.76342263086E+00  0.98217569504E-01  0.90007716327E+02  0.89999977383E+02 0.  0.
        -12    1    1    2    0    0  0.89476742427E+00  0.76342263086E+00 -0.98217569504E-01  0.11802836726E+01  0.00000000000E+00 0.  1.
         11    1    3    3    0    0  0.75512111124E+01  0.45568754910E+01  0.50620740829E+01  0.10169095229E+02  0.51100000000E-03 0. -1.
        -11    1    3    3    0    0  0.83348029400E+01  0.98134522707E+01  0.33131601873E+02  0.35545405166E+02  0.51100000000E-03 0.  1.
         12    1    3    3    0    0 -0.16780781477E+02 -0.15133750393E+02 -0.38095458386E+02  0.44293215932E+02  0.00000000000E+00 0. -1.
</event>
<event>
 7    1  0.2895479E-015  0.9000772E+02  0.7816164E-02  0.1186339E+00
        -11   -1    0    0    0    0  0.00000000000E+00  0.00000000000E+00  0.45593999997E+02  0.45594000000E+02  0.51100000000E-03 0. -1.
         11   -1    0    0    0    0 -0.00000000000E+00 -0.00000000000E+00 -0.45593999997E+02  0.45594000000E+02  0.51100000000E-03 0.  1.
    9900012    2    1    2    0    0  0.11079296617E+01  0.49710870516E-01  0.40384690845E+00  0.90007715445E+02  0.89999976489E+02 0.  0.
        -12    1    1    2    0    0 -0.11079296617E+01 -0.49710870516E-01 -0.40384690845E+00  0.11802845553E+01  0.00000000000E+00 0.  1.
         11    1    3    3    0    0  0.41721667958E+01  0.35617556087E+02  0.18221064971E+02  0.40224675092E+02  0.51100000000E-03 0. -1.
        -11    1    3    3    0    0 -0.93568609262E+01 -0.76529675107E+00  0.14643341737E+01  0.95016209324E+01  0.51100000000E-03 0.  1.
        -12    1    3    3    0    0  0.62926237921E+01 -0.34802548465E+02 -0.19281552236E+02  0.40281419420E+02  0.00000000000E+00 0.  1.
</event>
<event>
 7    1  0.2895479E-015  0.9000780E+02  0.7816164E-02  0.1186339E+00
        -11   -1    0    0    0    0  0.00000000000E+00  0.00000000000E+00  0.45593999997E+02  0.45594000000E+02  0.51100000000E-03 0. -1.
         11   -1    0    0    0    0 -0.00000000000E+00 -0.00000000000E+00 -0.45593999997E+02  0.45594000000E+02  0.51100000000E-03 0.  1.
    9900012    2    1    2    0    0 -0.88590982378E+00 -0.34294071104E+00  0.70030809566E+00  0.90007798332E+02  0.90000060470E+02 0.  0.
        -12    1    1    2    0    0  0.88590982378E+00  0.34294071104E+00 -0.70030809566E+00  0.11802016675E+01  0.00000000000E+00 0.  1.
         11    1    3    3    0    0  0.31304082140E+02  0.13620971820E+02 -0.10557105652E+02  0.35734142105E+02  0.51100000000E-03 0. -1.
        -11    1    3    3    0    0  0.78659347222E+01 -0.78394604620E+01 -0.26766173617E+01  0.11423412369E+02  0.51100000000E-03 0.  1.
        -12    1    3    3    0    0 -0.40055926686E+02 -0.61244520693E+01  0.13934031110E+02  0.42850243859E+02  0.00000000000E+00 0.  1.
</event>
<event>
 7    1  0.2895479E-015  0.9000786E+02  0.7816164E-02  0.1186339E+00
        -11   -1    0    0    0    0  0.00000000000E+00  0.00000000000E+00  0.45593999997E+02  0.45594000000E+02  0.51100000000E-03 0.  1.
         11   -1    0    0    0    0 -0.00000000000E+00 -0.00000000000E+00 -0.45593999997E+02  0.45594000000E+02  0.51100000000E-03 0. -1.
    9900012    2    1    2    0    0  0.34775679025E+00 -0.10069117448E+01  0.50785394185E+00  0.90007863706E+02  0.90000126706E+02 0.  0.
        -12    1    1    2    0    0 -0.34775679025E+00  0.10069117448E+01 -0.50785394185E+00  0.11801362944E+01  0.00000000000E+00 0.  1.
         11    1    3    3    0    0  0.33617111944E+02  0.10027212937E+02 -0.88461232216E+01  0.36178848946E+02  0.51100000000E-03 0. -1.
        -11    1    3    3    0    0  0.69774240134E+01 -0.21874434457E+01 -0.63952340582E+01  0.97143385576E+01  0.51100000000E-03 0.  1.
        -12    1    3    3    0    0 -0.40246779168E+02 -0.88466812364E+01  0.15749211222E+02  0.44114676202E+02  0.00000000000E+00 0.  1.
</event>
<event>
 7    1  0.2895479E-015  0.9000797E+02  0.7816164E-02  0.1186339E+00
        -11   -1    0    0    0    0  0.00000000000E+00  0.00000000000E+00  0.45593999997E+02  0.45594000000E+02  0.51100000000E-03 0. -1.
         11   -1    0    0    0    0 -0.00000000000E+00 -0.00000000000E+00 -0.45593999997E+02  0.45594000000E+02  0.51100000000E-03 0.  1.
    9900012    2    1    2    0    0  0.81523997451E+00 -0.73447895272E+00  0.43404533810E+00  0.90007969957E+02  0.90000234360E+02 0.  0.
        -12    1    1    2    0    0 -0.81523997451E+00  0.73447895272E+00 -0.43404533810E+00  0.11800300435E+01  0.00000000000E+00 0.  1.
         11    1    3    3    0    0 -0.21485419658E+01 -0.23313760786E+01  0.36691484699E+02  0.36828203821E+02  0.51100000000E-03 0. -1.
        -11    1    3    3    0    0 -0.47579386055E+01  0.71866115317E+01  0.55816919714E+01  0.10268429802E+02  0.51100000000E-03 0.  1.
        -12    1    3    3    0    0  0.77217205458E+01 -0.55897144059E+01 -0.41839131332E+02  0.42911336334E+02  0.00000000000E+00 0.  1.
</event>
<event>
 7    1  0.4169724E-015  0.9000782E+02  0.7816164E-02  0.1186339E+00
        -11   -1    0    0    0    0  0.00000000000E+00  0.00000000000E+00  0.45593999997E+02  0.45594000000E+02  0.51100000000E-03 0.  1.
         11   -1    0    0    0    0 -0.00000000000E+00 -0.00000000000E+00 -0.45593999997E+02  0.45594000000E+02  0.51100000000E-03 0. -1.
    9900012    2    1    2    0    0  0.89602399404E+00 -0.65760441588E+00 -0.39688516394E+00  0.90007821878E+02  0.90000084327E+02 0.  0.
        -12    1    1    2    0    0 -0.89602399404E+00  0.65760441588E+00  0.39688516394E+00  0.11801781217E+01  0.00000000000E+00 0.  1.
         11    1    3    3    0    0 -0.14416786440E+01  0.21803260606E+00  0.92169672292E+01  0.93315840400E+01  0.51100000000E-03 0. -1.
        -11    1    3    3    0    0 -0.26418415827E+02  0.82343303181E+01  0.23195438963E+02  0.36107690034E+02  0.51100000000E-03 0.  1.
         12    1    3    3    0    0  0.28756118465E+02 -0.91099673400E+01 -0.32809291356E+02  0.44568547805E+02  0.00000000000E+00 0. -1.
</event>
<event>
 7    1  0.2895479E-015  0.9000772E+02  0.7816164E-02  0.1186339E+00
        -11   -1    0    0    0    0  0.00000000000E+00  0.00000000000E+00  0.45593999997E+02  0.45594000000E+02  0.51100000000E-03 0.  1.
         11   -1    0    0    0    0 -0.00000000000E+00 -0.00000000000E+00 -0.45593999997E+02  0.45594000000E+02  0.51100000000E-03 0. -1.
    9900012    2    1    2    0    0  0.35275807897E+00 -0.20401820841E+00 -0.11077009648E+01  0.90007719051E+02  0.89999980142E+02 0.  0.
        -12    1    1    2    0    0 -0.35275807897E+00  0.20401820841E+00  0.11077009648E+01  0.11802809492E+01  0.00000000000E+00 0.  1.
         11    1    3    3    0    0 -0.33384871822E+01  0.51516774797E+01  0.62243616414E+01  0.87423083693E+01  0.51100000000E-03 0. -1.
        -11    1    3    3    0    0 -0.16811877051E+02 -0.92555251198E+01  0.31669596667E+02  0.37030626629E+02  0.51100000000E-03 0.  1.
         12    1    3    3    0    0  0.20503122312E+02  0.38998294317E+01 -0.39001659273E+02  0.44234784053E+02  0.00000000000E+00 0. -1.
</event>
<event>
 7    1  0.2895479E-015  0.9000774E+02  0.7816164E-02  0.1186339E+00
        -11   -1    0    0    0    0  0.00000000000E+00  0.00000000000E+00  0.45593999997E+02  0.45594000000E+02  0.51100000000E-03 0. -1.
         11   -1    0    0    0    0 -0.00000000000E+00 -0.00000000000E+00 -0.45593999997E+02  0.45594000000E+02  0.51100000000E-03 0.  1.
    9900012    2    1    2    0    0 -0.88605390203E-01 -0.15792381323E+00  0.11662900785E+01  0.90007735880E+02  0.89999997193E+02 0.  0.
        -12    1    1    2    0    0  0.88605390203E-01  0.15792381323E+00 -0.11662900785E+01  0.11802641201E+01  0.00000000000E+00 0.  1.
         11    1    3    3    0    0  0.87696577130E+01  0.62008757985E+00 -0.45873935412E+01  0.99164300417E+01  0.51100000000E-03 0. -1.
        -11    1    3    3    0    0 -0.66889677074E+01  0.42946807340E+01 -0.36562689891E+02  0.37416799221E+02  0.51100000000E-03 0.  1.
         12    1    3    3    0    0 -0.21692953958E+01 -0.50726921270E+01  0.42316373511E+02  0.42674506617E+02  0.00000000000E+00 0. -1.
</event>
<event>
 7    1  0.2895479E-015  0.9000782E+02  0.7816164E-02  0.1186339E+00
        -11   -1    0    0    0    0  0.00000000000E+00  0.00000000000E+00  0.45593999997E+02  0.45594000000E+02  0.51100000000E-03 0.  1.
         11   -1    0    0    0    0 -0.00000000000E+00 -0.00000000000E+00 -0.45593999997E+02  0.45594000000E+02  0.51100000000E-03 0. -1.
    9900012    2    1    2    0    0 -0.48748417396E+00 -0.10659071477E+01 -0.13789649488E+00  0.90007824458E+02  0.90000086940E+02 0.  0.
        -12    1    1    2    0    0  0.48748417396E+00  0.10659071477E+01  0.13789649488E+00  0.11801755423E+01  0.00000000000E+00 0.  1.
         11    1    3    3    0    0 -0.58439585229E+01  0.62248703196E+01 -0.35255636175E+01  0.92374488251E+01  0.51100000000E-03 0. -1.
        -11    1    3    3    0    0 -0.76849966521E+01  0.17537131352E+02  0.34144873697E+02  0.39146935380E+02  0.51100000000E-03 0.  1.
         12    1    3    3    0    0  0.13041471001E+02 -0.24827908819E+02 -0.30757206575E+02  0.41623440253E+02  0.00000000000E+00 0. -1.
</event>
<event>
 7    1  0.2895479E-015  0.9000776E+02  0.7816164E-02  0.1186339E+00
        -11   -1    0    0    0    0  0.00000000000E+00  0.00000000000E+00  0.45593999997E+02  0.45594000000E+02  0.51100000000E-03 0. -1.
         11   -1    0    0    0    0 -0.00000000000E+00 -0.00000000000E+00 -0.45593999997E+02  0.45594000000E+02  0.51100000000E-03 0.  1.
    9900012    2    1    2    0    0 -0.11319126431E+01  0.23280358612E+00 -0.23989466949E+00  0.90007757146E+02  0.90000018741E+02 0.  0.
        -12    1    1    2    0    0  0.11319126431E+01 -0.23280358612E+00  0.23989466949E+00  0.11802428538E+01  0.00000000000E+00 0.  1.
         11    1    3    3    0    0  0.24156268297E+01  0.53055366370E+01  0.65381068900E+01  0.87596126600E+01  0.51100000000E-03 0. -1.
        -11    1    3    3    0    0 -0.31357900797E+02  0.12367734547E+02  0.19727090510E+02  0.39056841916E+02  0.51100000000E-03 0.  1.
         12    1    3    3    0    0  0.27810361324E+02 -0.17440467598E+02 -0.26505092069E+02  0.42191302570E+02  0.00000000000E+00 0. -1.
</event>
<event>
 7    1  0.2895479E-015  0.9000769E+02  0.7816164E-02  0.1186339E+00
        -11   -1    0    0    0    0  0.00000000000E+00  0.00000000000E+00  0.45593999997E+02  0.45594000000E+02  0.51100000000E-03 0. -1.
         11   -1    0    0    0    0 -0.00000000000E+00 -0.00000000000E+00 -0.45593999997E+02  0.45594000000E+02  0.51100000000E-03 0.  1.
    9900012    2    1    2    0    0 -0.46638354261E+00  0.46062580895E+00  0.98155468165E+00  0.90007686763E+02  0.89999947428E+02 0.  0.
        -12    1    1    2    0    0  0.46638354261E+00 -0.46062580895E+00 -0.98155468165E+00  0.11803132371E+01  0.00000000000E+00 0.  1.
         11    1    3    3    0    0  0.17451007172E+02 -0.33923925925E+02  0.21956690967E+00  0.38149949034E+02  0.51100000000E-03 0. -1.
        -11    1    3    3    0    0  0.16684503092E+00 -0.10682181663E+01 -0.10453221031E+02  0.10508984609E+02  0.51100000000E-03 0.  1.
        -12    1    3    3    0    0 -0.18084235745E+02  0.35452769900E+02  0.11215208803E+02  0.41348753120E+02  0.00000000000E+00 0.  1.
</event>
<event>
 7    1  0.2895479E-015  0.9000784E+02  0.7816164E-02  0.1186339E+00
        -11   -1    0    0    0    0  0.00000000000E+00  0.00000000000E+00  0.45593999997E+02  0.45594000000E+02  0.51100000000E-03 0.  1.
         11   -1    0    0    0    0 -0.00000000000E+00 -0.00000000000E+00 -0.45593999997E+02  0.45594000000E+02  0.51100000000E-03 0. -1.
    9900012    2    1    2    0    0  0.48300545442E+00  0.79710705382E-01 -0.10738431040E+01  0.90007835995E+02  0.90000098631E+02 0.  0.
        -12    1    1    2    0    0 -0.48300545442E+00 -0.79710705382E-01  0.10738431040E+01  0.11801640045E+01  0.00000000000E+00 0.  1.
         11    1    3    3    0    0  0.14677784280E+02  0.16356580530E+02 -0.29317888643E+02  0.36640328502E+02  0.51100000000E-03 0. -1.
        -11    1    3    3    0    0  0.80235671603E+01  0.20905737429E+01 -0.47486589305E+01  0.95549929592E+01  0.51100000000E-03 0.  1.
        -12    1    3    3    0    0 -0.22218345985E+02 -0.18367443568E+02  0.32992704470E+02  0.43812514534E+02  0.00000000000E+00 0.  1.
</event>
<event>
 7    1  0.2895479E-015  0.9000768E+02  0.7816164E-02  0.1186339E+00
        -11   -1    0    0    0    0  0.00000000000E+00  0.00000000000E+00  0.45593999997E+02  0.45594000000E+02  0.51100000000E-03 0. -1.
         11   -1    0    0    0    0 -0.00000000000E+00 -0.00000000000E+00 -0.45593999997E+02  0.45594000000E+02  0.51100000000E-03 0.  1.
    9900012    2    1    2    0    0 -0.49150199348E+00 -0.90783451128E+00  0.57220210170E+00  0.90007680995E+02  0.89999941584E+02 0.  0.
        -12    1    1    2    0    0  0.49150199348E+00  0.90783451128E+00 -0.57220210170E+00  0.11803190055E+01  0.00000000000E+00 0.  1.
         11    1    3    3    0    0 -0.43958992110E+01 -0.10852312106E+02 -0.14304757808E+02  0.18485743267E+02  0.51100000000E-03 0. -1.
        -11    1    3    3    0    0 -0.98816445013E+00  0.33175016636E+01 -0.27821575765E+02  0.28036090393E+02  0.51100000000E-03 0.  1.
         12    1    3    3    0    0  0.48925616676E+01  0.66269759315E+01  0.42698535674E+02  0.43485847334E+02  0.00000000000E+00 0. -1.
</event>
<event>
 7    1  0.2895479E-015  0.9000770E+02  0.7816164E-02  0.1186339E+00
        -11   -1    0    0    0    0  0.00000000000E+00  0.00000000000E+00  0.45593999997E+02  0.45594000000E+02  0.51100000000E-03 0.  1.
         11   -1    0    0    0    0 -0.00000000000E+00 -0.00000000000E+00 -0.45593999997E+02  0.45594000000E+02  0.51100000000E-03 0. -1.
    9900012    2    1    2    0    0 -0.11078874126E+01 -0.17806783835E+00 -0.36603034054E+00  0.90007703052E+02  0.89999963933E+02 0.  0.
        -12    1    1    2    0    0  0.11078874126E+01  0.17806783835E+00  0.36603034054E+00  0.11802969475E+01  0.00000000000E+00 0.  1.
         11    1    3    3    0    0  0.19583369917E+01 -0.16263733996E+01  0.83736681329E+01  0.87520564709E+01  0.51100000000E-03 0. -1.
        -11    1    3    3    0    0  0.28158968879E+02  0.21591834645E+02 -0.22058877736E+02  0.41781921197E+02  0.51100000000E-03 0.  1.
         12    1    3    3    0    0 -0.31225193283E+02 -0.20143529084E+02  0.13319179262E+02  0.39473725385E+02  0.00000000000E+00 0. -1.
</event>
<event>
 7    1  0.2895479E-015  0.9000782E+02  0.7816164E-02  0.1186339E+00
        -11   -1    0    0    0    0  0.00000000000E+00  0.00000000000E+00  0.45593999997E+02  0.45594000000E+02  0.51100000000E-03 0. -1.
         11   -1    0    0    0    0 -0.00000000000E+00 -0.00000000000E+00 -0.45593999997E+02  0.45594000000E+02  0.51100000000E-03 0.  1.
    9900012    2    1    2    0    0 -0.20230096750E-01  0.75942685757E+00  0.90314821496E+00  0.90007824120E+02  0.90000086599E+02 0.  0.
        -12    1    1    2    0    0  0.20230096750E-01 -0.75942685757E+00 -0.90314821496E+00  0.11801758797E+01  0.00000000000E+00 0.  1.
         11    1    3    3    0    0  0.34597981118E+01 -0.49370840227E+01  0.37484533459E+02  0.37966238299E+02  0.51100000000E-03 0. -1.
        -11    1    3    3    0    0 -0.64310449805E+01  0.44648128149E+01  0.56717900448E+01  0.96675796137E+01  0.51100000000E-03 0.  1.
        -12    1    3    3    0    0  0.29510167719E+01  0.12316980654E+01 -0.42253175289E+02  0.42374006208E+02  0.00000000000E+00 0.  1.
</event>
<event>
 7    1  0.2895479E-015  0.9000768E+02  0.7816164E-02  0.1186339E+00
        -11   -1    0    0    0    0  0.00000000000E+00  0.00000000000E+00  0.45593999997E+02  0.45594000000E+02  0.51100000000E-03 0.  1.
         11   -1    0    0    0    0 -0.00000000000E+00 -0.00000000000E+00 -0.45593999997E+02  0.45594000000E+02  0.51100000000E-03 0. -1.
    9900012    2    1    2    0    0  0.10007546886E+01  0.36363863452E+00  0.50932571266E+00  0.90007679838E+02  0.89999940412E+02 0.  0.
        -12    1    1    2    0    0 -0.10007546886E+01 -0.36363863452E+00 -0.50932571266E+00  0.11803201620E+01  0.00000000000E+00 0.  1.
         11    1    3    3    0    0  0.12120061255E+02 -0.14752073508E+02 -0.32676632621E+02  0.37845500093E+02  0.51100000000E-03 0. -1.
        -11    1    3    3    0    0 -0.53583198203E+01 -0.79307807363E+01 -0.19317661209E+01  0.97642508669E+01  0.51100000000E-03 0.  1.
        -12    1    3    3    0    0 -0.57609867457E+01  0.23046492879E+02  0.35117724454E+02  0.42397928878E+02  0.00000000000E+00 0.  1.
</event>
<event>
 7    1  0.2895479E-015  0.9000776E+02  0.7816164E-02  0.1186339E+00
        -11   -1    0    0    0    0  0.00000000000E+00  0.00000000000E+00  0.45593999997E+02  0.45594000000E+02  0.51100000000E-03 0.  1.
         11   -1    0    0    0    0 -0.00000000000E+00 -0.00000000000E+00 -0.45593999997E+02  0.45594000000E+02  0.51100000000E-03 0. -1.
    9900012    2    1    2    0    0 -0.86395656851E-01  0.11332862367E+01  0.31807682290E+00  0.90007756479E+02  0.90000018064E+02 0.  0.
        -12    1    1    2    0    0  0.86395656851E-01 -0.11332862367E+01 -0.31807682290E+00  0.11802435211E+01  0.00000000000E+00 0.  1.
         11    1    3    3    0    0  0.49331180455E+01 -0.34042968368E+01  0.58231710076E+01  0.83566866310E+01  0.51100000000E-03 0. -1.
        -11    1    3    3    0    0 -0.49049338719E+00 -0.34649824658E+02  0.14327004771E+02  0.37498186604E+02  0.51100000000E-03 0.  1.
         12    1    3    3    0    0 -0.45290203152E+01  0.39187407732E+02 -0.19832098956E+02  0.44152883244E+02  0.00000000000E+00 0. -1.
</event>
<event>
 7    1  0.2895479E-015  0.9000782E+02  0.7816164E-02  0.1186339E+00
        -11   -1    0    0    0    0  0.00000000000E+00  0.00000000000E+00  0.45593999997E+02  0.45594000000E+02  0.51100000000E-03 0.  1.
         11   -1    0    0    0    0 -0.00000000000E+00 -0.00000000000E+00 -0.45593999997E+02  0.45594000000E+02  0.51100000000E-03 0. -1.
    9900012    2    1    2    0    0  0.33372806531E+00  0.14332050057E+00 -0.11229074627E+01  0.90007815117E+02  0.90000077477E+02 0.  0.
        -12    1    1    2    0    0 -0.33372806531E+00 -0.14332050057E+00  0.11229074627E+01  0.11801848827E+01  0.00000000000E+00 0.  1.
         11    1    3    3    0    0  0.32280548475E+02  0.71745549227E+01 -0.28415635852E+02  0.43599958823E+02  0.51100000000E-03 0. -1.
        -11    1    3    3    0    0  0.22996558133E+00 -0.14872431574E+01  0.87104260651E+01  0.88394739026E+01  0.51100000000E-03 0.  1.
        -12    1    3    3    0    0 -0.32176785991E+02 -0.55439912646E+01  0.18582302324E+02  0.37568382392E+02  0.00000000000E+00 0.  1.
</event>
<event>
 7    1  0.2895479E-015  0.9000773E+02  0.7816164E-02  0.1186339E+00
        -11   -1    0    0    0    0  0.00000000000E+00  0.00000000000E+00  0.45593999997E+02  0.45594000000E+02  0.51100000000E-03 0. -1.
         11   -1    0    0    0    0 -0.00000000000E+00 -0.00000000000E+00 -0.45593999997E+02  0.45594000000E+02  0.51100000000E-03 0.  1.
    9900012    2    1    2    0    0 -0.10142067007E+01  0.38055977749E+00 -0.46860997005E+00  0.90007730421E+02  0.89999991662E+02 0.  0.
        -12    1    1    2    0    0  0.10142067007E+01 -0.38055977749E+00  0.46860997005E+00  0.11802695794E+01  0.00000000000E+00 0.  1.
         11    1    3    3    0    0  0.64871296566E+01  0.18866353798E+02 -0.21371636995E+02  0.29236433177E+02  0.51100000000E-03 0. -1.
        -11    1    3    3    0    0 -0.26294044073E+01  0.18654680530E+02  0.23980147586E+01  0.18991086021E+02  0.51100000000E-03 0.  1.
        -12    1    3    3    0    0 -0.48719319501E+01 -0.37140474551E+02  0.18505012266E+02  0.41780211222E+02  0.00000000000E+00 0.  1.
</event>
<event>
 7    1  0.4574943E-015  0.9000780E+02  0.7816164E-02  0.1186339E+00
        -11   -1    0    0    0    0  0.00000000000E+00  0.00000000000E+00  0.45593999997E+02  0.45594000000E+02  0.51100000000E-03 0. -1.
         11   -1    0    0    0    0 -0.00000000000E+00 -0.00000000000E+00 -0.45593999997E+02  0.45594000000E+02  0.51100000000E-03 0.  1.
    9900012    2    1    2    0    0 -0.83608331561E+00  0.21998613353E+00  0.80340035188E+00  0.90007796062E+02  0.90000058170E+02 0.  0.
        -12    1    1    2    0    0  0.83608331561E+00 -0.21998613353E+00 -0.80340035188E+00  0.11802039379E+01  0.00000000000E+00 0.  1.
         11    1    3    3    0    0 -0.51026087415E+01 -0.67888321718E+01  0.30727290825E+01  0.90314186317E+01  0.51100000000E-03 0. -1.
        -11    1    3    3    0    0  0.27917555940E+02 -0.13480506541E+02 -0.26984862362E+02  0.41101055743E+02  0.51100000000E-03 0.  1.
         12    1    3    3    0    0 -0.23651030514E+02  0.20489324846E+02  0.24715533631E+02  0.39875321688E+02  0.00000000000E+00 0. -1.
</event>
<event>
 7    1  0.2895479E-015  0.9000773E+02  0.7816164E-02  0.1186339E+00
        -11   -1    0    0    0    0  0.00000000000E+00  0.00000000000E+00  0.45593999997E+02  0.45594000000E+02  0.51100000000E-03 0.  1.
         11   -1    0    0    0    0 -0.00000000000E+00 -0.00000000000E+00 -0.45593999997E+02  0.45594000000E+02  0.51100000000E-03 0. -1.
    9900012    2    1    2    0    0 -0.89437470639E+00 -0.76994458266E+00 -0.17652546187E-01  0.90007732069E+02  0.89999993333E+02 0.  0.
        -12    1    1    2    0    0  0.89437470639E+00  0.76994458266E+00  0.17652546187E-01  0.11802679307E+01  0.00000000000E+00 0.  1.
         11    1    3    3    0    0  0.45911110153E+01 -0.25144042332E+01 -0.48174550155E+00  0.52566727111E+01  0.51100000000E-03 0. -1.
        -11    1    3    3    0    0 -0.50477880262E+01  0.35257678623E+02 -0.24266899870E+02  0.43098335182E+02  0.51100000000E-03 0.  1.
         12    1    3    3    0    0 -0.43769769547E+00 -0.33513218973E+02  0.24730992825E+02  0.41652724177E+02  0.00000000000E+00 0. -1.
</event>
<event>
 7    1  0.2895479E-015  0.9000783E+02  0.7816164E-02  0.1186339E+00
        -11   -1    0    0    0    0  0.00000000000E+00  0.00000000000E+00  0.45593999997E+02  0.45594000000E+02  0.51100000000E-03 0.  1.
         11   -1    0    0    0    0 -0.00000000000E+00 -0.00000000000E+00 -0.45593999997E+02  0.45594000000E+02  0.51100000000E-03 0. -1.
    9900012    2    1    2    0    0  0.33034773344E-01  0.21649908697E+00 -0.11596688310E+01  0.90007832661E+02  0.90000095252E+02 0.  0.
        -12    1    1    2    0    0 -0.33034773344E-01 -0.21649908697E+00  0.11596688310E+01  0.11801673392E+01  0.00000000000E+00 0.  1.
         11    1    3    3    0    0 -0.65695256187E+01 -0.78508187976E+00  0.27113556146E+01  0.71502776130E+01  0.51100000000E-03 0. -1.
        -11    1    3    3    0    0 -0.37165658718E+02 -0.80469706930E+01 -0.39603171568E+00  0.38028893840E+02  0.51100000000E-03 0.  1.
         12    1    3    3    0    0  0.43768219110E+02  0.90485516597E+01 -0.34749927300E+01  0.44828661208E+02  0.00000000000E+00 0. -1.
</event>
<event>
 7    1  0.2895479E-015  0.9000775E+02  0.7816164E-02  0.1186339E+00
        -11   -1    0    0    0    0  0.00000000000E+00  0.00000000000E+00  0.45593999997E+02  0.45594000000E+02  0.51100000000E-03 0.  1.
         11   -1    0    0    0    0 -0.00000000000E+00 -0.00000000000E+00 -0.45593999997E+02  0.45594000000E+02  0.51100000000E-03 0. -1.
    9900012    2    1    2    0    0 -0.61507005068E+00  0.34302468092E+00 -0.94710749718E+00  0.90007750149E+02  0.90000011651E+02 0.  0.
        -12    1    1    2    0    0  0.61507005068E+00 -0.34302468092E+00  0.94710749718E+00  0.11802498507E+01  0.00000000000E+00 0.  1.
         11    1    3    3    0    0  0.24967140713E+01  0.56503040158E+01  0.87213813556E+01  0.10687469749E+02  0.51100000000E-03 0. -1.
        -11    1    3    3    0    0 -0.33419550261E+02  0.18331519373E+02 -0.14073815005E+02  0.40632292714E+02  0.51100000000E-03 0.  1.
         12    1    3    3    0    0  0.30307766139E+02 -0.23638798708E+02  0.44053261519E+01  0.38687987686E+02  0.00000000000E+00 0. -1.
</event>
<event>
 7    1  0.2895479E-015  0.9000771E+02  0.7816164E-02  0.1186339E+00
        -11   -1    0    0    0    0  0.00000000000E+00  0.00000000000E+00  0.45593999997E+02  0.45594000000E+02  0.51100000000E-03 0.  1.
         11   -1    0    0    0    0 -0.00000000000E+00 -0.00000000000E+00 -0.45593999997E+02  0.45594000000E+02  0.51100000000E-03 0. -1.
    9900012    2    1    2    0    0  0.10248812715E+00  0.56517380067E+00 -0.10310988092E+01  0.90007707665E+02  0.89999968606E+02 0.  0.
        -12    1    1    2    0    0 -0.10248812715E+00 -0.56517380067E+00  0.10310988092E+01  0.11802923348E+01  0.00000000000E+00 0.  1.
         11    1    3    3    0    0  0.11403988732E+01 -0.70639404373E+01  0.39754227985E+01  0.81855818840E+01  0.51100000000E-03 0. -1.
        -11    1    3    3    0    0  0.15141834149E+02 -0.13606489716E+02  0.30945952241E+02  0.37041377730E+02  0.51100000000E-03 0.  1.
         12    1    3    3    0    0 -0.16179744895E+02  0.21235603954E+02 -0.35952473849E+02  0.44780748051E+02  0.00000000000E+00 0. -1.
</event>
<event>
 7    1  0.2895479E-015  0.9000771E+02  0.7816164E-02  0.1186339E+00
        -11   -1    0    0    0    0  0.00000000000E+00  0.00000000000E+00  0.45593999997E+02  0.45594000000E+02  0.51100000000E-03 0.  1.
         11   -1    0    0    0    0 -0.00000000000E+00 -0.00000000000E+00 -0.45593999997E+02  0.45594000000E+02  0.51100000000E-03 0. -1.
    9900012    2    1    2    0    0 -0.76988868043E+00 -0.55214468914E+00 -0.70391039599E+00  0.90007710975E+02  0.89999971959E+02 0.  0.
        -12    1    1    2    0    0  0.76988868043E+00  0.55214468914E+00  0.70391039599E+00  0.11802890254E+01  0.00000000000E+00 0.  1.
         11    1    3    3    0    0 -0.11332966237E+02 -0.75031545418E+01  0.36045396861E+00  0.13596447298E+02  0.51100000000E-03 0. -1.
        -11    1    3    3    0    0  0.37623005418E+02 -0.14542676797E+02 -0.81095123321E+01  0.41142972372E+02  0.51100000000E-03 0.  1.
         12    1    3    3    0    0 -0.27059927861E+02  0.21493686649E+02  0.70451479675E+01  0.35268291304E+02  0.00000000000E+00 0. -1.
</event>
<event>
 7    1  0.2895479E-015  0.9000684E+02  0.7816164E-02  0.1186341E+00
        -11   -1    0    0    0    0  0.00000000000E+00  0.00000000000E+00  0.45593999997E+02  0.45594000000E+02  0.51100000000E-03 0.  1.
         11   -1    0    0    0    0 -0.00000000000E+00 -0.00000000000E+00 -0.45593999997E+02  0.45594000000E+02  0.51100000000E-03 0. -1.
    9900012    2    1    2    0    0 -0.63760204687E+00  0.56213810370E+00 -0.82012457432E+00  0.90006839581E+02  0.89999089059E+02 0.  0.
        -12    1    1    2    0    0  0.63760204687E+00 -0.56213810370E+00  0.82012457432E+00  0.11811604189E+01  0.00000000000E+00 0.  1.
         11    1    3    3    0    0 -0.11234422782E+02 -0.38508789337E+01 -0.34040272691E+02  0.36052485198E+02  0.51100000000E-03 0. -1.
        -11    1    3    3    0    0  0.22386349944E+01 -0.35976257582E+01 -0.91219658165E+01  0.10058064344E+02  0.51100000000E-03 0.  1.
        -12    1    3    3    0    0  0.83581857411E+01  0.80106427957E+01  0.42342113933E+02  0.43896290039E+02  0.00000000000E+00 0.  1.
</event>
<event>
 7    1  0.2895479E-015  0.9000780E+02  0.7816164E-02  0.1186339E+00
        -11   -1    0    0    0    0  0.00000000000E+00  0.00000000000E+00  0.45593999997E+02  0.45594000000E+02  0.51100000000E-03 0. -1.
         11   -1    0    0    0    0 -0.00000000000E+00 -0.00000000000E+00 -0.45593999997E+02  0.45594000000E+02  0.51100000000E-03 0.  1.
    9900012    2    1    2    0    0 -0.10031023977E+01  0.61659907681E+00  0.80433172653E-01  0.90007797332E+02  0.90000059457E+02 0.  0.
        -12    1    1    2    0    0  0.10031023977E+01 -0.61659907681E+00 -0.80433172653E-01  0.11802026678E+01  0.00000000000E+00 0.  1.
         11    1    3    3    0    0 -0.11593462181E+02 -0.17828573273E+02 -0.19169542492E+02  0.28631062675E+02  0.51100000000E-03 0. -1.
        -11    1    3    3    0    0  0.87760098107E+01 -0.12544977414E+02 -0.10352554700E+02  0.18481617776E+02  0.51100000000E-03 0.  1.
        -12    1    3    3    0    0  0.18143499725E+01  0.30990149765E+02  0.29602530365E+02  0.42895116881E+02  0.00000000000E+00 0.  1.
</event>
<event>
 7    1  0.2895479E-015  0.9000779E+02  0.7816164E-02  0.1186339E+00
        -11   -1    0    0    0    0  0.00000000000E+00  0.00000000000E+00  0.45593999997E+02  0.45594000000E+02  0.51100000000E-03 0. -1.
         11   -1    0    0    0    0 -0.00000000000E+00 -0.00000000000E+00 -0.45593999997E+02  0.45594000000E+02  0.51100000000E-03 0.  1.
    9900012    2    1    2    0    0  0.10198851217E+01 -0.56280344047E+00 -0.18972028348E+00  0.90007785121E+02  0.90000047085E+02 0.  0.
        -12    1    1    2    0    0 -0.10198851217E+01  0.56280344047E+00  0.18972028348E+00  0.11802148787E+01  0.00000000000E+00 0.  1.
         11    1    3    3    0    0 -0.16739209380E+02 -0.29580569531E+01 -0.33143783246E+02  0.37248645609E+02  0.51100000000E-03 0. -1.
        -11    1    3    3    0    0 -0.67699284654E+01 -0.28525719069E+01 -0.37923271254E+01  0.82674568761E+01  0.51100000000E-03 0.  1.
        -12    1    3    3    0    0  0.24529022967E+02  0.52478254195E+01  0.36746390088E+02  0.44491682636E+02  0.00000000000E+00 0.  1.
</event>
<event>
 7    1  0.2895479E-015  0.9000771E+02  0.7816164E-02  0.1186339E+00
        -11   -1    0    0    0    0  0.00000000000E+00  0.00000000000E+00  0.45593999997E+02  0.45594000000E+02  0.51100000000E-03 0.  1.
         11   -1    0    0    0    0 -0.00000000000E+00 -0.00000000000E+00 -0.45593999997E+02  0.45594000000E+02  0.51100000000E-03 0. -1.
    9900012    2    1    2    0    0  0.51381466961E+00  0.10460917371E+01  0.18647441969E+00  0.90007709296E+02  0.89999970259E+02 0.  0.
        -12    1    1    2    0    0 -0.51381466961E+00 -0.10460917371E+01 -0.18647441969E+00  0.11802907042E+01  0.00000000000E+00 0.  1.
         11    1    3    3    0    0  0.11370706276E+00 -0.28678558830E+01 -0.12374834054E+02  0.12703308419E+02  0.51100000000E-03 0. -1.
        -11    1    3    3    0    0 -0.28050541657E+02  0.11940178155E+02  0.30174339483E+02  0.42893956511E+02  0.51100000000E-03 0.  1.
         12    1    3    3    0    0  0.28450649264E+02 -0.80262305353E+01 -0.17613031009E+02  0.34410444366E+02  0.00000000000E+00 0. -1.
</event>
<event>
 7    1  0.2895479E-015  0.9000772E+02  0.7816164E-02  0.1186339E+00
        -11   -1    0    0    0    0  0.00000000000E+00  0.00000000000E+00  0.45593999997E+02  0.45594000000E+02  0.51100000000E-03 0.  1.
         11   -1    0    0    0    0 -0.00000000000E+00 -0.00000000000E+00 -0.45593999997E+02  0.45594000000E+02  0.51100000000E-03 0. -1.
    9900012    2    1    2    0    0  0.37873457040E+00  0.25657710138E+00 -0.10880216196E+01  0.90007719216E+02  0.89999980310E+02 0.  0.
        -12    1    1    2    0    0 -0.37873457040E+00 -0.25657710138E+00  0.10880216196E+01  0.11802807837E+01  0.00000000000E+00 0.  1.
         11    1    3    3    0    0 -0.48415388196E+01  0.24951727479E+02  0.26755382276E+02  0.36903654064E+02  0.51100000000E-03 0. -1.
        -11    1    3    3    0    0 -0.19954230806E+00  0.86532001636E+01  0.95757381155E+00  0.87083085654E+01  0.51100000000E-03 0.  1.
        -12    1    3    3    0    0  0.54198156981E+01 -0.33348350541E+02 -0.28800977707E+02  0.44395756587E+02  0.00000000000E+00 0.  1.
</event>
<event>
 7    1  0.2895479E-015  0.9000767E+02  0.7816164E-02  0.1186339E+00
        -11   -1    0    0    0    0  0.00000000000E+00  0.00000000000E+00  0.45593999997E+02  0.45594000000E+02  0.51100000000E-03 0.  1.
         11   -1    0    0    0    0 -0.00000000000E+00 -0.00000000000E+00 -0.45593999997E+02  0.45594000000E+02  0.51100000000E-03 0. -1.
    9900012    2    1    2    0    0 -0.82190379502E+00  0.50335721970E+00  0.68138963786E+00  0.90007666921E+02  0.89999927324E+02 0.  0.
        -12    1    1    2    0    0  0.82190379502E+00 -0.50335721970E+00 -0.68138963786E+00  0.11803330790E+01  0.00000000000E+00 0.  1.
         11    1    3    3    0    0 -0.16104560173E+02  0.29146736020E+02 -0.23989365615E+02  0.41041183485E+02  0.51100000000E-03 0. -1.
        -11    1    3    3    0    0  0.94691505078E+01  0.28524475424E+01  0.31466094190E+01  0.10377977617E+02  0.51100000000E-03 0.  1.
        -12    1    3    3    0    0  0.58135058706E+01 -0.31495826342E+02  0.21524145834E+02  0.38588505819E+02  0.00000000000E+00 0.  1.
</event>
<event>
 7    1  0.2895479E-015  0.9000775E+02  0.7816164E-02  0.1186339E+00
        -11   -1    0    0    0    0  0.00000000000E+00  0.00000000000E+00  0.45593999997E+02  0.45594000000E+02  0.51100000000E-03 0.  1.
         11   -1    0    0    0    0 -0.00000000000E+00 -0.00000000000E+00 -0.45593999997E+02  0.45594000000E+02  0.51100000000E-03 0. -1.
    9900012    2    1    2    0    0 -0.90276190691E+00 -0.54893722787E+00  0.52601222609E+00  0.90007745789E+02  0.90000007233E+02 0.  0.
        -12    1    1    2    0    0  0.90276190691E+00  0.54893722787E+00 -0.52601222609E+00  0.11802542111E+01  0.00000000000E+00 0.  1.
         11    1    3    3    0    0  0.31566397240E+01  0.66062733242E+01 -0.95731262299E+01  0.12052052425E+02  0.51100000000E-03 0. -1.
        -11    1    3    3    0    0 -0.35834429004E+02 -0.22144629835E+02  0.67693276144E+01  0.42665146539E+02  0.51100000000E-03 0.  1.
         12    1    3    3    0    0  0.31775027373E+02  0.14989419283E+02  0.33298108416E+01  0.35290546825E+02  0.00000000000E+00 0. -1.
</event>
<event>
 7    1  0.2895479E-015  0.9000787E+02  0.7816164E-02  0.1186339E+00
        -11   -1    0    0    0    0  0.00000000000E+00  0.00000000000E+00  0.45593999997E+02  0.45594000000E+02  0.51100000000E-03 0.  1.
         11   -1    0    0    0    0 -0.00000000000E+00 -0.00000000000E+00 -0.45593999997E+02  0.45594000000E+02  0.51100000000E-03 0. -1.
    9900012    2    1    2    0    0  0.59289951532E+00 -0.25289705946E+00 -0.98854276902E+00  0.90007871378E+02  0.90000134480E+02 0.  0.
        -12    1    1    2    0    0 -0.59289951532E+00  0.25289705946E+00  0.98854276902E+00  0.11801286219E+01  0.00000000000E+00 0.  1.
         11    1    3    3    0    0  0.27255779458E+01  0.36221196780E+02 -0.20338939563E+02  0.41630233415E+02  0.51100000000E-03 0. -1.
        -11    1    3    3    0    0 -0.34473260810E+01  0.15491346739E+01  0.77170902710E+01  0.85928666846E+01  0.51100000000E-03 0.  1.
        -12    1    3    3    0    0  0.13146476506E+01 -0.38023228514E+02  0.11633306523E+02  0.39784771279E+02  0.00000000000E+00 0.  1.
</event>
<event>
 7    1  0.2895479E-015  0.9000779E+02  0.7816164E-02  0.1186339E+00
        -11   -1    0    0    0    0  0.00000000000E+00  0.00000000000E+00  0.45593999997E+02  0.45594000000E+02  0.51100000000E-03 0.  1.
         11   -1    0    0    0    0 -0.00000000000E+00 -0.00000000000E+00 -0.45593999997E+02  0.45594000000E+02  0.51100000000E-03 0. -1.
    9900012    2    1    2    0    0 -0.81437267237E+00 -0.73900158830E+00 -0.42844812596E+00  0.90007790699E+02  0.90000052736E+02 0.  0.
        -12    1    1    2    0    0  0.81437267237E+00  0.73900158830E+00  0.42844812596E+00  0.11802093008E+01  0.00000000000E+00 0.  1.
         11    1    3    3    0    0  0.69066320668E+01  0.19392361170E+01  0.59134122017E+01  0.92968084498E+01  0.51100000000E-03 0. -1.
        -11    1    3    3    0    0 -0.29154827147E+01  0.38222258021E+02 -0.92272020898E+01  0.39428191771E+02  0.51100000000E-03 0.  1.
         12    1    3    3    0    0 -0.48055220245E+01 -0.40900495726E+02  0.28853417621E+01  0.41282790478E+02  0.00000000000E+00 0. -1.
</event>
<event>
 7    1  0.2895479E-015  0.9000735E+02  0.7816164E-02  0.1186340E+00
        -11   -1    0    0    0    0  0.00000000000E+00  0.00000000000E+00  0.45593999997E+02  0.45594000000E+02  0.51100000000E-03 0.  1.
         11   -1    0    0    0    0 -0.00000000000E+00 -0.00000000000E+00 -0.45593999997E+02  0.45594000000E+02  0.51100000000E-03 0. -1.
    9900012    2    1    2    0    0 -0.11339076902E+01 -0.32688075644E+00  0.36449304072E-01  0.90007353469E+02  0.89999609734E+02 0.  0.
        -12    1    1    2    0    0  0.11339076902E+01  0.32688075644E+00 -0.36449304072E-01  0.11806465308E+01  0.00000000000E+00 0.  1.
         11    1    3    3    0    0  0.23003564696E+02  0.24294234964E+02 -0.74021300577E+01  0.34266096523E+02  0.51100000000E-03 0. -1.
        -11    1    3    3    0    0  0.10263791170E+02 -0.43759152846E+01 -0.71392244879E+01  0.13246228531E+02  0.51100000000E-03 0.  1.
        -12    1    3    3    0    0 -0.34401263556E+02 -0.20245200436E+02  0.14577803850E+02  0.42495028416E+02  0.00000000000E+00 0.  1.
</event>
<event>
 7    1  0.2895479E-015  0.9000802E+02  0.7816164E-02  0.1186338E+00
        -11   -1    0    0    0    0  0.00000000000E+00  0.00000000000E+00  0.45593999997E+02  0.45594000000E+02  0.51100000000E-03 0. -1.
         11   -1    0    0    0    0 -0.00000000000E+00 -0.00000000000E+00 -0.45593999997E+02  0.45594000000E+02  0.51100000000E-03 0.  1.
    9900012    2    1    2    0    0 -0.51786569274E+00 -0.10254523470E+01  0.26945621956E+00  0.90008023710E+02  0.90000288822E+02 0.  0.
        -12    1    1    2    0    0  0.51786569274E+00  0.10254523470E+01 -0.26945621956E+00  0.11799762904E+01  0.00000000000E+00 0.  1.
         11    1    3    3    0    0 -0.77194806047E+01 -0.19678557267E+01 -0.28922075105E+00  0.79716049746E+01  0.51100000000E-03 0. -1.
        -11    1    3    3    0    0  0.27617596129E+02  0.10981942966E+02 -0.31121409128E+02  0.43033438088E+02  0.51100000000E-03 0.  1.
         12    1    3    3    0    0 -0.20415981217E+02 -0.10039539586E+02  0.31680086099E+02  0.39002980647E+02  0.00000000000E+00 0. -1.
</event>
<event>
 7    1  0.2895479E-015  0.9000773E+02  0.7816164E-02  0.1186339E+00
        -11   -1    0    0    0    0  0.00000000000E+00  0.00000000000E+00  0.45593999997E+02  0.45594000000E+02  0.51100000000E-03 0.  1.
         11   -1    0    0    0    0 -0.00000000000E+00 -0.00000000000E+00 -0.45593999997E+02  0.45594000000E+02  0.51100000000E-03 0. -1.
    9900012    2    1    2    0    0 -0.15562266271E+00  0.62713809031E+00 -0.98768120647E+00  0.90007731063E+02  0.89999992313E+02 0.  0.
        -12    1    1    2    0    0  0.15562266271E+00 -0.62713809031E+00  0.98768120647E+00  0.11802689368E+01  0.00000000000E+00 0.  1.
         11    1    3    3    0    0 -0.22679515086E+02 -0.16139997970E+02 -0.23945820664E+02  0.36718690970E+02  0.51100000000E-03 0. -1.
        -11    1    3    3    0    0  0.21795841357E+01 -0.81793668018E+01 -0.56878950843E+01  0.10198273336E+02  0.51100000000E-03 0.  1.
        -12    1    3    3    0    0  0.20344308288E+02  0.24946502862E+02  0.28646034542E+02  0.43090766757E+02  0.00000000000E+00 0.  1.
</event>
<event>
 7    1  0.2895479E-015  0.9000771E+02  0.7816164E-02  0.1186339E+00
        -11   -1    0    0    0    0  0.00000000000E+00  0.00000000000E+00  0.45593999997E+02  0.45594000000E+02  0.51100000000E-03 0.  1.
         11   -1    0    0    0    0 -0.00000000000E+00 -0.00000000000E+00 -0.45593999997E+02  0.45594000000E+02  0.51100000000E-03 0. -1.
    9900012    2    1    2    0    0  0.26150217280E+00  0.11344942992E+01  0.19396142900E+00  0.90007711164E+02  0.89999972151E+02 0.  0.
        -12    1    1    2    0    0 -0.26150217280E+00 -0.11344942992E+01 -0.19396142900E+00  0.11802888364E+01  0.00000000000E+00 0.  1.
         11    1    3    3    0    0 -0.14649278143E+01  0.91070129010E+01 -0.40717383992E+02  0.41749120432E+02  0.51100000000E-03 0. -1.
        -11    1    3    3    0    0  0.88673575381E+01  0.29677908973E+00  0.39421656234E+01  0.97086959783E+01  0.51100000000E-03 0.  1.
        -12    1    3    3    0    0 -0.71409275509E+01 -0.82692976915E+01  0.36969179797E+02  0.38549894753E+02  0.00000000000E+00 0.  1.
</event>
<event>
 7    1  0.2895479E-015  0.9000742E+02  0.7816164E-02  0.1186340E+00
        -11   -1    0    0    0    0  0.00000000000E+00  0.00000000000E+00  0.45593999997E+02  0.45594000000E+02  0.51100000000E-03 0.  1.
         11   -1    0    0    0    0 -0.00000000000E+00 -0.00000000000E+00 -0.45593999997E+02  0.45594000000E+02  0.51100000000E-03 0. -1.
    9900012    2    1    2    0    0  0.10059195708E+00  0.81848908822E+00 -0.84481782964E+00  0.90007423745E+02  0.89999680938E+02 0.  0.
        -12    1    1    2    0    0 -0.10059195708E+00 -0.81848908822E+00  0.84481782964E+00  0.11805762553E+01  0.00000000000E+00 0.  1.
         11    1    3    3    0    0 -0.39229055987E+01 -0.76163036313E+01  0.69107765830E+01  0.11007093285E+02  0.51100000000E-03 0. -1.
        -11    1    3    3    0    0 -0.33696748579E+02  0.18011308897E+02 -0.11505756194E+02  0.39903139461E+02  0.51100000000E-03 0.  1.
         12    1    3    3    0    0  0.37720246135E+02 -0.95765161776E+01  0.37501617816E+01  0.39097190999E+02  0.00000000000E+00 0. -1.
</event>
<event>
 7    1  0.2895479E-015  0.9000773E+02  0.7816164E-02  0.1186339E+00
        -11   -1    0    0    0    0  0.00000000000E+00  0.00000000000E+00  0.45593999997E+02  0.45594000000E+02  0.51100000000E-03 0. -1.
         11   -1    0    0    0    0 -0.00000000000E+00 -0.00000000000E+00 -0.45593999997E+02  0.45594000000E+02  0.51100000000E-03 0.  1.
    9900012    2    1    2    0    0  0.71480195312E+00 -0.62162472476E-01 -0.93714193132E+00  0.90007728419E+02  0.89999989634E+02 0.  0.
        -12    1    1    2    0    0 -0.71480195312E+00  0.62162472476E-01  0.93714193132E+00  0.11802715809E+01  0.00000000000E+00 0.  1.
         11    1    3    3    0    0  0.33202308519E+02 -0.21562186155E+02  0.14474734044E+02  0.42152569183E+02  0.51100000000E-03 0. -1.
        -11    1    3    3    0    0 -0.19643629510E+01  0.12784803541E+02 -0.94019173747E+00  0.12968958483E+02  0.51100000000E-03 0.  1.
        -12    1    3    3    0    0 -0.30523143615E+02  0.87152201417E+01 -0.14471684238E+02  0.34886200753E+02  0.00000000000E+00 0.  1.
</event>
<event>
 7    1  0.2895479E-015  0.9000779E+02  0.7816164E-02  0.1186339E+00
        -11   -1    0    0    0    0  0.00000000000E+00  0.00000000000E+00  0.45593999997E+02  0.45594000000E+02  0.51100000000E-03 0. -1.
         11   -1    0    0    0    0 -0.00000000000E+00 -0.00000000000E+00 -0.45593999997E+02  0.45594000000E+02  0.51100000000E-03 0.  1.
    9900012    2    1    2    0    0  0.52767251118E+00 -0.27602793182E+00  0.10189568467E+01  0.90007786988E+02  0.90000048976E+02 0.  0.
        -12    1    1    2    0    0 -0.52767251118E+00  0.27602793182E+00 -0.10189568467E+01  0.11802130120E+01  0.00000000000E+00 0.  1.
         11    1    3    3    0    0  0.48748216758E+01  0.20587721676E+01 -0.37440805191E+01  0.64823273909E+01  0.51100000000E-03 0. -1.
        -11    1    3    3    0    0  0.10906599449E+02 -0.18081923401E+02 -0.33398777978E+02  0.39514405425E+02  0.51100000000E-03 0.  1.
         12    1    3    3    0    0 -0.15253748613E+02  0.15747123301E+02  0.38161815344E+02  0.44011054172E+02  0.00000000000E+00 0. -1.
</event>
<event>
 7    1  0.2895479E-015  0.9000759E+02  0.7816164E-02  0.1186339E+00
        -11   -1    0    0    0    0  0.00000000000E+00  0.00000000000E+00  0.45593999997E+02  0.45594000000E+02  0.51100000000E-03 0. -1.
         11   -1    0    0    0    0 -0.00000000000E+00 -0.00000000000E+00 -0.45593999997E+02  0.45594000000E+02  0.51100000000E-03 0.  1.
    9900012    2    1    2    0    0 -0.58828867348E+00 -0.78421913706E+00  0.65747816748E+00  0.90007592969E+02  0.89999852396E+02 0.  0.
        -12    1    1    2    0    0  0.58828867348E+00  0.78421913706E+00 -0.65747816748E+00  0.11804070311E+01  0.00000000000E+00 0.  1.
         11    1    3    3    0    0 -0.42326351337E+01  0.32716575576E+01  0.49911687249E+01  0.73164683318E+01  0.51100000000E-03 0. -1.
        -11    1    3    3    0    0 -0.27443853782E+02 -0.20587179246E+02 -0.24460431810E+02  0.42134425169E+02  0.51100000000E-03 0.  1.
         12    1    3    3    0    0  0.31088200242E+02  0.16531302551E+02  0.20126741253E+02  0.40556699468E+02  0.00000000000E+00 0. -1.
</event>
<event>
 7    1  0.2895479E-015  0.9000781E+02  0.7816164E-02  0.1186339E+00
        -11   -1    0    0    0    0  0.00000000000E+00  0.00000000000E+00  0.45593999997E+02  0.45594000000E+02  0.51100000000E-03 0.  1.
         11   -1    0    0    0    0 -0.00000000000E+00 -0.00000000000E+00 -0.45593999997E+02  0.45594000000E+02  0.51100000000E-03 0. -1.
    9900012    2    1    2    0    0 -0.89646941582E+00  0.74464898514E+00 -0.18623087238E+00  0.90007812954E+02  0.90000075285E+02 0.  0.
        -12    1    1    2    0    0  0.89646941582E+00 -0.74464898514E+00  0.18623087238E+00  0.11801870455E+01  0.00000000000E+00 0.  1.
         11    1    3    3    0    0 -0.30005974238E+02  0.91866093811E+00 -0.26538507401E+02  0.40068626171E+02  0.51100000000E-03 0. -1.
        -11    1    3    3    0    0  0.37004407627E+01  0.49929645500E+01 -0.58912696291E+01  0.85632946311E+01  0.51100000000E-03 0.  1.
        -12    1    3    3    0    0  0.25409064060E+02 -0.51669765030E+01  0.32243546158E+02  0.41375892152E+02  0.00000000000E+00 0.  1.
</event>
<event>
 7    1  0.2895479E-015  0.9000785E+02  0.7816164E-02  0.1186339E+00
        -11   -1    0    0    0    0  0.00000000000E+00  0.00000000000E+00  0.45593999997E+02  0.45594000000E+02  0.51100000000E-03 0. -1.
         11   -1    0    0    0    0 -0.00000000000E+00 -0.00000000000E+00 -0.45593999997E+02  0.45594000000E+02  0.51100000000E-03 0.  1.
    9900012    2    1    2    0    0  0.46363851000E+00  0.75218242900E+00  0.78232015127E+00  0.90007845818E+02  0.90000108583E+02 0.  0.
        -12    1    1    2    0    0 -0.46363851000E+00 -0.75218242900E+00 -0.78232015127E+00  0.11801541821E+01  0.00000000000E+00 0.  1.
         11    1    3    3    0    0  0.30297711786E+02  0.75239692954E+01  0.20666923819E+02  0.37439059735E+02  0.51100000000E-03 0. -1.
        -11    1    3    3    0    0 -0.27722579714E+01  0.17582325424E+01  0.10496684890E+02  0.10998053913E+02  0.51100000000E-03 0.  1.
        -12    1    3    3    0    0 -0.27061815304E+02 -0.85300194089E+01 -0.30381288558E+02  0.41570732170E+02  0.00000000000E+00 0.  1.
</event>
<event>
 7    1  0.2895479E-015  0.9000778E+02  0.7816164E-02  0.1186339E+00
        -11   -1    0    0    0    0  0.00000000000E+00  0.00000000000E+00  0.45593999997E+02  0.45594000000E+02  0.51100000000E-03 0. -1.
         11   -1    0    0    0    0 -0.00000000000E+00 -0.00000000000E+00 -0.45593999997E+02  0.45594000000E+02  0.51100000000E-03 0.  1.
    9900012    2    1    2    0    0 -0.13643967456E+00  0.28799409784E+00  0.11363854704E+01  0.90007776156E+02  0.90000038001E+02 0.  0.
        -12    1    1    2    0    0  0.13643967456E+00 -0.28799409784E+00 -0.11363854704E+01  0.11802238442E+01  0.00000000000E+00 0.  1.
         11    1    3    3    0    0  0.30218094939E+01  0.28916869764E+00  0.80217266460E+01  0.85768904503E+01  0.51100000000E-03 0. -1.
        -11    1    3    3    0    0  0.36898299023E+02 -0.12157860258E+02  0.86263639128E+00  0.38859261170E+02  0.51100000000E-03 0.  1.
         12    1    3    3    0    0 -0.40056548192E+02  0.12156685658E+02 -0.77479775669E+01  0.42571624536E+02  0.00000000000E+00 0. -1.
</event>
<event>
 7    1  0.2895479E-015  0.9000758E+02  0.7816164E-02  0.1186339E+00
        -11   -1    0    0    0    0  0.00000000000E+00  0.00000000000E+00  0.45593999997E+02  0.45594000000E+02  0.51100000000E-03 0.  1.
         11   -1    0    0    0    0 -0.00000000000E+00 -0.00000000000E+00 -0.45593999997E+02  0.45594000000E+02  0.51100000000E-03 0. -1.
    9900012    2    1    2    0    0  0.98503639419E+00 -0.64684125436E+00 -0.68502207114E-01  0.90007579372E+02  0.89999838620E+02 0.  0.
        -12    1    1    2    0    0 -0.98503639419E+00  0.64684125436E+00  0.68502207114E-01  0.11804206278E+01  0.00000000000E+00 0.  1.
         11    1    3    3    0    0  0.60989055347E+01  0.46645696058E+00  0.57588470769E+01  0.84011041377E+01  0.51100000000E-03 0. -1.
        -11    1    3    3    0    0 -0.31222052233E+02 -0.29412810889E+02 -0.32140612536E+01  0.43014650760E+02  0.51100000000E-03 0.  1.
         12    1    3    3    0    0  0.26108183092E+02  0.28299512674E+02 -0.26132880305E+01  0.38591824475E+02  0.00000000000E+00 0. -1.
</event>
<event>
 7    1  0.2895479E-015  0.9000766E+02  0.7816164E-02  0.1186339E+00
        -11   -1    0    0    0    0  0.00000000000E+00  0.00000000000E+00  0.45593999997E+02  0.45594000000E+02  0.51100000000E-03 0. -1.
         11   -1    0    0    0    0 -0.00000000000E+00 -0.00000000000E+00 -0.45593999997E+02  0.45594000000E+02  0.51100000000E-03 0.  1.
    9900012    2    1    2    0    0 -0.40984106821E+00 -0.10895478971E+01  0.19524579694E+00  0.90007658845E+02  0.89999919142E+02 0.  0.
        -12    1    1    2    0    0  0.40984106821E+00  0.10895478971E+01 -0.19524579694E+00  0.11803411551E+01  0.00000000000E+00 0.  1.
         11    1    3    3    0    0 -0.15460212317E+01  0.46441659079E+01 -0.81118945926E+01  0.94742436517E+01  0.51100000000E-03 0. -1.
        -11    1    3    3    0    0  0.28387754579E+02  0.35227332552E+01 -0.23946625210E+02  0.37305698209E+02  0.51100000000E-03 0.  1.
         12    1    3    3    0    0 -0.27251574416E+02 -0.92564470601E+01  0.32253765600E+02  0.43227716984E+02  0.00000000000E+00 0. -1.
</event>
<event>
 7    1  0.2895479E-015  0.9000766E+02  0.7816164E-02  0.1186339E+00
        -11   -1    0    0    0    0  0.00000000000E+00  0.00000000000E+00  0.45593999997E+02  0.45594000000E+02  0.51100000000E-03 0. -1.
         11   -1    0    0    0    0 -0.00000000000E+00 -0.00000000000E+00 -0.45593999997E+02  0.45594000000E+02  0.51100000000E-03 0.  1.
    9900012    2    1    2    0    0  0.10218327968E+01  0.40069134489E-01  0.58944836723E+00  0.90007662261E+02  0.89999922603E+02 0.  0.
        -12    1    1    2    0    0 -0.10218327968E+01 -0.40069134489E-01 -0.58944836723E+00  0.11803377389E+01  0.00000000000E+00 0.  1.
         11    1    3    3    0    0 -0.95914155091E+01 -0.53902859102E+01 -0.11457215412E+02  0.15884527658E+02  0.51100000000E-03 0. -1.
        -11    1    3    3    0    0  0.14330146095E+02 -0.31383046337E+02 -0.19710806758E+01  0.34556241749E+02  0.51100000000E-03 0.  1.
         12    1    3    3    0    0 -0.37168977890E+01  0.36813401382E+02  0.14017744455E+02  0.39566892854E+02  0.00000000000E+00 0. -1.
</event>
<event>
 7    1  0.2895479E-015  0.9000776E+02  0.7816164E-02  0.1186339E+00
        -11   -1    0    0    0    0  0.00000000000E+00  0.00000000000E+00  0.45593999997E+02  0.45594000000E+02  0.51100000000E-03 0.  1.
         11   -1    0    0    0    0 -0.00000000000E+00 -0.00000000000E+00 -0.45593999997E+02  0.45594000000E+02  0.51100000000E-03 0. -1.
    9900012    2    1    2    0    0 -0.22833926111E+00 -0.10138081114E+01 -0.55948404570E+00  0.90007759303E+02  0.90000020926E+02 0.  0.
        -12    1    1    2    0    0  0.22833926111E+00  0.10138081114E+01  0.55948404570E+00  0.11802406968E+01  0.00000000000E+00 0.  1.
         11    1    3    3    0    0  0.21431463691E+02  0.30157279842E+02  0.12860274777E+02  0.39168301355E+02  0.51100000000E-03 0. -1.
        -11    1    3    3    0    0  0.75175445206E+01 -0.33237149565E+01 -0.50491877002E+01  0.96464943593E+01  0.51100000000E-03 0.  1.
        -12    1    3    3    0    0 -0.29177347473E+02 -0.27847372997E+02 -0.83705711229E+01  0.41192963589E+02  0.00000000000E+00 0.  1.
</event>
<event>
 7    1  0.2895479E-015  0.9000779E+02  0.7816164E-02  0.1186339E+00
        -11   -1    0    0    0    0  0.00000000000E+00  0.00000000000E+00  0.45593999997E+02  0.45594000000E+02  0.51100000000E-03 0.  1.
         11   -1    0    0    0    0 -0.00000000000E+00 -0.00000000000E+00 -0.45593999997E+02  0.45594000000E+02  0.51100000000E-03 0. -1.
    9900012    2    1    2    0    0  0.12699747681E+00  0.38594054305E+00 -0.11080690479E+01  0.90007790071E+02  0.90000052100E+02 0.  0.
        -12    1    1    2    0    0 -0.12699747681E+00 -0.38594054305E+00  0.11080690479E+01  0.11802099292E+01  0.00000000000E+00 0.  1.
         11    1    3    3    0    0  0.49993029781E+00  0.34824127206E+02 -0.12578736070E+02  0.37029641739E+02  0.51100000000E-03 0. -1.
        -11    1    3    3    0    0  0.51458933536E+01  0.49517116872E+01 -0.61977723489E+01  0.94557944875E+01  0.51100000000E-03 0.  1.
        -12    1    3    3    0    0 -0.55188261746E+01 -0.39389898350E+02  0.17668439371E+02  0.43522353844E+02  0.00000000000E+00 0.  1.
</event>
<event>
 7    1  0.2895479E-015  0.9000772E+02  0.7816164E-02  0.1186339E+00
        -11   -1    0    0    0    0  0.00000000000E+00  0.00000000000E+00  0.45593999997E+02  0.45594000000E+02  0.51100000000E-03 0.  1.
         11   -1    0    0    0    0 -0.00000000000E+00 -0.00000000000E+00 -0.45593999997E+02  0.45594000000E+02  0.51100000000E-03 0. -1.
    9900012    2    1    2    0    0 -0.10338969570E+01 -0.56559243809E+00 -0.64909031577E-01  0.90007724225E+02  0.89999985384E+02 0.  0.
        -12    1    1    2    0    0  0.10338969570E+01  0.56559243809E+00  0.64909031577E-01  0.11802757754E+01  0.00000000000E+00 0.  1.
         11    1    3    3    0    0  0.16528370908E+02  0.30101642671E+02 -0.83995742270E+01  0.35353200475E+02  0.51100000000E-03 0. -1.
        -11    1    3    3    0    0  0.62654631631E+01  0.35919116906E+01 -0.71318027880E+01  0.10149899975E+02  0.51100000000E-03 0.  1.
        -12    1    3    3    0    0 -0.23827731028E+02 -0.34259146800E+02  0.15466467983E+02  0.44504623774E+02  0.00000000000E+00 0.  1.
</event>
<event>
 7    1  0.2895479E-015  0.9000771E+02  0.7816164E-02  0.1186339E+00
        -11   -1    0    0    0    0  0.00000000000E+00  0.00000000000E+00  0.45593999997E+02  0.45594000000E+02  0.51100000000E-03 0.  1.
         11   -1    0    0    0    0 -0.00000000000E+00 -0.00000000000E+00 -0.45593999997E+02  0.45594000000E+02  0.51100000000E-03 0. -1.
    9900012    2    1    2    0    0  0.58143650006E+00  0.81032399810E+00 -0.63118578617E+00  0.90007708137E+02  0.89999969084E+02 0.  0.
        -12    1    1    2    0    0 -0.58143650006E+00 -0.81032399810E+00  0.63118578617E+00  0.11802918631E+01  0.00000000000E+00 0.  1.
         11    1    3    3    0    0 -0.22714842098E+02 -0.96717176582E+00  0.20208414800E+02  0.30418407285E+02  0.51100000000E-03 0. -1.
        -11    1    3    3    0    0 -0.54076977545E+01 -0.10986316301E+02  0.98178381868E+01  0.15694976515E+02  0.51100000000E-03 0.  1.
         12    1    3    3    0    0  0.28703976353E+02  0.12763812065E+02 -0.30657438773E+02  0.43894324337E+02  0.00000000000E+00 0. -1.
</event>
<event>
 7    1  0.2895479E-015  0.9000774E+02  0.7816164E-02  0.1186339E+00
        -11   -1    0    0    0    0  0.00000000000E+00  0.00000000000E+00  0.45593999997E+02  0.45594000000E+02  0.51100000000E-03 0.  1.
         11   -1    0    0    0    0 -0.00000000000E+00 -0.00000000000E+00 -0.45593999997E+02  0.45594000000E+02  0.51100000000E-03 0. -1.
    9900012    2    1    2    0    0  0.67237769928E+00 -0.23626548647E+00 -0.94080063146E+00  0.90007737750E+02  0.89999999088E+02 0.  0.
        -12    1    1    2    0    0 -0.67237769928E+00  0.23626548647E+00  0.94080063146E+00  0.11802622500E+01  0.00000000000E+00 0.  1.
         11    1    3    3    0    0  0.37455586680E+02 -0.21348620564E+01 -0.12960455826E+01  0.37538757891E+02  0.51100000000E-03 0. -1.
        -11    1    3    3    0    0  0.60731735586E+01 -0.57038295330E+01  0.30196929429E+01  0.88620344247E+01  0.51100000000E-03 0.  1.
        -12    1    3    3    0    0 -0.42856382540E+02  0.76024261029E+01 -0.26644479918E+01  0.43606945435E+02  0.00000000000E+00 0.  1.
</event>
<event>
 7    1  0.2895479E-015  0.9000768E+02  0.7816164E-02  0.1186339E+00
        -11   -1    0    0    0    0  0.00000000000E+00  0.00000000000E+00  0.45593999997E+02  0.45594000000E+02  0.51100000000E-03 0.  1.
         11   -1    0    0    0    0 -0.00000000000E+00 -0.00000000000E+00 -0.45593999997E+02  0.45594000000E+02  0.51100000000E-03 0. -1.
    9900012    2    1    2    0    0 -0.46801214875E+00 -0.75089623024E-01  0.10809591189E+01  0.90007683754E+02  0.89999944380E+02 0.  0.
        -12    1    1    2    0    0  0.46801214875E+00  0.75089623024E-01 -0.10809591189E+01  0.11803162456E+01  0.00000000000E+00 0.  1.
         11    1    3    3    0    0 -0.20882307894E+02  0.15851617174E+02 -0.19399160915E+01  0.26288929699E+02  0.51100000000E-03 0. -1.
        -11    1    3    3    0    0 -0.89688670601E+01  0.51247962424E+01  0.20959078549E+02  0.23366366572E+02  0.51100000000E-03 0.  1.
        -12    1    3    3    0    0  0.29383162805E+02 -0.21051503039E+02 -0.17938203339E+02  0.40352387484E+02  0.00000000000E+00 0.  1.
</event>
<event>
 7    1  0.2895479E-015  0.9000831E+02  0.7816164E-02  0.1186338E+00
        -11   -1    0    0    0    0  0.00000000000E+00  0.00000000000E+00  0.45593999997E+02  0.45594000000E+02  0.51100000000E-03 0. -1.
         11   -1    0    0    0    0 -0.00000000000E+00 -0.00000000000E+00 -0.45593999997E+02  0.45594000000E+02  0.51100000000E-03 0.  1.
    9900012    2    1    2    0    0  0.10126322150E+01  0.25802315171E+00  0.54741525980E+00  0.90008312153E+02  0.90000581072E+02 0.  0.
        -12    1    1    2    0    0 -0.10126322150E+01 -0.25802315171E+00 -0.54741525980E+00  0.11796878470E+01  0.00000000000E+00 0.  1.
         11    1    3    3    0    0  0.24433868633E-01 -0.70513072009E+01  0.39588616459E+02  0.40211690883E+02  0.51100000000E-03 0. -1.
        -11    1    3    3    0    0  0.78382676614E+01  0.67971691529E+01 -0.22511553428E+00  0.10377409392E+02  0.51100000000E-03 0.  1.
        -12    1    3    3    0    0 -0.68500693150E+01  0.51216119972E+00 -0.38816085665E+02  0.39419211878E+02  0.00000000000E+00 0.  1.
</event>
<event>
 7    1  0.2895479E-015  0.9000768E+02  0.7816164E-02  0.1186339E+00
        -11   -1    0    0    0    0  0.00000000000E+00  0.00000000000E+00  0.45593999997E+02  0.45594000000E+02  0.51100000000E-03 0. -1.
         11   -1    0    0    0    0 -0.00000000000E+00 -0.00000000000E+00 -0.45593999997E+02  0.45594000000E+02  0.51100000000E-03 0.  1.
    9900012    2    1    2    0    0  0.17206997124E+00 -0.11281340470E+01  0.30143967412E+00  0.90007677849E+02  0.89999938397E+02 0.  0.
        -12    1    1    2    0    0 -0.17206997124E+00  0.11281340470E+01 -0.30143967412E+00  0.11803221510E+01  0.00000000000E+00 0.  1.
         11    1    3    3    0    0  0.10076701821E+02 -0.29715137906E+02 -0.21899495803E+02  0.38263785189E+02  0.51100000000E-03 0. -1.
        -11    1    3    3    0    0  0.48826488662E+01  0.38590168857E+01 -0.79127088240E+01  0.10066937591E+02  0.51100000000E-03 0.  1.
        -12    1    3    3    0    0 -0.14787280716E+02  0.24727986973E+02  0.30113644301E+02  0.41676955068E+02  0.00000000000E+00 0.  1.
</event>
<event>
 7    1  0.2895479E-015  0.9000831E+02  0.7816164E-02  0.1186338E+00
        -11   -1    0    0    0    0  0.00000000000E+00  0.00000000000E+00  0.45593999997E+02  0.45594000000E+02  0.51100000000E-03 0.  1.
         11   -1    0    0    0    0 -0.00000000000E+00 -0.00000000000E+00 -0.45593999997E+02  0.45594000000E+02  0.51100000000E-03 0. -1.
    9900012    2    1    2    0    0 -0.46771945494E-01 -0.53797898913E-01 -0.11775342287E+01  0.90008309918E+02  0.90000578807E+02 0.  0.
        -12    1    1    2    0    0  0.46771945494E-01  0.53797898913E-01  0.11775342287E+01  0.11796900816E+01  0.00000000000E+00 0.  1.
         11    1    3    3    0    0  0.76239206580E+01 -0.41948739273E+00 -0.61828845970E+01  0.98248764915E+01  0.51100000000E-03 0. -1.
        -11    1    3    3    0    0 -0.40105201407E+01  0.14155756462E+02  0.39877686002E+02  0.42505288541E+02  0.51100000000E-03 0.  1.
         12    1    3    3    0    0 -0.36601724628E+01 -0.13790066968E+02 -0.34872335634E+02  0.37678144886E+02  0.00000000000E+00 0. -1.
</event>
<event>
 7    1  0.2895479E-015  0.9000778E+02  0.7816164E-02  0.1186339E+00
        -11   -1    0    0    0    0  0.00000000000E+00  0.00000000000E+00  0.45593999997E+02  0.45594000000E+02  0.51100000000E-03 0.  1.
         11   -1    0    0    0    0 -0.00000000000E+00 -0.00000000000E+00 -0.45593999997E+02  0.45594000000E+02  0.51100000000E-03 0. -1.
    9900012    2    1    2    0    0  0.97794388183E+00  0.44324872207E+00 -0.48996799577E+00  0.90007782943E+02  0.90000044877E+02 0.  0.
        -12    1    1    2    0    0 -0.97794388183E+00 -0.44324872207E+00  0.48996799577E+00  0.11802170574E+01  0.00000000000E+00 0.  1.
         11    1    3    3    0    0  0.17940325537E+00  0.78267390256E+01 -0.25667326003E+01  0.82388194425E+01  0.51100000000E-03 0. -1.
        -11    1    3    3    0    0 -0.22477275274E+02 -0.31173489543E+02  0.20677427765E+02  0.43641383723E+02  0.51100000000E-03 0.  1.
         12    1    3    3    0    0  0.23275815901E+02  0.23789999240E+02 -0.18600663160E+02  0.38127579777E+02  0.00000000000E+00 0. -1.
</event>
<event>
 7    1  0.2895479E-015  0.9000770E+02  0.7816164E-02  0.1186339E+00
        -11   -1    0    0    0    0  0.00000000000E+00  0.00000000000E+00  0.45593999997E+02  0.45594000000E+02  0.51100000000E-03 0.  1.
         11   -1    0    0    0    0 -0.00000000000E+00 -0.00000000000E+00 -0.45593999997E+02  0.45594000000E+02  0.51100000000E-03 0. -1.
    9900012    2    1    2    0    0  0.24412184165E+00 -0.12923589979E+00  0.11475267982E+01  0.90007697012E+02  0.89999957812E+02 0.  0.
        -12    1    1    2    0    0 -0.24412184165E+00  0.12923589979E+00 -0.11475267982E+01  0.11803029882E+01  0.00000000000E+00 0.  1.
         11    1    3    3    0    0 -0.66608197470E+01 -0.15188875689E+02 -0.29094020768E+01  0.16838440697E+02  0.51100000000E-03 0. -1.
        -11    1    3    3    0    0 -0.89358685369E+01  0.34581447815E+02  0.22300136240E+02  0.42107272009E+02  0.51100000000E-03 0.  1.
         12    1    3    3    0    0  0.15840810126E+02 -0.19521808026E+02 -0.18243207365E+02  0.31061984306E+02  0.00000000000E+00 0. -1.
</event>
<event>
 7    1  0.2895479E-015  0.9000787E+02  0.7816164E-02  0.1186339E+00
        -11   -1    0    0    0    0  0.00000000000E+00  0.00000000000E+00  0.45593999997E+02  0.45594000000E+02  0.51100000000E-03 0. -1.
         11   -1    0    0    0    0 -0.00000000000E+00 -0.00000000000E+00 -0.45593999997E+02  0.45594000000E+02  0.51100000000E-03 0.  1.
    9900012    2    1    2    0    0 -0.65587619321E-01 -0.53857182905E+00  0.10480193041E+01  0.90007870425E+02  0.90000133515E+02 0.  0.
        -12    1    1    2    0    0  0.65587619321E-01  0.53857182905E+00 -0.10480193041E+01  0.11801295745E+01  0.00000000000E+00 0.  1.
         11    1    3    3    0    0  0.45409405484E+01  0.20460046112E+01 -0.74146863045E+01  0.89321805394E+01  0.51100000000E-03 0. -1.
        -11    1    3    3    0    0 -0.11833902155E+01  0.31595491433E+02  0.27410798599E+02  0.41845278962E+02  0.51100000000E-03 0.  1.
         12    1    3    3    0    0 -0.34231379523E+01 -0.34180067873E+02 -0.18948092991E+02  0.39230410924E+02  0.00000000000E+00 0. -1.
</event>
<event>
 7    1  0.2895479E-015  0.9000777E+02  0.7816164E-02  0.1186339E+00
        -11   -1    0    0    0    0  0.00000000000E+00  0.00000000000E+00  0.45593999997E+02  0.45594000000E+02  0.51100000000E-03 0.  1.
         11   -1    0    0    0    0 -0.00000000000E+00 -0.00000000000E+00 -0.45593999997E+02  0.45594000000E+02  0.51100000000E-03 0. -1.
    9900012    2    1    2    0    0  0.10334659676E+01 -0.12850392800E+00  0.55531169304E+00  0.90007772801E+02  0.90000034602E+02 0.  0.
        -12    1    1    2    0    0 -0.10334659676E+01  0.12850392800E+00 -0.55531169304E+00  0.11802271994E+01  0.00000000000E+00 0.  1.
         11    1    3    3    0    0 -0.24037394676E+00 -0.10412762422E+02  0.91303733833E-01  0.10415936709E+02  0.51100000000E-03 0. -1.
        -11    1    3    3    0    0 -0.15823243226E+02 -0.97360776346E+01  0.32919882663E+02  0.37800594026E+02  0.51100000000E-03 0.  1.
         12    1    3    3    0    0  0.17097083140E+02  0.20020336129E+02 -0.32455874704E+02  0.41791242066E+02  0.00000000000E+00 0. -1.
</event>
<event>
 7    1  0.2895479E-015  0.9000778E+02  0.7816164E-02  0.1186339E+00
        -11   -1    0    0    0    0  0.00000000000E+00  0.00000000000E+00  0.45593999997E+02  0.45594000000E+02  0.51100000000E-03 0.  1.
         11   -1    0    0    0    0 -0.00000000000E+00 -0.00000000000E+00 -0.45593999997E+02  0.45594000000E+02  0.51100000000E-03 0. -1.
    9900012    2    1    2    0    0 -0.35414729020E+00 -0.17802130821E+00 -0.11116675699E+01  0.90007781090E+02  0.90000043001E+02 0.  0.
        -12    1    1    2    0    0  0.35414729020E+00  0.17802130821E+00  0.11116675699E+01  0.11802189099E+01  0.00000000000E+00 0.  1.
         11    1    3    3    0    0  0.10070856766E+02  0.20845522324E+02 -0.28109250851E+02  0.36415490394E+02  0.51100000000E-03 0. -1.
        -11    1    3    3    0    0  0.83309858678E+01 -0.33996953389E+01 -0.66799016451E+01  0.11206441905E+02  0.51100000000E-03 0.  1.
        -12    1    3    3    0    0 -0.18755989924E+02 -0.17623848294E+02  0.33677484927E+02  0.42385848790E+02  0.00000000000E+00 0.  1.
</event>
<event>
 7    1  0.2895479E-015  0.9000771E+02  0.7816164E-02  0.1186339E+00
        -11   -1    0    0    0    0  0.00000000000E+00  0.00000000000E+00  0.45593999997E+02  0.45594000000E+02  0.51100000000E-03 0.  1.
         11   -1    0    0    0    0 -0.00000000000E+00 -0.00000000000E+00 -0.45593999997E+02  0.45594000000E+02  0.51100000000E-03 0. -1.
    9900012    2    1    2    0    0 -0.73343895111E+00  0.91556655156E+00  0.12996882914E+00  0.90007709060E+02  0.89999970020E+02 0.  0.
        -12    1    1    2    0    0  0.73343895111E+00 -0.91556655156E+00 -0.12996882914E+00  0.11802909395E+01  0.00000000000E+00 0.  1.
         11    1    3    3    0    0 -0.20229269616E+02 -0.14932882304E+02 -0.28947235454E+02  0.38342623330E+02  0.51100000000E-03 0. -1.
        -11    1    3    3    0    0 -0.54551207014E+01 -0.51365075684E+01 -0.68091556600E+00  0.75236758394E+01  0.51100000000E-03 0.  1.
        -12    1    3    3    0    0  0.24950951366E+02  0.20984956424E+02  0.29758119850E+02  0.44141409891E+02  0.00000000000E+00 0.  1.
</event>
<event>
 7    1  0.3255557E-015  0.9000771E+02  0.7816164E-02  0.1186339E+00
        -11   -1    0    0    0    0  0.00000000000E+00  0.00000000000E+00  0.45593999997E+02  0.45594000000E+02  0.51100000000E-03 0. -1.
         11   -1    0    0    0    0 -0.00000000000E+00 -0.00000000000E+00 -0.45593999997E+02  0.45594000000E+02  0.51100000000E-03 0.  1.
    9900012    2    1    2    0    0 -0.43093936688E-02 -0.53444446515E+00  0.10523471575E+01  0.90007710206E+02  0.89999971181E+02 0.  0.
        -12    1    1    2    0    0  0.43093936688E-02  0.53444446515E+00 -0.10523471575E+01  0.11802897937E+01  0.00000000000E+00 0.  1.
         11    1    3    3    0    0 -0.12669784322E+01  0.54907535371E+00 -0.10018551456E+02  0.10113263154E+02  0.51100000000E-03 0. -1.
        -11    1    3    3    0    0  0.19081853582E+02  0.13736329254E+02 -0.26701972739E+02  0.35578072262E+02  0.51100000000E-03 0.  1.
         12    1    3    3    0    0 -0.17819184544E+02 -0.14819849073E+02  0.37772871352E+02  0.44316374790E+02  0.00000000000E+00 0. -1.
</event>
<event>
 7    1  0.2895479E-015  0.9000775E+02  0.7816164E-02  0.1186339E+00
        -11   -1    0    0    0    0  0.00000000000E+00  0.00000000000E+00  0.45593999997E+02  0.45594000000E+02  0.51100000000E-03 0. -1.
         11   -1    0    0    0    0 -0.00000000000E+00 -0.00000000000E+00 -0.45593999997E+02  0.45594000000E+02  0.51100000000E-03 0.  1.
    9900012    2    1    2    0    0 -0.22834613439E+00  0.76034845685E+00  0.87333892782E+00  0.90007748918E+02  0.90000010404E+02 0.  0.
        -12    1    1    2    0    0  0.22834613439E+00 -0.76034845685E+00 -0.87333892782E+00  0.11802510817E+01  0.00000000000E+00 0.  1.
         11    1    3    3    0    0  0.32977450538E+02  0.69566615603E+01 -0.97784037672E+01  0.35093084284E+02  0.51100000000E-03 0. -1.
        -11    1    3    3    0    0  0.73797169990E+01 -0.75018402392E+01 -0.46710563113E+01  0.11513322600E+02  0.51100000000E-03 0.  1.
        -12    1    3    3    0    0 -0.40585513671E+02  0.13055271357E+01  0.15322799006E+02  0.43401342035E+02  0.00000000000E+00 0.  1.
</event>
<event>
 7    1  0.2895479E-015  0.9000766E+02  0.7816164E-02  0.1186339E+00
        -11   -1    0    0    0    0  0.00000000000E+00  0.00000000000E+00  0.45593999997E+02  0.45594000000E+02  0.51100000000E-03 0. -1.
         11   -1    0    0    0    0 -0.00000000000E+00 -0.00000000000E+00 -0.45593999997E+02  0.45594000000E+02  0.51100000000E-03 0.  1.
    9900012    2    1    2    0    0  0.91425246296E+00  0.71423182010E+00  0.21728206624E+00  0.90007662694E+02  0.89999923042E+02 0.  0.
        -12    1    1    2    0    0 -0.91425246296E+00 -0.71423182010E+00 -0.21728206624E+00  0.11803373057E+01  0.00000000000E+00 0.  1.
         11    1    3    3    0    0 -0.13887168820E+02  0.33536081715E+02  0.15666405770E+02  0.39534270003E+02  0.51100000000E-03 0. -1.
        -11    1    3    3    0    0  0.14642219162E+01  0.63751483737E+01 -0.32844178129E+01  0.73194168645E+01  0.51100000000E-03 0.  1.
        -12    1    3    3    0    0  0.13337199367E+02 -0.39196998269E+02 -0.12164705891E+02  0.43153975827E+02  0.00000000000E+00 0.  1.
</event>
<event>
 7    1  0.2895479E-015  0.9000775E+02  0.7816164E-02  0.1186339E+00
        -11   -1    0    0    0    0  0.00000000000E+00  0.00000000000E+00  0.45593999997E+02  0.45594000000E+02  0.51100000000E-03 0.  1.
         11   -1    0    0    0    0 -0.00000000000E+00 -0.00000000000E+00 -0.45593999997E+02  0.45594000000E+02  0.51100000000E-03 0. -1.
    9900012    2    1    2    0    0  0.67325712513E+00 -0.44109431535E+00 -0.86322445495E+00  0.90007747565E+02  0.90000009032E+02 0.  0.
        -12    1    1    2    0    0 -0.67325712513E+00  0.44109431535E+00  0.86322445495E+00  0.11802524354E+01  0.00000000000E+00 0.  1.
         11    1    3    3    0    0  0.18335611675E+01 -0.26744878934E+02 -0.33733689566E+02  0.43088424289E+02  0.51100000000E-03 0. -1.
        -11    1    3    3    0    0 -0.54069993885E+01 -0.11116980572E+01  0.75973642711E+01  0.93910307787E+01  0.51100000000E-03 0.  1.
        -12    1    3    3    0    0  0.42466953462E+01  0.27415482675E+02  0.25273100840E+02  0.37528292497E+02  0.00000000000E+00 0.  1.
</event>
<event>
 7    1  0.2895479E-015  0.9000772E+02  0.7816164E-02  0.1186339E+00
        -11   -1    0    0    0    0  0.00000000000E+00  0.00000000000E+00  0.45593999997E+02  0.45594000000E+02  0.51100000000E-03 0. -1.
         11   -1    0    0    0    0 -0.00000000000E+00 -0.00000000000E+00 -0.45593999997E+02  0.45594000000E+02  0.51100000000E-03 0.  1.
    9900012    2    1    2    0    0  0.71379714150E+00  0.86258943989E+00  0.37348609370E+00  0.90007720896E+02  0.89999982012E+02 0.  0.
        -12    1    1    2    0    0 -0.71379714150E+00 -0.86258943989E+00 -0.37348609370E+00  0.11802791040E+01  0.00000000000E+00 0.  1.
         11    1    3    3    0    0 -0.27097746025E+02  0.14765385046E+00  0.25647138111E+02  0.37310659802E+02  0.51100000000E-03 0. -1.
        -11    1    3    3    0    0 -0.36745875342E+00 -0.81017458357E+01  0.56940350374E+01  0.99093565276E+01  0.51100000000E-03 0.  1.
        -12    1    3    3    0    0  0.28179001920E+02  0.88166814252E+01 -0.30967687055E+02  0.42787704567E+02  0.00000000000E+00 0.  1.
</event>
<event>
 7    1  0.2895479E-015  0.9000771E+02  0.7816164E-02  0.1186339E+00
        -11   -1    0    0    0    0  0.00000000000E+00  0.00000000000E+00  0.45593999997E+02  0.45594000000E+02  0.51100000000E-03 0.  1.
         11   -1    0    0    0    0 -0.00000000000E+00 -0.00000000000E+00 -0.45593999997E+02  0.45594000000E+02  0.51100000000E-03 0. -1.
    9900012    2    1    2    0    0 -0.11131767414E+01 -0.32168730346E+00  0.22459867047E+00  0.90007707773E+02  0.89999968715E+02 0.  0.
        -12    1    1    2    0    0  0.11131767414E+01  0.32168730346E+00 -0.22459867047E+00  0.11802922272E+01  0.00000000000E+00 0.  1.
         11    1    3    3    0    0 -0.33855649769E+02  0.18338023452E+02  0.82883377200E+01  0.39385081793E+02  0.51100000000E-03 0. -1.
        -11    1    3    3    0    0  0.10390142390E+02  0.70049840505E+01  0.58814857893E+01  0.13842569696E+02  0.51100000000E-03 0.  1.
        -12    1    3    3    0    0  0.22352330638E+02 -0.25664694806E+02 -0.13945224839E+02  0.36780056284E+02  0.00000000000E+00 0.  1.
</event>
<event>
 7    1  0.3244915E-015  0.9000776E+02  0.7816164E-02  0.1186339E+00
        -11   -1    0    0    0    0  0.00000000000E+00  0.00000000000E+00  0.45593999997E+02  0.45594000000E+02  0.51100000000E-03 0.  1.
         11   -1    0    0    0    0 -0.00000000000E+00 -0.00000000000E+00 -0.45593999997E+02  0.45594000000E+02  0.51100000000E-03 0. -1.
    9900012    2    1    2    0    0  0.36789324356E+00  0.88835641068E+00 -0.68443334347E+00  0.90007757841E+02  0.90000019445E+02 0.  0.
        -12    1    1    2    0    0 -0.36789324356E+00 -0.88835641068E+00  0.68443334347E+00  0.11802421585E+01  0.00000000000E+00 0.  1.
         11    1    3    3    0    0  0.91437662294E+01  0.38446282626E+01  0.13971846118E+01  0.10017073047E+02  0.51100000000E-03 0. -1.
        -11    1    3    3    0    0  0.28477885481E+02  0.20959475738E+01  0.21383359362E+02  0.35673954302E+02  0.51100000000E-03 0.  1.
         12    1    3    3    0    0 -0.37253758467E+02 -0.50522194257E+01 -0.23464977317E+02  0.44316730492E+02  0.00000000000E+00 0. -1.
</event>
<event>
 7    1  0.2895479E-015  0.9000751E+02  0.7816164E-02  0.1186340E+00
        -11   -1    0    0    0    0  0.00000000000E+00  0.00000000000E+00  0.45593999997E+02  0.45594000000E+02  0.51100000000E-03 0.  1.
         11   -1    0    0    0    0 -0.00000000000E+00 -0.00000000000E+00 -0.45593999997E+02  0.45594000000E+02  0.51100000000E-03 0. -1.
    9900012    2    1    2    0    0  0.10453187027E+00 -0.10492958811E+01 -0.53067156728E+00  0.90007508124E+02  0.89999766430E+02 0.  0.
        -12    1    1    2    0    0 -0.10453187027E+00  0.10492958811E+01  0.53067156728E+00  0.11804918765E+01  0.00000000000E+00 0.  1.
         11    1    3    3    0    0  0.79150102921E+01  0.49091362688E+00 -0.50962366853E+01  0.94265589016E+01  0.51100000000E-03 0. -1.
        -11    1    3    3    0    0  0.20983261823E+02 -0.31762153661E+02 -0.28929792525E+01  0.38177231581E+02  0.51100000000E-03 0.  1.
         12    1    3    3    0    0 -0.28793740245E+02  0.30221944153E+02  0.74585443704E+01  0.42403717641E+02  0.00000000000E+00 0. -1.
</event>
<event>
 7    1  0.2895479E-015  0.9000780E+02  0.7816164E-02  0.1186339E+00
        -11   -1    0    0    0    0  0.00000000000E+00  0.00000000000E+00  0.45593999997E+02  0.45594000000E+02  0.51100000000E-03 0.  1.
         11   -1    0    0    0    0 -0.00000000000E+00 -0.00000000000E+00 -0.45593999997E+02  0.45594000000E+02  0.51100000000E-03 0. -1.
    9900012    2    1    2    0    0  0.34060039964E+00 -0.44904313054E+00 -0.10369247026E+01  0.90007804591E+02  0.90000066811E+02 0.  0.
        -12    1    1    2    0    0 -0.34060039964E+00  0.44904313054E+00  0.10369247026E+01  0.11801954094E+01  0.00000000000E+00 0.  1.
         11    1    3    3    0    0 -0.19083360464E+02 -0.29241736037E+02 -0.14432115970E+02  0.37782796941E+02  0.51100000000E-03 0. -1.
        -11    1    3    3    0    0  0.66209890602E+01 -0.35678999836E+01 -0.83113431502E+01  0.11209185147E+02  0.51100000000E-03 0.  1.
        -12    1    3    3    0    0  0.12802971803E+02  0.32360592890E+02  0.21706534418E+02  0.41015822503E+02  0.00000000000E+00 0.  1.
</event>
<event>
 7    1  0.2895479E-015  0.9000769E+02  0.7816164E-02  0.1186339E+00
        -11   -1    0    0    0    0  0.00000000000E+00  0.00000000000E+00  0.45593999997E+02  0.45594000000E+02  0.51100000000E-03 0. -1.
         11   -1    0    0    0    0 -0.00000000000E+00 -0.00000000000E+00 -0.45593999997E+02  0.45594000000E+02  0.51100000000E-03 0.  1.
    9900012    2    1    2    0    0 -0.72492362760E-01 -0.96208736481E+00  0.67989678839E+00  0.90007692039E+02  0.89999952774E+02 0.  0.
        -12    1    1    2    0    0  0.72492362760E-01  0.96208736481E+00 -0.67989678839E+00  0.11803079611E+01  0.00000000000E+00 0.  1.
         11    1    3    3    0    0  0.24540271881E+01  0.71781975878E+01 -0.53907534773E+01  0.93063952937E+01  0.51100000000E-03 0. -1.
        -11    1    3    3    0    0 -0.30016696849E+02 -0.31690037138E+02 -0.16845781839E+01  0.43681785076E+02  0.51100000000E-03 0.  1.
         12    1    3    3    0    0  0.27490177299E+02  0.23549752185E+02  0.77552284496E+01  0.37019511669E+02  0.00000000000E+00 0. -1.
</event>
<event>
 7    1  0.2895479E-015  0.9000749E+02  0.7816164E-02  0.1186340E+00
        -11   -1    0    0    0    0  0.00000000000E+00  0.00000000000E+00  0.45593999997E+02  0.45594000000E+02  0.51100000000E-03 0. -1.
         11   -1    0    0    0    0 -0.00000000000E+00 -0.00000000000E+00 -0.45593999997E+02  0.45594000000E+02  0.51100000000E-03 0.  1.
    9900012    2    1    2    0    0  0.47182887809E+00 -0.10274546596E+01  0.33959939151E+00  0.90007485996E+02  0.89999744010E+02 0.  0.
        -12    1    1    2    0    0 -0.47182887809E+00  0.10274546596E+01 -0.33959939151E+00  0.11805140043E+01  0.00000000000E+00 0.  1.
         11    1    3    3    0    0  0.74301847863E+00  0.87137195031E+01 -0.18307429789E+01  0.89349092975E+01  0.51100000000E-03 0. -1.
        -11    1    3    3    0    0  0.25116648222E+02  0.13026785755E+02 -0.24776945856E+02  0.37609044274E+02  0.51100000000E-03 0.  1.
         12    1    3    3    0    0 -0.25387837822E+02 -0.22767959917E+02  0.26947288226E+02  0.43463532425E+02  0.00000000000E+00 0. -1.
</event>
<event>
 7    1  0.2895479E-015  0.9000776E+02  0.7816164E-02  0.1186339E+00
        -11   -1    0    0    0    0  0.00000000000E+00  0.00000000000E+00  0.45593999997E+02  0.45594000000E+02  0.51100000000E-03 0. -1.
         11   -1    0    0    0    0 -0.00000000000E+00 -0.00000000000E+00 -0.45593999997E+02  0.45594000000E+02  0.51100000000E-03 0.  1.
    9900012    2    1    2    0    0 -0.57041783380E+00  0.46685316317E+00  0.92175610328E+00  0.90007761594E+02  0.90000023247E+02 0.  0.
        -12    1    1    2    0    0  0.57041783380E+00 -0.46685316317E+00 -0.92175610328E+00  0.11802384060E+01  0.00000000000E+00 0.  1.
         11    1    3    3    0    0  0.13181021613E+01 -0.29991707724E+00 -0.27779367721E+01  0.30893812539E+01  0.51100000000E-03 0. -1.
        -11    1    3    3    0    0  0.23399624427E+02  0.31370784428E+02 -0.16383677917E+02  0.42427508073E+02  0.51100000000E-03 0.  1.
         12    1    3    3    0    0 -0.25288144422E+02 -0.30604014188E+02  0.20083370792E+02  0.44490872267E+02  0.00000000000E+00 0. -1.
</event>
<event>
 7    1  0.2895479E-015  0.9000777E+02  0.7816164E-02  0.1186339E+00
        -11   -1    0    0    0    0  0.00000000000E+00  0.00000000000E+00  0.45593999997E+02  0.45594000000E+02  0.51100000000E-03 0. -1.
         11   -1    0    0    0    0 -0.00000000000E+00 -0.00000000000E+00 -0.45593999997E+02  0.45594000000E+02  0.51100000000E-03 0.  1.
    9900012    2    1    2    0    0 -0.26446069630E-01  0.89464638284E+00  0.76931301258E+00  0.90007773727E+02  0.90000035540E+02 0.  0.
        -12    1    1    2    0    0  0.26446069630E-01 -0.89464638284E+00 -0.76931301258E+00  0.11802262733E+01  0.00000000000E+00 0.  1.
         11    1    3    3    0    0  0.30809457796E+02 -0.17866621802E+02  0.13486368474E+02  0.38083080222E+02  0.51100000000E-03 0. -1.
        -11    1    3    3    0    0 -0.24033813579E+01 -0.43183179137E+01  0.83306745761E+01  0.96862918967E+01  0.51100000000E-03 0.  1.
        -12    1    3    3    0    0 -0.28432522508E+02  0.23079586099E+02 -0.21047730037E+02  0.42238401608E+02  0.00000000000E+00 0.  1.
</event>
<event>
 7    1  0.2895479E-015  0.9000683E+02  0.7816164E-02  0.1186341E+00
        -11   -1    0    0    0    0  0.00000000000E+00  0.00000000000E+00  0.45593999997E+02  0.45594000000E+02  0.51100000000E-03 0. -1.
         11   -1    0    0    0    0 -0.00000000000E+00 -0.00000000000E+00 -0.45593999997E+02  0.45594000000E+02  0.51100000000E-03 0.  1.
    9900012    2    1    2    0    0  0.15983759578E+00 -0.11697243638E+01  0.36801494177E-01  0.90006832148E+02  0.89999081528E+02 0.  0.
        -12    1    1    2    0    0 -0.15983759578E+00  0.11697243638E+01 -0.36801494177E-01  0.11811678518E+01  0.00000000000E+00 0.  1.
         11    1    3    3    0    0  0.31968345040E+02 -0.15741371549E+02  0.11381298666E+02  0.37407216181E+02  0.51100000000E-03 0. -1.
        -11    1    3    3    0    0  0.85713001196E+01  0.43066976447E+01 -0.34512695442E+01  0.10194414749E+02  0.51100000000E-03 0.  1.
        -12    1    3    3    0    0 -0.40379807564E+02  0.10264949541E+02 -0.78932276280E+01  0.42405201218E+02  0.00000000000E+00 0.  1.
</event>
<event>
 7    1  0.2895479E-015  0.9000772E+02  0.7816164E-02  0.1186339E+00
        -11   -1    0    0    0    0  0.00000000000E+00  0.00000000000E+00  0.45593999997E+02  0.45594000000E+02  0.51100000000E-03 0.  1.
         11   -1    0    0    0    0 -0.00000000000E+00 -0.00000000000E+00 -0.45593999997E+02  0.45594000000E+02  0.51100000000E-03 0. -1.
    9900012    2    1    2    0    0 -0.36784317977E+00 -0.72055045101E+00 -0.85939408833E+00  0.90007720475E+02  0.89999981586E+02 0.  0.
        -12    1    1    2    0    0  0.36784317977E+00  0.72055045101E+00  0.85939408833E+00  0.11802795247E+01  0.00000000000E+00 0.  1.
         11    1    3    3    0    0  0.10941664313E+01  0.95930344065E+01 -0.31039050004E+01  0.10141880290E+02  0.51100000000E-03 0. -1.
        -11    1    3    3    0    0 -0.23315443017E+02 -0.22073497085E+02 -0.26686368838E+02  0.41749388483E+02  0.51100000000E-03 0.  1.
         12    1    3    3    0    0  0.21853433406E+02  0.11759912228E+02  0.28930879751E+02  0.38116451702E+02  0.00000000000E+00 0. -1.
</event>
<event>
 7    1  0.3610767E-015  0.9000773E+02  0.7816164E-02  0.1186339E+00
        -11   -1    0    0    0    0  0.00000000000E+00  0.00000000000E+00  0.45593999997E+02  0.45594000000E+02  0.51100000000E-03 0. -1.
         11   -1    0    0    0    0 -0.00000000000E+00 -0.00000000000E+00 -0.45593999997E+02  0.45594000000E+02  0.51100000000E-03 0.  1.
    9900012    2    1    2    0    0 -0.43717362905E+00 -0.52345628374E+00  0.96327926953E+00  0.90007731296E+02  0.89999992549E+02 0.  0.
        -12    1    1    2    0    0  0.43717362905E+00  0.52345628374E+00 -0.96327926953E+00  0.11802687042E+01  0.00000000000E+00 0.  1.
         11    1    3    3    0    0 -0.52948776544E+01 -0.71062859826E+01 -0.19586834844E+01  0.90758730210E+01  0.51100000000E-03 0. -1.
        -11    1    3    3    0    0 -0.35149269587E+02 -0.89482616260E+01 -0.68644947105E+01  0.36914276730E+02  0.51100000000E-03 0.  1.
         12    1    3    3    0    0  0.40006973612E+02  0.15531091325E+02  0.97864574644E+01  0.44017581545E+02  0.00000000000E+00 0. -1.
</event>
<event>
 7    1  0.2895479E-015  0.9000789E+02  0.7816164E-02  0.1186339E+00
        -11   -1    0    0    0    0  0.00000000000E+00  0.00000000000E+00  0.45593999997E+02  0.45594000000E+02  0.51100000000E-03 0. -1.
         11   -1    0    0    0    0 -0.00000000000E+00 -0.00000000000E+00 -0.45593999997E+02  0.45594000000E+02  0.51100000000E-03 0.  1.
    9900012    2    1    2    0    0  0.25229379917E+00  0.17201949818E+00  0.11399242438E+01  0.90007885535E+02  0.90000148824E+02 0.  0.
        -12    1    1    2    0    0 -0.25229379917E+00 -0.17201949818E+00 -0.11399242438E+01  0.11801144650E+01  0.00000000000E+00 0.  1.
         11    1    3    3    0    0 -0.57646357640E+01  0.36881706255E+01  0.64578009126E+01  0.94094006686E+01  0.51100000000E-03 0. -1.
        -11    1    3    3    0    0 -0.36973706720E+02  0.47308336173E+00  0.83977416991E+00  0.36986267957E+02  0.51100000000E-03 0.  1.
         12    1    3    3    0    0  0.42990636283E+02 -0.39892344890E+01 -0.61576508387E+01  0.43612216909E+02  0.00000000000E+00 0. -1.
</event>
<event>
 7    1  0.2895479E-015  0.9000758E+02  0.7816164E-02  0.1186339E+00
        -11   -1    0    0    0    0  0.00000000000E+00  0.00000000000E+00  0.45593999997E+02  0.45594000000E+02  0.51100000000E-03 0.  1.
         11   -1    0    0    0    0 -0.00000000000E+00 -0.00000000000E+00 -0.45593999997E+02  0.45594000000E+02  0.51100000000E-03 0. -1.
    9900012    2    1    2    0    0 -0.78634753696E+00 -0.10575189582E+00 -0.87399481394E+00  0.90007579377E+02  0.89999838625E+02 0.  0.
        -12    1    1    2    0    0  0.78634753696E+00  0.10575189582E+00  0.87399481394E+00  0.11804206230E+01  0.00000000000E+00 0.  1.
         11    1    3    3    0    0 -0.85452511253E+01  0.18402646244E+01 -0.10668190040E+01  0.88060203117E+01  0.51100000000E-03 0. -1.
        -11    1    3    3    0    0  0.93019651821E+01  0.36119162794E+02 -0.14981705540E+02  0.40194178414E+02  0.51100000000E-03 0.  1.
         12    1    3    3    0    0 -0.15430615937E+01 -0.38065179315E+02  0.15174529730E+02  0.41007380651E+02  0.00000000000E+00 0. -1.
</event>
<event>
 7    1  0.2895479E-015  0.9000774E+02  0.7816164E-02  0.1186339E+00
        -11   -1    0    0    0    0  0.00000000000E+00  0.00000000000E+00  0.45593999997E+02  0.45594000000E+02  0.51100000000E-03 0.  1.
         11   -1    0    0    0    0 -0.00000000000E+00 -0.00000000000E+00 -0.45593999997E+02  0.45594000000E+02  0.51100000000E-03 0. -1.
    9900012    2    1    2    0    0  0.78648890843E+00  0.87968478227E+00  0.24556422851E-01  0.90007740225E+02  0.90000001596E+02 0.  0.
        -12    1    1    2    0    0 -0.78648890843E+00 -0.87968478227E+00 -0.24556422851E-01  0.11802597753E+01  0.00000000000E+00 0.  1.
         11    1    3    3    0    0 -0.21005719103E+02 -0.20204510481E+02 -0.18563332778E+02  0.34555170422E+02  0.51100000000E-03 0. -1.
        -11    1    3    3    0    0 -0.69284259857E+01 -0.79296514076E+01  0.81466560698E+01  0.13313544361E+02  0.51100000000E-03 0.  1.
        -12    1    3    3    0    0  0.28720633997E+02  0.29013846671E+02  0.10441233131E+02  0.42139025441E+02  0.00000000000E+00 0.  1.
</event>
<event>
 7    1  0.2895479E-015  0.9000766E+02  0.7816164E-02  0.1186339E+00
        -11   -1    0    0    0    0  0.00000000000E+00  0.00000000000E+00  0.45593999997E+02  0.45594000000E+02  0.51100000000E-03 0. -1.
         11   -1    0    0    0    0 -0.00000000000E+00 -0.00000000000E+00 -0.45593999997E+02  0.45594000000E+02  0.51100000000E-03 0.  1.
    9900012    2    1    2    0    0 -0.69668700466E+00 -0.18349608030E+00  0.93495863048E+00  0.90007664779E+02  0.89999925154E+02 0.  0.
        -12    1    1    2    0    0  0.69668700466E+00  0.18349608030E+00 -0.93495863048E+00  0.11803352213E+01  0.00000000000E+00 0.  1.
         11    1    3    3    0    0 -0.64623595130E+01 -0.23196745084E+01 -0.90472352772E+01  0.11357616243E+02  0.51100000000E-03 0. -1.
        -11    1    3    3    0    0 -0.35149809537E+02 -0.78122998201E+00 -0.38327602489E+01  0.35366785013E+02  0.51100000000E-03 0.  1.
         12    1    3    3    0    0  0.40915482045E+02  0.29174084101E+01  0.13814954157E+02  0.43283263523E+02  0.00000000000E+00 0. -1.
</event>
<event>
 7    1  0.2895479E-015  0.9000774E+02  0.7816164E-02  0.1186339E+00
        -11   -1    0    0    0    0  0.00000000000E+00  0.00000000000E+00  0.45593999997E+02  0.45594000000E+02  0.51100000000E-03 0. -1.
         11   -1    0    0    0    0 -0.00000000000E+00 -0.00000000000E+00 -0.45593999997E+02  0.45594000000E+02  0.51100000000E-03 0.  1.
    9900012    2    1    2    0    0 -0.55270883218E+00  0.47332805669E+00  0.92924554752E+00  0.90007735712E+02  0.89999997023E+02 0.  0.
        -12    1    1    2    0    0  0.55270883218E+00 -0.47332805669E+00 -0.92924554752E+00  0.11802642882E+01  0.00000000000E+00 0.  1.
         11    1    3    3    0    0  0.24902399917E+01  0.83241287708E+00  0.82327200861E+01  0.86412896428E+01  0.51100000000E-03 0. -1.
        -11    1    3    3    0    0 -0.82386848498E+01 -0.34512358681E+02  0.16784227345E+02  0.39251612930E+02  0.51100000000E-03 0.  1.
         12    1    3    3    0    0  0.51957360259E+01  0.34153273861E+02 -0.24087701883E+02  0.42114833139E+02  0.00000000000E+00 0. -1.
</event>
<event>
 7    1  0.2895479E-015  0.9000774E+02  0.7816164E-02  0.1186339E+00
        -11   -1    0    0    0    0  0.00000000000E+00  0.00000000000E+00  0.45593999997E+02  0.45594000000E+02  0.51100000000E-03 0.  1.
         11   -1    0    0    0    0 -0.00000000000E+00 -0.00000000000E+00 -0.45593999997E+02  0.45594000000E+02  0.51100000000E-03 0. -1.
    9900012    2    1    2    0    0 -0.27266174237E+00  0.11403261901E+01 -0.13534615251E+00  0.90007742898E+02  0.90000004304E+02 0.  0.
        -12    1    1    2    0    0  0.27266174237E+00 -0.11403261901E+01  0.13534615251E+00  0.11802571019E+01  0.00000000000E+00 0.  1.
         11    1    3    3    0    0 -0.83738914900E+01 -0.33065416859E+01 -0.55070586510E+01  0.10553813143E+02  0.51100000000E-03 0. -1.
        -11    1    3    3    0    0  0.21670919363E+02 -0.27359628799E+02  0.21819380137E+02  0.41161430780E+02  0.51100000000E-03 0.  1.
         12    1    3    3    0    0 -0.13569689615E+02  0.31806496675E+02 -0.16447667638E+02  0.38292498975E+02  0.00000000000E+00 0. -1.
</event>
<event>
 7    1  0.2895479E-015  0.9000774E+02  0.7816164E-02  0.1186339E+00
        -11   -1    0    0    0    0  0.00000000000E+00  0.00000000000E+00  0.45593999997E+02  0.45594000000E+02  0.51100000000E-03 0. -1.
         11   -1    0    0    0    0 -0.00000000000E+00 -0.00000000000E+00 -0.45593999997E+02  0.45594000000E+02  0.51100000000E-03 0.  1.
    9900012    2    1    2    0    0 -0.38045322256E+00 -0.69453481070E+00  0.87514747339E+00  0.90007743097E+02  0.90000004505E+02 0.  0.
        -12    1    1    2    0    0  0.38045322256E+00  0.69453481070E+00 -0.87514747339E+00  0.11802569034E+01  0.00000000000E+00 0.  1.
         11    1    3    3    0    0 -0.81216595817E+01 -0.75247836051E+01 -0.63833772023E+01  0.12780110619E+02  0.51100000000E-03 0. -1.
        -11    1    3    3    0    0 -0.16754753642E+02  0.35039721071E+02  0.88424501212E+01  0.39833312023E+02  0.51100000000E-03 0.  1.
         12    1    3    3    0    0  0.24495960001E+02 -0.28209472276E+02 -0.15839254455E+01  0.37394320455E+02  0.00000000000E+00 0. -1.
</event>
<event>
 7    1  0.2895479E-015  0.9000763E+02  0.7816164E-02  0.1186339E+00
        -11   -1    0    0    0    0  0.00000000000E+00  0.00000000000E+00  0.45593999997E+02  0.45594000000E+02  0.51100000000E-03 0.  1.
         11   -1    0    0    0    0 -0.00000000000E+00 -0.00000000000E+00 -0.45593999997E+02  0.45594000000E+02  0.51100000000E-03 0. -1.
    9900012    2    1    2    0    0  0.41164458966E+00  0.10974987100E+01 -0.13902759191E+00  0.90007625755E+02  0.89999885615E+02 0.  0.
        -12    1    1    2    0    0 -0.41164458966E+00 -0.10974987100E+01  0.13902759191E+00  0.11803742449E+01  0.00000000000E+00 0.  1.
         11    1    3    3    0    0  0.92581332264E+01  0.31187641070E-01 -0.12480996387E+01  0.93419353710E+01  0.51100000000E-03 0. -1.
        -11    1    3    3    0    0 -0.24728232512E+02  0.34020413378E+02  0.95374838758E+01  0.43125834584E+02  0.51100000000E-03 0.  1.
         12    1    3    3    0    0  0.15881743875E+02 -0.32954102309E+02 -0.84284118290E+01  0.37539855800E+02  0.00000000000E+00 0. -1.
</event>
<event>
 7    1  0.2895479E-015  0.9000798E+02  0.7816164E-02  0.1186339E+00
        -11   -1    0    0    0    0  0.00000000000E+00  0.00000000000E+00  0.45593999997E+02  0.45594000000E+02  0.51100000000E-03 0.  1.
         11   -1    0    0    0    0 -0.00000000000E+00 -0.00000000000E+00 -0.45593999997E+02  0.45594000000E+02  0.51100000000E-03 0. -1.
    9900012    2    1    2    0    0  0.19866659694E+00  0.91341693404E+00 -0.72017036608E+00  0.90007981242E+02  0.90000245794E+02 0.  0.
        -12    1    1    2    0    0 -0.19866659694E+00 -0.91341693404E+00  0.72017036608E+00  0.11800187576E+01  0.00000000000E+00 0.  1.
         11    1    3    3    0    0  0.22570046832E+02  0.18201007030E+02 -0.26462976426E+02  0.39255226308E+02  0.51100000000E-03 0. -1.
        -11    1    3    3    0    0  0.64277972450E+01 -0.50582902954E+01 -0.25518126406E+01  0.85682335489E+01  0.51100000000E-03 0.  1.
        -12    1    3    3    0    0 -0.28799177480E+02 -0.12229299801E+02  0.28294618700E+02  0.42184521386E+02  0.00000000000E+00 0.  1.
</event>
<event>
 7    1  0.2895479E-015  0.9000789E+02  0.7816164E-02  0.1186339E+00
        -11   -1    0    0    0    0  0.00000000000E+00  0.00000000000E+00  0.45593999997E+02  0.45594000000E+02  0.51100000000E-03 0. -1.
         11   -1    0    0    0    0 -0.00000000000E+00 -0.00000000000E+00 -0.45593999997E+02  0.45594000000E+02  0.51100000000E-03 0.  1.
    9900012    2    1    2    0    0 -0.11573836134E+01 -0.16712151010E+00 -0.15870150113E+00  0.90007892973E+02  0.90000156361E+02 0.  0.
        -12    1    1    2    0    0  0.11573836134E+01  0.16712151010E+00  0.15870150113E+00  0.11801070266E+01  0.00000000000E+00 0.  1.
         11    1    3    3    0    0 -0.41761803311E+01 -0.28870941350E+01 -0.70765693218E+01  0.87093988500E+01  0.51100000000E-03 0. -1.
        -11    1    3    3    0    0  0.34516930947E+02  0.59549228059E+01 -0.19475449378E+02  0.40077085179E+02  0.51100000000E-03 0.  1.
         12    1    3    3    0    0 -0.31498134230E+02 -0.32349501810E+01  0.26393317199E+02  0.41221408945E+02  0.00000000000E+00 0. -1.
</event>
<event>
 7    1  0.2895479E-015  0.9000779E+02  0.7816164E-02  0.1186339E+00
        -11   -1    0    0    0    0  0.00000000000E+00  0.00000000000E+00  0.45593999997E+02  0.45594000000E+02  0.51100000000E-03 0.  1.
         11   -1    0    0    0    0 -0.00000000000E+00 -0.00000000000E+00 -0.45593999997E+02  0.45594000000E+02  0.51100000000E-03 0. -1.
    9900012    2    1    2    0    0  0.17126987865E+00  0.36202161920E+00 -0.11101865228E+01  0.90007785130E+02  0.90000047094E+02 0.  0.
        -12    1    1    2    0    0 -0.17126987865E+00 -0.36202161920E+00  0.11101865228E+01  0.11802148700E+01  0.00000000000E+00 0.  1.
         11    1    3    3    0    0  0.21330089676E+02 -0.10242190294E+01  0.38841903894E+02  0.44325108556E+02  0.51100000000E-03 0.  1.
        -11    1    3    3    0    0 -0.11473772369E+02 -0.20573396625E+01 -0.18024606337E+02  0.21465473038E+02  0.51100000000E-03 0. -1.
        -12    1    3    3    0    0 -0.96850474280E+01  0.34435803111E+01 -0.21927484079E+02  0.24217203536E+02  0.00000000000E+00 0.  1.
</event>
<event>
 7    1  0.2895479E-015  0.9000807E+02  0.7816164E-02  0.1186338E+00
        -11   -1    0    0    0    0  0.00000000000E+00  0.00000000000E+00  0.45593999997E+02  0.45594000000E+02  0.51100000000E-03 0.  1.
         11   -1    0    0    0    0 -0.00000000000E+00 -0.00000000000E+00 -0.45593999997E+02  0.45594000000E+02  0.51100000000E-03 0. -1.
    9900012    2    1    2    0    0 -0.79846337496E+00  0.86772203944E+00  0.41902996790E-01  0.90008067307E+02  0.90000332995E+02 0.  0.
        -12    1    1    2    0    0  0.79846337496E+00 -0.86772203944E+00 -0.41902996790E-01  0.11799326930E+01  0.00000000000E+00 0.  1.
         11    1    3    3    0    0  0.45431646368E+00  0.69788118363E+01 -0.71846763088E+01  0.10026454609E+02  0.51100000000E-03 0. -1.
        -11    1    3    3    0    0  0.38689446068E+02 -0.74747041217E+01  0.21347820326E+00  0.39405456627E+02  0.51100000000E-03 0.  1.
         12    1    3    3    0    0 -0.39942225907E+02  0.13636143248E+01  0.70131011023E+01  0.40576156071E+02  0.00000000000E+00 0. -1.
</event>
<event>
 7    1  0.2895479E-015  0.9000767E+02  0.7816164E-02  0.1186339E+00
        -11   -1    0    0    0    0  0.00000000000E+00  0.00000000000E+00  0.45593999997E+02  0.45594000000E+02  0.51100000000E-03 0.  1.
         11   -1    0    0    0    0 -0.00000000000E+00 -0.00000000000E+00 -0.45593999997E+02  0.45594000000E+02  0.51100000000E-03 0. -1.
    9900012    2    1    2    0    0  0.46999705820E+00  0.45747641463E+00 -0.98132775660E+00  0.90007666966E+02  0.89999927370E+02 0.  0.
        -12    1    1    2    0    0 -0.46999705820E+00 -0.45747641463E+00  0.98132775660E+00  0.11803330337E+01  0.00000000000E+00 0.  1.
         11    1    3    3    0    0  0.53570186824E+01  0.25497982982E+01 -0.60304712129E+01  0.84596515197E+01  0.51100000000E-03 0. -1.
        -11    1    3    3    0    0 -0.21960216303E+02 -0.26709996604E+02 -0.22166243923E+02  0.41073317234E+02  0.51100000000E-03 0.  1.
         12    1    3    3    0    0  0.17073194679E+02  0.24617674720E+02  0.27215387380E+02  0.40474698213E+02  0.00000000000E+00 0. -1.
</event>
<event>
 7    1  0.3319716E-015  0.9000782E+02  0.7816164E-02  0.1186339E+00
        -11   -1    0    0    0    0  0.00000000000E+00  0.00000000000E+00  0.45593999997E+02  0.45594000000E+02  0.51100000000E-03 0. -1.
         11   -1    0    0    0    0 -0.00000000000E+00 -0.00000000000E+00 -0.45593999997E+02  0.45594000000E+02  0.51100000000E-03 0.  1.
    9900012    2    1    2    0    0 -0.86791549617E+00  0.79634916939E+00 -0.73269267904E-01  0.90007823024E+02  0.90000085488E+02 0.  0.
        -12    1    1    2    0    0  0.86791549617E+00 -0.79634916939E+00  0.73269267904E-01  0.11801769756E+01  0.00000000000E+00 0.  1.
         11    1    3    3    0    0  0.17337246632E+01  0.91345769518E+01 -0.29980393542E+01  0.97690602172E+01  0.51100000000E-03 0. -1.
        -11    1    3    3    0    0  0.28856203050E+02 -0.29476041179E+02 -0.49002132501E+01  0.41539493837E+02  0.51100000000E-03 0.  1.
         12    1    3    3    0    0 -0.31457843210E+02  0.21137813397E+02  0.78249833364E+01  0.38699268970E+02  0.00000000000E+00 0. -1.
</event>
<event>
 7    1  0.2895479E-015  0.9000767E+02  0.7816164E-02  0.1186339E+00
        -11   -1    0    0    0    0  0.00000000000E+00  0.00000000000E+00  0.45593999997E+02  0.45594000000E+02  0.51100000000E-03 0.  1.
         11   -1    0    0    0    0 -0.00000000000E+00 -0.00000000000E+00 -0.45593999997E+02  0.45594000000E+02  0.51100000000E-03 0. -1.
    9900012    2    1    2    0    0 -0.53101076494E+00 -0.20175164125E+00 -0.10346494217E+01  0.90007671409E+02  0.89999931871E+02 0.  0.
        -12    1    1    2    0    0  0.53101076494E+00  0.20175164125E+00  0.10346494217E+01  0.11803285912E+01  0.00000000000E+00 0.  1.
         11    1    3    3    0    0  0.16500422131E+02 -0.20618221085E+02 -0.31840556697E+02  0.41366605157E+02  0.51100000000E-03 0. -1.
        -11    1    3    3    0    0  0.53456382837E+01  0.29009770990E+01  0.14858464656E+02  0.16055076736E+02  0.51100000000E-03 0.  1.
        -12    1    3    3    0    0 -0.22377071179E+02  0.17515492344E+02  0.15947442619E+02  0.32585989516E+02  0.00000000000E+00 0.  1.
</event>
<event>
 7    1  0.2895479E-015  0.9000774E+02  0.7816164E-02  0.1186339E+00
        -11   -1    0    0    0    0  0.00000000000E+00  0.00000000000E+00  0.45593999997E+02  0.45594000000E+02  0.51100000000E-03 0. -1.
         11   -1    0    0    0    0 -0.00000000000E+00 -0.00000000000E+00 -0.45593999997E+02  0.45594000000E+02  0.51100000000E-03 0.  1.
    9900012    2    1    2    0    0  0.15834883205E+00 -0.71313618424E+00  0.92702181515E+00  0.90007742818E+02  0.90000004223E+02 0.  0.
        -12    1    1    2    0    0 -0.15834883205E+00  0.71313618424E+00 -0.92702181515E+00  0.11802571820E+01  0.00000000000E+00 0.  1.
         11    1    3    3    0    0  0.13092597099E+02  0.37128502967E+02 -0.12937987746E+02  0.41440721019E+02  0.51100000000E-03 0. -1.
        -11    1    3    3    0    0 -0.28274933888E+01  0.78784716005E+00  0.76021486718E+01  0.81491157006E+01  0.51100000000E-03 0.  1.
        -12    1    3    3    0    0 -0.10106754878E+02 -0.38629486312E+02  0.62628608895E+01  0.40417906099E+02  0.00000000000E+00 0.  1.
</event>
<event>
 7    1  0.2895479E-015  0.9000771E+02  0.7816164E-02  0.1186339E+00
        -11   -1    0    0    0    0  0.00000000000E+00  0.00000000000E+00  0.45593999997E+02  0.45594000000E+02  0.51100000000E-03 0.  1.
         11   -1    0    0    0    0 -0.00000000000E+00 -0.00000000000E+00 -0.45593999997E+02  0.45594000000E+02  0.51100000000E-03 0. -1.
    9900012    2    1    2    0    0  0.21791328662E+00 -0.87684714524E+00 -0.75942899059E+00  0.90007712108E+02  0.89999973108E+02 0.  0.
        -12    1    1    2    0    0 -0.21791328662E+00  0.87684714524E+00  0.75942899059E+00  0.11802878921E+01  0.00000000000E+00 0.  1.
         11    1    3    3    0    0 -0.71079855959E+01 -0.74288893661E+01  0.69328321542E+00  0.10304974445E+02  0.51100000000E-03 0. -1.
        -11    1    3    3    0    0  0.28465663867E+01 -0.59031988229E+01  0.37755769190E+02  0.38320344517E+02  0.51100000000E-03 0.  1.
         12    1    3    3    0    0  0.44793324958E+01  0.12455241044E+02 -0.39208481396E+02  0.41382393145E+02  0.00000000000E+00 0. -1.
</event>
<event>
 7    1  0.2895479E-015  0.9000767E+02  0.7816164E-02  0.1186339E+00
        -11   -1    0    0    0    0  0.00000000000E+00  0.00000000000E+00  0.45593999997E+02  0.45594000000E+02  0.51100000000E-03 0.  1.
         11   -1    0    0    0    0 -0.00000000000E+00 -0.00000000000E+00 -0.45593999997E+02  0.45594000000E+02  0.51100000000E-03 0. -1.
    9900012    2    1    2    0    0  0.10125513262E+01  0.59578076863E+00  0.11386976120E+00  0.90007669015E+02  0.89999929446E+02 0.  0.
        -12    1    1    2    0    0 -0.10125513262E+01 -0.59578076863E+00 -0.11386976120E+00  0.11803309853E+01  0.00000000000E+00 0.  1.
         11    1    3    3    0    0  0.84287678715E+01 -0.64409645644E+01 -0.60785003371E+01  0.12226132625E+02  0.51100000000E-03 0. -1.
        -11    1    3    3    0    0  0.86435530866E+01 -0.29591908338E+02  0.18478507038E+02  0.35942276940E+02  0.51100000000E-03 0.  1.
         12    1    3    3    0    0 -0.16059769632E+02  0.36628653671E+02 -0.12286136940E+02  0.41839259449E+02  0.00000000000E+00 0. -1.
</event>
<event>
 7    1  0.3220738E-015  0.9000772E+02  0.7816164E-02  0.1186339E+00
        -11   -1    0    0    0    0  0.00000000000E+00  0.00000000000E+00  0.45593999997E+02  0.45594000000E+02  0.51100000000E-03 0. -1.
         11   -1    0    0    0    0 -0.00000000000E+00 -0.00000000000E+00 -0.45593999997E+02  0.45594000000E+02  0.51100000000E-03 0.  1.
    9900012    2    1    2    0    0  0.10020699874E-01 -0.11627350231E+01 -0.20248286129E+00  0.90007723567E+02  0.89999984718E+02 0.  0.
        -12    1    1    2    0    0 -0.10020699874E-01  0.11627350231E+01  0.20248286129E+00  0.11802764326E+01  0.00000000000E+00 0.  1.
         11    1    3    3    0    0  0.32788007103E+01 -0.80757985847E+01 -0.38411723714E+01  0.95248969719E+01  0.51100000000E-03 0. -1.
        -11    1    3    3    0    0 -0.32271837570E+02 -0.18103896058E+02 -0.12304754052E+02  0.38995250033E+02  0.51100000000E-03 0.  1.
         12    1    3    3    0    0  0.29003057559E+02  0.25016959620E+02  0.15943443562E+02  0.41487576562E+02  0.00000000000E+00 0. -1.
</event>
<event>
 7    1  0.2895479E-015  0.9000787E+02  0.7816164E-02  0.1186339E+00
        -11   -1    0    0    0    0  0.00000000000E+00  0.00000000000E+00  0.45593999997E+02  0.45594000000E+02  0.51100000000E-03 0.  1.
         11   -1    0    0    0    0 -0.00000000000E+00 -0.00000000000E+00 -0.45593999997E+02  0.45594000000E+02  0.51100000000E-03 0. -1.
    9900012    2    1    2    0    0 -0.78406474469E+00  0.24735907054E+00  0.84661153967E+00  0.90007874950E+02  0.90000138100E+02 0.  0.
        -12    1    1    2    0    0  0.78406474469E+00 -0.24735907054E+00 -0.84661153967E+00  0.11801250496E+01  0.00000000000E+00 0.  1.
         11    1    3    3    0    0 -0.61167940878E+01 -0.75537932939E+01  0.38184185414E+01  0.10442953771E+02  0.51100000000E-03 0. -1.
        -11    1    3    3    0    0 -0.27993444362E+02  0.27900259380E+02  0.50030638812E+01  0.39838273672E+02  0.51100000000E-03 0.  1.
         12    1    3    3    0    0  0.33326173705E+02 -0.20099107015E+02 -0.79748708829E+01  0.39726647508E+02  0.00000000000E+00 0. -1.
</event>
<event>
 7    1  0.2895479E-015  0.9000805E+02  0.7816164E-02  0.1186338E+00
        -11   -1    0    0    0    0  0.00000000000E+00  0.00000000000E+00  0.45593999997E+02  0.45594000000E+02  0.51100000000E-03 0. -1.
         11   -1    0    0    0    0 -0.00000000000E+00 -0.00000000000E+00 -0.45593999997E+02  0.45594000000E+02  0.51100000000E-03 0.  1.
    9900012    2    1    2    0    0  0.43014831582E+00 -0.20346750888E+00  0.10797434481E+01  0.90008054021E+02  0.90000319533E+02 0.  0.
        -12    1    1    2    0    0 -0.43014831582E+00  0.20346750888E+00 -0.10797434481E+01  0.11799459795E+01  0.00000000000E+00 0.  1.
         11    1    3    3    0    0  0.12250460556E+02  0.32022681913E+02  0.20401228799E+02  0.39896567240E+02  0.51100000000E-03 0. -1.
        -11    1    3    3    0    0 -0.81839316761E+01  0.44029069770E+01 -0.23932535917E+01  0.95963529813E+01  0.51100000000E-03 0.  1.
        -12    1    3    3    0    0 -0.36363805638E+01 -0.36629056399E+02 -0.16928231759E+02  0.40515133799E+02  0.00000000000E+00 0.  1.
</event>
<event>
 7    1  0.3136142E-015  0.9000776E+02  0.7816164E-02  0.1186339E+00
        -11   -1    0    0    0    0  0.00000000000E+00  0.00000000000E+00  0.45593999997E+02  0.45594000000E+02  0.51100000000E-03 0. -1.
         11   -1    0    0    0    0 -0.00000000000E+00 -0.00000000000E+00 -0.45593999997E+02  0.45594000000E+02  0.51100000000E-03 0.  1.
    9900012    2    1    2    0    0  0.36173067075E+00 -0.13236520908E+00  0.11156113572E+01  0.90007763444E+02  0.90000025122E+02 0.  0.
        -12    1    1    2    0    0 -0.36173067075E+00  0.13236520908E+00 -0.11156113572E+01  0.11802365556E+01  0.00000000000E+00 0.  1.
         11    1    3    3    0    0  0.81877328316E+01 -0.64933819465E+01  0.20625218786E+01  0.10651618412E+02  0.51100000000E-03 0. -1.
        -11    1    3    3    0    0  0.63919834861E+01  0.91945277117E+01 -0.37974714590E+02  0.39591359425E+02  0.51100000000E-03 0.  1.
         12    1    3    3    0    0 -0.14217985647E+02 -0.28335109742E+01  0.37027804068E+02  0.39764785607E+02  0.00000000000E+00 0. -1.
</event>
<event>
 7    1  0.2895479E-015  0.9000776E+02  0.7816164E-02  0.1186339E+00
        -11   -1    0    0    0    0  0.00000000000E+00  0.00000000000E+00  0.45593999997E+02  0.45594000000E+02  0.51100000000E-03 0.  1.
         11   -1    0    0    0    0 -0.00000000000E+00 -0.00000000000E+00 -0.45593999997E+02  0.45594000000E+02  0.51100000000E-03 0. -1.
    9900012    2    1    2    0    0  0.26941664922E+00 -0.55642563598E+00 -0.10053668454E+01  0.90007763874E+02  0.90000025557E+02 0.  0.
        -12    1    1    2    0    0 -0.26941664922E+00  0.55642563598E+00  0.10053668454E+01  0.11802361260E+01  0.00000000000E+00 0.  1.
         11    1    3    3    0    0 -0.10811837563E+02  0.31769370825E+02 -0.18498102156E+02  0.38319297198E+02  0.51100000000E-03 0. -1.
        -11    1    3    3    0    0  0.30614636509E+01  0.53175392142E+01 -0.42683025479E+01  0.74744357567E+01  0.51100000000E-03 0.  1.
        -12    1    3    3    0    0  0.80197905617E+01 -0.37643335675E+02  0.21761037858E+02  0.44214030919E+02  0.00000000000E+00 0.  1.
</event>
<event>
 7    1  0.2895479E-015  0.9000785E+02  0.7816164E-02  0.1186339E+00
        -11   -1    0    0    0    0  0.00000000000E+00  0.00000000000E+00  0.45593999997E+02  0.45594000000E+02  0.51100000000E-03 0.  1.
         11   -1    0    0    0    0 -0.00000000000E+00 -0.00000000000E+00 -0.45593999997E+02  0.45594000000E+02  0.51100000000E-03 0. -1.
    9900012    2    1    2    0    0 -0.53272467099E+00  0.67312186184E+00 -0.80985565244E+00  0.90007849673E+02  0.90000112489E+02 0.  0.
        -12    1    1    2    0    0  0.53272467099E+00 -0.67312186184E+00  0.80985565244E+00  0.11801503268E+01  0.00000000000E+00 0.  1.
         11    1    3    3    0    0  0.39875520267E+01  0.96439496698E+01 -0.32714408787E+02  0.34338591686E+02  0.51100000000E-03 0. -1.
        -11    1    3    3    0    0  0.69412481285E+01  0.37438374715E+01 -0.86164901607E+01  0.11680802521E+02  0.51100000000E-03 0.  1.
        -12    1    3    3    0    0 -0.11461524826E+02 -0.12714665279E+02  0.40521043296E+02  0.43988455466E+02  0.00000000000E+00 0.  1.
</event>
<event>
 7    1  0.2895479E-015  0.9000701E+02  0.7816164E-02  0.1186341E+00
        -11   -1    0    0    0    0  0.00000000000E+00  0.00000000000E+00  0.45593999997E+02  0.45594000000E+02  0.51100000000E-03 0.  1.
         11   -1    0    0    0    0 -0.00000000000E+00 -0.00000000000E+00 -0.45593999997E+02  0.45594000000E+02  0.51100000000E-03 0. -1.
    9900012    2    1    2    0    0  0.63782291718E+00 -0.26329111464E+00 -0.95843585833E+00  0.90007009069E+02  0.89999260786E+02 0.  0.
        -12    1    1    2    0    0 -0.63782291718E+00  0.26329111464E+00  0.95843585833E+00  0.11809909311E+01  0.00000000000E+00 0.  1.
         11    1    3    3    0    0  0.49757596735E+01  0.37468327686E+01  0.77883159767E+01  0.99727030507E+01  0.51100000000E-03 0. -1.
        -11    1    3    3    0    0 -0.15386666049E+01  0.36062904128E+01  0.35163073790E+02  0.35380991847E+02  0.51100000000E-03 0.  1.
         12    1    3    3    0    0 -0.27992701514E+01 -0.76164142960E+01 -0.43909825625E+02  0.44653314171E+02  0.00000000000E+00 0. -1.
</event>
<event>
 7    1  0.2895479E-015  0.9000777E+02  0.7816164E-02  0.1186339E+00
        -11   -1    0    0    0    0  0.00000000000E+00  0.00000000000E+00  0.45593999997E+02  0.45594000000E+02  0.51100000000E-03 0. -1.
         11   -1    0    0    0    0 -0.00000000000E+00 -0.00000000000E+00 -0.45593999997E+02  0.45594000000E+02  0.51100000000E-03 0.  1.
    9900012    2    1    2    0    0 -0.42001403395E+00 -0.60819952238E+00  0.92011646737E+00  0.90007774275E+02  0.90000036096E+02 0.  0.
        -12    1    1    2    0    0  0.42001403395E+00  0.60819952238E+00 -0.92011646737E+00  0.11802257247E+01  0.00000000000E+00 0.  1.
         11    1    3    3    0    0 -0.49171678636E+01 -0.31319421869E+00  0.74458517693E+01  0.89284567115E+01  0.51100000000E-03 0. -1.
        -11    1    3    3    0    0 -0.33773257892E+02 -0.18305035851E+02 -0.10434954702E+01  0.38429105756E+02  0.51100000000E-03 0.  1.
         12    1    3    3    0    0  0.38270411722E+02  0.18010030547E+02 -0.54822398317E+01  0.42650211808E+02  0.00000000000E+00 0. -1.
</event>
<event>
 7    1  0.2895479E-015  0.9000769E+02  0.7816164E-02  0.1186339E+00
        -11   -1    0    0    0    0  0.00000000000E+00  0.00000000000E+00  0.45593999997E+02  0.45594000000E+02  0.51100000000E-03 0. -1.
         11   -1    0    0    0    0 -0.00000000000E+00 -0.00000000000E+00 -0.45593999997E+02  0.45594000000E+02  0.51100000000E-03 0.  1.
    9900012    2    1    2    0    0 -0.11629888536E+01 -0.60387375374E-01 -0.19221088928E+00  0.90007688713E+02  0.89999949404E+02 0.  0.
        -12    1    1    2    0    0  0.11629888536E+01  0.60387375374E-01  0.19221088928E+00  0.11803112872E+01  0.00000000000E+00 0.  1.
         11    1    3    3    0    0 -0.21923257717E+01 -0.49372709585E+01  0.10258776158E+01  0.54986691072E+01  0.51100000000E-03 0. -1.
        -11    1    3    3    0    0 -0.17350231647E+02 -0.30265732486E+02 -0.20444690711E+02  0.40435510133E+02  0.51100000000E-03 0.  1.
         12    1    3    3    0    0  0.18379568565E+02  0.35142616070E+02  0.19226602206E+02  0.44073509473E+02  0.00000000000E+00 0. -1.
</event>
<event>
 7    1  0.2895479E-015  0.9000782E+02  0.7816164E-02  0.1186339E+00
        -11   -1    0    0    0    0  0.00000000000E+00  0.00000000000E+00  0.45593999997E+02  0.45594000000E+02  0.51100000000E-03 0.  1.
         11   -1    0    0    0    0 -0.00000000000E+00 -0.00000000000E+00 -0.45593999997E+02  0.45594000000E+02  0.51100000000E-03 0. -1.
    9900012    2    1    2    0    0  0.71325182032E+00  0.93529426601E+00 -0.96600440606E-01  0.90007815621E+02  0.90000077987E+02 0.  0.
        -12    1    1    2    0    0 -0.71325182032E+00 -0.93529426601E+00  0.96600440606E-01  0.11801843790E+01  0.00000000000E+00 0.  1.
         11    1    3    3    0    0 -0.55032784286E+01 -0.12377425373E+02 -0.39956042052E+02  0.42189714731E+02  0.51100000000E-03 0. -1.
        -11    1    3    3    0    0 -0.13134143296E+01 -0.51718026735E+01  0.36273648091E+01  0.64521605540E+01  0.51100000000E-03 0.  1.
        -12    1    3    3    0    0  0.75299445785E+01  0.18484522313E+02  0.36232076803E+02  0.41365940336E+02  0.00000000000E+00 0.  1.
</event>
<event>
 7    1  0.2895479E-015  0.9000774E+02  0.7816164E-02  0.1186339E+00
        -11   -1    0    0    0    0  0.00000000000E+00  0.00000000000E+00  0.45593999997E+02  0.45594000000E+02  0.51100000000E-03 0.  1.
         11   -1    0    0    0    0 -0.00000000000E+00 -0.00000000000E+00 -0.45593999997E+02  0.45594000000E+02  0.51100000000E-03 0. -1.
    9900012    2    1    2    0    0  0.10480918661E+00 -0.69984990933E+00 -0.94458453030E+00  0.90007739522E+02  0.90000000884E+02 0.  0.
        -12    1    1    2    0    0 -0.10480918661E+00  0.69984990933E+00  0.94458453030E+00  0.11802604781E+01  0.00000000000E+00 0.  1.
         11    1    3    3    0    0  0.78702706534E+01  0.33992700993E+02 -0.13863815981E+02  0.37545309625E+02  0.51100000000E-03 0. -1.
        -11    1    3    3    0    0 -0.34625123370E+01  0.74695728250E+01  0.39982560674E+01  0.91525713171E+01  0.51100000000E-03 0.  1.
        -12    1    3    3    0    0 -0.43029491298E+01 -0.42162123728E+02  0.89209753837E+01  0.43309858580E+02  0.00000000000E+00 0.  1.
</event>
<event>
 7    1  0.2895479E-015  0.9000781E+02  0.7816164E-02  0.1186339E+00
        -11   -1    0    0    0    0  0.00000000000E+00  0.00000000000E+00  0.45593999997E+02  0.45594000000E+02  0.51100000000E-03 0. -1.
         11   -1    0    0    0    0 -0.00000000000E+00 -0.00000000000E+00 -0.45593999997E+02  0.45594000000E+02  0.51100000000E-03 0.  1.
    9900012    2    1    2    0    0  0.84667683958E+00  0.46629333893E+00  0.67716306060E+00  0.90007813168E+02  0.90000075501E+02 0.  0.
        -12    1    1    2    0    0 -0.84667683958E+00 -0.46629333893E+00 -0.67716306060E+00  0.11801868324E+01  0.00000000000E+00 0.  1.
         11    1    3    3    0    0 -0.18485995983E+02  0.36736602972E+01  0.32609836369E+02  0.37664695083E+02  0.51100000000E-03 0. -1.
        -11    1    3    3    0    0  0.29757275020E+01  0.95009219966E+01  0.41111166297E+01  0.10771432270E+02  0.51100000000E-03 0.  1.
        -12    1    3    3    0    0  0.16356945320E+02 -0.12708288955E+02 -0.36043789938E+02  0.41571685814E+02  0.00000000000E+00 0.  1.
</event>
<event>
 7    1  0.2895479E-015  0.9000773E+02  0.7816164E-02  0.1186339E+00
        -11   -1    0    0    0    0  0.00000000000E+00  0.00000000000E+00  0.45593999997E+02  0.45594000000E+02  0.51100000000E-03 0.  1.
         11   -1    0    0    0    0 -0.00000000000E+00 -0.00000000000E+00 -0.45593999997E+02  0.45594000000E+02  0.51100000000E-03 0. -1.
    9900012    2    1    2    0    0  0.10034386088E+01 -0.48789216266E+00 -0.38485754829E+00  0.90007727516E+02  0.89999988719E+02 0.  0.
        -12    1    1    2    0    0 -0.10034386088E+01  0.48789216266E+00  0.38485754829E+00  0.11802724840E+01  0.00000000000E+00 0.  1.
         11    1    3    3    0    0 -0.34566918082E+02  0.22206594757E+01  0.19522475875E+02  0.39760913203E+02  0.51100000000E-03 0. -1.
        -11    1    3    3    0    0  0.71553661194E+01 -0.21807071594E+00  0.77259568360E+01  0.10532674325E+02  0.51100000000E-03 0.  1.
        -12    1    3    3    0    0  0.28414990572E+02 -0.24904809224E+01 -0.27633290259E+02  0.39714139988E+02  0.00000000000E+00 0.  1.
</event>
<event>
 7    1  0.2895479E-015  0.9000775E+02  0.7816164E-02  0.1186339E+00
        -11   -1    0    0    0    0  0.00000000000E+00  0.00000000000E+00  0.45593999997E+02  0.45594000000E+02  0.51100000000E-03 0. -1.
         11   -1    0    0    0    0 -0.00000000000E+00 -0.00000000000E+00 -0.45593999997E+02  0.45594000000E+02  0.51100000000E-03 0.  1.
    9900012    2    1    2    0    0 -0.31537275144E+00  0.10947408600E+01  0.30832615875E+00  0.90007753186E+02  0.90000014728E+02 0.  0.
        -12    1    1    2    0    0  0.31537275144E+00 -0.10947408600E+01 -0.30832615875E+00  0.11802468145E+01  0.00000000000E+00 0.  1.
         11    1    3    3    0    0 -0.11874055499E+02 -0.28071454360E+02  0.18431015010E+02  0.35618844148E+02  0.51100000000E-03 0. -1.
        -11    1    3    3    0    0  0.44681976867E+01 -0.27560262323E+01  0.99770573886E+01  0.11273958735E+02  0.51100000000E-03 0.  1.
        -12    1    3    3    0    0  0.70904850605E+01  0.31922221452E+02 -0.28099746240E+02  0.43114950303E+02  0.00000000000E+00 0.  1.
</event>
<event>
 7    1  0.2895479E-015  0.9000773E+02  0.7816164E-02  0.1186339E+00
        -11   -1    0    0    0    0  0.00000000000E+00  0.00000000000E+00  0.45593999997E+02  0.45594000000E+02  0.51100000000E-03 0. -1.
         11   -1    0    0    0    0 -0.00000000000E+00 -0.00000000000E+00 -0.45593999997E+02  0.45594000000E+02  0.51100000000E-03 0.  1.
    9900012    2    1    2    0    0 -0.57301477711E+00 -0.79462159432E+00  0.65822704149E+00  0.90007732127E+02  0.89999993391E+02 0.  0.
        -12    1    1    2    0    0  0.57301477711E+00  0.79462159432E+00 -0.65822704149E+00  0.11802678726E+01  0.00000000000E+00 0.  1.
         11    1    3    3    0    0  0.34919590778E+02 -0.11214825656E+02  0.35750979014E+00  0.36678030865E+02  0.51100000000E-03 0. -1.
        -11    1    3    3    0    0  0.53661082515E+01 -0.67272048162E+01  0.25093239557E+01  0.89636549120E+01  0.51100000000E-03 0.  1.
        -12    1    3    3    0    0 -0.40858713807E+02  0.17147408878E+02 -0.22086067044E+01  0.44366046350E+02  0.00000000000E+00 0.  1.
</event>
<event>
 7    1  0.2895479E-015  0.9000768E+02  0.7816164E-02  0.1186339E+00
        -11   -1    0    0    0    0  0.00000000000E+00  0.00000000000E+00  0.45593999997E+02  0.45594000000E+02  0.51100000000E-03 0. -1.
         11   -1    0    0    0    0 -0.00000000000E+00 -0.00000000000E+00 -0.45593999997E+02  0.45594000000E+02  0.51100000000E-03 0.  1.
    9900012    2    1    2    0    0 -0.49049997957E+00  0.10201548200E+01  0.33444315804E+00  0.90007678725E+02  0.89999939284E+02 0.  0.
        -12    1    1    2    0    0  0.49049997957E+00 -0.10201548200E+01 -0.33444315804E+00  0.11803212752E+01  0.00000000000E+00 0.  1.
         11    1    3    3    0    0 -0.23253492945E+02 -0.12765811942E+02  0.22577079405E+02  0.34834112640E+02  0.51100000000E-03 0. -1.
        -11    1    3    3    0    0 -0.10540864519E+01 -0.35280546767E+01  0.10506718602E+02  0.11133256670E+02  0.51100000000E-03 0.  1.
        -12    1    3    3    0    0  0.23817079417E+02  0.17314021439E+02 -0.32749354849E+02  0.44040309415E+02  0.00000000000E+00 0.  1.
</event>
<event>
 7    1  0.2895479E-015  0.9000763E+02  0.7816164E-02  0.1186339E+00
        -11   -1    0    0    0    0  0.00000000000E+00  0.00000000000E+00  0.45593999997E+02  0.45594000000E+02  0.51100000000E-03 0. -1.
         11   -1    0    0    0    0 -0.00000000000E+00 -0.00000000000E+00 -0.45593999997E+02  0.45594000000E+02  0.51100000000E-03 0.  1.
    9900012    2    1    2    0    0 -0.46827722975E+00  0.10374260203E+01  0.31263510241E+00  0.90007628440E+02  0.89999888336E+02 0.  0.
        -12    1    1    2    0    0  0.46827722975E+00 -0.10374260203E+01 -0.31263510241E+00  0.11803715596E+01  0.00000000000E+00 0.  1.
         11    1    3    3    0    0  0.10573423547E+02  0.57534499704E+01  0.39107093695E+02  0.40917774250E+02  0.51100000000E-03 0. -1.
        -11    1    3    3    0    0  0.76713217526E+01 -0.36382303188E+01 -0.36139189917E+01  0.92274757124E+01  0.51100000000E-03 0.  1.
        -12    1    3    3    0    0 -0.18713022529E+02 -0.10777936313E+01 -0.35180539601E+02  0.39862378478E+02  0.00000000000E+00 0.  1.
</event>
<event>
 7    1  0.2895479E-015  0.9000770E+02  0.7816164E-02  0.1186339E+00
        -11   -1    0    0    0    0  0.00000000000E+00  0.00000000000E+00  0.45593999997E+02  0.45594000000E+02  0.51100000000E-03 0. -1.
         11   -1    0    0    0    0 -0.00000000000E+00 -0.00000000000E+00 -0.45593999997E+02  0.45594000000E+02  0.51100000000E-03 0.  1.
    9900012    2    1    2    0    0  0.76673112698E+00  0.89565809127E+00 -0.54988736137E-01  0.90007701818E+02  0.89999962682E+02 0.  0.
        -12    1    1    2    0    0 -0.76673112698E+00 -0.89565809127E+00  0.54988736137E-01  0.11802981821E+01  0.00000000000E+00 0.  1.
         11    1    3    3    0    0 -0.43613455865E+01  0.84218451256E+01 -0.29440189331E+01  0.99305618363E+01  0.51100000000E-03 0. -1.
        -11    1    3    3    0    0  0.20730707141E+02  0.28652291633E+02 -0.12881709956E+02  0.37638470824E+02  0.51100000000E-03 0.  1.
         12    1    3    3    0    0 -0.15602630427E+02 -0.36178478667E+02  0.15770740153E+02  0.42438669157E+02  0.00000000000E+00 0. -1.
</event>
<event>
 7    1  0.2895479E-015  0.9000790E+02  0.7816164E-02  0.1186339E+00
        -11   -1    0    0    0    0  0.00000000000E+00  0.00000000000E+00  0.45593999997E+02  0.45594000000E+02  0.51100000000E-03 0.  1.
         11   -1    0    0    0    0 -0.00000000000E+00 -0.00000000000E+00 -0.45593999997E+02  0.45594000000E+02  0.51100000000E-03 0. -1.
    9900012    2    1    2    0    0 -0.75025279090E+00 -0.90742507058E+00  0.79593149794E-01  0.90007900607E+02  0.90000164094E+02 0.  0.
        -12    1    1    2    0    0  0.75025279090E+00  0.90742507058E+00 -0.79593149794E-01  0.11800993935E+01  0.00000000000E+00 0.  1.
         11    1    3    3    0    0 -0.79043152664E+01  0.79010376130E+00  0.61631514689E+01  0.10054198132E+02  0.51100000000E-03 0. -1.
        -11    1    3    3    0    0 -0.62749167684E+01 -0.35917364065E+02  0.12779434632E+02  0.38636065684E+02  0.51100000000E-03 0.  1.
         12    1    3    3    0    0  0.13428979244E+02  0.34219835233E+02 -0.18862992951E+02  0.41317636790E+02  0.00000000000E+00 0. -1.
</event>
<event>
 7    1  0.2895479E-015  0.9000784E+02  0.7816164E-02  0.1186339E+00
        -11   -1    0    0    0    0  0.00000000000E+00  0.00000000000E+00  0.45593999997E+02  0.45594000000E+02  0.51100000000E-03 0.  1.
         11   -1    0    0    0    0 -0.00000000000E+00 -0.00000000000E+00 -0.45593999997E+02  0.45594000000E+02  0.51100000000E-03 0. -1.
    9900012    2    1    2    0    0  0.10639105532E+01  0.50631519096E+00 -0.67151869421E-01  0.90007843184E+02  0.90000105914E+02 0.  0.
        -12    1    1    2    0    0 -0.10639105532E+01 -0.50631519096E+00  0.67151869421E-01  0.11801568164E+01  0.00000000000E+00 0.  1.
         11    1    3    3    0    0  0.38159276072E+01  0.24914536926E+02 -0.29230932925E+02  0.38597187639E+02  0.51100000000E-03 0. -1.
        -11    1    3    3    0    0 -0.34892989580E+01  0.84182054764E+01  0.36006911998E+01  0.97982839334E+01  0.51100000000E-03 0.  1.
        -12    1    3    3    0    0  0.73728190396E+00 -0.32826427212E+02  0.25563089856E+02  0.41612371611E+02  0.00000000000E+00 0.  1.
</event>
<event>
 7    1  0.2895479E-015  0.9000782E+02  0.7816164E-02  0.1186339E+00
        -11   -1    0    0    0    0  0.00000000000E+00  0.00000000000E+00  0.45593999997E+02  0.45594000000E+02  0.51100000000E-03 0. -1.
         11   -1    0    0    0    0 -0.00000000000E+00 -0.00000000000E+00 -0.45593999997E+02  0.45594000000E+02  0.51100000000E-03 0.  1.
    9900012    2    1    2    0    0 -0.50030254011E+00 -0.36775618314E+00  0.10036344983E+01  0.90007818044E+02  0.90000080443E+02 0.  0.
        -12    1    1    2    0    0  0.50030254011E+00  0.36775618314E+00 -0.10036344983E+01  0.11801819555E+01  0.00000000000E+00 0.  1.
         11    1    3    3    0    0  0.60625850925E+01 -0.39696460052E+01 -0.10599305465E+02  0.12839715885E+02  0.51100000000E-03 0. -1.
        -11    1    3    3    0    0 -0.96216981600E+01 -0.35626255264E+02  0.43527668501E+01  0.37158494576E+02  0.51100000000E-03 0.  1.
         12    1    3    3    0    0  0.30588105274E+01  0.39228145086E+02  0.72501731136E+01  0.40009607583E+02  0.00000000000E+00 0. -1.
</event>
<event>
 7    1  0.2895479E-015  0.9000751E+02  0.7816164E-02  0.1186340E+00
        -11   -1    0    0    0    0  0.00000000000E+00  0.00000000000E+00  0.45593999997E+02  0.45594000000E+02  0.51100000000E-03 0.  1.
         11   -1    0    0    0    0 -0.00000000000E+00 -0.00000000000E+00 -0.45593999997E+02  0.45594000000E+02  0.51100000000E-03 0. -1.
    9900012    2    1    2    0    0 -0.62858521436E+00  0.98977109663E+00  0.13710562515E+00  0.90007506820E+02  0.89999765110E+02 0.  0.
        -12    1    1    2    0    0  0.62858521436E+00 -0.98977109663E+00 -0.13710562515E+00  0.11804931799E+01  0.00000000000E+00 0.  1.
         11    1    3    3    0    0  0.33131149654E+02  0.15625415720E+02  0.17100599090E+02  0.40425946907E+02  0.51100000000E-03 0. -1.
        -11    1    3    3    0    0 -0.10556698223E+02  0.85861791103E+01 -0.31569079999E+01  0.13968980545E+02  0.51100000000E-03 0.  1.
        -12    1    3    3    0    0 -0.23203036645E+02 -0.23221823733E+02 -0.13806585465E+02  0.35612579368E+02  0.00000000000E+00 0.  1.
</event>
<event>
 7    1  0.2895479E-015  0.9000787E+02  0.7816164E-02  0.1186339E+00
        -11   -1    0    0    0    0  0.00000000000E+00  0.00000000000E+00  0.45593999997E+02  0.45594000000E+02  0.51100000000E-03 0.  1.
         11   -1    0    0    0    0 -0.00000000000E+00 -0.00000000000E+00 -0.45593999997E+02  0.45594000000E+02  0.51100000000E-03 0. -1.
    9900012    2    1    2    0    0  0.26812017572E+00  0.91996924017E+00 -0.68882908143E+00  0.90007865544E+02  0.90000128569E+02 0.  0.
        -12    1    1    2    0    0 -0.26812017572E+00 -0.91996924017E+00  0.68882908143E+00  0.11801344563E+01  0.00000000000E+00 0.  1.
         11    1    3    3    0    0 -0.76793085664E+01 -0.15416339965E+02  0.20832315980E+01  0.17348636031E+02  0.51100000000E-03 0. -1.
        -11    1    3    3    0    0 -0.12637962238E+02 -0.20404322129E+02  0.13468375434E+02  0.27521838386E+02  0.51100000000E-03 0.  1.
         12    1    3    3    0    0  0.20585390980E+02  0.36740631334E+02 -0.16240436113E+02  0.45137391127E+02  0.00000000000E+00 0. -1.
</event>
<event>
 7    1  0.2895479E-015  0.9000776E+02  0.7816164E-02  0.1186339E+00
        -11   -1    0    0    0    0  0.00000000000E+00  0.00000000000E+00  0.45593999997E+02  0.45594000000E+02  0.51100000000E-03 0.  1.
         11   -1    0    0    0    0 -0.00000000000E+00 -0.00000000000E+00 -0.45593999997E+02  0.45594000000E+02  0.51100000000E-03 0. -1.
    9900012    2    1    2    0    0  0.48135370846E+00  0.41277779884E+00 -0.99543375490E+00  0.90007756269E+02  0.90000017852E+02 0.  0.
        -12    1    1    2    0    0 -0.48135370846E+00 -0.41277779884E+00  0.99543375490E+00  0.11802437309E+01  0.00000000000E+00 0.  1.
         11    1    3    3    0    0  0.44076467506E+01  0.57535635859E+01 -0.68312067244E+01  0.99597303874E+01  0.51100000000E-03 0. -1.
        -11    1    3    3    0    0  0.30794188584E+02  0.17319261574E+02 -0.82117788757E+01  0.36272195751E+02  0.51100000000E-03 0.  1.
         12    1    3    3    0    0 -0.34720481626E+02 -0.22660047361E+02  0.14047551845E+02  0.43775830131E+02  0.00000000000E+00 0. -1.
</event>
<event>
 7    1  0.2895479E-015  0.9000769E+02  0.7816164E-02  0.1186339E+00
        -11   -1    0    0    0    0  0.00000000000E+00  0.00000000000E+00  0.45593999997E+02  0.45594000000E+02  0.51100000000E-03 0.  1.
         11   -1    0    0    0    0 -0.00000000000E+00 -0.00000000000E+00 -0.45593999997E+02  0.45594000000E+02  0.51100000000E-03 0. -1.
    9900012    2    1    2    0    0  0.37611616723E+00 -0.10568959167E+01  0.36693761190E+00  0.90007688363E+02  0.89999949049E+02 0.  0.
        -12    1    1    2    0    0 -0.37611616723E+00  0.10568959167E+01 -0.36693761190E+00  0.11803116372E+01  0.00000000000E+00 0.  1.
         11    1    3    3    0    0 -0.28009289491E+02  0.24519766240E+02 -0.19674323240E+02  0.42104848052E+02  0.51100000000E-03 0. -1.
        -11    1    3    3    0    0 -0.19249318355E+01 -0.84517323630E+01  0.33247910720E+01  0.92839311953E+01  0.51100000000E-03 0.  1.
        -12    1    3    3    0    0  0.30310337494E+02 -0.17124929794E+02  0.16716469779E+02  0.38618909116E+02  0.00000000000E+00 0.  1.
</event>
<event>
 7    1  0.2895479E-015  0.9000768E+02  0.7816164E-02  0.1186339E+00
        -11   -1    0    0    0    0  0.00000000000E+00  0.00000000000E+00  0.45593999997E+02  0.45594000000E+02  0.51100000000E-03 0.  1.
         11   -1    0    0    0    0 -0.00000000000E+00 -0.00000000000E+00 -0.45593999997E+02  0.45594000000E+02  0.51100000000E-03 0. -1.
    9900012    2    1    2    0    0  0.27774538807E+00 -0.63943674206E+00 -0.95243276738E+00  0.90007682236E+02  0.89999942841E+02 0.  0.
        -12    1    1    2    0    0 -0.27774538807E+00  0.63943674206E+00  0.95243276738E+00  0.11803177640E+01  0.00000000000E+00 0.  1.
         11    1    3    3    0    0 -0.43415300232E+01 -0.80895412202E+01  0.11402206093E+00  0.91816426301E+01  0.51100000000E-03 0. -1.
        -11    1    3    3    0    0  0.13819876390E+02 -0.27705553379E+02  0.21822337113E+02  0.37878768048E+02  0.51100000000E-03 0.  1.
         12    1    3    3    0    0 -0.92006009788E+01  0.35155657857E+02 -0.22888791942E+02  0.42947271558E+02  0.00000000000E+00 0. -1.
</event>
<event>
 7    1  0.2895479E-015  0.9000832E+02  0.7816164E-02  0.1186338E+00
        -11   -1    0    0    0    0  0.00000000000E+00  0.00000000000E+00  0.45593999997E+02  0.45594000000E+02  0.51100000000E-03 0.  1.
         11   -1    0    0    0    0 -0.00000000000E+00 -0.00000000000E+00 -0.45593999997E+02  0.45594000000E+02  0.51100000000E-03 0. -1.
    9900012    2    1    2    0    0  0.10784517237E+01  0.30931804290E+00 -0.36457180517E+00  0.90008318529E+02  0.90000587532E+02 0.  0.
        -12    1    1    2    0    0 -0.10784517237E+01 -0.30931804290E+00  0.36457180517E+00  0.11796814710E+01  0.00000000000E+00 0.  1.
         11    1    3    3    0    0  0.32967318178E+02  0.21134702170E+02 -0.14475018505E+02  0.41749800773E+02  0.51100000000E-03 0. -1.
        -11    1    3    3    0    0  0.22987063594E+00 -0.90153780202E+01 -0.36189721655E+01  0.97173474340E+01  0.51100000000E-03 0.  1.
        -12    1    3    3    0    0 -0.32118737090E+02 -0.11810006107E+02  0.17729418865E+02  0.38541170322E+02  0.00000000000E+00 0.  1.
</event>
<event>
 7    1  0.2895479E-015  0.9000765E+02  0.7816164E-02  0.1186339E+00
        -11   -1    0    0    0    0  0.00000000000E+00  0.00000000000E+00  0.45593999997E+02  0.45594000000E+02  0.51100000000E-03 0.  1.
         11   -1    0    0    0    0 -0.00000000000E+00 -0.00000000000E+00 -0.45593999997E+02  0.45594000000E+02  0.51100000000E-03 0. -1.
    9900012    2    1    2    0    0 -0.45168842623E+00 -0.30285949154E+00 -0.10476120309E+01  0.90007645277E+02  0.89999905394E+02 0.  0.
        -12    1    1    2    0    0  0.45168842623E+00  0.30285949154E+00  0.10476120309E+01  0.11803547235E+01  0.00000000000E+00 0.  1.
         11    1    3    3    0    0  0.74500829507E+01  0.75934276635E+01 -0.81695701879E+00  0.10669175164E+02  0.51100000000E-03 0. -1.
        -11    1    3    3    0    0  0.18088912163E+01  0.16745155647E+02  0.32877063921E+02  0.36940136132E+02  0.51100000000E-03 0.  1.
         12    1    3    3    0    0 -0.97106625932E+01 -0.24641442802E+02 -0.33107718933E+02  0.42398333981E+02  0.00000000000E+00 0. -1.
</event>
<event>
 7    1  0.2895479E-015  0.9000779E+02  0.7816164E-02  0.1186339E+00
        -11   -1    0    0    0    0  0.00000000000E+00  0.00000000000E+00  0.45593999997E+02  0.45594000000E+02  0.51100000000E-03 0. -1.
         11   -1    0    0    0    0 -0.00000000000E+00 -0.00000000000E+00 -0.45593999997E+02  0.45594000000E+02  0.51100000000E-03 0.  1.
    9900012    2    1    2    0    0  0.52054952864E+00  0.82352945551E+00 -0.66613333041E+00  0.90007785532E+02  0.90000047501E+02 0.  0.
        -12    1    1    2    0    0 -0.52054952864E+00 -0.82352945551E+00  0.66613333041E+00  0.11802144677E+01  0.00000000000E+00 0.  1.
         11    1    3    3    0    0  0.40460522773E+01 -0.10124385185E+02 -0.24460667016E+01  0.11173940978E+02  0.51100000000E-03 0. -1.
        -11    1    3    3    0    0  0.34772719670E+02  0.10863927809E+01 -0.12232068562E+02  0.36877442754E+02  0.51100000000E-03 0.  1.
         12    1    3    3    0    0 -0.38298222419E+02  0.98615218597E+01  0.14012001933E+02  0.41956401800E+02  0.00000000000E+00 0. -1.
</event>
<event>
 7    1  0.2895479E-015  0.9000771E+02  0.7816164E-02  0.1186339E+00
        -11   -1    0    0    0    0  0.00000000000E+00  0.00000000000E+00  0.45593999997E+02  0.45594000000E+02  0.51100000000E-03 0.  1.
         11   -1    0    0    0    0 -0.00000000000E+00 -0.00000000000E+00 -0.45593999997E+02  0.45594000000E+02  0.51100000000E-03 0. -1.
    9900012    2    1    2    0    0  0.97731558906E+00 -0.53375395010E+00 -0.39119948335E+00  0.90007713562E+02  0.89999974581E+02 0.  0.
        -12    1    1    2    0    0 -0.97731558906E+00  0.53375395010E+00  0.39119948335E+00  0.11802864380E+01  0.00000000000E+00 0.  1.
         11    1    3    3    0    0 -0.65836622574E+01 -0.37332672321E+02 -0.97514481762E+01  0.39142863630E+02  0.51100000000E-03 0. -1.
        -11    1    3    3    0    0  0.25349190480E-01 -0.33366929561E+00 -0.88291348849E+01  0.88354740030E+01  0.51100000000E-03 0.  1.
        -12    1    3    3    0    0  0.75356286559E+01  0.37132587667E+02  0.18189383578E+02  0.42029375929E+02  0.00000000000E+00 0.  1.
</event>
<event>
 7    1  0.2895479E-015  0.9000774E+02  0.7816164E-02  0.1186339E+00
        -11   -1    0    0    0    0  0.00000000000E+00  0.00000000000E+00  0.45593999997E+02  0.45594000000E+02  0.51100000000E-03 0. -1.
         11   -1    0    0    0    0 -0.00000000000E+00 -0.00000000000E+00 -0.45593999997E+02  0.45594000000E+02  0.51100000000E-03 0.  1.
    9900012    2    1    2    0    0  0.29966758725E+00  0.90698537012E+00 -0.69324763041E+00  0.90007739265E+02  0.90000000624E+02 0.  0.
        -12    1    1    2    0    0 -0.29966758725E+00 -0.90698537012E+00  0.69324763041E+00  0.11802607345E+01  0.00000000000E+00 0.  1.
         11    1    3    3    0    0 -0.13822311031E+02 -0.41522070514E+01  0.40172352055E+02  0.42686238714E+02  0.51100000000E-03 0. -1.
        -11    1    3    3    0    0  0.82748961676E+01 -0.84635301205E+00 -0.34686874526E+01  0.90123256105E+01  0.51100000000E-03 0.  1.
        -12    1    3    3    0    0  0.58470824509E+01  0.59055454336E+01 -0.37396912233E+02  0.38309174941E+02  0.00000000000E+00 0.  1.
</event>
<event>
 7    1  0.2895479E-015  0.9000771E+02  0.7816164E-02  0.1186339E+00
        -11   -1    0    0    0    0  0.00000000000E+00  0.00000000000E+00  0.45593999997E+02  0.45594000000E+02  0.51100000000E-03 0.  1.
         11   -1    0    0    0    0 -0.00000000000E+00 -0.00000000000E+00 -0.45593999997E+02  0.45594000000E+02  0.51100000000E-03 0. -1.
    9900012    2    1    2    0    0 -0.77671177210E+00  0.37643727336E+00 -0.80505185099E+00  0.90007705681E+02  0.89999966596E+02 0.  0.
        -12    1    1    2    0    0  0.77671177210E+00 -0.37643727336E+00  0.80505185099E+00  0.11802943194E+01  0.00000000000E+00 0.  1.
         11    1    3    3    0    0 -0.25357549227E+01  0.53920689388E+00  0.86976168370E+01  0.90757553959E+01  0.51100000000E-03 0. -1.
        -11    1    3    3    0    0  0.23681128664E+02 -0.33309581540E+01  0.28341180062E+02  0.37082524518E+02  0.51100000000E-03 0.  1.
         12    1    3    3    0    0 -0.21922085513E+02  0.31681885335E+01 -0.37843848751E+02  0.43849425767E+02  0.00000000000E+00 0. -1.
</event>
<event>
 7    1  0.2895479E-015  0.9000763E+02  0.7816164E-02  0.1186339E+00
        -11   -1    0    0    0    0  0.00000000000E+00  0.00000000000E+00  0.45593999997E+02  0.45594000000E+02  0.51100000000E-03 0. -1.
         11   -1    0    0    0    0 -0.00000000000E+00 -0.00000000000E+00 -0.45593999997E+02  0.45594000000E+02  0.51100000000E-03 0.  1.
    9900012    2    1    2    0    0 -0.22201031741E+00 -0.79424252003E+00 -0.84448436922E+00  0.90007634120E+02  0.89999894090E+02 0.  0.
        -12    1    1    2    0    0  0.22201031741E+00  0.79424252003E+00  0.84448436922E+00  0.11803658804E+01  0.00000000000E+00 0.  1.
         11    1    3    3    0    0  0.10616374991E+02  0.26062995886E+02 -0.33641495225E+02  0.43860430615E+02  0.51100000000E-03 0. -1.
        -11    1    3    3    0    0  0.32867152246E+01 -0.36271624288E+01  0.27049232461E+01  0.55924426042E+01  0.51100000000E-03 0.  1.
        -12    1    3    3    0    0 -0.14125100533E+02 -0.23230075978E+02  0.30092087609E+02  0.40554760900E+02  0.00000000000E+00 0.  1.
</event>
<event>
 7    1  0.2895479E-015  0.9000777E+02  0.7816164E-02  0.1186339E+00
        -11   -1    0    0    0    0  0.00000000000E+00  0.00000000000E+00  0.45593999997E+02  0.45594000000E+02  0.51100000000E-03 0.  1.
         11   -1    0    0    0    0 -0.00000000000E+00 -0.00000000000E+00 -0.45593999997E+02  0.45594000000E+02  0.51100000000E-03 0. -1.
    9900012    2    1    2    0    0  0.81245167890E-01  0.19574544692E+00 -0.11610452747E+01  0.90007769858E+02  0.90000031620E+02 0.  0.
        -12    1    1    2    0    0 -0.81245167890E-01 -0.19574544692E+00  0.11610452747E+01  0.11802301417E+01  0.00000000000E+00 0.  1.
         11    1    3    3    0    0 -0.31071842127E+02 -0.50069189726E+01  0.85594668833E+00  0.31484301736E+02  0.51100000000E-03 0. -1.
        -11    1    3    3    0    0 -0.10784321723E+02 -0.10823242805E+01 -0.10708356981E+02  0.15236204592E+02  0.51100000000E-03 0.  1.
        -12    1    3    3    0    0  0.41937409018E+02  0.62849887000E+01  0.86913650180E+01  0.43287263531E+02  0.00000000000E+00 0.  1.
</event>
<event>
 7    1  0.2895479E-015  0.9000724E+02  0.7816164E-02  0.1186340E+00
        -11   -1    0    0    0    0  0.00000000000E+00  0.00000000000E+00  0.45593999997E+02  0.45594000000E+02  0.51100000000E-03 0. -1.
         11   -1    0    0    0    0 -0.00000000000E+00 -0.00000000000E+00 -0.45593999997E+02  0.45594000000E+02  0.51100000000E-03 0.  1.
    9900012    2    1    2    0    0 -0.92718520841E+00  0.28195471218E+00  0.67455365367E+00  0.90007240286E+02  0.89999495056E+02 0.  0.
        -12    1    1    2    0    0  0.92718520841E+00 -0.28195471218E+00 -0.67455365367E+00  0.11807597140E+01  0.00000000000E+00 0.  1.
         11    1    3    3    0    0  0.34118794838E+02 -0.29304338127E+01 -0.11528205700E+02  0.36132798542E+02  0.51100000000E-03 0. -1.
        -11    1    3    3    0    0  0.77727966823E+01  0.51250434158E+01  0.44432789308E+01  0.10316257374E+02  0.51100000000E-03 0.  1.
        -12    1    3    3    0    0 -0.42818776729E+02 -0.19126548909E+01  0.77594804230E+01  0.43558184371E+02  0.00000000000E+00 0.  1.
</event>
<event>
 7    1  0.2895479E-015  0.9000772E+02  0.7816164E-02  0.1186339E+00
        -11   -1    0    0    0    0  0.00000000000E+00  0.00000000000E+00  0.45593999997E+02  0.45594000000E+02  0.51100000000E-03 0. -1.
         11   -1    0    0    0    0 -0.00000000000E+00 -0.00000000000E+00 -0.45593999997E+02  0.45594000000E+02  0.51100000000E-03 0.  1.
    9900012    2    1    2    0    0  0.33931312326E-01  0.11715214177E+01  0.13943000292E+00  0.90007722706E+02  0.89999983845E+02 0.  0.
        -12    1    1    2    0    0 -0.33931312326E-01 -0.11715214177E+01 -0.13943000292E+00  0.11802772945E+01  0.00000000000E+00 0.  1.
         11    1    3    3    0    0 -0.49444017788E+01  0.30130463449E+02  0.29112166566E+02  0.42187796565E+02  0.51100000000E-03 0. -1.
        -11    1    3    3    0    0  0.45817457455E+01 -0.43061590542E+01  0.33834156923E+01  0.71402312206E+01  0.51100000000E-03 0.  1.
        -12    1    3    3    0    0  0.39658734567E+00 -0.24652782977E+02 -0.32356152255E+02  0.40679694920E+02  0.00000000000E+00 0.  1.
</event>
<event>
 7    1  0.2895479E-015  0.9000771E+02  0.7816164E-02  0.1186339E+00
        -11   -1    0    0    0    0  0.00000000000E+00  0.00000000000E+00  0.45593999997E+02  0.45594000000E+02  0.51100000000E-03 0. -1.
         11   -1    0    0    0    0 -0.00000000000E+00 -0.00000000000E+00 -0.45593999997E+02  0.45594000000E+02  0.51100000000E-03 0.  1.
    9900012    2    1    2    0    0  0.90469678030E-01 -0.24137147695E+00  0.11517951509E+01  0.90007713161E+02  0.89999974175E+02 0.  0.
        -12    1    1    2    0    0 -0.90469678030E-01  0.24137147695E+00 -0.11517951509E+01  0.11802868389E+01  0.00000000000E+00 0.  1.
         11    1    3    3    0    0  0.15759443936E+02 -0.15651150246E+02 -0.30563359443E+02  0.37781444095E+02  0.51100000000E-03 0. -1.
        -11    1    3    3    0    0  0.35888267520E+01  0.16212670315E+02  0.18862916022E+01  0.16711925457E+02  0.51100000000E-03 0.  1.
        -12    1    3    3    0    0 -0.19257801010E+02 -0.80289154564E+00  0.29828862992E+02  0.35514343609E+02  0.00000000000E+00 0.  1.
</event>
<event>
 7    1  0.2895479E-015  0.9000769E+02  0.7816164E-02  0.1186339E+00
        -11   -1    0    0    0    0  0.00000000000E+00  0.00000000000E+00  0.45593999997E+02  0.45594000000E+02  0.51100000000E-03 0.  1.
         11   -1    0    0    0    0 -0.00000000000E+00 -0.00000000000E+00 -0.45593999997E+02  0.45594000000E+02  0.51100000000E-03 0. -1.
    9900012    2    1    2    0    0  0.37198490114E-02 -0.10737556298E+01  0.49007497799E+00  0.90007687129E+02  0.89999947799E+02 0.  0.
        -12    1    1    2    0    0 -0.37198490114E-02  0.10737556298E+01 -0.49007497799E+00  0.11803128712E+01  0.00000000000E+00 0.  1.
         11    1    3    3    0    0  0.36820999560E+02 -0.14062192890E+02 -0.68461152276E+01  0.40005006830E+02  0.51100000000E-03 0. -1.
        -11    1    3    3    0    0  0.21125592535E+01  0.90406021243E+01 -0.25805603793E+01  0.96361136098E+01  0.51100000000E-03 0.  1.
        -12    1    3    3    0    0 -0.38929838965E+02  0.39478351363E+01  0.99167505849E+01  0.40366566689E+02  0.00000000000E+00 0.  1.
</event>
<event>
 7    1  0.2895479E-015  0.9000763E+02  0.7816164E-02  0.1186339E+00
        -11   -1    0    0    0    0  0.00000000000E+00  0.00000000000E+00  0.45593999997E+02  0.45594000000E+02  0.51100000000E-03 0.  1.
         11   -1    0    0    0    0 -0.00000000000E+00 -0.00000000000E+00 -0.45593999997E+02  0.45594000000E+02  0.51100000000E-03 0. -1.
    9900012    2    1    2    0    0  0.83161591598E+00  0.62268999396E+00 -0.56031126408E+00  0.90007628629E+02  0.89999888527E+02 0.  0.
        -12    1    1    2    0    0 -0.83161591598E+00 -0.62268999396E+00  0.56031126408E+00  0.11803713708E+01  0.00000000000E+00 0.  1.
         11    1    3    3    0    0  0.52067183446E+00  0.17222906149E+02 -0.17531465540E+01  0.17319732056E+02  0.51100000000E-03 0. -1.
        -11    1    3    3    0    0  0.20717544690E+01 -0.14322359048E+02  0.35460380339E+02  0.38299617613E+02  0.51100000000E-03 0.  1.
         12    1    3    3    0    0 -0.17608103874E+01 -0.22778571070E+01 -0.34267545049E+02  0.34388278961E+02  0.00000000000E+00 0. -1.
</event>
<event>
 7    1  0.2895479E-015  0.9000774E+02  0.7816164E-02  0.1186339E+00
        -11   -1    0    0    0    0  0.00000000000E+00  0.00000000000E+00  0.45593999997E+02  0.45594000000E+02  0.51100000000E-03 0.  1.
         11   -1    0    0    0    0 -0.00000000000E+00 -0.00000000000E+00 -0.45593999997E+02  0.45594000000E+02  0.51100000000E-03 0. -1.
    9900012    2    1    2    0    0  0.11286958862E+01 -0.24886660186E-01 -0.34413840297E+00  0.90007743676E+02  0.90000005093E+02 0.  0.
        -12    1    1    2    0    0 -0.11286958862E+01  0.24886660186E-01  0.34413840297E+00  0.11802563238E+01  0.00000000000E+00 0.  1.
         11    1    3    3    0    0 -0.20138937477E+02  0.38915406550E+02 -0.25519110019E+01  0.43891888996E+02  0.51100000000E-03 0. -1.
        -11    1    3    3    0    0 -0.10385982773E+01 -0.56696207866E+01  0.18647670664E+01  0.60581055387E+01  0.51100000000E-03 0.  1.
        -12    1    3    3    0    0  0.22306231640E+02 -0.33270672423E+02  0.34300553250E+00  0.40057749141E+02  0.00000000000E+00 0.  1.
</event>
<event>
 7    1  0.2895479E-015  0.9000791E+02  0.7816164E-02  0.1186339E+00
        -11   -1    0    0    0    0  0.00000000000E+00  0.00000000000E+00  0.45593999997E+02  0.45594000000E+02  0.51100000000E-03 0. -1.
         11   -1    0    0    0    0 -0.00000000000E+00 -0.00000000000E+00 -0.45593999997E+02  0.45594000000E+02  0.51100000000E-03 0.  1.
    9900012    2    1    2    0    0 -0.86768205757E+00  0.57713965373E+00 -0.55375702612E+00  0.90007911369E+02  0.90000174999E+02 0.  0.
        -12    1    1    2    0    0  0.86768205757E+00 -0.57713965373E+00  0.55375702612E+00  0.11800886310E+01  0.00000000000E+00 0.  1.
         11    1    3    3    0    0  0.81236255063E+01  0.70707301758E+00  0.47168166021E+01  0.94202761498E+01  0.51100000000E-03 0. -1.
        -11    1    3    3    0    0  0.58349927097E+00  0.35947235374E+02 -0.19187173022E+02  0.40751586611E+02  0.51100000000E-03 0.  1.
         12    1    3    3    0    0 -0.95748068348E+01 -0.36077168738E+02  0.13916599394E+02  0.39836048609E+02  0.00000000000E+00 0. -1.
</event>
<event>
 7    1  0.2895479E-015  0.9000774E+02  0.7816164E-02  0.1186339E+00
        -11   -1    0    0    0    0  0.00000000000E+00  0.00000000000E+00  0.45593999997E+02  0.45594000000E+02  0.51100000000E-03 0.  1.
         11   -1    0    0    0    0 -0.00000000000E+00 -0.00000000000E+00 -0.45593999997E+02  0.45594000000E+02  0.51100000000E-03 0. -1.
    9900012    2    1    2    0    0  0.66472879307E+00  0.20055495821E+00 -0.95442402233E+00  0.90007740760E+02  0.90000002138E+02 0.  0.
        -12    1    1    2    0    0 -0.66472879307E+00 -0.20055495821E+00  0.95442402233E+00  0.11802592402E+01  0.00000000000E+00 0.  1.
         11    1    3    3    0    0 -0.78620939084E+01 -0.16132954751E+01 -0.13096133206E+01  0.81320557195E+01  0.51100000000E-03 0. -1.
        -11    1    3    3    0    0 -0.34475868792E+02  0.10285456521E+02  0.92622478749E+01  0.37150577126E+02  0.51100000000E-03 0.  1.
         12    1    3    3    0    0  0.43002691494E+02 -0.84716060881E+01 -0.89070585767E+01  0.44725107914E+02  0.00000000000E+00 0. -1.
</event>
<event>
 7    1  0.2895479E-015  0.9000746E+02  0.7816164E-02  0.1186340E+00
        -11   -1    0    0    0    0  0.00000000000E+00  0.00000000000E+00  0.45593999997E+02  0.45594000000E+02  0.51100000000E-03 0. -1.
         11   -1    0    0    0    0 -0.00000000000E+00 -0.00000000000E+00 -0.45593999997E+02  0.45594000000E+02  0.51100000000E-03 0.  1.
    9900012    2    1    2    0    0  0.22012096267E+00 -0.11166108012E+01  0.31369974953E+00  0.90007457560E+02  0.89999715199E+02 0.  0.
        -12    1    1    2    0    0 -0.22012096267E+00  0.11166108012E+01 -0.31369974953E+00  0.11805424400E+01  0.00000000000E+00 0.  1.
         11    1    3    3    0    0  0.36493591772E+02  0.67154665549E+00  0.10396458953E+02  0.37951542450E+02  0.51100000000E-03 0. -1.
        -11    1    3    3    0    0  0.17668448162E+01 -0.11096123738E+02  0.12017806846E+01  0.11299999101E+02  0.51100000000E-03 0.  1.
        -12    1    3    3    0    0 -0.38040315626E+02  0.93079662814E+01 -0.11284539888E+02  0.40755916008E+02  0.00000000000E+00 0.  1.
</event>
<event>
 7    1  0.2895479E-015  0.9000743E+02  0.7816164E-02  0.1186340E+00
        -11   -1    0    0    0    0  0.00000000000E+00  0.00000000000E+00  0.45593999997E+02  0.45594000000E+02  0.51100000000E-03 0.  1.
         11   -1    0    0    0    0 -0.00000000000E+00 -0.00000000000E+00 -0.45593999997E+02  0.45594000000E+02  0.51100000000E-03 0. -1.
    9900012    2    1    2    0    0  0.17088459563E-01 -0.11625329374E+01  0.20484464546E+00  0.90007433960E+02  0.89999691288E+02 0.  0.
        -12    1    1    2    0    0 -0.17088459563E-01  0.11625329374E+01 -0.20484464546E+00  0.11805660400E+01  0.00000000000E+00 0.  1.
         11    1    3    3    0    0  0.31098623645E+02  0.65095640230E+01  0.18065367181E+02  0.36549368094E+02  0.51100000000E-03 0. -1.
        -11    1    3    3    0    0  0.64915832570E+01  0.66302199365E+01 -0.75271007986E+01  0.11948126057E+02  0.51100000000E-03 0.  1.
        -12    1    3    3    0    0 -0.37573118443E+02 -0.14302316897E+02 -0.10333421737E+02  0.41509939809E+02  0.00000000000E+00 0.  1.
</event>
<event>
 7    1  0.2895479E-015  0.9000775E+02  0.7816164E-02  0.1186339E+00
        -11   -1    0    0    0    0  0.00000000000E+00  0.00000000000E+00  0.45593999997E+02  0.45594000000E+02  0.51100000000E-03 0.  1.
         11   -1    0    0    0    0 -0.00000000000E+00 -0.00000000000E+00 -0.45593999997E+02  0.45594000000E+02  0.51100000000E-03 0. -1.
    9900012    2    1    2    0    0 -0.90801486702E+00 -0.10542846258E+00  0.74658299918E+00  0.90007749038E+02  0.90000010525E+02 0.  0.
        -12    1    1    2    0    0  0.90801486702E+00  0.10542846258E+00 -0.74658299918E+00  0.11802509623E+01  0.00000000000E+00 0.  1.
         11    1    3    3    0    0 -0.24144135710E+02 -0.12167037138E+02 -0.26618421549E+02  0.37940960029E+02  0.51100000000E-03 0. -1.
        -11    1    3    3    0    0 -0.97770388869E+00  0.67182324692E+01 -0.69596092225E+01  0.97224849290E+01  0.51100000000E-03 0.  1.
        -12    1    3    3    0    0  0.24213824732E+02  0.53433762063E+01  0.34324613771E+02  0.42344304079E+02  0.00000000000E+00 0.  1.
</event>
<event>
 7    1  0.2895479E-015  0.9000779E+02  0.7816164E-02  0.1186339E+00
        -11   -1    0    0    0    0  0.00000000000E+00  0.00000000000E+00  0.45593999997E+02  0.45594000000E+02  0.51100000000E-03 0.  1.
         11   -1    0    0    0    0 -0.00000000000E+00 -0.00000000000E+00 -0.45593999997E+02  0.45594000000E+02  0.51100000000E-03 0. -1.
    9900012    2    1    2    0    0  0.38015893029E+00  0.79688764841E+00 -0.78316265030E+00  0.90007790496E+02  0.90000052531E+02 0.  0.
        -12    1    1    2    0    0 -0.38015893029E+00 -0.79688764841E+00  0.78316265030E+00  0.11802095040E+01  0.00000000000E+00 0.  1.
         11    1    3    3    0    0  0.48090344689E+01  0.11396645190E+02  0.43631532161E+01  0.13116685571E+02  0.51100000000E-03 0. -1.
        -11    1    3    3    0    0 -0.34545605970E+02  0.13993803611E+02  0.21314780287E+01  0.37333210820E+02  0.51100000000E-03 0.  1.
         12    1    3    3    0    0  0.30116730431E+02 -0.24593561153E+02 -0.72777938951E+01  0.39557894105E+02  0.00000000000E+00 0. -1.
</event>
<event>
 7    1  0.2895479E-015  0.9000795E+02  0.7816164E-02  0.1186339E+00
        -11   -1    0    0    0    0  0.00000000000E+00  0.00000000000E+00  0.45593999997E+02  0.45594000000E+02  0.51100000000E-03 0.  1.
         11   -1    0    0    0    0 -0.00000000000E+00 -0.00000000000E+00 -0.45593999997E+02  0.45594000000E+02  0.51100000000E-03 0. -1.
    9900012    2    1    2    0    0  0.29451023686E+00 -0.11424544297E+01 -0.23981499919E-01  0.90007951901E+02  0.90000216066E+02 0.  0.
        -12    1    1    2    0    0 -0.29451023686E+00  0.11424544297E+01  0.23981499919E-01  0.11800480989E+01  0.00000000000E+00 0.  1.
         11    1    3    3    0    0 -0.39689252383E+01  0.91867040209E+01  0.30620640241E+01  0.10465377904E+02  0.51100000000E-03 0. -1.
        -11    1    3    3    0    0  0.16238192990E+01 -0.29791171188E+01  0.37782499381E+02  0.37934538190E+02  0.51100000000E-03 0.  1.
         12    1    3    3    0    0  0.26396161761E+01 -0.73500413318E+01 -0.40868544905E+02  0.41608035808E+02  0.00000000000E+00 0. -1.
</event>
<event>
 7    1  0.2895479E-015  0.9000776E+02  0.7816164E-02  0.1186339E+00
        -11   -1    0    0    0    0  0.00000000000E+00  0.00000000000E+00  0.45593999997E+02  0.45594000000E+02  0.51100000000E-03 0. -1.
         11   -1    0    0    0    0 -0.00000000000E+00 -0.00000000000E+00 -0.45593999997E+02  0.45594000000E+02  0.51100000000E-03 0.  1.
    9900012    2    1    2    0    0 -0.11628305754E+01  0.18406196431E-01  0.20111157284E+00  0.90007762905E+02  0.90000024576E+02 0.  0.
        -12    1    1    2    0    0  0.11628305754E+01 -0.18406196431E-01 -0.20111157284E+00  0.11802370948E+01  0.00000000000E+00 0.  1.
         11    1    3    3    0    0 -0.44079739593E+01  0.21671866084E+01  0.87834189705E+01  0.10063567026E+02  0.51100000000E-03 0. -1.
        -11    1    3    3    0    0 -0.24090580643E+01  0.25770703878E+02  0.24946612447E+02  0.35948104428E+02  0.51100000000E-03 0.  1.
         12    1    3    3    0    0  0.56542014482E+01 -0.27919484290E+02 -0.33528919844E+02  0.43996091451E+02  0.00000000000E+00 0. -1.
</event>
<event>
 7    1  0.2895479E-015  0.9000761E+02  0.7816164E-02  0.1186339E+00
        -11   -1    0    0    0    0  0.00000000000E+00  0.00000000000E+00  0.45593999997E+02  0.45594000000E+02  0.51100000000E-03 0.  1.
         11   -1    0    0    0    0 -0.00000000000E+00 -0.00000000000E+00 -0.45593999997E+02  0.45594000000E+02  0.51100000000E-03 0. -1.
    9900012    2    1    2    0    0  0.97263114199E+00  0.66709402399E+00 -0.47912629235E-01  0.90007609643E+02  0.89999869290E+02 0.  0.
        -12    1    1    2    0    0 -0.97263114199E+00 -0.66709402399E+00  0.47912629235E-01  0.11803903571E+01  0.00000000000E+00 0.  1.
         11    1    3    3    0    0 -0.13133081046E+01  0.84743553748E+01 -0.80442808376E+01  0.11757973110E+02  0.51100000000E-03 0. -1.
        -11    1    3    3    0    0 -0.66789348340E+01  0.32976691418E+02 -0.60640987020E+01  0.34188355338E+02  0.51100000000E-03 0.  1.
         12    1    3    3    0    0  0.89648740806E+01 -0.40783952769E+02  0.14060466910E+02  0.44061281195E+02  0.00000000000E+00 0. -1.
</event>
<event>
 7    1  0.2895479E-015  0.9000760E+02  0.7816164E-02  0.1186339E+00
        -11   -1    0    0    0    0  0.00000000000E+00  0.00000000000E+00  0.45593999997E+02  0.45594000000E+02  0.51100000000E-03 0.  1.
         11   -1    0    0    0    0 -0.00000000000E+00 -0.00000000000E+00 -0.45593999997E+02  0.45594000000E+02  0.51100000000E-03 0. -1.
    9900012    2    1    2    0    0 -0.89856586887E+00 -0.47577718581E+00  0.59963863689E+00  0.90007597083E+02  0.89999856565E+02 0.  0.
        -12    1    1    2    0    0  0.89856586887E+00  0.47577718581E+00 -0.59963863689E+00  0.11804029168E+01  0.00000000000E+00 0.  1.
         11    1    3    3    0    0 -0.23865082283E+02 -0.13242023926E+01 -0.30505263704E+02  0.38753925972E+02  0.51100000000E-03 0. -1.
        -11    1    3    3    0    0  0.67358562016E+00 -0.67772105316E+01 -0.47832669464E+01  0.83224962072E+01  0.51100000000E-03 0.  1.
        -12    1    3    3    0    0  0.22292930794E+02  0.76256357384E+01  0.35888169287E+02  0.42931174904E+02  0.00000000000E+00 0.  1.
</event>
<event>
 7    1  0.2895479E-015  0.9000773E+02  0.7816164E-02  0.1186339E+00
        -11   -1    0    0    0    0  0.00000000000E+00  0.00000000000E+00  0.45593999997E+02  0.45594000000E+02  0.51100000000E-03 0.  1.
         11   -1    0    0    0    0 -0.00000000000E+00 -0.00000000000E+00 -0.45593999997E+02  0.45594000000E+02  0.51100000000E-03 0. -1.
    9900012    2    1    2    0    0 -0.37289206611E-01  0.11003038253E+00 -0.11745403916E+01  0.90007727870E+02  0.89999989078E+02 0.  0.
        -12    1    1    2    0    0  0.37289206611E-01 -0.11003038253E+00  0.11745403916E+01  0.11802721303E+01  0.00000000000E+00 0.  1.
         11    1    3    3    0    0 -0.43967440935E+01  0.37458656203E+01 -0.13899687670E+02  0.15052049211E+02  0.51100000000E-03 0. -1.
        -11    1    3    3    0    0 -0.19800805410E+02 -0.31230071220E+02  0.92322915760E+01  0.38113310684E+02  0.51100000000E-03 0.  1.
         12    1    3    3    0    0  0.24160260297E+02  0.27594235982E+02  0.34928557019E+01  0.36842367975E+02  0.00000000000E+00 0. -1.
</event>
<event>
 7    1  0.3201992E-015  0.9000772E+02  0.7816164E-02  0.1186339E+00
        -11   -1    0    0    0    0  0.00000000000E+00  0.00000000000E+00  0.45593999997E+02  0.45594000000E+02  0.51100000000E-03 0.  1.
         11   -1    0    0    0    0 -0.00000000000E+00 -0.00000000000E+00 -0.45593999997E+02  0.45594000000E+02  0.51100000000E-03 0. -1.
    9900012    2    1    2    0    0  0.64472190805E+00 -0.93698280101E+00  0.31535438439E+00  0.90007723975E+02  0.89999985131E+02 0.  0.
        -12    1    1    2    0    0 -0.64472190805E+00  0.93698280101E+00 -0.31535438439E+00  0.11802760253E+01  0.00000000000E+00 0.  1.
         11    1    3    3    0    0  0.46648865497E+00  0.86031784756E+01 -0.47835160249E+01  0.98546596780E+01  0.51100000000E-03 0. -1.
        -11    1    3    3    0    0  0.27527517267E+02  0.21970279483E+01  0.30414638342E+02  0.41080912410E+02  0.51100000000E-03 0.  1.
         12    1    3    3    0    0 -0.27349284014E+02 -0.11737189225E+02 -0.25315767933E+02  0.39072151886E+02  0.00000000000E+00 0. -1.
</event>
<event>
 7    1  0.2895479E-015  0.9000787E+02  0.7816164E-02  0.1186339E+00
        -11   -1    0    0    0    0  0.00000000000E+00  0.00000000000E+00  0.45593999997E+02  0.45594000000E+02  0.51100000000E-03 0. -1.
         11   -1    0    0    0    0 -0.00000000000E+00 -0.00000000000E+00 -0.45593999997E+02  0.45594000000E+02  0.51100000000E-03 0.  1.
    9900012    2    1    2    0    0 -0.77339690272E+00 -0.36983925381E+00  0.81103096734E+00  0.90007874976E+02  0.90000138125E+02 0.  0.
        -12    1    1    2    0    0  0.77339690272E+00  0.36983925381E+00 -0.81103096734E+00  0.11801250242E+01  0.00000000000E+00 0.  1.
         11    1    3    3    0    0  0.38534181342E+01 -0.75823214379E+01 -0.48117282386E+01  0.97720601006E+01  0.51100000000E-03 0. -1.
        -11    1    3    3    0    0  0.10310625876E+02 -0.10216160200E+02 -0.32580273551E+02  0.35667256134E+02  0.51100000000E-03 0.  1.
         12    1    3    3    0    0 -0.14937440913E+02  0.17428642384E+02  0.38203032757E+02  0.44568558741E+02  0.00000000000E+00 0. -1.
</event>
<event>
 7    1  0.2895479E-015  0.9000776E+02  0.7816164E-02  0.1186339E+00
        -11   -1    0    0    0    0  0.00000000000E+00  0.00000000000E+00  0.45593999997E+02  0.45594000000E+02  0.51100000000E-03 0.  1.
         11   -1    0    0    0    0 -0.00000000000E+00 -0.00000000000E+00 -0.45593999997E+02  0.45594000000E+02  0.51100000000E-03 0. -1.
    9900012    2    1    2    0    0 -0.11384136035E+00 -0.93604283080E+00 -0.70981118487E+00  0.90007759366E+02  0.90000020989E+02 0.  0.
        -12    1    1    2    0    0  0.11384136035E+00  0.93604283080E+00  0.70981118487E+00  0.11802406342E+01  0.00000000000E+00 0.  1.
         11    1    3    3    0    0 -0.10205498566E+01 -0.19683609671E+01  0.55494219421E+01  0.59759560791E+01  0.51100000000E-03 0. -1.
        -11    1    3    3    0    0 -0.27697359649E+02  0.40558809693E+01  0.27800173253E+02  0.39451787477E+02  0.51100000000E-03 0.  1.
         12    1    3    3    0    0  0.28604068145E+02 -0.30235628330E+01 -0.34059406380E+02  0.44580015810E+02  0.00000000000E+00 0. -1.
</event>
<event>
 7    1  0.2895479E-015  0.9000773E+02  0.7816164E-02  0.1186339E+00
        -11   -1    0    0    0    0  0.00000000000E+00  0.00000000000E+00  0.45593999997E+02  0.45594000000E+02  0.51100000000E-03 0.  1.
         11   -1    0    0    0    0 -0.00000000000E+00 -0.00000000000E+00 -0.45593999997E+02  0.45594000000E+02  0.51100000000E-03 0. -1.
    9900012    2    1    2    0    0  0.59627064639E-01  0.35695852482E+00 -0.11234128469E+01  0.90007732573E+02  0.89999993843E+02 0.  0.
        -12    1    1    2    0    0 -0.59627064639E-01 -0.35695852482E+00  0.11234128469E+01  0.11802674273E+01  0.00000000000E+00 0.  1.
         11    1    3    3    0    0 -0.26633999334E+02  0.48398105084E+00 -0.49302423104E+01  0.27090800056E+02  0.51100000000E-03 0. -1.
        -11    1    3    3    0    0  0.30096631519E+02  0.23674418339E+02 -0.13936613236E+01  0.38317458223E+02  0.51100000000E-03 0.  1.
         12    1    3    3    0    0 -0.34030051205E+01 -0.23801440865E+02  0.52004907870E+01  0.24599474294E+02  0.00000000000E+00 0. -1.
</event>
<event>
 7    1  0.2895479E-015  0.9000742E+02  0.7816164E-02  0.1186340E+00
        -11   -1    0    0    0    0  0.00000000000E+00  0.00000000000E+00  0.45593999997E+02  0.45594000000E+02  0.51100000000E-03 0.  1.
         11   -1    0    0    0    0 -0.00000000000E+00 -0.00000000000E+00 -0.45593999997E+02  0.45594000000E+02  0.51100000000E-03 0. -1.
    9900012    2    1    2    0    0 -0.91084992852E+00  0.41837654499E+00 -0.62375800932E+00  0.90007423624E+02  0.89999680815E+02 0.  0.
        -12    1    1    2    0    0  0.91084992852E+00 -0.41837654499E+00  0.62375800932E+00  0.11805763761E+01  0.00000000000E+00 0.  1.
         11    1    3    3    0    0 -0.75684198377E+01 -0.77630859031E+01 -0.77326635727E+01  0.13316927865E+02  0.51100000000E-03 0. -1.
        -11    1    3    3    0    0  0.24310745518E+02 -0.23823294726E+02 -0.11170730838E+02  0.35823832109E+02  0.51100000000E-03 0.  1.
         12    1    3    3    0    0 -0.17653175609E+02  0.32004757175E+02  0.18279636402E+02  0.40866663650E+02  0.00000000000E+00 0. -1.
</event>
<event>
 7    1  0.2895479E-015  0.9000779E+02  0.7816164E-02  0.1186339E+00
        -11   -1    0    0    0    0  0.00000000000E+00  0.00000000000E+00  0.45593999997E+02  0.45594000000E+02  0.51100000000E-03 0.  1.
         11   -1    0    0    0    0 -0.00000000000E+00 -0.00000000000E+00 -0.45593999997E+02  0.45594000000E+02  0.51100000000E-03 0. -1.
    9900012    2    1    2    0    0  0.65580224877E+00 -0.76547800297E+00 -0.61388892427E+00  0.90007791216E+02  0.90000053260E+02 0.  0.
        -12    1    1    2    0    0 -0.65580224877E+00  0.76547800297E+00  0.61388892427E+00  0.11802087840E+01  0.00000000000E+00 0.  1.
         11    1    3    3    0    0  0.48154330681E+01  0.20349163337E+02  0.49390397914E+01  0.21486529698E+02  0.51100000000E-03 0.  1.
        -11    1    3    3    0    0  0.66144711861E+01 -0.39637170104E+02 -0.17676527893E+02  0.43901208657E+02  0.51100000000E-03 0. -1.
         12    1    3    3    0    0 -0.10774102005E+02  0.18522528764E+02  0.12123599178E+02  0.24620052861E+02  0.00000000000E+00 0. -1.
</event>
<event>
 7    1  0.2895479E-015  0.9000770E+02  0.7816164E-02  0.1186339E+00
        -11   -1    0    0    0    0  0.00000000000E+00  0.00000000000E+00  0.45593999997E+02  0.45594000000E+02  0.51100000000E-03 0.  1.
         11   -1    0    0    0    0 -0.00000000000E+00 -0.00000000000E+00 -0.45593999997E+02  0.45594000000E+02  0.51100000000E-03 0. -1.
    9900012    2    1    2    0    0 -0.27113277932E+00  0.11400020500E+01 -0.14138852084E+00  0.90007699881E+02  0.89999960719E+02 0.  0.
        -12    1    1    2    0    0  0.27113277932E+00 -0.11400020500E+01  0.14138852084E+00  0.11803001194E+01  0.00000000000E+00 0.  1.
         11    1    3    3    0    0 -0.18034153868E+02 -0.47599303216E+01 -0.17250749070E+02  0.25406219438E+02  0.51100000000E-03 0. -1.
        -11    1    3    3    0    0 -0.10678963935E+02  0.22771810791E+02  0.18933758054E+02  0.31481468068E+02  0.51100000000E-03 0.  1.
        -12    1    3    3    0    0  0.28441985023E+02 -0.16871878419E+02 -0.18243975049E+01  0.33120012375E+02  0.00000000000E+00 0.  1.
</event>
<event>
 7    1  0.2895479E-015  0.9000771E+02  0.7816164E-02  0.1186339E+00
        -11   -1    0    0    0    0  0.00000000000E+00  0.00000000000E+00  0.45593999997E+02  0.45594000000E+02  0.51100000000E-03 0.  1.
         11   -1    0    0    0    0 -0.00000000000E+00 -0.00000000000E+00 -0.45593999997E+02  0.45594000000E+02  0.51100000000E-03 0. -1.
    9900012    2    1    2    0    0 -0.23148597475E+00  0.11454962231E+01  0.16533803675E+00  0.90007710197E+02  0.89999971171E+02 0.  0.
        -12    1    1    2    0    0  0.23148597475E+00 -0.11454962231E+01 -0.16533803675E+00  0.11802898034E+01  0.00000000000E+00 0.  1.
         11    1    3    3    0    0  0.28569011090E+01  0.17366946519E+02 -0.30018082607E+02  0.34797384945E+02  0.51100000000E-03 0. -1.
        -11    1    3    3    0    0  0.74991012296E+01  0.58766176838E+01 -0.61838628194E+01  0.11358314764E+02  0.51100000000E-03 0.  1.
        -12    1    3    3    0    0 -0.10587488313E+02 -0.22098067980E+02  0.36367283464E+02  0.43852010487E+02  0.00000000000E+00 0.  1.
</event>
<event>
 7    1  0.2895479E-015  0.9000773E+02  0.7816164E-02  0.1186339E+00
        -11   -1    0    0    0    0  0.00000000000E+00  0.00000000000E+00  0.45593999997E+02  0.45594000000E+02  0.51100000000E-03 0.  1.
         11   -1    0    0    0    0 -0.00000000000E+00 -0.00000000000E+00 -0.45593999997E+02  0.45594000000E+02  0.51100000000E-03 0. -1.
    9900012    2    1    2    0    0 -0.65563356448E+00 -0.10471670766E+00 -0.97581230970E+00  0.90007732817E+02  0.89999994090E+02 0.  0.
        -12    1    1    2    0    0  0.65563356448E+00  0.10471670766E+00  0.97581230970E+00  0.11802671831E+01  0.00000000000E+00 0.  1.
         11    1    3    3    0    0  0.30603313893E+01 -0.78053966049E+01  0.36115625524E+01  0.91287035608E+01  0.51100000000E-03 0. -1.
        -11    1    3    3    0    0  0.24542878534E+01 -0.35178676212E+02 -0.11323092697E+02  0.37037483950E+02  0.51100000000E-03 0.  1.
         12    1    3    3    0    0 -0.61702528071E+01  0.42879356109E+02  0.67357178346E+01  0.43841545306E+02  0.00000000000E+00 0. -1.
</event>
<event>
 7    1  0.2895479E-015  0.9000773E+02  0.7816164E-02  0.1186339E+00
        -11   -1    0    0    0    0  0.00000000000E+00  0.00000000000E+00  0.45593999997E+02  0.45594000000E+02  0.51100000000E-03 0. -1.
         11   -1    0    0    0    0 -0.00000000000E+00 -0.00000000000E+00 -0.45593999997E+02  0.45594000000E+02  0.51100000000E-03 0.  1.
    9900012    2    1    2    0    0  0.31934060262E+00  0.10344560183E+01 -0.47007544275E+00  0.90007725203E+02  0.89999986376E+02 0.  0.
        -12    1    1    2    0    0 -0.31934060262E+00 -0.10344560183E+01  0.47007544275E+00  0.11802747969E+01  0.00000000000E+00 0.  1.
         11    1    3    3    0    0  0.73914655755E+01  0.17949257122E+01 -0.10084284965E+02  0.12631244008E+02  0.51100000000E-03 0. -1.
        -11    1    3    3    0    0  0.25768763491E+02 -0.97007569541E+01 -0.18548968218E+02  0.33199368662E+02  0.51100000000E-03 0.  1.
         12    1    3    3    0    0 -0.32840888464E+02  0.89402872602E+01  0.28163177740E+02  0.44177112534E+02  0.00000000000E+00 0. -1.
</event>
<event>
 7    1  0.2895479E-015  0.9000773E+02  0.7816164E-02  0.1186339E+00
        -11   -1    0    0    0    0  0.00000000000E+00  0.00000000000E+00  0.45593999997E+02  0.45594000000E+02  0.51100000000E-03 0. -1.
         11   -1    0    0    0    0 -0.00000000000E+00 -0.00000000000E+00 -0.45593999997E+02  0.45594000000E+02  0.51100000000E-03 0.  1.
    9900012    2    1    2    0    0 -0.40281960316E+00  0.78784000937E+00 -0.78107850992E+00  0.90007729204E+02  0.89999990430E+02 0.  0.
        -12    1    1    2    0    0  0.40281960316E+00 -0.78784000937E+00  0.78107850992E+00  0.11802707959E+01  0.00000000000E+00 0.  1.
         11    1    3    3    0    0  0.10564884746E+02  0.26884187055E+02 -0.20061133075E+01  0.28955151427E+02  0.51100000000E-03 0. -1.
        -11    1    3    3    0    0 -0.23217373401E+02  0.50414975737E+01  0.11017035445E+02  0.26188512666E+02  0.51100000000E-03 0.  1.
         12    1    3    3    0    0  0.12249669052E+02 -0.31137844619E+02 -0.97920006474E+01  0.34864065111E+02  0.00000000000E+00 0. -1.
</event>
<event>
 7    1  0.2895479E-015  0.9000776E+02  0.7816164E-02  0.1186339E+00
        -11   -1    0    0    0    0  0.00000000000E+00  0.00000000000E+00  0.45593999997E+02  0.45594000000E+02  0.51100000000E-03 0. -1.
         11   -1    0    0    0    0 -0.00000000000E+00 -0.00000000000E+00 -0.45593999997E+02  0.45594000000E+02  0.51100000000E-03 0.  1.
    9900012    2    1    2    0    0  0.70603676975E+00 -0.29818194043E+00  0.89753922731E+00  0.90007755511E+02  0.90000017083E+02 0.  0.
        -12    1    1    2    0    0 -0.70603676975E+00  0.29818194043E+00 -0.89753922731E+00  0.11802444893E+01  0.00000000000E+00 0.  1.
         11    1    3    3    0    0  0.36804421548E+01  0.12687124018E+02 -0.16001848705E+00  0.13211145918E+02  0.51100000000E-03 0. -1.
        -11    1    3    3    0    0  0.27835619121E+02  0.77892646589E+01 -0.18979408436E+02  0.34579072871E+02  0.51100000000E-03 0.  1.
         12    1    3    3    0    0 -0.30810024506E+02 -0.20774570617E+02  0.20036966150E+02  0.42217536722E+02  0.00000000000E+00 0. -1.
</event>
<event>
 7    1  0.2895479E-015  0.9000773E+02  0.7816164E-02  0.1186339E+00
        -11   -1    0    0    0    0  0.00000000000E+00  0.00000000000E+00  0.45593999997E+02  0.45594000000E+02  0.51100000000E-03 0.  1.
         11   -1    0    0    0    0 -0.00000000000E+00 -0.00000000000E+00 -0.45593999997E+02  0.45594000000E+02  0.51100000000E-03 0. -1.
    9900012    2    1    2    0    0  0.64915710491E+00  0.36843585213E+00 -0.91426386164E+00  0.90007733787E+02  0.89999995073E+02 0.  0.
        -12    1    1    2    0    0 -0.64915710491E+00 -0.36843585213E+00  0.91426386164E+00  0.11802662126E+01  0.00000000000E+00 0.  1.
         11    1    3    3    0    0 -0.33858265958E+02 -0.18448150499E+02 -0.80852919368E+01  0.39396552850E+02  0.51100000000E-03 0. -1.
        -11    1    3    3    0    0  0.11657684589E+01 -0.47607627189E+01 -0.59596356170E+01  0.77162902171E+01  0.51100000000E-03 0.  1.
        -12    1    3    3    0    0  0.33341654604E+02  0.23577349070E+02  0.13130663692E+02  0.42894890720E+02  0.00000000000E+00 0.  1.
</event>
<event>
 7    1  0.2895479E-015  0.9000773E+02  0.7816164E-02  0.1186339E+00
        -11   -1    0    0    0    0  0.00000000000E+00  0.00000000000E+00  0.45593999997E+02  0.45594000000E+02  0.51100000000E-03 0. -1.
         11   -1    0    0    0    0 -0.00000000000E+00 -0.00000000000E+00 -0.45593999997E+02  0.45594000000E+02  0.51100000000E-03 0.  1.
    9900012    2    1    2    0    0  0.48171837712E+00  0.24779633112E+00  0.10486077453E+01  0.90007731463E+02  0.89999992718E+02 0.  0.
        -12    1    1    2    0    0 -0.48171837712E+00 -0.24779633112E+00 -0.10486077453E+01  0.11802685373E+01  0.00000000000E+00 0.  1.
         11    1    3    3    0    0  0.30633462534E+01 -0.58253737576E+01 -0.45600089565E+01  0.80070438758E+01  0.51100000000E-03 0. -1.
        -11    1    3    3    0    0  0.12801923255E+01 -0.31436240196E+02  0.24451979744E+02  0.39846899549E+02  0.51100000000E-03 0.  1.
         12    1    3    3    0    0 -0.38618202018E+01  0.37509410285E+02 -0.18843363042E+02  0.42153788038E+02  0.00000000000E+00 0. -1.
</event>
<event>
 7    1  0.2895479E-015  0.9000772E+02  0.7816164E-02  0.1186339E+00
        -11   -1    0    0    0    0  0.00000000000E+00  0.00000000000E+00  0.45593999997E+02  0.45594000000E+02  0.51100000000E-03 0. -1.
         11   -1    0    0    0    0 -0.00000000000E+00 -0.00000000000E+00 -0.45593999997E+02  0.45594000000E+02  0.51100000000E-03 0.  1.
    9900012    2    1    2    0    0 -0.10183808941E+01  0.59588697496E+00  0.29634182914E-01  0.90007720746E+02  0.89999981860E+02 0.  0.
        -12    1    1    2    0    0  0.10183808941E+01 -0.59588697496E+00 -0.29634182914E-01  0.11802792539E+01  0.00000000000E+00 0.  1.
         11    1    3    3    0    0 -0.34320349896E+02 -0.20198261312E+01 -0.12765126081E+02  0.36673076756E+02  0.51100000000E-03 0. -1.
        -11    1    3    3    0    0 -0.40959429018E+01 -0.21260496128E+01 -0.87663788684E+01  0.99068781125E+01  0.51100000000E-03 0.  1.
        -12    1    3    3    0    0  0.37397911904E+02  0.47417627189E+01  0.21561139132E+02  0.43427765878E+02  0.00000000000E+00 0.  1.
</event>
<event>
 7    1  0.2895479E-015  0.9000771E+02  0.7816164E-02  0.1186339E+00
        -11   -1    0    0    0    0  0.00000000000E+00  0.00000000000E+00  0.45593999997E+02  0.45594000000E+02  0.51100000000E-03 0.  1.
         11   -1    0    0    0    0 -0.00000000000E+00 -0.00000000000E+00 -0.45593999997E+02  0.45594000000E+02  0.51100000000E-03 0. -1.
    9900012    2    1    2    0    0  0.10818478572E+01 -0.47076204413E+00  0.32694191271E-01  0.90007711646E+02  0.89999972640E+02 0.  0.
        -12    1    1    2    0    0 -0.10818478572E+01  0.47076204413E+00 -0.32694191271E-01  0.11802883539E+01  0.00000000000E+00 0.  1.
         11    1    3    3    0    0  0.11000638182E+02  0.15106824813E+02 -0.32466940710E+02  0.37461078945E+02  0.51100000000E-03 0. -1.
        -11    1    3    3    0    0  0.10997892322E+02  0.86419862379E+00  0.65587731936E+00  0.11051273687E+02  0.51100000000E-03 0.  1.
        -12    1    3    3    0    0 -0.20916682647E+02 -0.16441785481E+02  0.31843757582E+02  0.41495359014E+02  0.00000000000E+00 0.  1.
</event>
<event>
 7    1  0.2895479E-015  0.9000747E+02  0.7816164E-02  0.1186340E+00
        -11   -1    0    0    0    0  0.00000000000E+00  0.00000000000E+00  0.45593999997E+02  0.45594000000E+02  0.51100000000E-03 0.  1.
         11   -1    0    0    0    0 -0.00000000000E+00 -0.00000000000E+00 -0.45593999997E+02  0.45594000000E+02  0.51100000000E-03 0. -1.
    9900012    2    1    2    0    0 -0.25814410680E+00  0.38044395179E+00 -0.10873210736E+01  0.90007473381E+02  0.89999731230E+02 0.  0.
        -12    1    1    2    0    0  0.25814410680E+00 -0.38044395179E+00  0.10873210736E+01  0.11805266187E+01  0.00000000000E+00 0.  1.
         11    1    3    3    0    0  0.19259360719E+01  0.61770477248E+01 -0.41823349059E+01  0.77043542152E+01  0.51100000000E-03 0. -1.
        -11    1    3    3    0    0  0.54676434969E+01  0.90718123522E+01 -0.37198742915E+02  0.38677375550E+02  0.51100000000E-03 0.  1.
        -12    1    3    3    0    0 -0.76517236755E+01 -0.14868416125E+02  0.40293756747E+02  0.43625743616E+02  0.00000000000E+00 0.  1.
</event>
<event>
 7    1  0.2895479E-015  0.9000772E+02  0.7816164E-02  0.1186339E+00
        -11   -1    0    0    0    0  0.00000000000E+00  0.00000000000E+00  0.45593999997E+02  0.45594000000E+02  0.51100000000E-03 0.  1.
         11   -1    0    0    0    0 -0.00000000000E+00 -0.00000000000E+00 -0.45593999997E+02  0.45594000000E+02  0.51100000000E-03 0. -1.
    9900012    2    1    2    0    0  0.81744547478E+00 -0.66224027906E+00 -0.53504861576E+00  0.90007721934E+02  0.89999983064E+02 0.  0.
        -12    1    1    2    0    0 -0.81744547478E+00  0.66224027906E+00  0.53504861576E+00  0.11802780658E+01  0.00000000000E+00 0.  1.
         11    1    3    3    0    0 -0.25648018715E+02 -0.21815510195E+02  0.15501045977E+02  0.37067772738E+02  0.51100000000E-03 0. -1.
        -11    1    3    3    0    0 -0.81858961554E+01 -0.24239888833E+01 -0.29536230642E+01  0.90337427149E+01  0.51100000000E-03 0.  1.
        -12    1    3    3    0    0  0.34651360346E+02  0.23577258799E+02 -0.13082471529E+02  0.43906206481E+02  0.00000000000E+00 0.  1.
</event>
<event>
 7    1  0.2895479E-015  0.9000799E+02  0.7816164E-02  0.1186339E+00
        -11   -1    0    0    0    0  0.00000000000E+00  0.00000000000E+00  0.45593999997E+02  0.45594000000E+02  0.51100000000E-03 0.  1.
         11   -1    0    0    0    0 -0.00000000000E+00 -0.00000000000E+00 -0.45593999997E+02  0.45594000000E+02  0.51100000000E-03 0. -1.
    9900012    2    1    2    0    0 -0.49889653846E+00 -0.88698250363E-01  0.10656765934E+01  0.90007986552E+02  0.90000251174E+02 0.  0.
        -12    1    1    2    0    0  0.49889653846E+00  0.88698250363E-01 -0.10656765934E+01  0.11800134480E+01  0.00000000000E+00 0.  1.
         11    1    3    3    0    0 -0.26791657557E+02  0.30307435393E+02 -0.70906686375E+01  0.41068371489E+02  0.51100000000E-03 0. -1.
        -11    1    3    3    0    0 -0.45205857632E+01 -0.65246991081E+01 -0.28554498522E+01  0.84356972571E+01  0.51100000000E-03 0.  1.
        -12    1    3    3    0    0  0.30813346782E+02 -0.23871434535E+02  0.11011795083E+02  0.40503917806E+02  0.00000000000E+00 0.  1.
</event>
<event>
 7    1  0.2895479E-015  0.9000770E+02  0.7816164E-02  0.1186339E+00
        -11   -1    0    0    0    0  0.00000000000E+00  0.00000000000E+00  0.45593999997E+02  0.45594000000E+02  0.51100000000E-03 0.  1.
         11   -1    0    0    0    0 -0.00000000000E+00 -0.00000000000E+00 -0.45593999997E+02  0.45594000000E+02  0.51100000000E-03 0. -1.
    9900012    2    1    2    0    0 -0.11067659620E+01 -0.10207651963E+00 -0.39717562656E+00  0.90007703855E+02  0.89999964746E+02 0.  0.
        -12    1    1    2    0    0  0.11067659620E+01  0.10207651963E+00  0.39717562656E+00  0.11802961445E+01  0.00000000000E+00 0.  1.
         11    1    3    3    0    0  0.51762852801E+01 -0.11725942820E+01  0.92426090899E+01  0.10658082834E+02  0.51100000000E-03 0. -1.
        -11    1    3    3    0    0 -0.37418843887E+02 -0.91884180910E+01  0.11659084354E+02  0.40255821357E+02  0.51100000000E-03 0.  1.
         12    1    3    3    0    0  0.31135792645E+02  0.10258935853E+02 -0.21298869071E+02  0.39093799664E+02  0.00000000000E+00 0. -1.
</event>
<event>
 7    1  0.2895479E-015  0.9000784E+02  0.7816164E-02  0.1186339E+00
        -11   -1    0    0    0    0  0.00000000000E+00  0.00000000000E+00  0.45593999997E+02  0.45594000000E+02  0.51100000000E-03 0.  1.
         11   -1    0    0    0    0 -0.00000000000E+00 -0.00000000000E+00 -0.45593999997E+02  0.45594000000E+02  0.51100000000E-03 0. -1.
    9900012    2    1    2    0    0 -0.30814484960E-01  0.10500193345E-01 -0.11797130250E+01  0.90007837889E+02  0.90000100549E+02 0.  0.
        -12    1    1    2    0    0  0.30814484960E-01 -0.10500193345E-01  0.11797130250E+01  0.11801621108E+01  0.00000000000E+00 0.  1.
         11    1    3    3    0    0 -0.21142635248E+02 -0.33255649455E+02  0.35516883987E+01  0.39567205318E+02  0.51100000000E-03 0. -1.
        -11    1    3    3    0    0  0.98406936648E-02 -0.20275184886E+01 -0.88821962024E+01  0.91106716382E+01  0.51100000000E-03 0.  1.
        -12    1    3    3    0    0  0.21101980070E+02  0.35293668137E+02  0.41507947787E+01  0.41329960933E+02  0.00000000000E+00 0.  1.
</event>
<event>
 7    1  0.2895479E-015  0.9000781E+02  0.7816164E-02  0.1186339E+00
        -11   -1    0    0    0    0  0.00000000000E+00  0.00000000000E+00  0.45593999997E+02  0.45594000000E+02  0.51100000000E-03 0.  1.
         11   -1    0    0    0    0 -0.00000000000E+00 -0.00000000000E+00 -0.45593999997E+02  0.45594000000E+02  0.51100000000E-03 0. -1.
    9900012    2    1    2    0    0 -0.29642382475E+00  0.11196781747E+01 -0.22649868868E+00  0.90007810204E+02  0.90000072499E+02 0.  0.
        -12    1    1    2    0    0  0.29642382475E+00 -0.11196781747E+01  0.22649868868E+00  0.11801897961E+01  0.00000000000E+00 0.  1.
         11    1    3    3    0    0  0.63931882094E+01 -0.12115118413E+01 -0.38754078636E+02  0.39296554908E+02  0.51100000000E-03 0. -1.
        -11    1    3    3    0    0  0.62314294139E+01  0.51809831912E+01 -0.17717562137E+01  0.82953251720E+01  0.51100000000E-03 0.  1.
        -12    1    3    3    0    0 -0.12921041448E+02 -0.28497931752E+01  0.40299336161E+02  0.42415930124E+02  0.00000000000E+00 0.  1.
</event>
<event>
 7    1  0.2895479E-015  0.9000773E+02  0.7816164E-02  0.1186339E+00
        -11   -1    0    0    0    0  0.00000000000E+00  0.00000000000E+00  0.45593999997E+02  0.45594000000E+02  0.51100000000E-03 0. -1.
         11   -1    0    0    0    0 -0.00000000000E+00 -0.00000000000E+00 -0.45593999997E+02  0.45594000000E+02  0.51100000000E-03 0.  1.
    9900012    2    1    2    0    0  0.71388158106E+00 -0.13296339378E+00  0.93045026004E+00  0.90007727209E+02  0.89999988408E+02 0.  0.
        -12    1    1    2    0    0 -0.71388158106E+00  0.13296339378E+00 -0.93045026004E+00  0.11802727915E+01  0.00000000000E+00 0.  1.
         11    1    3    3    0    0  0.12674453212E+02 -0.12227720352E+02  0.29256824974E+02  0.34148509734E+02  0.51100000000E-03 0. -1.
        -11    1    3    3    0    0  0.15376586528E+02 -0.16252324025E+00 -0.11669383174E+01  0.15421659196E+02  0.51100000000E-03 0.  1.
        -12    1    3    3    0    0 -0.27337158159E+02  0.12257280198E+02 -0.27159436397E+02  0.40437558278E+02  0.00000000000E+00 0.  1.
</event>
<event>
 7    1  0.2895479E-015  0.9000769E+02  0.7816164E-02  0.1186339E+00
        -11   -1    0    0    0    0  0.00000000000E+00  0.00000000000E+00  0.45593999997E+02  0.45594000000E+02  0.51100000000E-03 0.  1.
         11   -1    0    0    0    0 -0.00000000000E+00 -0.00000000000E+00 -0.45593999997E+02  0.45594000000E+02  0.51100000000E-03 0. -1.
    9900012    2    1    2    0    0 -0.11536581638E+01  0.16268562556E+00 -0.18902755371E+00  0.90007692757E+02  0.89999953501E+02 0.  0.
        -12    1    1    2    0    0  0.11536581638E+01 -0.16268562556E+00  0.18902755371E+00  0.11803072430E+01  0.00000000000E+00 0.  1.
         11    1    3    3    0    0  0.93883868209E+01  0.39271400317E+02  0.13488245675E+01  0.40400544773E+02  0.51100000000E-03 0. -1.
        -11    1    3    3    0    0 -0.31419658570E+01 -0.21699737031E+01  0.95925447455E+01  0.10324613808E+02  0.51100000000E-03 0.  1.
        -12    1    3    3    0    0 -0.74000791277E+01 -0.36938740989E+02 -0.11130396867E+02  0.39282534176E+02  0.00000000000E+00 0.  1.
</event>
<event>
 7    1  0.2895479E-015  0.9000766E+02  0.7816164E-02  0.1186339E+00
        -11   -1    0    0    0    0  0.00000000000E+00  0.00000000000E+00  0.45593999997E+02  0.45594000000E+02  0.51100000000E-03 0. -1.
         11   -1    0    0    0    0 -0.00000000000E+00 -0.00000000000E+00 -0.45593999997E+02  0.45594000000E+02  0.51100000000E-03 0.  1.
    9900012    2    1    2    0    0  0.47147906139E+00 -0.83590365503E+00  0.68715448387E+00  0.90007657376E+02  0.89999917653E+02 0.  0.
        -12    1    1    2    0    0 -0.47147906139E+00  0.83590365503E+00 -0.68715448387E+00  0.11803426242E+01  0.00000000000E+00 0.  1.
         11    1    3    3    0    0  0.51075334987E+01  0.11612276210E+02 -0.50037219826E+01  0.13637048477E+02  0.51100000000E-03 0. -1.
        -11    1    3    3    0    0  0.28125561198E+02  0.28298414155E+01 -0.17664712915E+02  0.33333125833E+02  0.51100000000E-03 0.  1.
         12    1    3    3    0    0 -0.32761615636E+02 -0.15278021281E+02  0.23355589381E+02  0.43037483066E+02  0.00000000000E+00 0. -1.
</event>
<event>
 7    1  0.2895479E-015  0.9000772E+02  0.7816164E-02  0.1186339E+00
        -11   -1    0    0    0    0  0.00000000000E+00  0.00000000000E+00  0.45593999997E+02  0.45594000000E+02  0.51100000000E-03 0. -1.
         11   -1    0    0    0    0 -0.00000000000E+00 -0.00000000000E+00 -0.45593999997E+02  0.45594000000E+02  0.51100000000E-03 0.  1.
    9900012    2    1    2    0    0  0.82268978513E+00  0.70799024499E+00 -0.46366548732E+00  0.90007722764E+02  0.89999983905E+02 0.  0.
        -12    1    1    2    0    0 -0.82268978513E+00 -0.70799024499E+00  0.46366548732E+00  0.11802772359E+01  0.00000000000E+00 0.  1.
         11    1    3    3    0    0 -0.19046976718E+01 -0.60026778918E+01  0.11150741955E+02  0.12806211832E+02  0.51100000000E-03 0. -1.
        -11    1    3    3    0    0  0.16242564348E+02 -0.24130665179E+02 -0.27446363350E+02  0.39992658826E+02  0.51100000000E-03 0.  1.
         12    1    3    3    0    0 -0.13515176891E+02  0.30841333316E+02  0.15831955908E+02  0.37208852105E+02  0.00000000000E+00 0. -1.
</event>
<event>
 7    1  0.2895479E-015  0.9000774E+02  0.7816164E-02  0.1186339E+00
        -11   -1    0    0    0    0  0.00000000000E+00  0.00000000000E+00  0.45593999997E+02  0.45594000000E+02  0.51100000000E-03 0.  1.
         11   -1    0    0    0    0 -0.00000000000E+00 -0.00000000000E+00 -0.45593999997E+02  0.45594000000E+02  0.51100000000E-03 0. -1.
    9900012    2    1    2    0    0  0.79478410107E+00 -0.84396358022E+00  0.22146517559E+00  0.90007744470E+02  0.90000005897E+02 0.  0.
        -12    1    1    2    0    0 -0.79478410107E+00  0.84396358022E+00 -0.22146517559E+00  0.11802555300E+01  0.00000000000E+00 0.  1.
         11    1    3    3    0    0 -0.10527996929E+00 -0.11018386304E+02  0.14708825905E+00  0.11019870954E+02  0.51100000000E-03 0. -1.
        -11    1    3    3    0    0  0.21256248217E+02 -0.49098728442E+01  0.31689821593E+02  0.38473104013E+02  0.51100000000E-03 0.  1.
         12    1    3    3    0    0 -0.20356184146E+02  0.15084295568E+02 -0.31615444676E+02  0.40514769503E+02  0.00000000000E+00 0. -1.
</event>
<event>
 7    1  0.2895479E-015  0.9000766E+02  0.7816164E-02  0.1186339E+00
        -11   -1    0    0    0    0  0.00000000000E+00  0.00000000000E+00  0.45593999997E+02  0.45594000000E+02  0.51100000000E-03 0.  1.
         11   -1    0    0    0    0 -0.00000000000E+00 -0.00000000000E+00 -0.45593999997E+02  0.45594000000E+02  0.51100000000E-03 0. -1.
    9900012    2    1    2    0    0 -0.47313246450E+00 -0.88531607835E+00 -0.62093059536E+00  0.90007663738E+02  0.89999924099E+02 0.  0.
        -12    1    1    2    0    0  0.47313246450E+00  0.88531607835E+00  0.62093059536E+00  0.11803362622E+01  0.00000000000E+00 0.  1.
         11    1    3    3    0    0  0.22067739889E+02 -0.14094182099E+02 -0.25888817561E+02  0.36822031283E+02  0.51100000000E-03 0. -1.
        -11    1    3    3    0    0  0.97314569239E+01  0.73463014804E+00 -0.90657259749E+00  0.98011636785E+01  0.51100000000E-03 0.  1.
        -12    1    3    3    0    0 -0.32272329277E+02  0.12474235873E+02  0.26174459563E+02  0.43384468776E+02  0.00000000000E+00 0.  1.
</event>
<event>
 7    1  0.2895479E-015  0.9000776E+02  0.7816164E-02  0.1186339E+00
        -11   -1    0    0    0    0  0.00000000000E+00  0.00000000000E+00  0.45593999997E+02  0.45594000000E+02  0.51100000000E-03 0. -1.
         11   -1    0    0    0    0 -0.00000000000E+00 -0.00000000000E+00 -0.45593999997E+02  0.45594000000E+02  0.51100000000E-03 0.  1.
    9900012    2    1    2    0    0  0.17014699474E+00 -0.56752549748E+00  0.10207506409E+01  0.90007759744E+02  0.90000021373E+02 0.  0.
        -12    1    1    2    0    0 -0.17014699474E+00  0.56752549748E+00 -0.10207506409E+01  0.11802402556E+01  0.00000000000E+00 0.  1.
         11    1    3    3    0    0 -0.15279909093E+02 -0.14512095030E+02  0.32447020635E+02  0.38689606775E+02  0.51100000000E-03 0. -1.
        -11    1    3    3    0    0 -0.84286273512E+01  0.31150010656E+01  0.16231512008E+01  0.91312436582E+01  0.51100000000E-03 0.  1.
        -12    1    3    3    0    0  0.23878683439E+02  0.10829568467E+02 -0.33049421195E+02  0.42186909311E+02  0.00000000000E+00 0.  1.
</event>
<event>
 7    1  0.2895479E-015  0.9000778E+02  0.7816164E-02  0.1186339E+00
        -11   -1    0    0    0    0  0.00000000000E+00  0.00000000000E+00  0.45593999997E+02  0.45594000000E+02  0.51100000000E-03 0.  1.
         11   -1    0    0    0    0 -0.00000000000E+00 -0.00000000000E+00 -0.45593999997E+02  0.45594000000E+02  0.51100000000E-03 0. -1.
    9900012    2    1    2    0    0  0.10742860430E+01  0.34172365628E+00  0.34936681163E+00  0.90007778526E+02  0.90000040402E+02 0.  0.
        -12    1    1    2    0    0 -0.10742860430E+01 -0.34172365628E+00 -0.34936681163E+00  0.11802214743E+01  0.00000000000E+00 0.  1.
         11    1    3    3    0    0 -0.20171663652E+02 -0.35684044849E+02 -0.16349877494E+01  0.41023411078E+02  0.51100000000E-03 0. -1.
        -11    1    3    3    0    0 -0.63202415954E+00  0.29445060712E+01 -0.76056202680E+01  0.81801607847E+01  0.51100000000E-03 0.  1.
        -12    1    3    3    0    0  0.21877973854E+02  0.33081262434E+02  0.95899748291E+01  0.40804206663E+02  0.00000000000E+00 0.  1.
</event>
<event>
 7    1  0.2895479E-015  0.9000778E+02  0.7816164E-02  0.1186339E+00
        -11   -1    0    0    0    0  0.00000000000E+00  0.00000000000E+00  0.45593999997E+02  0.45594000000E+02  0.51100000000E-03 0. -1.
         11   -1    0    0    0    0 -0.00000000000E+00 -0.00000000000E+00 -0.45593999997E+02  0.45594000000E+02  0.51100000000E-03 0.  1.
    9900012    2    1    2    0    0 -0.64628303228E+00 -0.97808169013E+00  0.13632989462E+00  0.90007783329E+02  0.90000045269E+02 0.  0.
        -12    1    1    2    0    0  0.64628303228E+00  0.97808169013E+00 -0.13632989462E+00  0.11802166710E+01  0.00000000000E+00 0.  1.
         11    1    3    3    0    0  0.20733208135E+02 -0.48393095234E+00 -0.16973522263E+02  0.26799264299E+02  0.51100000000E-03 0. -1.
        -11    1    3    3    0    0 -0.32817635030E+02 -0.16700410543E+02 -0.28800512318E+00  0.36823685700E+02  0.51100000000E-03 0.  1.
         12    1    3    3    0    0  0.11438143863E+02  0.16206259805E+02  0.17397857280E+02  0.26384833330E+02  0.00000000000E+00 0. -1.
</event>
<event>
 7    1  0.2895479E-015  0.9000772E+02  0.7816164E-02  0.1186339E+00
        -11   -1    0    0    0    0  0.00000000000E+00  0.00000000000E+00  0.45593999997E+02  0.45594000000E+02  0.51100000000E-03 0.  1.
         11   -1    0    0    0    0 -0.00000000000E+00 -0.00000000000E+00 -0.45593999997E+02  0.45594000000E+02  0.51100000000E-03 0. -1.
    9900012    2    1    2    0    0  0.12914897117E+00  0.10382027399E+01 -0.54636459583E+00  0.90007720941E+02  0.89999982057E+02 0.  0.
        -12    1    1    2    0    0 -0.12914897117E+00 -0.10382027399E+01  0.54636459583E+00  0.11802790591E+01  0.00000000000E+00 0.  1.
         11    1    3    3    0    0 -0.95184655188E+01  0.89075457402E+00  0.21887849720E+01  0.98074160440E+01  0.51100000000E-03 0. -1.
        -11    1    3    3    0    0 -0.14880656879E+02 -0.33311128609E+02 -0.10562657201E+02  0.37982034777E+02  0.51100000000E-03 0.  1.
         12    1    3    3    0    0  0.24528271369E+02  0.33458576775E+02  0.78275076329E+01  0.42218270120E+02  0.00000000000E+00 0. -1.
</event>
<event>
 7    1  0.2895479E-015  0.9000765E+02  0.7816164E-02  0.1186339E+00
        -11   -1    0    0    0    0  0.00000000000E+00  0.00000000000E+00  0.45593999997E+02  0.45594000000E+02  0.51100000000E-03 0.  1.
         11   -1    0    0    0    0 -0.00000000000E+00 -0.00000000000E+00 -0.45593999997E+02  0.45594000000E+02  0.51100000000E-03 0. -1.
    9900012    2    1    2    0    0  0.11124234692E+01  0.31932224653E+00  0.23186579915E+00  0.90007654957E+02  0.89999915202E+02 0.  0.
        -12    1    1    2    0    0 -0.11124234692E+01 -0.31932224653E+00 -0.23186579915E+00  0.11803450431E+01  0.00000000000E+00 0.  1.
         11    1    3    3    0    0  0.34555266674E+02 -0.84783738716E+01 -0.23613770539E+02  0.42703154892E+02  0.51100000000E-03 0. -1.
        -11    1    3    3    0    0 -0.93379836093E+01 -0.72953510762E+01  0.62294570449E+01  0.13387539750E+02  0.51100000000E-03 0.  1.
        -12    1    3    3    0    0 -0.24104859595E+02  0.16093047194E+02  0.17616179294E+02  0.33916960315E+02  0.00000000000E+00 0.  1.
</event>
<event>
 7    1  0.2895479E-015  0.9000813E+02  0.7816164E-02  0.1186338E+00
        -11   -1    0    0    0    0  0.00000000000E+00  0.00000000000E+00  0.45593999997E+02  0.45594000000E+02  0.51100000000E-03 0. -1.
         11   -1    0    0    0    0 -0.00000000000E+00 -0.00000000000E+00 -0.45593999997E+02  0.45594000000E+02  0.51100000000E-03 0.  1.
    9900012    2    1    2    0    0 -0.10317851878E+01 -0.51308832897E+00  0.25346928182E+00  0.90008132641E+02  0.90000399191E+02 0.  0.
        -12    1    1    2    0    0  0.10317851878E+01  0.51308832897E+00 -0.25346928182E+00  0.11798673586E+01  0.00000000000E+00 0.  1.
         11    1    3    3    0    0 -0.51295946073E+01 -0.39344263577E+02  0.78888023043E+01  0.40453887568E+02  0.51100000000E-03 0. -1.
        -11    1    3    3    0    0  0.49886285259E+01 -0.36261753891E+01  0.91652714097E+00  0.62350288518E+01  0.51100000000E-03 0.  1.
        -12    1    3    3    0    0 -0.89081910640E+00  0.42457350637E+02 -0.85518601634E+01  0.43319216222E+02  0.00000000000E+00 0.  1.
</event>
<event>
 7    1  0.2895479E-015  0.9000768E+02  0.7816164E-02  0.1186339E+00
        -11   -1    0    0    0    0  0.00000000000E+00  0.00000000000E+00  0.45593999997E+02  0.45594000000E+02  0.51100000000E-03 0. -1.
         11   -1    0    0    0    0 -0.00000000000E+00 -0.00000000000E+00 -0.45593999997E+02  0.45594000000E+02  0.51100000000E-03 0.  1.
    9900012    2    1    2    0    0  0.90322571620E+00 -0.73130021381E+00 -0.20622850669E+00  0.90007683562E+02  0.89999944185E+02 0.  0.
        -12    1    1    2    0    0 -0.90322571620E+00  0.73130021381E+00  0.20622850669E+00  0.11803164381E+01  0.00000000000E+00 0.  1.
         11    1    3    3    0    0 -0.15762964877E+02  0.16561307687E+02  0.25660232264E+02  0.34368524759E+02  0.51100000000E-03 0. -1.
        -11    1    3    3    0    0  0.73713184629E+00  0.30877594127E+01  0.10523847302E+02  0.10992223790E+02  0.51100000000E-03 0.  1.
        -12    1    3    3    0    0  0.15929058747E+02 -0.20380367314E+02 -0.36390308073E+02  0.44646935013E+02  0.00000000000E+00 0.  1.
</event>
<event>
 7    1  0.2895479E-015  0.9000758E+02  0.7816164E-02  0.1186339E+00
        -11   -1    0    0    0    0  0.00000000000E+00  0.00000000000E+00  0.45593999997E+02  0.45594000000E+02  0.51100000000E-03 0.  1.
         11   -1    0    0    0    0 -0.00000000000E+00 -0.00000000000E+00 -0.45593999997E+02  0.45594000000E+02  0.51100000000E-03 0. -1.
    9900012    2    1    2    0    0  0.84049941451E+00  0.30762284601E-01 -0.82825431934E+00  0.90007580244E+02  0.89999839503E+02 0.  0.
        -12    1    1    2    0    0 -0.84049941451E+00 -0.30762284601E-01  0.82825431934E+00  0.11804197565E+01  0.00000000000E+00 0.  1.
         11    1    3    3    0    0 -0.12830436996E+02  0.30922250382E+02 -0.17586251719E+02  0.37816424104E+02  0.51100000000E-03 0. -1.
        -11    1    3    3    0    0  0.19347937535E+01  0.23418304425E+01 -0.83711788290E+01  0.89052923555E+01  0.51100000000E-03 0.  1.
        -12    1    3    3    0    0  0.11736142657E+02 -0.33233318540E+02  0.25129176229E+02  0.43285863784E+02  0.00000000000E+00 0.  1.
</event>
<event>
 7    1  0.2895479E-015  0.9000803E+02  0.7816164E-02  0.1186338E+00
        -11   -1    0    0    0    0  0.00000000000E+00  0.00000000000E+00  0.45593999997E+02  0.45594000000E+02  0.51100000000E-03 0. -1.
         11   -1    0    0    0    0 -0.00000000000E+00 -0.00000000000E+00 -0.45593999997E+02  0.45594000000E+02  0.51100000000E-03 0.  1.
    9900012    2    1    2    0    0  0.11972620734E+00 -0.89768870707E+00  0.75640057061E+00  0.90008033389E+02  0.90000298629E+02 0.  0.
        -12    1    1    2    0    0 -0.11972620734E+00  0.89768870707E+00 -0.75640057061E+00  0.11799666109E+01  0.00000000000E+00 0.  1.
         11    1    3    3    0    0 -0.14425822766E+02  0.21119153240E+01 -0.14333762252E+02  0.20445568942E+02  0.51100000000E-03 0. -1.
        -11    1    3    3    0    0 -0.14659555590E+02  0.23030255812E+02 -0.84676864504E+00  0.27313225190E+02  0.51100000000E-03 0.  1.
         12    1    3    3    0    0  0.29205104564E+02 -0.26039859843E+02  0.15936931467E+02  0.42249239257E+02  0.00000000000E+00 0. -1.
</event>
<event>
 7    1  0.2895479E-015  0.9000744E+02  0.7816164E-02  0.1186340E+00
        -11   -1    0    0    0    0  0.00000000000E+00  0.00000000000E+00  0.45593999997E+02  0.45594000000E+02  0.51100000000E-03 0. -1.
         11   -1    0    0    0    0 -0.00000000000E+00 -0.00000000000E+00 -0.45593999997E+02  0.45594000000E+02  0.51100000000E-03 0.  1.
    9900012    2    1    2    0    0  0.25922454159E+00 -0.25888870221E+00  0.11222708822E+01  0.90007443921E+02  0.89999701380E+02 0.  0.
        -12    1    1    2    0    0 -0.25922454159E+00  0.25888870221E+00 -0.11222708822E+01  0.11805560792E+01  0.00000000000E+00 0.  1.
         11    1    3    3    0    0 -0.86774920907E+01 -0.37697965956E+01 -0.23068140105E+01  0.97381531359E+01  0.51100000000E-03 0. -1.
        -11    1    3    3    0    0 -0.43003837643E+01  0.38175454002E+02  0.15239402546E+02  0.41329142006E+02  0.51100000000E-03 0.  1.
         12    1    3    3    0    0  0.13237100397E+02 -0.34664546108E+02 -0.11810317653E+02  0.38940148778E+02  0.00000000000E+00 0. -1.
</event>
<event>
 7    1  0.2895479E-015  0.9000775E+02  0.7816164E-02  0.1186339E+00
        -11   -1    0    0    0    0  0.00000000000E+00  0.00000000000E+00  0.45593999997E+02  0.45594000000E+02  0.51100000000E-03 0. -1.
         11   -1    0    0    0    0 -0.00000000000E+00 -0.00000000000E+00 -0.45593999997E+02  0.45594000000E+02  0.51100000000E-03 0.  1.
    9900012    2    1    2    0    0 -0.16590723406E+00 -0.94689816478E+00  0.68472815863E+00  0.90007748334E+02  0.90000009812E+02 0.  0.
        -12    1    1    2    0    0  0.16590723406E+00  0.94689816478E+00 -0.68472815863E+00  0.11802516664E+01  0.00000000000E+00 0.  1.
         11    1    3    3    0    0  0.32839676764E+02  0.16209795066E+02 -0.64412172032E+01  0.37184554661E+02  0.51100000000E-03 0. -1.
        -11    1    3    3    0    0  0.28199788035E+01  0.47016687386E+01 -0.66813991776E+01  0.86428620614E+01  0.51100000000E-03 0.  1.
        -12    1    3    3    0    0 -0.35825562801E+02 -0.21858361970E+02  0.13807344539E+02  0.44180331611E+02  0.00000000000E+00 0.  1.
</event>
<event>
 7    1  0.2895479E-015  0.9000757E+02  0.7816164E-02  0.1186339E+00
        -11   -1    0    0    0    0  0.00000000000E+00  0.00000000000E+00  0.45593999997E+02  0.45594000000E+02  0.51100000000E-03 0. -1.
         11   -1    0    0    0    0 -0.00000000000E+00 -0.00000000000E+00 -0.45593999997E+02  0.45594000000E+02  0.51100000000E-03 0.  1.
    9900012    2    1    2    0    0  0.56918882049E+00  0.10278935858E+01  0.11351242883E+00  0.90007565246E+02  0.89999824307E+02 0.  0.
        -12    1    1    2    0    0 -0.56918882049E+00 -0.10278935858E+01 -0.11351242883E+00  0.11804347541E+01  0.00000000000E+00 0.  1.
         11    1    3    3    0    0 -0.36449940605E+02 -0.14689442032E+02 -0.91747259300E+01  0.40355340087E+02  0.51100000000E-03 0. -1.
        -11    1    3    3    0    0 -0.27614244911E+01  0.32980499272E+01  0.66174729059E+01  0.78926260816E+01  0.51100000000E-03 0.  1.
        -12    1    3    3    0    0  0.39780553917E+02  0.12419285691E+02  0.26707654530E+01  0.41759599078E+02  0.00000000000E+00 0.  1.
</event>
<event>
 7    1  0.2895479E-015  0.9000736E+02  0.7816164E-02  0.1186340E+00
        -11   -1    0    0    0    0  0.00000000000E+00  0.00000000000E+00  0.45593999997E+02  0.45594000000E+02  0.51100000000E-03 0.  1.
         11   -1    0    0    0    0 -0.00000000000E+00 -0.00000000000E+00 -0.45593999997E+02  0.45594000000E+02  0.51100000000E-03 0. -1.
    9900012    2    1    2    0    0  0.10814919833E+01 -0.37187691402E+00 -0.29323084063E+00  0.90007363868E+02  0.89999620271E+02 0.  0.
        -12    1    1    2    0    0 -0.10814919833E+01  0.37187691402E+00  0.29323084063E+00  0.11806361315E+01  0.00000000000E+00 0.  1.
         11    1    3    3    0    0 -0.31102252870E+01  0.27821188711E+02 -0.23084450397E+02  0.36284761168E+02  0.51100000000E-03 0. -1.
        -11    1    3    3    0    0  0.47220507909E+01  0.48500547592E+01 -0.66308566803E+01  0.94757087025E+01  0.51100000000E-03 0.  1.
        -12    1    3    3    0    0 -0.53033352052E+00 -0.33043120384E+02  0.29422076237E+02  0.44246893998E+02  0.00000000000E+00 0.  1.
</event>
<event>
 7    1  0.2895479E-015  0.9000772E+02  0.7816164E-02  0.1186339E+00
        -11   -1    0    0    0    0  0.00000000000E+00  0.00000000000E+00  0.45593999997E+02  0.45594000000E+02  0.51100000000E-03 0.  1.
         11   -1    0    0    0    0 -0.00000000000E+00 -0.00000000000E+00 -0.45593999997E+02  0.45594000000E+02  0.51100000000E-03 0. -1.
    9900012    2    1    2    0    0  0.57977831327E+00  0.84950247925E+00 -0.57902163465E+00  0.90007718928E+02  0.89999980018E+02 0.  0.
        -12    1    1    2    0    0 -0.57977831327E+00 -0.84950247925E+00  0.57902163465E+00  0.11802810717E+01  0.00000000000E+00 0.  1.
         11    1    3    3    0    0 -0.14559273527E+02  0.14115855143E+02 -0.33412073101E+02  0.39084478264E+02  0.51100000000E-03 0. -1.
        -11    1    3    3    0    0  0.72034174272E+01  0.50569559394E+01 -0.34944455681E+01  0.94695921820E+01  0.51100000000E-03 0.  1.
        -12    1    3    3    0    0  0.79356344133E+01 -0.18323308603E+02  0.36327497034E+02  0.41453648482E+02  0.00000000000E+00 0.  1.
</event>
<event>
 7    1  0.2895479E-015  0.9000813E+02  0.7816164E-02  0.1186338E+00
        -11   -1    0    0    0    0  0.00000000000E+00  0.00000000000E+00  0.45593999997E+02  0.45594000000E+02  0.51100000000E-03 0. -1.
         11   -1    0    0    0    0 -0.00000000000E+00 -0.00000000000E+00 -0.45593999997E+02  0.45594000000E+02  0.51100000000E-03 0.  1.
    9900012    2    1    2    0    0  0.22261132588E+00  0.10889930910E+01  0.39576012657E+00  0.90008132282E+02  0.90000398827E+02 0.  0.
        -12    1    1    2    0    0 -0.22261132588E+00 -0.10889930910E+01 -0.39576012657E+00  0.11798677182E+01  0.00000000000E+00 0.  1.
         11    1    3    3    0    0  0.15141960065E+02  0.20938158058E+02  0.32023916065E+02  0.41148713441E+02  0.51100000000E-03 0. -1.
        -11    1    3    3    0    0  0.82794041796E+01 -0.47324215289E+01 -0.74963941297E+01  0.12130139006E+02  0.51100000000E-03 0.  1.
        -12    1    3    3    0    0 -0.23198752919E+02 -0.15116743438E+02 -0.24131761809E+02  0.36729279834E+02  0.00000000000E+00 0.  1.
</event>
<event>
 7    1  0.2895479E-015  0.9000781E+02  0.7816164E-02  0.1186339E+00
        -11   -1    0    0    0    0  0.00000000000E+00  0.00000000000E+00  0.45593999997E+02  0.45594000000E+02  0.51100000000E-03 0. -1.
         11   -1    0    0    0    0 -0.00000000000E+00 -0.00000000000E+00 -0.45593999997E+02  0.45594000000E+02  0.51100000000E-03 0.  1.
    9900012    2    1    2    0    0  0.45396292925E+00 -0.10884995699E+01  0.44106780364E-01  0.90007805498E+02  0.90000067730E+02 0.  0.
        -12    1    1    2    0    0 -0.45396292925E+00  0.10884995699E+01 -0.44106780364E-01  0.11801945021E+01  0.00000000000E+00 0.  1.
         11    1    3    3    0    0 -0.60963347969E-01  0.10124970570E+02  0.59146203991E+01  0.11726102520E+02  0.51100000000E-03 0. -1.
        -11    1    3    3    0    0  0.16890739223E+02  0.29600103253E+02 -0.29903160832E+01  0.34211184935E+02  0.51100000000E-03 0.  1.
         12    1    3    3    0    0 -0.16375812946E+02 -0.40813573393E+02 -0.28801975356E+01  0.44070518043E+02  0.00000000000E+00 0. -1.
</event>
<event>
 7    1  0.2895479E-015  0.9000767E+02  0.7816164E-02  0.1186339E+00
        -11   -1    0    0    0    0  0.00000000000E+00  0.00000000000E+00  0.45593999997E+02  0.45594000000E+02  0.51100000000E-03 0.  1.
         11   -1    0    0    0    0 -0.00000000000E+00 -0.00000000000E+00 -0.45593999997E+02  0.45594000000E+02  0.51100000000E-03 0. -1.
    9900012    2    1    2    0    0 -0.88823260646E+00 -0.35807608479E+00 -0.68992730337E+00  0.90007671516E+02  0.89999931980E+02 0.  0.
        -12    1    1    2    0    0  0.88823260646E+00  0.35807608479E+00  0.68992730337E+00  0.11803284838E+01  0.00000000000E+00 0.  1.
         11    1    3    3    0    0 -0.22181312402E+02  0.27656446053E+02 -0.66052547731E+01  0.36062709536E+02  0.51100000000E-03 0. -1.
        -11    1    3    3    0    0 -0.40251633533E+00  0.95624027767E+01 -0.21549382260E+01  0.98104701867E+01  0.51100000000E-03 0.  1.
        -12    1    3    3    0    0  0.21695596131E+02 -0.37576924914E+02  0.80702656958E+01  0.44134491794E+02  0.00000000000E+00 0.  1.
</event>
<event>
 7    1  0.2895479E-015  0.9000776E+02  0.7816164E-02  0.1186339E+00
        -11   -1    0    0    0    0  0.00000000000E+00  0.00000000000E+00  0.45593999997E+02  0.45594000000E+02  0.51100000000E-03 0.  1.
         11   -1    0    0    0    0 -0.00000000000E+00 -0.00000000000E+00 -0.45593999997E+02  0.45594000000E+02  0.51100000000E-03 0. -1.
    9900012    2    1    2    0    0  0.58662707221E+00 -0.77453664106E+00 -0.67002260474E+00  0.90007759083E+02  0.90000020703E+02 0.  0.
        -12    1    1    2    0    0 -0.58662707221E+00  0.77453664106E+00  0.67002260474E+00  0.11802409165E+01  0.00000000000E+00 0.  1.
         11    1    3    3    0    0 -0.19629426218E+02 -0.12272738614E+02  0.31996591026E+02  0.39493244034E+02  0.51100000000E-03 0. -1.
        -11    1    3    3    0    0  0.45078429381E+01  0.79462260323E+01  0.43705558992E+01  0.10127433793E+02  0.51100000000E-03 0.  1.
        -12    1    3    3    0    0  0.15708210352E+02  0.35519759410E+01 -0.37037169530E+02  0.40387081256E+02  0.00000000000E+00 0.  1.
</event>
<event>
 7    1  0.2895479E-015  0.9000777E+02  0.7816164E-02  0.1186339E+00
        -11   -1    0    0    0    0  0.00000000000E+00  0.00000000000E+00  0.45593999997E+02  0.45594000000E+02  0.51100000000E-03 0.  1.
         11   -1    0    0    0    0 -0.00000000000E+00 -0.00000000000E+00 -0.45593999997E+02  0.45594000000E+02  0.51100000000E-03 0. -1.
    9900012    2    1    2    0    0  0.86608618962E+00 -0.76890184320E+00 -0.22723958348E+00  0.90007765633E+02  0.90000027340E+02 0.  0.
        -12    1    1    2    0    0 -0.86608618962E+00  0.76890184320E+00  0.22723958348E+00  0.11802343668E+01  0.00000000000E+00 0.  1.
         11    1    3    3    0    0  0.16245782208E+02  0.69626138579E+01  0.34554550941E+02  0.38812632251E+02  0.51100000000E-03 0. -1.
        -11    1    3    3    0    0 -0.16849728279E+02  0.71956554656E+01 -0.69822159879E+01  0.19607196154E+02  0.51100000000E-03 0.  1.
        -12    1    3    3    0    0  0.14700322608E+01 -0.14927171167E+02 -0.27799574537E+02  0.31587937228E+02  0.00000000000E+00 0.  1.
</event>
<event>
 7    1  0.2895479E-015  0.9000780E+02  0.7816164E-02  0.1186339E+00
        -11   -1    0    0    0    0  0.00000000000E+00  0.00000000000E+00  0.45593999997E+02  0.45594000000E+02  0.51100000000E-03 0.  1.
         11   -1    0    0    0    0 -0.00000000000E+00 -0.00000000000E+00 -0.45593999997E+02  0.45594000000E+02  0.51100000000E-03 0. -1.
    9900012    2    1    2    0    0 -0.94184078240E+00  0.99313119693E-01 -0.70422831857E+00  0.90007803118E+02  0.90000065319E+02 0.  0.
        -12    1    1    2    0    0  0.94184078240E+00 -0.99313119693E-01  0.70422831857E+00  0.11801968818E+01  0.00000000000E+00 0.  1.
         11    1    3    3    0    0  0.73570919619E+00 -0.83911307032E+01  0.39758206480E+01  0.93144775798E+01  0.51100000000E-03 0. -1.
        -11    1    3    3    0    0 -0.30278828808E+01 -0.58818986884E+01  0.36480128185E+02  0.37075120493E+02  0.51100000000E-03 0.  1.
         12    1    3    3    0    0  0.13503329022E+01  0.14372342511E+02 -0.41160177152E+02  0.43618205045E+02  0.00000000000E+00 0. -1.
</event>
<event>
 7    1  0.2895479E-015  0.9000779E+02  0.7816164E-02  0.1186339E+00
        -11   -1    0    0    0    0  0.00000000000E+00  0.00000000000E+00  0.45593999997E+02  0.45594000000E+02  0.51100000000E-03 0. -1.
         11   -1    0    0    0    0 -0.00000000000E+00 -0.00000000000E+00 -0.45593999997E+02  0.45594000000E+02  0.51100000000E-03 0.  1.
    9900012    2    1    2    0    0  0.90526245467E+00 -0.86316682793E-01  0.75229200964E+00  0.90007790718E+02  0.90000052755E+02 0.  0.
        -12    1    1    2    0    0 -0.90526245467E+00  0.86316682793E-01 -0.75229200964E+00  0.11802092820E+01  0.00000000000E+00 0.  1.
         11    1    3    3    0    0 -0.22769037082E+01 -0.72451167668E+01 -0.30061680028E+01  0.81678059345E+01  0.51100000000E-03 0. -1.
        -11    1    3    3    0    0 -0.16647932111E+02  0.34665935373E+02 -0.17037399474E+02  0.42061308824E+02  0.51100000000E-03 0.  1.
         12    1    3    3    0    0  0.19830098274E+02 -0.27507135289E+02  0.20795859486E+02  0.39778675960E+02  0.00000000000E+00 0. -1.
</event>
<event>
 7    1  0.2895479E-015  0.9000775E+02  0.7816164E-02  0.1186339E+00
        -11   -1    0    0    0    0  0.00000000000E+00  0.00000000000E+00  0.45593999997E+02  0.45594000000E+02  0.51100000000E-03 0.  1.
         11   -1    0    0    0    0 -0.00000000000E+00 -0.00000000000E+00 -0.45593999997E+02  0.45594000000E+02  0.51100000000E-03 0. -1.
    9900012    2    1    2    0    0  0.73569770170E+00 -0.13629852412E+00  0.91278235954E+00  0.90007745777E+02  0.90000007221E+02 0.  0.
        -12    1    1    2    0    0 -0.73569770170E+00  0.13629852412E+00 -0.91278235954E+00  0.11802542234E+01  0.00000000000E+00 0.  1.
         11    1    3    3    0    0  0.26539675006E+01  0.11500073208E+02 -0.66382442460E+00  0.11820993631E+02  0.51100000000E-03 0. -1.
        -11    1    3    3    0    0 -0.80610773743E+01  0.31367041786E+02  0.10087487759E+02  0.33920932894E+02  0.51100000000E-03 0.  1.
         12    1    3    3    0    0  0.61428075753E+01 -0.43003413518E+02 -0.85108809747E+01  0.44265819252E+02  0.00000000000E+00 0. -1.
</event>
<event>
 7    1  0.2895479E-015  0.9000773E+02  0.7816164E-02  0.1186339E+00
        -11   -1    0    0    0    0  0.00000000000E+00  0.00000000000E+00  0.45593999997E+02  0.45594000000E+02  0.51100000000E-03 0.  1.
         11   -1    0    0    0    0 -0.00000000000E+00 -0.00000000000E+00 -0.45593999997E+02  0.45594000000E+02  0.51100000000E-03 0. -1.
    9900012    2    1    2    0    0 -0.34527664047E+00 -0.10038998096E+01 -0.51576479299E+00  0.90007727105E+02  0.89999988302E+02 0.  0.
        -12    1    1    2    0    0  0.34527664047E+00  0.10038998096E+01  0.51576479299E+00  0.11802728955E+01  0.00000000000E+00 0.  1.
         11    1    3    3    0    0 -0.28947088050E+02 -0.78561391497E+01 -0.17404814285E+02  0.34678240865E+02  0.51100000000E-03 0. -1.
        -11    1    3    3    0    0 -0.75626223246E+01 -0.13018570353E+01 -0.76784338490E+01  0.10855709779E+02  0.51100000000E-03 0.  1.
        -12    1    3    3    0    0  0.36164433734E+02  0.81540963754E+01  0.24567483341E+02  0.44473776461E+02  0.00000000000E+00 0.  1.
</event>
<event>
 7    1  0.2895479E-015  0.9000802E+02  0.7816164E-02  0.1186338E+00
        -11   -1    0    0    0    0  0.00000000000E+00  0.00000000000E+00  0.45593999997E+02  0.45594000000E+02  0.51100000000E-03 0.  1.
         11   -1    0    0    0    0 -0.00000000000E+00 -0.00000000000E+00 -0.45593999997E+02  0.45594000000E+02  0.51100000000E-03 0. -1.
    9900012    2    1    2    0    0  0.79149270291E-03  0.33583235789E+00 -0.11311791660E+01  0.90008021058E+02  0.90000286135E+02 0.  0.
        -12    1    1    2    0    0 -0.79149270291E-03 -0.33583235789E+00  0.11311791660E+01  0.11799789425E+01  0.00000000000E+00 0.  1.
         11    1    3    3    0    0 -0.10366652396E+02 -0.21153634814E+01 -0.47745830169E+01  0.11607708121E+02  0.51100000000E-03 0. -1.
        -11    1    3    3    0    0 -0.10644283894E+02  0.36422733708E+02  0.58522086528E+01  0.38394851957E+02  0.51100000000E-03 0.  1.
         12    1    3    3    0    0  0.21011727783E+02 -0.33971537869E+02 -0.22088048018E+01  0.40005460980E+02  0.00000000000E+00 0. -1.
</event>
<event>
 7    1  0.2895479E-015  0.9000772E+02  0.7816164E-02  0.1186339E+00
        -11   -1    0    0    0    0  0.00000000000E+00  0.00000000000E+00  0.45593999997E+02  0.45594000000E+02  0.51100000000E-03 0.  1.
         11   -1    0    0    0    0 -0.00000000000E+00 -0.00000000000E+00 -0.45593999997E+02  0.45594000000E+02  0.51100000000E-03 0. -1.
    9900012    2    1    2    0    0 -0.74660753011E+00 -0.45474410457E+00 -0.79299291116E+00  0.90007723438E+02  0.89999984588E+02 0.  0.
        -12    1    1    2    0    0  0.74660753011E+00  0.45474410457E+00  0.79299291116E+00  0.11802765616E+01  0.00000000000E+00 0.  1.
         11    1    3    3    0    0 -0.18282390416E+01  0.53799371691E+01 -0.74582181366E+01  0.93760972676E+01  0.51100000000E-03 0. -1.
        -11    1    3    3    0    0  0.27177839338E+02  0.62867180535E+01  0.31888158005E+02  0.42367586622E+02  0.51100000000E-03 0.  1.
         12    1    3    3    0    0 -0.26096207826E+02 -0.12121399327E+02 -0.25222932780E+02  0.38264039549E+02  0.00000000000E+00 0. -1.
</event>
<event>
 7    1  0.2895479E-015  0.9000782E+02  0.7816164E-02  0.1186339E+00
        -11   -1    0    0    0    0  0.00000000000E+00  0.00000000000E+00  0.45593999997E+02  0.45594000000E+02  0.51100000000E-03 0. -1.
         11   -1    0    0    0    0 -0.00000000000E+00 -0.00000000000E+00 -0.45593999997E+02  0.45594000000E+02  0.51100000000E-03 0.  1.
    9900012    2    1    2    0    0 -0.89088359112E-01  0.76182018632E+00 -0.89694870851E+00  0.90007820472E+02  0.90000082902E+02 0.  0.
        -12    1    1    2    0    0  0.89088359112E-01 -0.76182018632E+00  0.89694870851E+00  0.11801795277E+01  0.00000000000E+00 0.  1.
         11    1    3    3    0    0  0.57930882414E+01 -0.59351757137E+00 -0.55829493674E+01  0.80673080009E+01  0.51100000000E-03 0. -1.
        -11    1    3    3    0    0 -0.13189684279E+02  0.45611968900E+01 -0.36975518764E+02  0.39521655793E+02  0.51100000000E-03 0.  1.
         12    1    3    3    0    0  0.73075076787E+01 -0.32058591323E+01  0.41661519423E+02  0.42418856678E+02  0.00000000000E+00 0. -1.
</event>
<event>
 7    1  0.2895479E-015  0.9000778E+02  0.7816164E-02  0.1186339E+00
        -11   -1    0    0    0    0  0.00000000000E+00  0.00000000000E+00  0.45593999997E+02  0.45594000000E+02  0.51100000000E-03 0.  1.
         11   -1    0    0    0    0 -0.00000000000E+00 -0.00000000000E+00 -0.45593999997E+02  0.45594000000E+02  0.51100000000E-03 0. -1.
    9900012    2    1    2    0    0  0.11362194690E+01 -0.18543492942E+00  0.25990315255E+00  0.90007775257E+02  0.90000037091E+02 0.  0.
        -12    1    1    2    0    0 -0.11362194690E+01  0.18543492942E+00 -0.25990315255E+00  0.11802247428E+01  0.00000000000E+00 0.  1.
         11    1    3    3    0    0  0.16762974279E+01 -0.21776816874E+01  0.12564238799E+02  0.12861273944E+02  0.51100000000E-03 0. -1.
        -11    1    3    3    0    0  0.23299593872E+02  0.77129259600E+01  0.23350376019E+02  0.33876250707E+02  0.51100000000E-03 0.  1.
         12    1    3    3    0    0 -0.23839671831E+02 -0.57206792020E+01 -0.35654711666E+02  0.43270250606E+02  0.00000000000E+00 0. -1.
</event>
<event>
 7    1  0.2895479E-015  0.9000762E+02  0.7816164E-02  0.1186339E+00
        -11   -1    0    0    0    0  0.00000000000E+00  0.00000000000E+00  0.45593999997E+02  0.45594000000E+02  0.51100000000E-03 0. -1.
         11   -1    0    0    0    0 -0.00000000000E+00 -0.00000000000E+00 -0.45593999997E+02  0.45594000000E+02  0.51100000000E-03 0.  1.
    9900012    2    1    2    0    0  0.48063956558E-01 -0.11789360889E+01 -0.33097324187E-01  0.90007620451E+02  0.89999880241E+02 0.  0.
        -12    1    1    2    0    0 -0.48063956558E-01  0.11789360889E+01  0.33097324187E-01  0.11803795485E+01  0.00000000000E+00 0.  1.
         11    1    3    3    0    0 -0.39143628751E+02  0.46285113992E+01 -0.40798810220E+01  0.39626912812E+02  0.51100000000E-03 0. -1.
        -11    1    3    3    0    0  0.66227494045E+01  0.85717112868E+01 -0.72441905497E+01  0.13031244800E+02  0.51100000000E-03 0.  1.
        -12    1    3    3    0    0  0.32568943303E+02 -0.14379158775E+02  0.11290974248E+02  0.37349462840E+02  0.00000000000E+00 0.  1.
</event>
<event>
 7    1  0.2895479E-015  0.9000777E+02  0.7816164E-02  0.1186339E+00
        -11   -1    0    0    0    0  0.00000000000E+00  0.00000000000E+00  0.45593999997E+02  0.45594000000E+02  0.51100000000E-03 0. -1.
         11   -1    0    0    0    0 -0.00000000000E+00 -0.00000000000E+00 -0.45593999997E+02  0.45594000000E+02  0.51100000000E-03 0.  1.
    9900012    2    1    2    0    0 -0.99749539764E+00  0.50735423847E+00  0.37487269949E+00  0.90007773355E+02  0.90000035164E+02 0.  0.
        -12    1    1    2    0    0  0.99749539764E+00 -0.50735423847E+00 -0.37487269949E+00  0.11802266445E+01  0.00000000000E+00 0.  1.
         11    1    3    3    0    0 -0.32427237539E+02  0.19754694750E+02 -0.69303408139E+01  0.38597970453E+02  0.51100000000E-03 0. -1.
        -11    1    3    3    0    0 -0.16112063392E+01 -0.92882648495E+01 -0.91861317826E+01  0.13162555495E+02  0.51100000000E-03 0.  1.
        -12    1    3    3    0    0  0.33040948480E+02 -0.99590756616E+01  0.16491345296E+02  0.38247247407E+02  0.00000000000E+00 0.  1.
</event>
<event>
 7    1  0.2895479E-015  0.9000737E+02  0.7816164E-02  0.1186340E+00
        -11   -1    0    0    0    0  0.00000000000E+00  0.00000000000E+00  0.45593999997E+02  0.45594000000E+02  0.51100000000E-03 0.  1.
         11   -1    0    0    0    0 -0.00000000000E+00 -0.00000000000E+00 -0.45593999997E+02  0.45594000000E+02  0.51100000000E-03 0. -1.
    9900012    2    1    2    0    0 -0.39827219582E+00 -0.84737453959E+00 -0.71918827706E+00  0.90007366217E+02  0.89999622650E+02 0.  0.
        -12    1    1    2    0    0  0.39827219582E+00  0.84737453959E+00  0.71918827706E+00  0.11806337833E+01  0.00000000000E+00 0.  1.
         11    1    3    3    0    0  0.62585367383E+01 -0.21373874799E+00  0.63217886827E+01  0.88983132540E+01  0.51100000000E-03 0. -1.
        -11    1    3    3    0    0 -0.15124795693E+02  0.14405651527E+01  0.35009597452E+02  0.38164205569E+02  0.51100000000E-03 0.  1.
         12    1    3    3    0    0  0.84679867591E+01 -0.20742009443E+01 -0.42050574412E+02  0.42944847394E+02  0.00000000000E+00 0. -1.
</event>
<event>
 7    1  0.2895479E-015  0.9000776E+02  0.7816164E-02  0.1186339E+00
        -11   -1    0    0    0    0  0.00000000000E+00  0.00000000000E+00  0.45593999997E+02  0.45594000000E+02  0.51100000000E-03 0.  1.
         11   -1    0    0    0    0 -0.00000000000E+00 -0.00000000000E+00 -0.45593999997E+02  0.45594000000E+02  0.51100000000E-03 0. -1.
    9900012    2    1    2    0    0 -0.52187631152E+00 -0.10077968072E+01 -0.32398227615E+00  0.90007756888E+02  0.90000018479E+02 0.  0.
        -12    1    1    2    0    0  0.52187631152E+00  0.10077968072E+01  0.32398227615E+00  0.11802431124E+01  0.00000000000E+00 0.  1.
         11    1    3    3    0    0 -0.30886964722E+01 -0.10944297416E+01 -0.85385938650E+01  0.91457863418E+01  0.51100000000E-03 0. -1.
        -11    1    3    3    0    0  0.14200048389E+02 -0.33726318329E+02  0.21817176307E+02  0.42603932971E+02  0.51100000000E-03 0.  1.
         12    1    3    3    0    0 -0.11633228228E+02  0.33812951264E+02 -0.13602564719E+02  0.38258037575E+02  0.00000000000E+00 0. -1.
</event>
<event>
 7    1  0.3885330E-015  0.9000774E+02  0.7816164E-02  0.1186339E+00
        -11   -1    0    0    0    0  0.00000000000E+00  0.00000000000E+00  0.45593999997E+02  0.45594000000E+02  0.51100000000E-03 0.  1.
         11   -1    0    0    0    0 -0.00000000000E+00 -0.00000000000E+00 -0.45593999997E+02  0.45594000000E+02  0.51100000000E-03 0. -1.
    9900012    2    1    2    0    0 -0.10081747220E+01 -0.61368012053E+00  0.19541805147E-02  0.90007735886E+02  0.89999997199E+02 0.  0.
        -12    1    1    2    0    0  0.10081747220E+01  0.61368012053E+00 -0.19541805147E-02  0.11802641142E+01  0.00000000000E+00 0.  1.
         11    1    3    3    0    0  0.38680535659E+01 -0.76060642768E+01 -0.35766007539E+01  0.92523578285E+01  0.51100000000E-03 0. -1.
        -11    1    3    3    0    0  0.19772486241E+02 -0.23765957061E+02  0.21295767678E+02  0.37540400217E+02  0.51100000000E-03 0.  1.
         12    1    3    3    0    0 -0.24648714529E+02  0.30758341217E+02 -0.17717212744E+02  0.43214977841E+02  0.00000000000E+00 0. -1.
</event>
<event>
 7    1  0.2895479E-015  0.9000778E+02  0.7816164E-02  0.1186339E+00
        -11   -1    0    0    0    0  0.00000000000E+00  0.00000000000E+00  0.45593999997E+02  0.45594000000E+02  0.51100000000E-03 0. -1.
         11   -1    0    0    0    0 -0.00000000000E+00 -0.00000000000E+00 -0.45593999997E+02  0.45594000000E+02  0.51100000000E-03 0.  1.
    9900012    2    1    2    0    0  0.48872118273E+00 -0.19150335985E+00 -0.10570705158E+01  0.90007779679E+02  0.90000041571E+02 0.  0.
        -12    1    1    2    0    0 -0.48872118273E+00  0.19150335985E+00  0.10570705158E+01  0.11802203212E+01  0.00000000000E+00 0.  1.
         11    1    3    3    0    0 -0.67943106893E+01 -0.73800752493E+01  0.14902229564E+01  0.10141446305E+02  0.51100000000E-03 0. -1.
        -11    1    3    3    0    0  0.11872831324E+02  0.24806772496E+02 -0.33874561575E+02  0.43632854679E+02  0.51100000000E-03 0.  1.
         12    1    3    3    0    0 -0.45897994520E+01 -0.17618200606E+02  0.31327268102E+02  0.36233478695E+02  0.00000000000E+00 0. -1.
</event>
<event>
 7    1  0.2895479E-015  0.9000769E+02  0.7816164E-02  0.1186339E+00
        -11   -1    0    0    0    0  0.00000000000E+00  0.00000000000E+00  0.45593999997E+02  0.45594000000E+02  0.51100000000E-03 0. -1.
         11   -1    0    0    0    0 -0.00000000000E+00 -0.00000000000E+00 -0.45593999997E+02  0.45594000000E+02  0.51100000000E-03 0.  1.
    9900012    2    1    2    0    0  0.76490005058E+00 -0.60295076900E+00  0.66671782858E+00  0.90007688863E+02  0.89999949556E+02 0.  0.
        -12    1    1    2    0    0 -0.76490005058E+00  0.60295076900E+00 -0.66671782858E+00  0.11803111370E+01  0.00000000000E+00 0.  1.
         11    1    3    3    0    0 -0.19179350989E+01 -0.35259853489E+02  0.10921067234E+02  0.36962216558E+02  0.51100000000E-03 0. -1.
        -11    1    3    3    0    0 -0.73961488725E+01 -0.60617341016E+01 -0.49377362810E+01  0.10762382557E+02  0.51100000000E-03 0.  1.
        -12    1    3    3    0    0  0.10078984022E+02  0.40718636821E+02 -0.53166131240E+01  0.42283089748E+02  0.00000000000E+00 0.  1.
</event>
<event>
 7    1  0.2895479E-015  0.9000769E+02  0.7816164E-02  0.1186339E+00
        -11   -1    0    0    0    0  0.00000000000E+00  0.00000000000E+00  0.45593999997E+02  0.45594000000E+02  0.51100000000E-03 0.  1.
         11   -1    0    0    0    0 -0.00000000000E+00 -0.00000000000E+00 -0.45593999997E+02  0.45594000000E+02  0.51100000000E-03 0. -1.
    9900012    2    1    2    0    0 -0.92751925727E+00 -0.72759600047E+00  0.58693562666E-01  0.90007689513E+02  0.89999950214E+02 0.  0.
        -12    1    1    2    0    0  0.92751925727E+00  0.72759600047E+00 -0.58693562666E-01  0.11803104875E+01  0.00000000000E+00 0.  1.
         11    1    3    3    0    0  0.38793763874E+01 -0.30130982085E+01  0.60244943727E+01  0.77732139220E+01  0.51100000000E-03 0. -1.
        -11    1    3    3    0    0 -0.15094837135E+02 -0.28638311831E+01  0.35776372902E+02  0.38935902396E+02  0.51100000000E-03 0.  1.
         12    1    3    3    0    0  0.10287941490E+02  0.51493333911E+01 -0.41742173712E+02  0.43298573194E+02  0.00000000000E+00 0. -1.
</event>
<event>
 7    1  0.2895479E-015  0.9000770E+02  0.7816164E-02  0.1186339E+00
        -11   -1    0    0    0    0  0.00000000000E+00  0.00000000000E+00  0.45593999997E+02  0.45594000000E+02  0.51100000000E-03 0. -1.
         11   -1    0    0    0    0 -0.00000000000E+00 -0.00000000000E+00 -0.45593999997E+02  0.45594000000E+02  0.51100000000E-03 0.  1.
    9900012    2    1    2    0    0  0.11714052439E+01 -0.11907215768E-01 -0.14413235631E+00  0.90007700816E+02  0.89999961667E+02 0.  0.
        -12    1    1    2    0    0 -0.11714052439E+01  0.11907215768E-01  0.14413235631E+00  0.11802991838E+01  0.00000000000E+00 0.  1.
         11    1    3    3    0    0 -0.60386205261E+01  0.15729659579E+01 -0.15933782460E+01  0.64403427129E+01  0.51100000000E-03 0. -1.
        -11    1    3    3    0    0 -0.13178542090E+02  0.34000469846E+02 -0.14932783260E+02  0.39404237558E+02  0.51100000000E-03 0.  1.
         12    1    3    3    0    0  0.20388567860E+02 -0.35585343020E+02  0.16382029149E+02  0.44163120545E+02  0.00000000000E+00 0. -1.
</event>
<event>
 7    1  0.2895479E-015  0.9000780E+02  0.7816164E-02  0.1186339E+00
        -11   -1    0    0    0    0  0.00000000000E+00  0.00000000000E+00  0.45593999997E+02  0.45594000000E+02  0.51100000000E-03 0. -1.
         11   -1    0    0    0    0 -0.00000000000E+00 -0.00000000000E+00 -0.45593999997E+02  0.45594000000E+02  0.51100000000E-03 0.  1.
    9900012    2    1    2    0    0  0.11851006725E+00 -0.27840399383E+00  0.11407565919E+01  0.90007797042E+02  0.90000059163E+02 0.  0.
        -12    1    1    2    0    0 -0.11851006725E+00  0.27840399383E+00 -0.11407565919E+01  0.11802029579E+01  0.00000000000E+00 0.  1.
         11    1    3    3    0    0 -0.66598406309E+01  0.74637475099E+01  0.38136542970E+01  0.10705370777E+02  0.51100000000E-03 0. -1.
        -11    1    3    3    0    0 -0.26624603153E+02  0.11815392292E+02 -0.21553617447E+02  0.36235775324E+02  0.51100000000E-03 0.  1.
         12    1    3    3    0    0  0.33402953851E+02 -0.19557543795E+02  0.18880719742E+02  0.43066650941E+02  0.00000000000E+00 0. -1.
</event>
<event>
 7    1  0.2895479E-015  0.9000770E+02  0.7816164E-02  0.1186339E+00
        -11   -1    0    0    0    0  0.00000000000E+00  0.00000000000E+00  0.45593999997E+02  0.45594000000E+02  0.51100000000E-03 0. -1.
         11   -1    0    0    0    0 -0.00000000000E+00 -0.00000000000E+00 -0.45593999997E+02  0.45594000000E+02  0.51100000000E-03 0.  1.
    9900012    2    1    2    0    0 -0.11782283644E+01  0.33194078556E-01 -0.61581269808E-01  0.90007696574E+02  0.89999957368E+02 0.  0.
        -12    1    1    2    0    0  0.11782283644E+01 -0.33194078556E-01  0.61581269808E-01  0.11803034264E+01  0.00000000000E+00 0.  1.
         11    1    3    3    0    0 -0.10293505565E+02 -0.35141532285E+02  0.76215198393E+01  0.37402822261E+02  0.51100000000E-03 0. -1.
        -11    1    3    3    0    0  0.80160954349E+01 -0.59130683724E+01  0.24788133200E+01  0.10264827292E+02  0.51100000000E-03 0.  1.
        -12    1    3    3    0    0  0.10991817658E+01  0.41087794736E+02 -0.10161914429E+02  0.42340047021E+02  0.00000000000E+00 0.  1.
</event>
<event>
 7    1  0.2895479E-015  0.9000765E+02  0.7816164E-02  0.1186339E+00
        -11   -1    0    0    0    0  0.00000000000E+00  0.00000000000E+00  0.45593999997E+02  0.45594000000E+02  0.51100000000E-03 0.  1.
         11   -1    0    0    0    0 -0.00000000000E+00 -0.00000000000E+00 -0.45593999997E+02  0.45594000000E+02  0.51100000000E-03 0. -1.
    9900012    2    1    2    0    0  0.81160039552E+00  0.10688653231E-01 -0.85698269638E+00  0.90007648870E+02  0.89999909035E+02 0.  0.
        -12    1    1    2    0    0 -0.81160039552E+00 -0.10688653231E-01  0.85698269638E+00  0.11803511305E+01  0.00000000000E+00 0.  1.
         11    1    3    3    0    0  0.65278244436E+01 -0.29798947932E+02 -0.21654195517E+02  0.37409811194E+02  0.51100000000E-03 0. -1.
        -11    1    3    3    0    0 -0.39203460957E+01 -0.40227254614E+01 -0.68573431394E+01  0.88642308657E+01  0.51100000000E-03 0.  1.
        -12    1    3    3    0    0 -0.17958779524E+01  0.33832362046E+02  0.27654555960E+02  0.43733606810E+02  0.00000000000E+00 0.  1.
</event>
