<event>
 7    1  0.2937071E-011  0.5052886E+02  0.7816164E-02  0.1300439E+00
        -11   -1    0    0    0    0  0.00000000000E+00  0.00000000000E+00  0.45593999997E+02  0.45594000000E+02  0.51100000000E-03 0. -1.
         11   -1    0    0    0    0 -0.00000000000E+00 -0.00000000000E+00 -0.45593999997E+02  0.45594000000E+02  0.51100000000E-03 0.  1.
    9900012    2    1    2    0    0 -0.33869426623E+01  0.29979389672E+02  0.27256753777E+02  0.50528858197E+02  0.29999994976E+02 0.  0.
        -12    1    1    2    0    0  0.33869426623E+01 -0.29979389672E+02 -0.27256753777E+02  0.40659141803E+02  0.00000000000E+00 0.  1.
         11    1    3    3    0    0 -0.23045779540E+01 -0.30611627936E+01  0.12882850492E+02  0.13440596499E+02  0.51100000000E-03 0. -1.
        -11    1    3    3    0    0  0.52532602768E+00 -0.26985459886E+00 -0.28951418335E+00  0.65772917175E+00  0.51100000000E-03 0.  1.
        -12    1    3    3    0    0 -0.16076907359E+01  0.33310407064E+02  0.14663417468E+02  0.36430532526E+02  0.00000000000E+00 0.  1.
</event>
<event>
 7    1  0.2937071E-011  0.5052886E+02  0.7816164E-02  0.1300439E+00
        -11   -1    0    0    0    0  0.00000000000E+00  0.00000000000E+00  0.45593999997E+02  0.45594000000E+02  0.51100000000E-03 0.  1.
         11   -1    0    0    0    0 -0.00000000000E+00 -0.00000000000E+00 -0.45593999997E+02  0.45594000000E+02  0.51100000000E-03 0. -1.
    9900012    2    1    2    0    0  0.99594842851E+01  0.38555662911E+02 -0.82119064770E+01  0.50528857390E+02  0.29999992524E+02 0.  0.
        -12    1    1    2    0    0 -0.99594842851E+01 -0.38555662911E+02  0.82119064770E+01  0.40659142610E+02  0.00000000000E+00 0.  1.
         11    1    3    3    0    0  0.10013029562E+01  0.98746876667E+01 -0.67063749989E+01  0.11978628052E+02  0.51100000000E-03 0. -1.
        -11    1    3    3    0    0  0.47529752770E+01  0.24463321223E+02 -0.11081245679E+02  0.27273409492E+02  0.51100000000E-03 0.  1.
        -12    1    3    3    0    0  0.42052060520E+01  0.42176540212E+01  0.95757142009E+01  0.11276819846E+02  0.00000000000E+00 0.  1.
</event>
<event>
 7    1  0.2937071E-011  0.5052887E+02  0.7816164E-02  0.1300439E+00
        -11   -1    0    0    0    0  0.00000000000E+00  0.00000000000E+00  0.45593999997E+02  0.45594000000E+02  0.51100000000E-03 0.  1.
         11   -1    0    0    0    0 -0.00000000000E+00 -0.00000000000E+00 -0.45593999997E+02  0.45594000000E+02  0.51100000000E-03 0. -1.
    9900012    2    1    2    0    0  0.12660937917E+02 -0.33765888162E+02 -0.18781104733E+02  0.50528874981E+02  0.30000045992E+02 0.  0.
        -12    1    1    2    0    0 -0.12660937917E+02  0.33765888162E+02  0.18781104733E+02  0.40659125019E+02  0.00000000000E+00 0.  1.
         11    1    3    3    0    0 -0.20661607264E+01 -0.17282026876E+00  0.32459062322E+01  0.38515963602E+01  0.51100000000E-03 0. -1.
        -11    1    3    3    0    0  0.47673451228E+01 -0.62386376067E+01  0.28819725391E+01  0.83638474809E+01  0.51100000000E-03 0.  1.
         12    1    3    3    0    0  0.99597535207E+01 -0.27354430287E+02 -0.24908983504E+02  0.38313431140E+02  0.00000000000E+00 0. -1.
</event>
<event>
 7    1  0.2937071E-011  0.5052885E+02  0.7816164E-02  0.1300439E+00
        -11   -1    0    0    0    0  0.00000000000E+00  0.00000000000E+00  0.45593999997E+02  0.45594000000E+02  0.51100000000E-03 0.  1.
         11   -1    0    0    0    0 -0.00000000000E+00 -0.00000000000E+00 -0.45593999997E+02  0.45594000000E+02  0.51100000000E-03 0. -1.
    9900012    2    1    2    0    0 -0.17935335235E+02 -0.18338532151E+02 -0.31546604462E+02  0.50528852634E+02  0.29999978066E+02 0.  0.
        -12    1    1    2    0    0  0.17935335235E+02  0.18338532151E+02  0.31546604462E+02  0.40659147366E+02  0.00000000000E+00 0.  1.
         11    1    3    3    0    0 -0.23794258412E-01 -0.21600094385E+01 -0.70903949145E+01  0.74121459272E+01  0.51100000000E-03 0. -1.
        -11    1    3    3    0    0  0.60058229484E+01 -0.63259598967E+01 -0.10746171091E+02  0.13840804575E+02  0.51100000000E-03 0.  1.
        -12    1    3    3    0    0 -0.23917363925E+02 -0.98525628158E+01 -0.13710038457E+02  0.29275902132E+02  0.00000000000E+00 0.  1.
</event>
<event>
 7    1  0.2937071E-011  0.5052886E+02  0.7816164E-02  0.1300439E+00
        -11   -1    0    0    0    0  0.00000000000E+00  0.00000000000E+00  0.45593999997E+02  0.45594000000E+02  0.51100000000E-03 0.  1.
         11   -1    0    0    0    0 -0.00000000000E+00 -0.00000000000E+00 -0.45593999997E+02  0.45594000000E+02  0.51100000000E-03 0. -1.
    9900012    2    1    2    0    0 -0.35784019668E+02 -0.17435728977E+02 -0.82864264519E+01  0.50528861151E+02  0.30000003956E+02 0.  0.
        -12    1    1    2    0    0  0.35784019668E+02  0.17435728977E+02  0.82864264519E+01  0.40659138849E+02  0.00000000000E+00 0.  1.
         11    1    3    3    0    0 -0.71778903432E+01 -0.51017352300E+01  0.19854996249E+01  0.90272931246E+01  0.51100000000E-03 0. -1.
        -11    1    3    3    0    0 -0.91873243904E+01 -0.26733092580E+01  0.85139747467E+01  0.12807860012E+02  0.51100000000E-03 0.  1.
         12    1    3    3    0    0 -0.19418804934E+02 -0.96606844891E+01 -0.18785900823E+02  0.28693708015E+02  0.00000000000E+00 0. -1.
</event>
<event>
 7    1  0.2937071E-011  0.5052886E+02  0.7816164E-02  0.1300439E+00
        -11   -1    0    0    0    0  0.00000000000E+00  0.00000000000E+00  0.45593999997E+02  0.45594000000E+02  0.51100000000E-03 0.  1.
         11   -1    0    0    0    0 -0.00000000000E+00 -0.00000000000E+00 -0.45593999997E+02  0.45594000000E+02  0.51100000000E-03 0. -1.
    9900012    2    1    2    0    0 -0.25426765651E+02  0.14245013435E+01 -0.31695672535E+02  0.50528864827E+02  0.30000015128E+02 0.  0.
        -12    1    1    2    0    0  0.25426765651E+02 -0.14245013435E+01  0.31695672535E+02  0.40659135173E+02  0.00000000000E+00 0.  1.
         11    1    3    3    0    0 -0.15449072926E+01  0.16635371197E+01 -0.10760620241E+02  0.10997501649E+02  0.51100000000E-03 0. -1.
        -11    1    3    3    0    0 -0.21743762237E+01  0.90275901581E+01 -0.95715815280E+01  0.13335684056E+02  0.51100000000E-03 0.  1.
         12    1    3    3    0    0 -0.21707482134E+02 -0.92666259343E+01 -0.11363470767E+02  0.26195679123E+02  0.00000000000E+00 0. -1.
</event>
<event>
 7    1  0.2937071E-011  0.5052885E+02  0.7816164E-02  0.1300439E+00
        -11   -1    0    0    0    0  0.00000000000E+00  0.00000000000E+00  0.45593999997E+02  0.45594000000E+02  0.51100000000E-03 0. -1.
         11   -1    0    0    0    0 -0.00000000000E+00 -0.00000000000E+00 -0.45593999997E+02  0.45594000000E+02  0.51100000000E-03 0.  1.
    9900012    2    1    2    0    0 -0.27121878506E+02 -0.30034481086E+02  0.39369784149E+01  0.50528854081E+02  0.29999982466E+02 0.  0.
        -12    1    1    2    0    0  0.27121878506E+02  0.30034481086E+02 -0.39369784149E+01  0.40659145919E+02  0.00000000000E+00 0.  1.
         11    1    3    3    0    0 -0.24938429132E+02 -0.22008144097E+02  0.11288872457E+02  0.35124383209E+02  0.51100000000E-03 0. -1.
        -11    1    3    3    0    0 -0.29007301768E+01  0.19380579665E+01 -0.25433434428E+01  0.43172792785E+01  0.51100000000E-03 0.  1.
        -12    1    3    3    0    0  0.71728080309E+00 -0.99643949556E+01 -0.48085505995E+01  0.11087191594E+02  0.00000000000E+00 0.  1.
</event>
<event>
 7    1  0.2937071E-011  0.5052886E+02  0.7816164E-02  0.1300439E+00
        -11   -1    0    0    0    0  0.00000000000E+00  0.00000000000E+00  0.45593999997E+02  0.45594000000E+02  0.51100000000E-03 0.  1.
         11   -1    0    0    0    0 -0.00000000000E+00 -0.00000000000E+00 -0.45593999997E+02  0.45594000000E+02  0.51100000000E-03 0. -1.
    9900012    2    1    2    0    0 -0.40031398136E+02  0.16003971508E+00 -0.71153089823E+01  0.50528855010E+02  0.29999985287E+02 0.  0.
        -12    1    1    2    0    0  0.40031398136E+02 -0.16003971508E+00  0.71153089823E+01  0.40659144990E+02  0.00000000000E+00 0.  1.
         11    1    3    3    0    0 -0.16133930231E+02  0.90337029253E+01 -0.13523194512E+02  0.22908257972E+02  0.51100000000E-03 0.  1.
        -11    1    3    3    0    0 -0.10039222899E+02  0.60930738900E+00  0.28786300722E+01  0.10461537328E+02  0.51100000000E-03 0. -1.
        -12    1    3    3    0    0 -0.13858245006E+02 -0.94829705992E+01  0.35292554578E+01  0.17159059710E+02  0.00000000000E+00 0.  1.
</event>
<event>
 7    1  0.2937071E-011  0.5052884E+02  0.7816164E-02  0.1300439E+00
        -11   -1    0    0    0    0  0.00000000000E+00  0.00000000000E+00  0.45593999997E+02  0.45594000000E+02  0.51100000000E-03 0.  1.
         11   -1    0    0    0    0 -0.00000000000E+00 -0.00000000000E+00 -0.45593999997E+02  0.45594000000E+02  0.51100000000E-03 0. -1.
    9900012    2    1    2    0    0 -0.13171314693E+02  0.56629270923E+01 -0.38047533796E+02  0.50528842336E+02  0.29999946765E+02 0.  0.
        -12    1    1    2    0    0  0.13171314693E+02 -0.56629270923E+01  0.38047533796E+02  0.40659157664E+02  0.00000000000E+00 0.  1.
         11    1    3    3    0    0  0.15865659823E+01 -0.35635573025E+01 -0.41366691313E+01  0.56857861398E+01  0.51100000000E-03 0. -1.
        -11    1    3    3    0    0  0.25605983305E+01 -0.27205739591E+00 -0.21196821197E+02  0.21352655764E+02  0.51100000000E-03 0.  1.
         12    1    3    3    0    0 -0.17318479005E+02  0.94985417907E+01 -0.12714043467E+02  0.23490400433E+02  0.00000000000E+00 0. -1.
</event>
<event>
 7    1  0.2937071E-011  0.5052886E+02  0.7816164E-02  0.1300439E+00
        -11   -1    0    0    0    0  0.00000000000E+00  0.00000000000E+00  0.45593999997E+02  0.45594000000E+02  0.51100000000E-03 0. -1.
         11   -1    0    0    0    0 -0.00000000000E+00 -0.00000000000E+00 -0.45593999997E+02  0.45594000000E+02  0.51100000000E-03 0.  1.
    9900012    2    1    2    0    0  0.29821137850E+02 -0.18661436674E+02  0.20386660623E+02  0.50528863108E+02  0.30000009904E+02 0.  0.
        -12    1    1    2    0    0 -0.29821137850E+02  0.18661436674E+02 -0.20386660623E+02  0.40659136892E+02  0.00000000000E+00 0.  1.
         11    1    3    3    0    0  0.55610076677E+01 -0.13825622219E+02  0.34252892447E+01  0.15290691374E+02  0.51100000000E-03 0. -1.
        -11    1    3    3    0    0  0.44984377815E+01 -0.63722261780E+01 -0.17346924659E+01  0.79906424742E+01  0.51100000000E-03 0.  1.
        -12    1    3    3    0    0  0.19761692401E+02  0.15364117230E+01  0.18696063844E+02  0.27247529260E+02  0.00000000000E+00 0.  1.
</event>
<event>
 7    1  0.2937071E-011  0.5052886E+02  0.7816164E-02  0.1300439E+00
        -11   -1    0    0    0    0  0.00000000000E+00  0.00000000000E+00  0.45593999997E+02  0.45594000000E+02  0.51100000000E-03 0.  1.
         11   -1    0    0    0    0 -0.00000000000E+00 -0.00000000000E+00 -0.45593999997E+02  0.45594000000E+02  0.51100000000E-03 0. -1.
    9900012    2    1    2    0    0  0.15666258489E+02 -0.22757879499E+02 -0.29829725908E+02  0.50528864715E+02  0.30000014789E+02 0.  0.
        -12    1    1    2    0    0 -0.15666258489E+02  0.22757879499E+02  0.29829725908E+02  0.40659135285E+02  0.00000000000E+00 0.  1.
         11    1    3    3    0    0  0.15101335635E+02 -0.16610526604E+02 -0.24589818022E+02  0.33295931923E+02  0.51100000000E-03 0. -1.
        -11    1    3    3    0    0  0.72801680454E+01 -0.27717781208E+01 -0.57762996540E+01  0.96978986731E+01  0.51100000000E-03 0.  1.
        -12    1    3    3    0    0 -0.67152451920E+01 -0.33755747747E+01  0.53639176763E+00  0.75350341191E+01  0.00000000000E+00 0.  1.
</event>
<event>
 7    1  0.2937071E-011  0.5052886E+02  0.7816164E-02  0.1300439E+00
        -11   -1    0    0    0    0  0.00000000000E+00  0.00000000000E+00  0.45593999997E+02  0.45594000000E+02  0.51100000000E-03 0. -1.
         11   -1    0    0    0    0 -0.00000000000E+00 -0.00000000000E+00 -0.45593999997E+02  0.45594000000E+02  0.51100000000E-03 0.  1.
    9900012    2    1    2    0    0  0.36084797757E+01  0.22892541661E+02  0.33407721923E+02  0.50528862354E+02  0.30000007613E+02 0.  0.
        -12    1    1    2    0    0 -0.36084797757E+01 -0.22892541661E+02 -0.33407721923E+02  0.40659137646E+02  0.00000000000E+00 0.  1.
         11    1    3    3    0    0  0.42080507576E+01  0.87361767159E+01  0.10352418599E+02  0.14184535449E+02  0.51100000000E-03 0. -1.
        -11    1    3    3    0    0  0.76843997503E+01  0.17430072430E+02  0.17354222071E+02  0.25768710647E+02  0.51100000000E-03 0.  1.
        -12    1    3    3    0    0 -0.82839707322E+01 -0.32737074857E+01  0.57010812531E+01  0.10575616259E+02  0.00000000000E+00 0.  1.
</event>
<event>
 7    1  0.2937071E-011  0.5052886E+02  0.7816164E-02  0.1300439E+00
        -11   -1    0    0    0    0  0.00000000000E+00  0.00000000000E+00  0.45593999997E+02  0.45594000000E+02  0.51100000000E-03 0.  1.
         11   -1    0    0    0    0 -0.00000000000E+00 -0.00000000000E+00 -0.45593999997E+02  0.45594000000E+02  0.51100000000E-03 0. -1.
    9900012    2    1    2    0    0 -0.37638651122E+02  0.14457527155E+02 -0.52418817753E+01  0.50528862352E+02  0.30000007605E+02 0.  0.
        -12    1    1    2    0    0  0.37638651122E+02 -0.14457527155E+02  0.52418817753E+01  0.40659137648E+02  0.00000000000E+00 0.  1.
         11    1    3    3    0    0 -0.24685424811E+02  0.13614431151E+02 -0.38128958766E+01  0.28447514986E+02  0.51100000000E-03 0. -1.
        -11    1    3    3    0    0 -0.87967749003E+01  0.67326259005E+01 -0.68832658763E+01  0.13041888266E+02  0.51100000000E-03 0.  1.
         12    1    3    3    0    0 -0.41564514114E+01 -0.58895298968E+01  0.54542799777E+01  0.90394590997E+01  0.00000000000E+00 0. -1.
</event>
<event>
 7    1  0.2937071E-011  0.5052889E+02  0.7816164E-02  0.1300439E+00
        -11   -1    0    0    0    0  0.00000000000E+00  0.00000000000E+00  0.45593999997E+02  0.45594000000E+02  0.51100000000E-03 0.  1.
         11   -1    0    0    0    0 -0.00000000000E+00 -0.00000000000E+00 -0.45593999997E+02  0.45594000000E+02  0.51100000000E-03 0. -1.
    9900012    2    1    2    0    0 -0.31753165292E+02  0.21541998465E+02 -0.13447748586E+02  0.50528890985E+02  0.30000094636E+02 0.  0.
        -12    1    1    2    0    0  0.31753165292E+02 -0.21541998465E+02  0.13447748586E+02  0.40659109015E+02  0.00000000000E+00 0.  1.
         11    1    3    3    0    0 -0.73661930824E+01  0.14502980567E+02 -0.74478217877E-01  0.16266615909E+02  0.51100000000E-03 0. -1.
        -11    1    3    3    0    0 -0.38900548515E+00  0.15778529131E+01  0.38793610199E+01  0.42059942067E+01  0.51100000000E-03 0.  1.
        -12    1    3    3    0    0 -0.23997966724E+02  0.54611649848E+01 -0.17252631388E+02  0.30056280869E+02  0.00000000000E+00 0.  1.
</event>
<event>
 7    1  0.2937071E-011  0.5052886E+02  0.7816164E-02  0.1300439E+00
        -11   -1    0    0    0    0  0.00000000000E+00  0.00000000000E+00  0.45593999997E+02  0.45594000000E+02  0.51100000000E-03 0. -1.
         11   -1    0    0    0    0 -0.00000000000E+00 -0.00000000000E+00 -0.45593999997E+02  0.45594000000E+02  0.51100000000E-03 0.  1.
    9900012    2    1    2    0    0 -0.48793597512E+01 -0.34099877666E+02  0.21599907486E+02  0.50528858201E+02  0.29999994988E+02 0.  0.
        -12    1    1    2    0    0  0.48793597512E+01  0.34099877666E+02 -0.21599907486E+02  0.40659141799E+02  0.00000000000E+00 0.  1.
         11    1    3    3    0    0 -0.14830874100E+02 -0.17223182863E+02  0.14543992636E+02  0.26983709467E+02  0.51100000000E-03 0.  1.
        -11    1    3    3    0    0  0.44221382235E+01 -0.12509682597E+02 -0.41635899010E+00  0.13274819028E+02  0.51100000000E-03 0. -1.
        -12    1    3    3    0    0  0.55293761256E+01 -0.43670122062E+01  0.74722738400E+01  0.10270329707E+02  0.00000000000E+00 0.  1.
</event>
<event>
 7    1  0.2937071E-011  0.5052885E+02  0.7816164E-02  0.1300439E+00
        -11   -1    0    0    0    0  0.00000000000E+00  0.00000000000E+00  0.45593999997E+02  0.45594000000E+02  0.51100000000E-03 0.  1.
         11   -1    0    0    0    0 -0.00000000000E+00 -0.00000000000E+00 -0.45593999997E+02  0.45594000000E+02  0.51100000000E-03 0. -1.
    9900012    2    1    2    0    0  0.19402522979E+02 -0.16308899201E+02 -0.31791960765E+02  0.50528845306E+02  0.29999955794E+02 0.  0.
        -12    1    1    2    0    0 -0.19402522979E+02  0.16308899201E+02  0.31791960765E+02  0.40659154694E+02  0.00000000000E+00 0.  1.
         11    1    3    3    0    0  0.12319911714E+02 -0.63235285604E+00 -0.54791536597E+01  0.13498193208E+02  0.51100000000E-03 0. -1.
        -11    1    3    3    0    0  0.67082429751E+01 -0.17033346004E+02 -0.10397734827E+02  0.21053462654E+02  0.51100000000E-03 0.  1.
         12    1    3    3    0    0  0.37436828943E+00  0.13567996591E+01 -0.15915072279E+02  0.15977189445E+02  0.00000000000E+00 0. -1.
</event>
<event>
 7    1  0.2937071E-011  0.5052886E+02  0.7816164E-02  0.1300439E+00
        -11   -1    0    0    0    0  0.00000000000E+00  0.00000000000E+00  0.45593999997E+02  0.45594000000E+02  0.51100000000E-03 0.  1.
         11   -1    0    0    0    0 -0.00000000000E+00 -0.00000000000E+00 -0.45593999997E+02  0.45594000000E+02  0.51100000000E-03 0. -1.
    9900012    2    1    2    0    0 -0.34537979377E+02  0.81418855361E+01 -0.19849517312E+02  0.50528860104E+02  0.30000000773E+02 0.  0.
        -12    1    1    2    0    0  0.34537979377E+02 -0.81418855361E+01  0.19849517312E+02  0.40659139896E+02  0.00000000000E+00 0.  1.
         11    1    3    3    0    0 -0.77447960453E+01 -0.21883628203E+01 -0.71661025800E+00  0.80798717898E+01  0.51100000000E-03 0. -1.
        -11    1    3    3    0    0 -0.31072046938E+02  0.62342199018E+01 -0.14142784208E+02  0.34703831836E+02  0.51100000000E-03 0.  1.
        -12    1    3    3    0    0  0.42788636059E+01  0.40960284546E+01 -0.49901228459E+01  0.77451564785E+01  0.00000000000E+00 0.  1.
</event>
<event>
 7    1  0.2937071E-011  0.5052885E+02  0.7816164E-02  0.1300439E+00
        -11   -1    0    0    0    0  0.00000000000E+00  0.00000000000E+00  0.45593999997E+02  0.45594000000E+02  0.51100000000E-03 0. -1.
         11   -1    0    0    0    0 -0.00000000000E+00 -0.00000000000E+00 -0.45593999997E+02  0.45594000000E+02  0.51100000000E-03 0.  1.
    9900012    2    1    2    0    0 -0.34153298765E+02  0.18139043872E+02  0.12557604762E+02  0.50528853840E+02  0.29999981731E+02 0.  0.
        -12    1    1    2    0    0  0.34153298765E+02 -0.18139043872E+02 -0.12557604762E+02  0.40659146160E+02  0.00000000000E+00 0.  1.
         11    1    3    3    0    0 -0.29548636593E+00 -0.13161918112E+01 -0.26204166115E+01  0.29472455879E+01  0.51100000000E-03 0. -1.
        -11    1    3    3    0    0  0.30183242024E+01  0.40408494650E+01  0.80424549773E+00  0.51074021255E+01  0.51100000000E-03 0.  1.
         12    1    3    3    0    0 -0.36876136602E+02  0.15414386218E+02  0.14373775876E+02  0.42474206126E+02  0.00000000000E+00 0. -1.
</event>
<event>
 7    1  0.2937071E-011  0.5052887E+02  0.7816164E-02  0.1300439E+00
        -11   -1    0    0    0    0  0.00000000000E+00  0.00000000000E+00  0.45593999997E+02  0.45594000000E+02  0.51100000000E-03 0.  1.
         11   -1    0    0    0    0 -0.00000000000E+00 -0.00000000000E+00 -0.45593999997E+02  0.45594000000E+02  0.51100000000E-03 0. -1.
    9900012    2    1    2    0    0  0.13975697753E+02  0.33065709345E+02 -0.19091983604E+02  0.50528866954E+02  0.30000021593E+02 0.  0.
        -12    1    1    2    0    0 -0.13975697753E+02 -0.33065709345E+02  0.19091983604E+02  0.40659133046E+02  0.00000000000E+00 0.  1.
         11    1    3    3    0    0  0.31200961787E+00  0.36187023838E+01  0.47079116762E+01  0.59461575455E+01  0.51100000000E-03 0. -1.
        -11    1    3    3    0    0  0.33075534551E+01  0.25435565356E+02 -0.11805043569E+02  0.28235915936E+02  0.51100000000E-03 0.  1.
         12    1    3    3    0    0  0.10356134680E+02  0.40114416052E+01 -0.11994851711E+02  0.16346793472E+02  0.00000000000E+00 0. -1.
</event>
<event>
 7    1  0.2937071E-011  0.5052882E+02  0.7816164E-02  0.1300439E+00
        -11   -1    0    0    0    0  0.00000000000E+00  0.00000000000E+00  0.45593999997E+02  0.45594000000E+02  0.51100000000E-03 0. -1.
         11   -1    0    0    0    0 -0.00000000000E+00 -0.00000000000E+00 -0.45593999997E+02  0.45594000000E+02  0.51100000000E-03 0.  1.
    9900012    2    1    2    0    0  0.21771890234E+01  0.33392512551E+02 -0.23094783792E+02  0.50528817951E+02  0.29999872644E+02 0.  0.
        -12    1    1    2    0    0 -0.21771890234E+01 -0.33392512551E+02  0.23094783792E+02  0.40659182049E+02  0.00000000000E+00 0.  1.
         11    1    3    3    0    0 -0.33136287956E+01  0.16845923979E+01 -0.34482758545E+01  0.50703642839E+01  0.51100000000E-03 0.  1.
        -11    1    3    3    0    0 -0.42605647444E+01  0.24170620786E+02 -0.21942306203E+02  0.32921666466E+02  0.51100000000E-03 0. -1.
         12    1    3    3    0    0  0.97513825634E+01  0.75372993673E+01  0.22957982663E+01  0.12536787201E+02  0.00000000000E+00 0. -1.
</event>
<event>
 7    1  0.2937071E-011  0.5052887E+02  0.7816164E-02  0.1300439E+00
        -11   -1    0    0    0    0  0.00000000000E+00  0.00000000000E+00  0.45593999997E+02  0.45594000000E+02  0.51100000000E-03 0.  1.
         11   -1    0    0    0    0 -0.00000000000E+00 -0.00000000000E+00 -0.45593999997E+02  0.45594000000E+02  0.51100000000E-03 0. -1.
    9900012    2    1    2    0    0  0.31117057782E+02 -0.21930889135E+02 -0.14280389552E+02  0.50528871762E+02  0.30000036208E+02 0.  0.
        -12    1    1    2    0    0 -0.31117057782E+02  0.21930889135E+02  0.14280389552E+02  0.40659128238E+02  0.00000000000E+00 0.  1.
         11    1    3    3    0    0  0.44169266935E+01  0.11871805975E+01 -0.26931244391E+01  0.53076886394E+01  0.51100000000E-03 0. -1.
        -11    1    3    3    0    0 -0.51417543211E+01 -0.25815969321E+01 -0.23952821718E+01  0.62321470749E+01  0.51100000000E-03 0.  1.
        -12    1    3    3    0    0  0.31841885410E+02 -0.20536472801E+02 -0.91919829409E+01  0.38989036048E+02  0.00000000000E+00 0.  1.
</event>
<event>
 7    1  0.2937071E-011  0.5052888E+02  0.7816164E-02  0.1300439E+00
        -11   -1    0    0    0    0  0.00000000000E+00  0.00000000000E+00  0.45593999997E+02  0.45594000000E+02  0.51100000000E-03 0. -1.
         11   -1    0    0    0    0 -0.00000000000E+00 -0.00000000000E+00 -0.45593999997E+02  0.45594000000E+02  0.51100000000E-03 0.  1.
    9900012    2    1    2    0    0 -0.33001813612E+02 -0.18921160247E+02 -0.14353890513E+02  0.50528878273E+02  0.30000055998E+02 0.  0.
        -12    1    1    2    0    0  0.33001813612E+02  0.18921160247E+02  0.14353890513E+02  0.40659121727E+02  0.00000000000E+00 0.  1.
         11    1    3    3    0    0 -0.14270641940E+02 -0.33751487948E+01  0.25901036925E+01  0.14891322579E+02  0.51100000000E-03 0. -1.
        -11    1    3    3    0    0  0.18039805282E+01 -0.87914928205E+01 -0.15707136129E+01  0.91110829913E+01  0.51100000000E-03 0.  1.
         12    1    3    3    0    0 -0.20535152200E+02 -0.67545186313E+01 -0.15373280593E+02  0.26526472702E+02  0.00000000000E+00 0. -1.
</event>
<event>
 7    1  0.2937071E-011  0.5052886E+02  0.7816164E-02  0.1300439E+00
        -11   -1    0    0    0    0  0.00000000000E+00  0.00000000000E+00  0.45593999997E+02  0.45594000000E+02  0.51100000000E-03 0.  1.
         11   -1    0    0    0    0 -0.00000000000E+00 -0.00000000000E+00 -0.45593999997E+02  0.45594000000E+02  0.51100000000E-03 0. -1.
    9900012    2    1    2    0    0 -0.33727413738E+02 -0.10251923837E+02 -0.20261415169E+02  0.50528864194E+02  0.30000013204E+02 0.  0.
        -12    1    1    2    0    0  0.33727413738E+02  0.10251923837E+02  0.20261415169E+02  0.40659135806E+02  0.00000000000E+00 0.  1.
         11    1    3    3    0    0 -0.79445277664E+01 -0.43666832187E+01  0.62625938686E+01  0.11018326823E+02  0.51100000000E-03 0. -1.
        -11    1    3    3    0    0 -0.79535253351E+01 -0.56032122272E+01 -0.33919658881E+01  0.10303396788E+02  0.51100000000E-03 0.  1.
        -12    1    3    3    0    0 -0.17829360637E+02 -0.28202839067E+00 -0.23132043150E+02  0.29207140583E+02  0.00000000000E+00 0.  1.
</event>
<event>
 7    1  0.2937071E-011  0.5052886E+02  0.7816164E-02  0.1300439E+00
        -11   -1    0    0    0    0  0.00000000000E+00  0.00000000000E+00  0.45593999997E+02  0.45594000000E+02  0.51100000000E-03 0. -1.
         11   -1    0    0    0    0 -0.00000000000E+00 -0.00000000000E+00 -0.45593999997E+02  0.45594000000E+02  0.51100000000E-03 0.  1.
    9900012    2    1    2    0    0 -0.20841028292E+02  0.19477461111E+02  0.28973187244E+02  0.50528861659E+02  0.30000005498E+02 0.  0.
        -12    1    1    2    0    0  0.20841028292E+02 -0.19477461111E+02 -0.28973187244E+02  0.40659138341E+02  0.00000000000E+00 0.  1.
         11    1    3    3    0    0 -0.74624596149E+01  0.12358037577E+02  0.13114268927E+02  0.19503677756E+02  0.51100000000E-03 0. -1.
        -11    1    3    3    0    0 -0.12315564380E+02  0.13242769903E+02  0.16866641356E+02  0.24729085539E+02  0.51100000000E-03 0.  1.
        -12    1    3    3    0    0 -0.10630042969E+01 -0.61233463689E+01 -0.10077230391E+01  0.62960983642E+01  0.00000000000E+00 0.  1.
</event>
<event>
 7    1  0.2937071E-011  0.5052886E+02  0.7816164E-02  0.1300439E+00
        -11   -1    0    0    0    0  0.00000000000E+00  0.00000000000E+00  0.45593999997E+02  0.45594000000E+02  0.51100000000E-03 0.  1.
         11   -1    0    0    0    0 -0.00000000000E+00 -0.00000000000E+00 -0.45593999997E+02  0.45594000000E+02  0.51100000000E-03 0. -1.
    9900012    2    1    2    0    0  0.38975111533E+01 -0.28984699781E+02 -0.28246456503E+02  0.50528859336E+02  0.29999998438E+02 0.  0.
        -12    1    1    2    0    0 -0.38975111533E+01  0.28984699781E+02  0.28246456503E+02  0.40659140664E+02  0.00000000000E+00 0.  1.
         11    1    3    3    0    0  0.72627485974E+01 -0.10105521838E+02 -0.17860582779E+02  0.21768543963E+02  0.51100000000E-03 0. -1.
        -11    1    3    3    0    0  0.62041836916E+01 -0.20320595841E+01 -0.60610450762E+01  0.89082786839E+01  0.51100000000E-03 0.  1.
        -12    1    3    3    0    0 -0.95694211357E+01 -0.16847118359E+02 -0.43248286470E+01  0.19852036689E+02  0.00000000000E+00 0.  1.
</event>
<event>
 7    1  0.2937071E-011  0.5052886E+02  0.7816164E-02  0.1300439E+00
        -11   -1    0    0    0    0  0.00000000000E+00  0.00000000000E+00  0.45593999997E+02  0.45594000000E+02  0.51100000000E-03 0.  1.
         11   -1    0    0    0    0 -0.00000000000E+00 -0.00000000000E+00 -0.45593999997E+02  0.45594000000E+02  0.51100000000E-03 0. -1.
    9900012    2    1    2    0    0  0.25096034472E+02  0.10349524378E+02 -0.30269491133E+02  0.50528859643E+02  0.29999999371E+02 0.  0.
        -12    1    1    2    0    0 -0.25096034472E+02 -0.10349524378E+02  0.30269491133E+02  0.40659140357E+02  0.00000000000E+00 0.  1.
         11    1    3    3    0    0  0.12615672107E+02  0.10257182408E+02 -0.66223992168E+01  0.17556228106E+02  0.51100000000E-03 0. -1.
        -11    1    3    3    0    0 -0.48254109328E+01  0.12540496265E+01 -0.89210513875E+01  0.10219705928E+02  0.51100000000E-03 0.  1.
         12    1    3    3    0    0  0.17305773298E+02 -0.11617076558E+01 -0.14726040529E+02  0.22752925609E+02  0.00000000000E+00 0. -1.
</event>
<event>
 7    1  0.2937071E-011  0.5052873E+02  0.7816164E-02  0.1300439E+00
        -11   -1    0    0    0    0  0.00000000000E+00  0.00000000000E+00  0.45593999997E+02  0.45594000000E+02  0.51100000000E-03 0.  1.
         11   -1    0    0    0    0 -0.00000000000E+00 -0.00000000000E+00 -0.45593999997E+02  0.45594000000E+02  0.51100000000E-03 0. -1.
    9900012    2    1    2    0    0  0.39015665541E+02 -0.71907955003E+00 -0.11420906271E+02  0.50528728818E+02  0.29999601712E+02 0.  0.
        -12    1    1    2    0    0 -0.39015665541E+02  0.71907955003E+00  0.11420906271E+02  0.40659271182E+02  0.00000000000E+00 0.  1.
         11    1    3    3    0    0  0.34982661499E+01  0.91360187161E+01 -0.32149287223E+01  0.10297595398E+02  0.51100000000E-03 0. -1.
        -11    1    3    3    0    0  0.69024120413E+01  0.34787592076E+01 -0.56284393849E+00  0.77499581401E+01  0.51100000000E-03 0.  1.
        -12    1    3    3    0    0  0.28614987350E+02 -0.13333857474E+02 -0.76431336098E+01  0.32481175280E+02  0.00000000000E+00 0.  1.
</event>
<event>
 7    1  0.2937071E-011  0.5052888E+02  0.7816164E-02  0.1300439E+00
        -11   -1    0    0    0    0  0.00000000000E+00  0.00000000000E+00  0.45593999997E+02  0.45594000000E+02  0.51100000000E-03 0. -1.
         11   -1    0    0    0    0 -0.00000000000E+00 -0.00000000000E+00 -0.45593999997E+02  0.45594000000E+02  0.51100000000E-03 0.  1.
    9900012    2    1    2    0    0  0.33836890436E+02 -0.89189680184E+01  0.20704615386E+02  0.50528877491E+02  0.30000053623E+02 0.  0.
        -12    1    1    2    0    0 -0.33836890436E+02  0.89189680184E+01 -0.20704615386E+02  0.40659122509E+02  0.00000000000E+00 0.  1.
         11    1    3    3    0    0  0.40464398526E+01 -0.42022763802E+01  0.71950987187E+01  0.92629502907E+01  0.51100000000E-03 0. -1.
        -11    1    3    3    0    0  0.15689021658E+02 -0.93621878713E+01  0.18107735147E+02  0.25723258634E+02  0.51100000000E-03 0.  1.
        -12    1    3    3    0    0  0.14101428925E+02  0.46454962331E+01 -0.45982184798E+01  0.15542668567E+02  0.00000000000E+00 0.  1.
</event>
<event>
 7    1  0.2937071E-011  0.5052886E+02  0.7816164E-02  0.1300439E+00
        -11   -1    0    0    0    0  0.00000000000E+00  0.00000000000E+00  0.45593999997E+02  0.45594000000E+02  0.51100000000E-03 0.  1.
         11   -1    0    0    0    0 -0.00000000000E+00 -0.00000000000E+00 -0.45593999997E+02  0.45594000000E+02  0.51100000000E-03 0. -1.
    9900012    2    1    2    0    0  0.14979765705E+02  0.20394405828E+02 -0.31825158656E+02  0.50528857202E+02  0.29999991950E+02 0.  0.
        -12    1    1    2    0    0 -0.14979765705E+02 -0.20394405828E+02  0.31825158656E+02  0.40659142798E+02  0.00000000000E+00 0.  1.
         11    1    3    3    0    0  0.50595262291E+01  0.25500780552E-01 -0.78321303828E+01  0.93242545303E+01  0.51100000000E-03 0. -1.
        -11    1    3    3    0    0  0.57187904421E+01  0.37087725290E+01  0.43316579367E+01  0.80760645449E+01  0.51100000000E-03 0.  1.
         12    1    3    3    0    0  0.42014490334E+01  0.16660132518E+02 -0.28324686210E+02  0.33128538126E+02  0.00000000000E+00 0. -1.
</event>
<event>
 7    1  0.2937071E-011  0.5052886E+02  0.7816164E-02  0.1300439E+00
        -11   -1    0    0    0    0  0.00000000000E+00  0.00000000000E+00  0.45593999997E+02  0.45594000000E+02  0.51100000000E-03 0.  1.
         11   -1    0    0    0    0 -0.00000000000E+00 -0.00000000000E+00 -0.45593999997E+02  0.45594000000E+02  0.51100000000E-03 0. -1.
    9900012    2    1    2    0    0  0.27658213358E+02  0.26256858005E+02  0.14098451112E+02  0.50528859795E+02  0.29999999833E+02 0.  0.
        -12    1    1    2    0    0 -0.27658213358E+02 -0.26256858005E+02 -0.14098451112E+02  0.40659140205E+02  0.00000000000E+00 0.  1.
         11    1    3    3    0    0  0.26437938679E+02  0.16630889872E+02  0.17999928525E+02  0.36049251403E+02  0.51100000000E-03 0. -1.
        -11    1    3    3    0    0  0.83933900111E+00  0.66934203032E+01  0.26843607285E+01  0.72603139117E+01  0.51100000000E-03 0.  1.
        -12    1    3    3    0    0  0.38093567770E+00  0.29325478290E+01 -0.65858381418E+01  0.72192944801E+01  0.00000000000E+00 0.  1.
</event>
<event>
 7    1  0.2937071E-011  0.5052886E+02  0.7816164E-02  0.1300439E+00
        -11   -1    0    0    0    0  0.00000000000E+00  0.00000000000E+00  0.45593999997E+02  0.45594000000E+02  0.51100000000E-03 0. -1.
         11   -1    0    0    0    0 -0.00000000000E+00 -0.00000000000E+00 -0.45593999997E+02  0.45594000000E+02  0.51100000000E-03 0.  1.
    9900012    2    1    2    0    0 -0.66166746791E+01  0.31493960383E+02  0.24849862509E+02  0.50528860915E+02  0.30000003236E+02 0.  0.
        -12    1    1    2    0    0  0.66166746791E+01 -0.31493960383E+02 -0.24849862509E+02  0.40659139085E+02  0.00000000000E+00 0.  1.
         11    1    3    3    0    0 -0.37773456511E+01  0.14252216869E+01  0.10138298493E+01  0.41626251632E+01  0.51100000000E-03 0. -1.
        -11    1    3    3    0    0  0.90140080664E+00 -0.44811369125E+01  0.52340022758E+01  0.69489489512E+01  0.51100000000E-03 0.  1.
         12    1    3    3    0    0 -0.37407298346E+01  0.34549875609E+02  0.18602030384E+02  0.39417286800E+02  0.00000000000E+00 0. -1.
</event>
<event>
 7    1  0.2937071E-011  0.5052886E+02  0.7816164E-02  0.1300439E+00
        -11   -1    0    0    0    0  0.00000000000E+00  0.00000000000E+00  0.45593999997E+02  0.45594000000E+02  0.51100000000E-03 0.  1.
         11   -1    0    0    0    0 -0.00000000000E+00 -0.00000000000E+00 -0.45593999997E+02  0.45594000000E+02  0.51100000000E-03 0. -1.
    9900012    2    1    2    0    0 -0.29444347166E+02 -0.19926867461E+02  0.19726031067E+02  0.50528856767E+02  0.29999990628E+02 0.  0.
        -12    1    1    2    0    0  0.29444347166E+02  0.19926867461E+02 -0.19726031067E+02  0.40659143233E+02  0.00000000000E+00 0.  1.
         11    1    3    3    0    0 -0.51906949026E+01 -0.77413954769E+01  0.46401612053E+01  0.10411705613E+02  0.51100000000E-03 0. -1.
        -11    1    3    3    0    0 -0.13317565404E+02 -0.19617050681E+02  0.11840384895E+02  0.26502470459E+02  0.51100000000E-03 0.  1.
         12    1    3    3    0    0 -0.10936086859E+02  0.74315786977E+01  0.32454849671E+01  0.13614680694E+02  0.00000000000E+00 0. -1.
</event>
<event>
 7    1  0.2937071E-011  0.5052880E+02  0.7816164E-02  0.1300439E+00
        -11   -1    0    0    0    0  0.00000000000E+00  0.00000000000E+00  0.45593999997E+02  0.45594000000E+02  0.51100000000E-03 0.  1.
         11   -1    0    0    0    0 -0.00000000000E+00 -0.00000000000E+00 -0.45593999997E+02  0.45594000000E+02  0.51100000000E-03 0. -1.
    9900012    2    1    2    0    0 -0.33091607829E+02 -0.20987266374E+02 -0.10846678504E+02  0.50528803093E+02  0.29999827482E+02 0.  0.
        -12    1    1    2    0    0  0.33091607829E+02  0.20987266374E+02  0.10846678504E+02  0.40659196907E+02  0.00000000000E+00 0.  1.
         11    1    3    3    0    0 -0.21829180928E+02  0.64258273883E+00 -0.36255127544E+01  0.22137533637E+02  0.51100000000E-03 0. -1.
        -11    1    3    3    0    0 -0.11510814518E+02 -0.10223673729E+02 -0.71676317077E+01  0.16982264276E+02  0.51100000000E-03 0.  1.
        -12    1    3    3    0    0  0.24838761715E+00 -0.11406175384E+02 -0.53534041831E-01  0.11409005180E+02  0.00000000000E+00 0.  1.
</event>
<event>
 7    1  0.2937071E-011  0.5052885E+02  0.7816164E-02  0.1300439E+00
        -11   -1    0    0    0    0  0.00000000000E+00  0.00000000000E+00  0.45593999997E+02  0.45594000000E+02  0.51100000000E-03 0.  1.
         11   -1    0    0    0    0 -0.00000000000E+00 -0.00000000000E+00 -0.45593999997E+02  0.45594000000E+02  0.51100000000E-03 0. -1.
    9900012    2    1    2    0    0 -0.79369624859E+01 -0.20439135552E+00 -0.39876425938E+02  0.50528849801E+02  0.29999969455E+02 0.  0.
        -12    1    1    2    0    0  0.79369624859E+01  0.20439135552E+00  0.39876425938E+02  0.40659150199E+02  0.00000000000E+00 0.  1.
         11    1    3    3    0    0  0.11110548615E+01  0.53314572438E+01 -0.13576020426E+02  0.14627618060E+02  0.51100000000E-03 0. -1.
        -11    1    3    3    0    0  0.44360486797E+01  0.50623191582E+01 -0.11114442073E+02  0.12993707169E+02  0.51100000000E-03 0.  1.
         12    1    3    3    0    0 -0.13484066027E+02 -0.10598167757E+02 -0.15185963440E+02  0.22907524572E+02  0.00000000000E+00 0. -1.
</event>
<event>
 7    1  0.2937071E-011  0.5052886E+02  0.7816164E-02  0.1300439E+00
        -11   -1    0    0    0    0  0.00000000000E+00  0.00000000000E+00  0.45593999997E+02  0.45594000000E+02  0.51100000000E-03 0.  1.
         11   -1    0    0    0    0 -0.00000000000E+00 -0.00000000000E+00 -0.45593999997E+02  0.45594000000E+02  0.51100000000E-03 0. -1.
    9900012    2    1    2    0    0 -0.18614589736E+02  0.39565848654E+01 -0.35930602259E+02  0.50528859655E+02  0.29999999409E+02 0.  0.
        -12    1    1    2    0    0  0.18614589736E+02 -0.39565848654E+01  0.35930602259E+02  0.40659140345E+02  0.00000000000E+00 0.  1.
         11    1    3    3    0    0 -0.70958605859E+01  0.42154677557E+01  0.52119101583E+00  0.82700088386E+01  0.51100000000E-03 0. -1.
        -11    1    3    3    0    0 -0.42796926804E+01  0.15534878001E+01  0.48231361741E+00  0.45783971508E+01  0.51100000000E-03 0.  1.
         12    1    3    3    0    0 -0.72390364699E+01 -0.18123706904E+01 -0.36934106893E+02  0.37680453666E+02  0.00000000000E+00 0. -1.
</event>
<event>
 7    1  0.2937071E-011  0.5052886E+02  0.7816164E-02  0.1300439E+00
        -11   -1    0    0    0    0  0.00000000000E+00  0.00000000000E+00  0.45593999997E+02  0.45594000000E+02  0.51100000000E-03 0.  1.
         11   -1    0    0    0    0 -0.00000000000E+00 -0.00000000000E+00 -0.45593999997E+02  0.45594000000E+02  0.51100000000E-03 0. -1.
    9900012    2    1    2    0    0  0.27753472207E+01 -0.27621531346E+02 -0.29707143114E+02  0.50528857140E+02  0.29999991764E+02 0.  0.
        -12    1    1    2    0    0 -0.27753472207E+01  0.27621531346E+02  0.29707143114E+02  0.40659142860E+02  0.00000000000E+00 0.  1.
         11    1    3    3    0    0 -0.24309108672E+01 -0.10414101207E+01  0.78135770622E+00  0.27576045420E+01  0.51100000000E-03 0. -1.
        -11    1    3    3    0    0 -0.93858434514E+01 -0.66085419708E+01 -0.59486325707E+01  0.12928770784E+02  0.51100000000E-03 0.  1.
         12    1    3    3    0    0  0.14592101539E+02 -0.19971579255E+02 -0.24539868249E+02  0.34842481814E+02  0.00000000000E+00 0. -1.
</event>
<event>
 7    1  0.2937071E-011  0.5052886E+02  0.7816164E-02  0.1300439E+00
        -11   -1    0    0    0    0  0.00000000000E+00  0.00000000000E+00  0.45593999997E+02  0.45594000000E+02  0.51100000000E-03 0.  1.
         11   -1    0    0    0    0 -0.00000000000E+00 -0.00000000000E+00 -0.45593999997E+02  0.45594000000E+02  0.51100000000E-03 0. -1.
    9900012    2    1    2    0    0  0.12019400490E+02  0.33087272529E+01 -0.38700798777E+02  0.50528862157E+02  0.30000007012E+02 0.  0.
        -12    1    1    2    0    0 -0.12019400490E+02 -0.33087272529E+01  0.38700798777E+02  0.40659137843E+02  0.00000000000E+00 0.  1.
         11    1    3    3    0    0 -0.37592337785E+01 -0.34980428975E+01 -0.46535533846E+01  0.69299135693E+01  0.51100000000E-03 0. -1.
        -11    1    3    3    0    0  0.11204975721E+02 -0.53419666962E+01 -0.88195412005E+01  0.15227356841E+02  0.51100000000E-03 0.  1.
        -12    1    3    3    0    0  0.45736585470E+01  0.12148736847E+02 -0.25227704192E+02  0.28371591747E+02  0.00000000000E+00 0.  1.
</event>
<event>
 7    1  0.2937071E-011  0.5052886E+02  0.7816164E-02  0.1300439E+00
        -11   -1    0    0    0    0  0.00000000000E+00  0.00000000000E+00  0.45593999997E+02  0.45594000000E+02  0.51100000000E-03 0.  1.
         11   -1    0    0    0    0 -0.00000000000E+00 -0.00000000000E+00 -0.45593999997E+02  0.45594000000E+02  0.51100000000E-03 0. -1.
    9900012    2    1    2    0    0  0.29235698475E+02  0.20128863455E+02 -0.19831002099E+02  0.50528857688E+02  0.29999993427E+02 0.  0.
        -12    1    1    2    0    0 -0.29235698475E+02 -0.20128863455E+02  0.19831002099E+02  0.40659142312E+02  0.00000000000E+00 0.  1.
         11    1    3    3    0    0  0.52243743252E+01 -0.19274230883E+01 -0.74598043718E+01  0.93090132870E+01  0.51100000000E-03 0. -1.
        -11    1    3    3    0    0  0.20044798966E+02  0.36437727379E+01 -0.79758458830E+01  0.21878874815E+02  0.51100000000E-03 0.  1.
        -12    1    3    3    0    0  0.39665251838E+01  0.18412513806E+02 -0.43953518445E+01  0.19340969586E+02  0.00000000000E+00 0.  1.
</event>
<event>
 7    1  0.2937071E-011  0.5052884E+02  0.7816164E-02  0.1300439E+00
        -11   -1    0    0    0    0  0.00000000000E+00  0.00000000000E+00  0.45593999997E+02  0.45594000000E+02  0.51100000000E-03 0.  1.
         11   -1    0    0    0    0 -0.00000000000E+00 -0.00000000000E+00 -0.45593999997E+02  0.45594000000E+02  0.51100000000E-03 0. -1.
    9900012    2    1    2    0    0 -0.90463462228E+01 -0.11720598223E+02 -0.37867644874E+02  0.50528839519E+02  0.29999938202E+02 0.  0.
        -12    1    1    2    0    0  0.90463462228E+01  0.11720598223E+02  0.37867644874E+02  0.40659160481E+02  0.00000000000E+00 0.  1.
         11    1    3    3    0    0 -0.58055009562E+01 -0.17152541363E+01 -0.31223439674E+02  0.31804860060E+02  0.51100000000E-03 0.  1.
        -11    1    3    3    0    0 -0.85273866847E+01 -0.42311591585E+01 -0.48867104200E+01  0.10700419173E+02  0.51100000000E-03 0. -1.
        -12    1    3    3    0    0  0.52865414181E+01 -0.57741849285E+01 -0.17574947803E+01  0.80235602856E+01  0.00000000000E+00 0.  1.
</event>
<event>
 7    1  0.2937071E-011  0.5052886E+02  0.7816164E-02  0.1300439E+00
        -11   -1    0    0    0    0  0.00000000000E+00  0.00000000000E+00  0.45593999997E+02  0.45594000000E+02  0.51100000000E-03 0.  1.
         11   -1    0    0    0    0 -0.00000000000E+00 -0.00000000000E+00 -0.45593999997E+02  0.45594000000E+02  0.51100000000E-03 0. -1.
    9900012    2    1    2    0    0 -0.31462695027E+02  0.23648851064E+02  0.10197863079E+02  0.50528859006E+02  0.29999997435E+02 0.  0.
        -12    1    1    2    0    0  0.31462695027E+02 -0.23648851064E+02 -0.10197863079E+02  0.40659140994E+02  0.00000000000E+00 0.  1.
         11    1    3    3    0    0 -0.15559960663E+02  0.38470371295E+01  0.39880234668E+01  0.16517154778E+02  0.51100000000E-03 0. -1.
        -11    1    3    3    0    0 -0.12820206612E+02  0.19265799930E+01 -0.35122379479E+01  0.13431501171E+02  0.51100000000E-03 0.  1.
         12    1    3    3    0    0 -0.30825277517E+01  0.17875233942E+02  0.97220775596E+01  0.20580203057E+02  0.00000000000E+00 0. -1.
</event>
<event>
 7    1  0.2937071E-011  0.5052886E+02  0.7816164E-02  0.1300439E+00
        -11   -1    0    0    0    0  0.00000000000E+00  0.00000000000E+00  0.45593999997E+02  0.45594000000E+02  0.51100000000E-03 0.  1.
         11   -1    0    0    0    0 -0.00000000000E+00 -0.00000000000E+00 -0.45593999997E+02  0.45594000000E+02  0.51100000000E-03 0. -1.
    9900012    2    1    2    0    0  0.18694190499E+02 -0.36054095497E+02  0.19480860886E+01  0.50528860806E+02  0.30000002907E+02 0.  0.
        -12    1    1    2    0    0 -0.18694190499E+02  0.36054095497E+02 -0.19480860886E+01  0.40659139194E+02  0.00000000000E+00 0.  1.
         11    1    3    3    0    0  0.13971270516E+02 -0.27910212811E+02 -0.44716845625E+01  0.31530498602E+02  0.51100000000E-03 0. -1.
        -11    1    3    3    0    0  0.10096677730E+02 -0.41216804950E+01  0.55293869479E+01  0.12227234830E+02  0.51100000000E-03 0.  1.
        -12    1    3    3    0    0 -0.53737577471E+01 -0.40222021914E+01  0.89038370322E+00  0.67711273753E+01  0.00000000000E+00 0.  1.
</event>
<event>
 7    1  0.2937071E-011  0.5052886E+02  0.7816164E-02  0.1300439E+00
        -11   -1    0    0    0    0  0.00000000000E+00  0.00000000000E+00  0.45593999997E+02  0.45594000000E+02  0.51100000000E-03 0.  1.
         11   -1    0    0    0    0 -0.00000000000E+00 -0.00000000000E+00 -0.45593999997E+02  0.45594000000E+02  0.51100000000E-03 0. -1.
    9900012    2    1    2    0    0 -0.35771385707E+02  0.37463430199E+01 -0.18961508226E+02  0.50528856925E+02  0.29999991109E+02 0.  0.
        -12    1    1    2    0    0  0.35771385707E+02 -0.37463430199E+01  0.18961508226E+02  0.40659143075E+02  0.00000000000E+00 0.  1.
         11    1    3    3    0    0 -0.29079495994E+02  0.42345017387E+01 -0.11106094324E+02  0.31414859917E+02  0.51100000000E-03 0. -1.
        -11    1    3    3    0    0 -0.30989562405E+01  0.49018858210E+01 -0.10596881629E+02  0.12079979921E+02  0.51100000000E-03 0.  1.
        -12    1    3    3    0    0 -0.35929334726E+01 -0.53900445398E+01  0.27414677269E+01  0.70340170868E+01  0.00000000000E+00 0.  1.
</event>
<event>
 7    1  0.2937071E-011  0.5052886E+02  0.7816164E-02  0.1300439E+00
        -11   -1    0    0    0    0  0.00000000000E+00  0.00000000000E+00  0.45593999997E+02  0.45594000000E+02  0.51100000000E-03 0.  1.
         11   -1    0    0    0    0 -0.00000000000E+00 -0.00000000000E+00 -0.45593999997E+02  0.45594000000E+02  0.51100000000E-03 0. -1.
    9900012    2    1    2    0    0 -0.55177672897E+01  0.37695982708E+02 -0.14203268056E+02  0.50528859679E+02  0.29999999479E+02 0.  0.
        -12    1    1    2    0    0  0.55177672897E+01 -0.37695982708E+02  0.14203268056E+02  0.40659140321E+02  0.00000000000E+00 0.  1.
         11    1    3    3    0    0 -0.11783083841E+01 -0.40998463179E+01 -0.26450591358E+01  0.50193115635E+01  0.51100000000E-03 0. -1.
        -11    1    3    3    0    0  0.35041673795E+01  0.48359899471E+01  0.86859431439E-01  0.59727324244E+01  0.51100000000E-03 0.  1.
         12    1    3    3    0    0 -0.78436262851E+01  0.36959839079E+02 -0.11645068352E+02  0.39536815691E+02  0.00000000000E+00 0. -1.
</event>
<event>
 7    1  0.2937071E-011  0.5052886E+02  0.7816164E-02  0.1300439E+00
        -11   -1    0    0    0    0  0.00000000000E+00  0.00000000000E+00  0.45593999997E+02  0.45594000000E+02  0.51100000000E-03 0. -1.
         11   -1    0    0    0    0 -0.00000000000E+00 -0.00000000000E+00 -0.45593999997E+02  0.45594000000E+02  0.51100000000E-03 0.  1.
    9900012    2    1    2    0    0 -0.26498082633E+02 -0.15619292322E+02  0.26590511654E+02  0.50528856061E+02  0.29999988482E+02 0.  0.
        -12    1    1    2    0    0  0.26498082633E+02  0.15619292322E+02 -0.26590511654E+02  0.40659143939E+02  0.00000000000E+00 0.  1.
         11    1    3    3    0    0 -0.11800694177E+02 -0.13174999767E+02  0.10266101444E+02  0.20450668474E+02  0.51100000000E-03 0. -1.
        -11    1    3    3    0    0 -0.14531947314E+02 -0.86693035591E+01  0.58718360999E+01  0.17911247203E+02  0.51100000000E-03 0.  1.
         12    1    3    3    0    0 -0.16544114240E+00  0.62250110042E+01  0.10452574110E+02  0.12166940384E+02  0.00000000000E+00 0. -1.
</event>
<event>
 7    1  0.2937071E-011  0.5052886E+02  0.7816164E-02  0.1300439E+00
        -11   -1    0    0    0    0  0.00000000000E+00  0.00000000000E+00  0.45593999997E+02  0.45594000000E+02  0.51100000000E-03 0. -1.
         11   -1    0    0    0    0 -0.00000000000E+00 -0.00000000000E+00 -0.45593999997E+02  0.45594000000E+02  0.51100000000E-03 0.  1.
    9900012    2    1    2    0    0 -0.30803471524E+02 -0.31048686717E+00  0.26537054490E+02  0.50528861777E+02  0.30000005857E+02 0.  0.
        -12    1    1    2    0    0  0.30803471524E+02  0.31048686717E+00 -0.26537054490E+02  0.40659138223E+02  0.00000000000E+00 0.  1.
         11    1    3    3    0    0  0.76607931969E-01 -0.45524834543E+01 -0.10658950652E+01  0.46762278525E+01  0.51100000000E-03 0. -1.
        -11    1    3    3    0    0 -0.29464416193E+01 -0.42901813982E+01 -0.61479875707E+00  0.52407206011E+01  0.51100000000E-03 0.  1.
         12    1    3    3    0    0 -0.27933637837E+02  0.85321779854E+01  0.28217748313E+02  0.40611913323E+02  0.00000000000E+00 0. -1.
</event>
<event>
 7    1  0.2937071E-011  0.5052886E+02  0.7816164E-02  0.1300439E+00
        -11   -1    0    0    0    0  0.00000000000E+00  0.00000000000E+00  0.45593999997E+02  0.45594000000E+02  0.51100000000E-03 0. -1.
         11   -1    0    0    0    0 -0.00000000000E+00 -0.00000000000E+00 -0.45593999997E+02  0.45594000000E+02  0.51100000000E-03 0.  1.
    9900012    2    1    2    0    0 -0.19459854424E+02 -0.21702732195E+02  0.28345567597E+02  0.50528859314E+02  0.29999998369E+02 0.  0.
        -12    1    1    2    0    0  0.19459854424E+02  0.21702732195E+02 -0.28345567597E+02  0.40659140686E+02  0.00000000000E+00 0.  1.
         11    1    3    3    0    0 -0.83592837652E+01 -0.22644075913E+01  0.12338957733E+02  0.15074980763E+02  0.51100000000E-03 0. -1.
        -11    1    3    3    0    0  0.18095034491E+01 -0.10828792047E+02  0.16626118102E+02  0.19923976594E+02  0.51100000000E-03 0.  1.
         12    1    3    3    0    0 -0.12910074108E+02 -0.86095325572E+01 -0.61950823732E+00  0.15529901957E+02  0.00000000000E+00 0. -1.
</event>
<event>
 7    1  0.2937071E-011  0.5052886E+02  0.7816164E-02  0.1300439E+00
        -11   -1    0    0    0    0  0.00000000000E+00  0.00000000000E+00  0.45593999997E+02  0.45594000000E+02  0.51100000000E-03 0.  1.
         11   -1    0    0    0    0 -0.00000000000E+00 -0.00000000000E+00 -0.45593999997E+02  0.45594000000E+02  0.51100000000E-03 0. -1.
    9900012    2    1    2    0    0 -0.47469852362E+01  0.23626898910E+02 -0.32747538413E+02  0.50528862121E+02  0.30000006904E+02 0.  0.
        -12    1    1    2    0    0  0.47469852362E+01 -0.23626898910E+02  0.32747538413E+02  0.40659137879E+02  0.00000000000E+00 0.  1.
         11    1    3    3    0    0 -0.53053864497E+01  0.12966759061E+02 -0.14705319740E+02  0.20310844267E+02  0.51100000000E-03 0. -1.
        -11    1    3    3    0    0  0.88652507324E+01  0.11950303254E+02 -0.15380978227E+02  0.21400395087E+02  0.51100000000E-03 0.  1.
         12    1    3    3    0    0 -0.83068495189E+01 -0.12901634051E+01 -0.26612404456E+01  0.88176227664E+01  0.00000000000E+00 0. -1.
</event>
<event>
 7    1  0.2937071E-011  0.5052887E+02  0.7816164E-02  0.1300439E+00
        -11   -1    0    0    0    0  0.00000000000E+00  0.00000000000E+00  0.45593999997E+02  0.45594000000E+02  0.51100000000E-03 0. -1.
         11   -1    0    0    0    0 -0.00000000000E+00 -0.00000000000E+00 -0.45593999997E+02  0.45594000000E+02  0.51100000000E-03 0.  1.
    9900012    2    1    2    0    0 -0.43430207381E+01  0.23031898912E+02  0.33224012382E+02  0.50528865782E+02  0.30000018031E+02 0.  0.
        -12    1    1    2    0    0  0.43430207381E+01 -0.23031898912E+02 -0.33224012382E+02  0.40659134218E+02  0.00000000000E+00 0.  1.
         11    1    3    3    0    0 -0.50511221827E+01  0.57822277576E+00  0.82285893411E+01  0.96725311935E+01  0.51100000000E-03 0. -1.
        -11    1    3    3    0    0 -0.34904410460E+01 -0.41264570204E+01  0.39470894319E+01  0.66925586647E+01  0.51100000000E-03 0.  1.
         12    1    3    3    0    0  0.41985424906E+01  0.26580133157E+02  0.21048333609E+02  0.34163775924E+02  0.00000000000E+00 0. -1.
</event>
<event>
 7    1  0.2937071E-011  0.5052883E+02  0.7816164E-02  0.1300439E+00
        -11   -1    0    0    0    0  0.00000000000E+00  0.00000000000E+00  0.45593999997E+02  0.45594000000E+02  0.51100000000E-03 0.  1.
         11   -1    0    0    0    0 -0.00000000000E+00 -0.00000000000E+00 -0.45593999997E+02  0.45594000000E+02  0.51100000000E-03 0. -1.
    9900012    2    1    2    0    0  0.16327643827E+02 -0.17066909208E+02 -0.33095266178E+02  0.50528831461E+02  0.29999913709E+02 0.  0.
        -12    1    1    2    0    0 -0.16327643827E+02  0.17066909208E+02  0.33095266178E+02  0.40659168539E+02  0.00000000000E+00 0.  1.
         11    1    3    3    0    0  0.15497641490E+02 -0.19738816407E+01 -0.25534488701E+02  0.29934649054E+02  0.51100000000E-03 0. -1.
        -11    1    3    3    0    0  0.12496341432E+01  0.65688488464E-01 -0.50753398501E+01  0.52273296552E+01  0.51100000000E-03 0.  1.
         12    1    3    3    0    0 -0.41963180634E+00 -0.15158716056E+02 -0.24854376273E+01  0.15366852752E+02  0.00000000000E+00 0. -1.
</event>
<event>
 7    1  0.2937071E-011  0.5052882E+02  0.7816164E-02  0.1300439E+00
        -11   -1    0    0    0    0  0.00000000000E+00  0.00000000000E+00  0.45593999997E+02  0.45594000000E+02  0.51100000000E-03 0.  1.
         11   -1    0    0    0    0 -0.00000000000E+00 -0.00000000000E+00 -0.45593999997E+02  0.45594000000E+02  0.51100000000E-03 0. -1.
    9900012    2    1    2    0    0 -0.19004080991E+02  0.53253303783E+01 -0.35547919551E+02  0.50528821180E+02  0.29999882457E+02 0.  0.
        -12    1    1    2    0    0  0.19004080991E+02 -0.53253303783E+01  0.35547919551E+02  0.40659178820E+02  0.00000000000E+00 0.  1.
         11    1    3    3    0    0 -0.44402067150E+01  0.36141617852E+01 -0.17982627154E+02  0.18872002562E+02  0.51100000000E-03 0. -1.
        -11    1    3    3    0    0 -0.28006303752E+01  0.10440360809E+02 -0.35337672887E+01  0.11372430515E+02  0.51100000000E-03 0.  1.
        -12    1    3    3    0    0 -0.11763243900E+02 -0.87291922157E+01 -0.14031525108E+02  0.20284388102E+02  0.00000000000E+00 0.  1.
</event>
<event>
 7    1  0.2937071E-011  0.5052886E+02  0.7816164E-02  0.1300439E+00
        -11   -1    0    0    0    0  0.00000000000E+00  0.00000000000E+00  0.45593999997E+02  0.45594000000E+02  0.51100000000E-03 0. -1.
         11   -1    0    0    0    0 -0.00000000000E+00 -0.00000000000E+00 -0.45593999997E+02  0.45594000000E+02  0.51100000000E-03 0.  1.
    9900012    2    1    2    0    0  0.26226367864E+02  0.16798379980E+02  0.26137279176E+02  0.50528864446E+02  0.30000013969E+02 0.  0.
        -12    1    1    2    0    0 -0.26226367864E+02 -0.16798379980E+02 -0.26137279176E+02  0.40659135554E+02  0.00000000000E+00 0.  1.
         11    1    3    3    0    0  0.21180566072E+02  0.12042185602E+02  0.19178280126E+02  0.31007048264E+02  0.51100000000E-03 0. -1.
        -11    1    3    3    0    0  0.10861635887E+01  0.71068379161E+00  0.11922604694E+02  0.11993053229E+02  0.51100000000E-03 0.  1.
        -12    1    3    3    0    0  0.39596382030E+01  0.40455105864E+01 -0.49636056440E+01  0.75287629524E+01  0.00000000000E+00 0.  1.
</event>
<event>
 7    1  0.2937071E-011  0.5052891E+02  0.7816164E-02  0.1300439E+00
        -11   -1    0    0    0    0  0.00000000000E+00  0.00000000000E+00  0.45593999997E+02  0.45594000000E+02  0.51100000000E-03 0.  1.
         11   -1    0    0    0    0 -0.00000000000E+00 -0.00000000000E+00 -0.45593999997E+02  0.45594000000E+02  0.51100000000E-03 0. -1.
    9900012    2    1    2    0    0 -0.16461916459E+02  0.46654001863E+00 -0.37174581308E+02  0.50528906940E+02  0.30000143133E+02 0.  0.
        -12    1    1    2    0    0  0.16461916459E+02 -0.46654001863E+00  0.37174581308E+02  0.40659093060E+02  0.00000000000E+00 0.  1.
         11    1    3    3    0    0 -0.12524276046E+02  0.92852804377E+01 -0.23201637362E+02  0.27953352211E+02  0.51100000000E-03 0. -1.
        -11    1    3    3    0    0 -0.24987099406E+00  0.27718368382E+01 -0.90253103242E+01  0.94446673674E+01  0.51100000000E-03 0.  1.
        -12    1    3    3    0    0 -0.36877694185E+01 -0.11590577257E+02 -0.49476336215E+01  0.13130887361E+02  0.00000000000E+00 0.  1.
</event>
<event>
 7    1  0.2937071E-011  0.5052887E+02  0.7816164E-02  0.1300439E+00
        -11   -1    0    0    0    0  0.00000000000E+00  0.00000000000E+00  0.45593999997E+02  0.45594000000E+02  0.51100000000E-03 0.  1.
         11   -1    0    0    0    0 -0.00000000000E+00 -0.00000000000E+00 -0.45593999997E+02  0.45594000000E+02  0.51100000000E-03 0. -1.
    9900012    2    1    2    0    0 -0.22566872986E+02 -0.33583170520E+02  0.40089515097E+01  0.50528870757E+02  0.30000033153E+02 0.  0.
        -12    1    1    2    0    0  0.22566872986E+02  0.33583170520E+02 -0.40089515097E+01  0.40659129243E+02  0.00000000000E+00 0.  1.
         11    1    3    3    0    0 -0.79470244808E+01 -0.13225664716E+02  0.65914021542E+00  0.15443700054E+02  0.51100000000E-03 0. -1.
        -11    1    3    3    0    0 -0.18161425648E+02 -0.74918718203E+01  0.76235675065E+01  0.21073307921E+02  0.51100000000E-03 0.  1.
         12    1    3    3    0    0  0.35415771423E+01 -0.12865633984E+02 -0.42737562122E+01  0.14011862782E+02  0.00000000000E+00 0. -1.
</event>
<event>
 7    1  0.2937071E-011  0.5052886E+02  0.7816164E-02  0.1300439E+00
        -11   -1    0    0    0    0  0.00000000000E+00  0.00000000000E+00  0.45593999997E+02  0.45594000000E+02  0.51100000000E-03 0.  1.
         11   -1    0    0    0    0 -0.00000000000E+00 -0.00000000000E+00 -0.45593999997E+02  0.45594000000E+02  0.51100000000E-03 0. -1.
    9900012    2    1    2    0    0 -0.15700910981E+02 -0.37009710796E+02 -0.60768958301E+01  0.50528856357E+02  0.29999989382E+02 0.  0.
        -12    1    1    2    0    0  0.15700910981E+02  0.37009710796E+02  0.60768958301E+01  0.40659143643E+02  0.00000000000E+00 0.  1.
         11    1    3    3    0    0 -0.41548192281E+01 -0.58469289157E+01  0.56046154229E+01  0.91027915972E+01  0.51100000000E-03 0. -1.
        -11    1    3    3    0    0  0.14391449906E+01 -0.31742318030E+01  0.51966954786E+01  0.62571982550E+01  0.51100000000E-03 0.  1.
         12    1    3    3    0    0 -0.12985236744E+02 -0.27988550078E+02 -0.16878206732E+02  0.35168866505E+02  0.00000000000E+00 0. -1.
</event>
<event>
 7    1  0.2937071E-011  0.5052886E+02  0.7816164E-02  0.1300439E+00
        -11   -1    0    0    0    0  0.00000000000E+00  0.00000000000E+00  0.45593999997E+02  0.45594000000E+02  0.51100000000E-03 0.  1.
         11   -1    0    0    0    0 -0.00000000000E+00 -0.00000000000E+00 -0.45593999997E+02  0.45594000000E+02  0.51100000000E-03 0. -1.
    9900012    2    1    2    0    0 -0.12605393232E+02 -0.16728373326E+02 -0.34848694491E+02  0.50528856866E+02  0.29999990931E+02 0.  0.
        -12    1    1    2    0    0  0.12605393232E+02  0.16728373326E+02  0.34848694491E+02  0.40659143134E+02  0.00000000000E+00 0.  1.
         11    1    3    3    0    0 -0.59676868170E+01 -0.90736355972E+01 -0.31014712455E+02  0.32861170670E+02  0.51100000000E-03 0. -1.
        -11    1    3    3    0    0 -0.75422653403E+01 -0.10415266820E+02 -0.58542899452E+01  0.14129269635E+02  0.51100000000E-03 0.  1.
        -12    1    3    3    0    0  0.90455892561E+00  0.27605290915E+01  0.20203079089E+01  0.35384165614E+01  0.00000000000E+00 0.  1.
</event>
<event>
 7    1  0.2937071E-011  0.5052887E+02  0.7816164E-02  0.1300439E+00
        -11   -1    0    0    0    0  0.00000000000E+00  0.00000000000E+00  0.45593999997E+02  0.45594000000E+02  0.51100000000E-03 0.  1.
         11   -1    0    0    0    0 -0.00000000000E+00 -0.00000000000E+00 -0.45593999997E+02  0.45594000000E+02  0.51100000000E-03 0. -1.
    9900012    2    1    2    0    0  0.37904267170E+02 -0.13702463101E+02 -0.53548102011E+01  0.50528868713E+02  0.30000026941E+02 0.  0.
        -12    1    1    2    0    0 -0.37904267170E+02  0.13702463101E+02  0.53548102011E+01  0.40659131287E+02  0.00000000000E+00 0.  1.
         11    1    3    3    0    0  0.71798695643E+00  0.16689606049E+01  0.36380769795E+01  0.40665143724E+01  0.51100000000E-03 0. -1.
        -11    1    3    3    0    0 -0.51368029565E+00 -0.49354786887E+00  0.38744100750E+01  0.39393540886E+01  0.51100000000E-03 0.  1.
         12    1    3    3    0    0  0.37699960509E+02 -0.14877875837E+02 -0.12867297256E+02  0.42523000252E+02  0.00000000000E+00 0. -1.
</event>
<event>
 7    1  0.2937071E-011  0.5052886E+02  0.7816164E-02  0.1300439E+00
        -11   -1    0    0    0    0  0.00000000000E+00  0.00000000000E+00  0.45593999997E+02  0.45594000000E+02  0.51100000000E-03 0. -1.
         11   -1    0    0    0    0 -0.00000000000E+00 -0.00000000000E+00 -0.45593999997E+02  0.45594000000E+02  0.51100000000E-03 0.  1.
    9900012    2    1    2    0    0 -0.17756694893E+02  0.23309375662E+02  0.28187558697E+02  0.50528859914E+02  0.30000000193E+02 0.  0.
        -12    1    1    2    0    0  0.17756694893E+02 -0.23309375662E+02 -0.28187558697E+02  0.40659140086E+02  0.00000000000E+00 0.  1.
         11    1    3    3    0    0 -0.58796449584E+01 -0.31054617685E+01 -0.19571442238E-01  0.66493985394E+01  0.51100000000E-03 0. -1.
        -11    1    3    3    0    0 -0.26703800807E+01  0.21081141094E+02  0.11748681347E+02  0.24281205762E+02  0.51100000000E-03 0.  1.
         12    1    3    3    0    0 -0.92066698536E+01  0.53336963367E+01  0.16458448792E+02  0.19598255612E+02  0.00000000000E+00 0. -1.
</event>
<event>
 7    1  0.2937071E-011  0.5052886E+02  0.7816164E-02  0.1300439E+00
        -11   -1    0    0    0    0  0.00000000000E+00  0.00000000000E+00  0.45593999997E+02  0.45594000000E+02  0.51100000000E-03 0.  1.
         11   -1    0    0    0    0 -0.00000000000E+00 -0.00000000000E+00 -0.45593999997E+02  0.45594000000E+02  0.51100000000E-03 0. -1.
    9900012    2    1    2    0    0 -0.17603579406E+02  0.22260732568E+02 -0.29115968080E+02  0.50528858106E+02  0.29999994698E+02 0.  0.
        -12    1    1    2    0    0  0.17603579406E+02 -0.22260732568E+02  0.29115968080E+02  0.40659141894E+02  0.00000000000E+00 0.  1.
         11    1    3    3    0    0 -0.75981369158E+01  0.77648967345E+01 -0.16263666705E+02  0.19558429407E+02  0.51100000000E-03 0. -1.
        -11    1    3    3    0    0 -0.11200946151E+02  0.11876788614E+01 -0.13513628931E+02  0.17592326250E+02  0.51100000000E-03 0.  1.
        -12    1    3    3    0    0  0.11955036612E+01  0.13308156972E+02  0.66132755585E+00  0.13378102449E+02  0.00000000000E+00 0.  1.
</event>
<event>
 7    1  0.2937071E-011  0.5052887E+02  0.7816164E-02  0.1300439E+00
        -11   -1    0    0    0    0  0.00000000000E+00  0.00000000000E+00  0.45593999997E+02  0.45594000000E+02  0.51100000000E-03 0.  1.
         11   -1    0    0    0    0 -0.00000000000E+00 -0.00000000000E+00 -0.45593999997E+02  0.45594000000E+02  0.51100000000E-03 0. -1.
    9900012    2    1    2    0    0 -0.31453768474E+02 -0.24448415002E+02  0.81302241193E+01  0.50528867058E+02  0.30000021909E+02 0.  0.
        -12    1    1    2    0    0  0.31453768474E+02  0.24448415002E+02 -0.81302241193E+01  0.40659132942E+02  0.00000000000E+00 0.  1.
         11    1    3    3    0    0 -0.11102129581E+01 -0.73942797108E+01 -0.73340719587E+01  0.10473612415E+02  0.51100000000E-03 0. -1.
        -11    1    3    3    0    0 -0.91636377393E+01 -0.47798265790E+01 -0.12546272061E+01  0.10411200144E+02  0.51100000000E-03 0.  1.
        -12    1    3    3    0    0 -0.21179917777E+02 -0.12274308713E+02  0.16718923284E+02  0.29644054500E+02  0.00000000000E+00 0.  1.
</event>
<event>
 7    1  0.2937071E-011  0.5052890E+02  0.7816164E-02  0.1300439E+00
        -11   -1    0    0    0    0  0.00000000000E+00  0.00000000000E+00  0.45593999997E+02  0.45594000000E+02  0.51100000000E-03 0.  1.
         11   -1    0    0    0    0 -0.00000000000E+00 -0.00000000000E+00 -0.45593999997E+02  0.45594000000E+02  0.51100000000E-03 0. -1.
    9900012    2    1    2    0    0 -0.99162276664E+01 -0.18263763406E+01 -0.39389021819E+02  0.50528901860E+02  0.30000127694E+02 0.  0.
        -12    1    1    2    0    0  0.99162276664E+01  0.18263763406E+01  0.39389021819E+02  0.40659098140E+02  0.00000000000E+00 0.  1.
         11    1    3    3    0    0 -0.37561001029E+01  0.32118037651E+01 -0.28944905185E-01  0.49421462420E+01  0.51100000000E-03 0.  1.
        -11    1    3    3    0    0  0.11284996589E+01  0.58450865296E+01 -0.24786666370E+01  0.64484367545E+01  0.51100000000E-03 0. -1.
         12    1    3    3    0    0 -0.72886272223E+01 -0.10883266635E+02 -0.36881410277E+02  0.39138318864E+02  0.00000000000E+00 0. -1.
</event>
<event>
 7    1  0.2937071E-011  0.5052883E+02  0.7816164E-02  0.1300439E+00
        -11   -1    0    0    0    0  0.00000000000E+00  0.00000000000E+00  0.45593999997E+02  0.45594000000E+02  0.51100000000E-03 0.  1.
         11   -1    0    0    0    0 -0.00000000000E+00 -0.00000000000E+00 -0.45593999997E+02  0.45594000000E+02  0.51100000000E-03 0. -1.
    9900012    2    1    2    0    0  0.27032937504E+02 -0.14691088620E+02 -0.26581195073E+02  0.50528834656E+02  0.29999923421E+02 0.  0.
        -12    1    1    2    0    0 -0.27032937504E+02  0.14691088620E+02  0.26581195073E+02  0.40659165344E+02  0.00000000000E+00 0.  1.
         11    1    3    3    0    0  0.14820722874E+02 -0.43328502303E+01 -0.22586045661E+02  0.27359767478E+02  0.51100000000E-03 0. -1.
        -11    1    3    3    0    0  0.15500821935E+02 -0.99880609122E+01 -0.58871239323E+01  0.19357041869E+02  0.51100000000E-03 0.  1.
         12    1    3    3    0    0 -0.32886073055E+01 -0.37017747759E+00  0.18919745197E+01  0.38120253091E+01  0.00000000000E+00 0. -1.
</event>
<event>
 7    1  0.2937071E-011  0.5052888E+02  0.7816164E-02  0.1300439E+00
        -11   -1    0    0    0    0  0.00000000000E+00  0.00000000000E+00  0.45593999997E+02  0.45594000000E+02  0.51100000000E-03 0. -1.
         11   -1    0    0    0    0 -0.00000000000E+00 -0.00000000000E+00 -0.45593999997E+02  0.45594000000E+02  0.51100000000E-03 0.  1.
    9900012    2    1    2    0    0  0.16797447492E+02  0.52155954818E+01  0.36657978756E+02  0.50528879437E+02  0.30000059537E+02 0.  0.
        -12    1    1    2    0    0 -0.16797447492E+02 -0.52155954818E+01 -0.36657978756E+02  0.40659120563E+02  0.00000000000E+00 0.  1.
         11    1    3    3    0    0 -0.58297368682E+01  0.17471080108E+01  0.71307579873E+00  0.61275358596E+01  0.51100000000E-03 0.  1.
        -11    1    3    3    0    0 -0.41344407013E+00 -0.22687698251E+01  0.27602698301E+01  0.35968517226E+01  0.51100000000E-03 0. -1.
         12    1    3    3    0    0  0.23040628430E+02  0.57372572961E+01  0.33184633127E+02  0.40804491855E+02  0.00000000000E+00 0. -1.
</event>
<event>
 7    1  0.2937071E-011  0.5052886E+02  0.7816164E-02  0.1300439E+00
        -11   -1    0    0    0    0  0.00000000000E+00  0.00000000000E+00  0.45593999997E+02  0.45594000000E+02  0.51100000000E-03 0. -1.
         11   -1    0    0    0    0 -0.00000000000E+00 -0.00000000000E+00 -0.45593999997E+02  0.45594000000E+02  0.51100000000E-03 0.  1.
    9900012    2    1    2    0    0  0.24869357191E+02  0.10774135497E+02  0.30308400102E+02  0.50528855401E+02  0.29999986476E+02 0.  0.
        -12    1    1    2    0    0 -0.24869357191E+02 -0.10774135497E+02 -0.30308400102E+02  0.40659144599E+02  0.00000000000E+00 0.  1.
         11    1    3    3    0    0  0.13124278414E+02 -0.58223361943E+00  0.50751109690E+01  0.14083409797E+02  0.51100000000E-03 0.  1.
        -11    1    3    3    0    0  0.14226237065E+02  0.42577864149E+00  0.94389825555E+01  0.17078100023E+02  0.51100000000E-03 0. -1.
        -12    1    3    3    0    0 -0.24811582881E+01  0.10930590475E+02  0.15794306577E+02  0.19367345581E+02  0.00000000000E+00 0.  1.
</event>
<event>
 7    1  0.2937071E-011  0.5052885E+02  0.7816164E-02  0.1300439E+00
        -11   -1    0    0    0    0  0.00000000000E+00  0.00000000000E+00  0.45593999997E+02  0.45594000000E+02  0.51100000000E-03 0.  1.
         11   -1    0    0    0    0 -0.00000000000E+00 -0.00000000000E+00 -0.45593999997E+02  0.45594000000E+02  0.51100000000E-03 0. -1.
    9900012    2    1    2    0    0 -0.23539823078E+02  0.28187435564E+02 -0.17450253913E+02  0.50528853970E+02  0.29999982129E+02 0.  0.
        -12    1    1    2    0    0  0.23539823078E+02 -0.28187435564E+02  0.17450253913E+02  0.40659146030E+02  0.00000000000E+00 0.  1.
         11    1    3    3    0    0 -0.44799609058E+01  0.58853600935E+01  0.24565557148E+01  0.77937269255E+01  0.51100000000E-03 0. -1.
        -11    1    3    3    0    0 -0.83667664925E+01 -0.18604594793E+01  0.15342483137E+01  0.87073537406E+01  0.51100000000E-03 0.  1.
         12    1    3    3    0    0 -0.10693095680E+02  0.24162534950E+02 -0.21441057941E+02  0.34027773304E+02  0.00000000000E+00 0. -1.
</event>
<event>
 7    1  0.2937071E-011  0.5052887E+02  0.7816164E-02  0.1300439E+00
        -11   -1    0    0    0    0  0.00000000000E+00  0.00000000000E+00  0.45593999997E+02  0.45594000000E+02  0.51100000000E-03 0. -1.
         11   -1    0    0    0    0 -0.00000000000E+00 -0.00000000000E+00 -0.45593999997E+02  0.45594000000E+02  0.51100000000E-03 0.  1.
    9900012    2    1    2    0    0  0.23074664273E+02 -0.20032074568E+02  0.26822394543E+02  0.50528868285E+02  0.30000025638E+02 0.  0.
        -12    1    1    2    0    0 -0.23074664273E+02  0.20032074568E+02 -0.26822394543E+02  0.40659131715E+02  0.00000000000E+00 0.  1.
         11    1    3    3    0    0 -0.22272770158E+01 -0.14703009333E+01  0.35143276950E+01  0.44128275684E+01  0.51100000000E-03 0. -1.
        -11    1    3    3    0    0 -0.36331117933E+01 -0.64509370899E+01  0.89595319921E+01  0.11622706415E+02  0.51100000000E-03 0.  1.
         12    1    3    3    0    0  0.28935053082E+02 -0.12110836545E+02  0.14348534856E+02  0.34493334301E+02  0.00000000000E+00 0. -1.
</event>
<event>
 7    1  0.2937071E-011  0.5052886E+02  0.7816164E-02  0.1300439E+00
        -11   -1    0    0    0    0  0.00000000000E+00  0.00000000000E+00  0.45593999997E+02  0.45594000000E+02  0.51100000000E-03 0. -1.
         11   -1    0    0    0    0 -0.00000000000E+00 -0.00000000000E+00 -0.45593999997E+02  0.45594000000E+02  0.51100000000E-03 0.  1.
    9900012    2    1    2    0    0 -0.37636866658E+02 -0.12856957284E+02  0.84457433721E+01  0.50528860025E+02  0.30000000531E+02 0.  0.
        -12    1    1    2    0    0  0.37636866658E+02  0.12856957284E+02 -0.84457433721E+01  0.40659139975E+02  0.00000000000E+00 0.  1.
         11    1    3    3    0    0 -0.10167081158E+02  0.15192526180E-01  0.73581359529E+01  0.12550375893E+02  0.51100000000E-03 0. -1.
        -11    1    3    3    0    0 -0.21754796900E+02 -0.10079848522E+02  0.10857626370E+02  0.26320383452E+02  0.51100000000E-03 0.  1.
        -12    1    3    3    0    0 -0.57149886000E+01 -0.27923012878E+01 -0.97700189508E+01  0.11658100681E+02  0.00000000000E+00 0.  1.
</event>
<event>
 7    1  0.2937071E-011  0.5052885E+02  0.7816164E-02  0.1300439E+00
        -11   -1    0    0    0    0  0.00000000000E+00  0.00000000000E+00  0.45593999997E+02  0.45594000000E+02  0.51100000000E-03 0. -1.
         11   -1    0    0    0    0 -0.00000000000E+00 -0.00000000000E+00 -0.45593999997E+02  0.45594000000E+02  0.51100000000E-03 0.  1.
    9900012    2    1    2    0    0 -0.35448557653E+02 -0.10165681189E+02  0.17123807695E+02  0.50528854612E+02  0.29999984079E+02 0.  0.
        -12    1    1    2    0    0  0.35448557653E+02  0.10165681189E+02 -0.17123807695E+02  0.40659145388E+02  0.00000000000E+00 0.  1.
         11    1    3    3    0    0 -0.11538756891E+02 -0.57301372444E+01  0.14512468098E+02  0.19405904101E+02  0.51100000000E-03 0.  1.
        -11    1    3    3    0    0 -0.20897025003E+02 -0.98418374175E+01  0.62684830516E+01  0.23934103237E+02  0.51100000000E-03 0. -1.
        -12    1    3    3    0    0 -0.30127757586E+01  0.54062934733E+01 -0.36571434539E+01  0.71888472743E+01  0.00000000000E+00 0.  1.
</event>
<event>
 7    1  0.2937071E-011  0.5052885E+02  0.7816164E-02  0.1300439E+00
        -11   -1    0    0    0    0  0.00000000000E+00  0.00000000000E+00  0.45593999997E+02  0.45594000000E+02  0.51100000000E-03 0.  1.
         11   -1    0    0    0    0 -0.00000000000E+00 -0.00000000000E+00 -0.45593999997E+02  0.45594000000E+02  0.51100000000E-03 0. -1.
    9900012    2    1    2    0    0  0.81138481407E+01 -0.21410440993E+02 -0.33599481554E+02  0.50528847575E+02  0.29999962690E+02 0.  0.
        -12    1    1    2    0    0 -0.81138481407E+01  0.21410440993E+02  0.33599481554E+02  0.40659152425E+02  0.00000000000E+00 0.  1.
         11    1    3    3    0    0  0.31367945063E+01  0.58985978436E+01 -0.66760247167E+01  0.94446938846E+01  0.51100000000E-03 0. -1.
        -11    1    3    3    0    0  0.23051423550E+00  0.44927145405E+00 -0.59488209068E+01  0.59702137394E+01  0.51100000000E-03 0.  1.
         12    1    3    3    0    0  0.47465393989E+01 -0.27758310291E+02 -0.20974635931E+02  0.35113939951E+02  0.00000000000E+00 0. -1.
</event>
<event>
 7    1  0.2937071E-011  0.5052886E+02  0.7816164E-02  0.1300439E+00
        -11   -1    0    0    0    0  0.00000000000E+00  0.00000000000E+00  0.45593999997E+02  0.45594000000E+02  0.51100000000E-03 0. -1.
         11   -1    0    0    0    0 -0.00000000000E+00 -0.00000000000E+00 -0.45593999997E+02  0.45594000000E+02  0.51100000000E-03 0.  1.
    9900012    2    1    2    0    0  0.17830934465E+02  0.36494836061E+02  0.18303428892E+01  0.50528862796E+02  0.30000008955E+02 0.  0.
        -12    1    1    2    0    0 -0.17830934465E+02 -0.36494836061E+02 -0.18303428892E+01  0.40659137204E+02  0.00000000000E+00 0.  1.
         11    1    3    3    0    0  0.15408387238E+02  0.15688910077E+02  0.61310605916E+01  0.22828714395E+02  0.51100000000E-03 0. -1.
        -11    1    3    3    0    0  0.56749684887E+01  0.26122894410E+00 -0.39089747927E+01  0.68959112596E+01  0.51100000000E-03 0.  1.
        -12    1    3    3    0    0 -0.32524212614E+01  0.20544697041E+02 -0.39174290964E+00  0.20804237142E+02  0.00000000000E+00 0.  1.
</event>
<event>
 7    1  0.2937071E-011  0.5052885E+02  0.7816164E-02  0.1300439E+00
        -11   -1    0    0    0    0  0.00000000000E+00  0.00000000000E+00  0.45593999997E+02  0.45594000000E+02  0.51100000000E-03 0.  1.
         11   -1    0    0    0    0 -0.00000000000E+00 -0.00000000000E+00 -0.45593999997E+02  0.45594000000E+02  0.51100000000E-03 0. -1.
    9900012    2    1    2    0    0 -0.25762305242E+02  0.99111006236E+01 -0.29853646643E+02  0.50528849679E+02  0.29999969084E+02 0.  0.
        -12    1    1    2    0    0  0.25762305242E+02 -0.99111006236E+01  0.29853646643E+02  0.40659150321E+02  0.00000000000E+00 0.  1.
         11    1    3    3    0    0 -0.19523309039E+02 -0.86304737517E+00 -0.56951029911E+01  0.20355309994E+02  0.51100000000E-03 0. -1.
        -11    1    3    3    0    0 -0.87724560593E+01  0.34308743095E+01 -0.84717756915E+01  0.12668775295E+02  0.51100000000E-03 0.  1.
        -12    1    3    3    0    0  0.25334598564E+01  0.73432736893E+01 -0.15686767960E+02  0.17504764390E+02  0.00000000000E+00 0.  1.
</event>
<event>
 7    1  0.2937071E-011  0.5052887E+02  0.7816164E-02  0.1300439E+00
        -11   -1    0    0    0    0  0.00000000000E+00  0.00000000000E+00  0.45593999997E+02  0.45594000000E+02  0.51100000000E-03 0. -1.
         11   -1    0    0    0    0 -0.00000000000E+00 -0.00000000000E+00 -0.45593999997E+02  0.45594000000E+02  0.51100000000E-03 0.  1.
    9900012    2    1    2    0    0  0.56196185867E+01 -0.28995069043E+02  0.27944066595E+02  0.50528868188E+02  0.30000025343E+02 0.  0.
        -12    1    1    2    0    0 -0.56196185867E+01  0.28995069043E+02 -0.27944066595E+02  0.40659131812E+02  0.00000000000E+00 0.  1.
         11    1    3    3    0    0 -0.46733646133E+01 -0.19138011923E+02  0.25984424453E+01  0.19870977343E+02  0.51100000000E-03 0.  1.
        -11    1    3    3    0    0  0.97160334812E+01 -0.62243371233E+01  0.11343913945E+02  0.16181102036E+02  0.51100000000E-03 0. -1.
        -12    1    3    3    0    0  0.57694971886E+00 -0.36327199966E+01  0.14001710205E+02  0.14476788809E+02  0.00000000000E+00 0.  1.
</event>
<event>
 7    1  0.2937071E-011  0.5052885E+02  0.7816164E-02  0.1300439E+00
        -11   -1    0    0    0    0  0.00000000000E+00  0.00000000000E+00  0.45593999997E+02  0.45594000000E+02  0.51100000000E-03 0.  1.
         11   -1    0    0    0    0 -0.00000000000E+00 -0.00000000000E+00 -0.45593999997E+02  0.45594000000E+02  0.51100000000E-03 0. -1.
    9900012    2    1    2    0    0 -0.40729710848E+01 -0.16369419391E+02 -0.36994852334E+02  0.50528854856E+02  0.29999984820E+02 0.  0.
        -12    1    1    2    0    0  0.40729710848E+01  0.16369419391E+02  0.36994852334E+02  0.40659145144E+02  0.00000000000E+00 0.  1.
         11    1    3    3    0    0  0.43514975518E+01 -0.93952751207E+01 -0.42269139810E+00  0.10362692402E+02  0.51100000000E-03 0. -1.
        -11    1    3    3    0    0 -0.10078953278E+02 -0.66531301402E+01 -0.18999673749E+02  0.22513041613E+02  0.51100000000E-03 0.  1.
        -12    1    3    3    0    0  0.16544846416E+01 -0.32101413049E+00 -0.17572487186E+02  0.17653120841E+02  0.00000000000E+00 0.  1.
</event>
<event>
 7    1  0.2937071E-011  0.5052890E+02  0.7816164E-02  0.1300439E+00
        -11   -1    0    0    0    0  0.00000000000E+00  0.00000000000E+00  0.45593999997E+02  0.45594000000E+02  0.51100000000E-03 0. -1.
         11   -1    0    0    0    0 -0.00000000000E+00 -0.00000000000E+00 -0.45593999997E+02  0.45594000000E+02  0.51100000000E-03 0.  1.
    9900012    2    1    2    0    0 -0.10794277282E+02  0.23035267603E+02  0.31717860061E+02  0.50528897422E+02  0.30000114204E+02 0.  0.
        -12    1    1    2    0    0  0.10794277282E+02 -0.23035267603E+02 -0.31717860061E+02  0.40659102578E+02  0.00000000000E+00 0.  1.
         11    1    3    3    0    0  0.15943284403E+01 -0.19486140465E+01  0.33164640781E+01  0.41638820973E+01  0.51100000000E-03 0. -1.
        -11    1    3    3    0    0 -0.11963693060E+02  0.50466054737E+01  0.17847630248E+01  0.13106622668E+02  0.51100000000E-03 0.  1.
        -12    1    3    3    0    0 -0.42491266179E+00  0.19937276176E+02  0.26616632958E+02  0.33258392657E+02  0.00000000000E+00 0.  1.
</event>
<event>
 7    1  0.2937071E-011  0.5052886E+02  0.7816164E-02  0.1300439E+00
        -11   -1    0    0    0    0  0.00000000000E+00  0.00000000000E+00  0.45593999997E+02  0.45594000000E+02  0.51100000000E-03 0.  1.
         11   -1    0    0    0    0 -0.00000000000E+00 -0.00000000000E+00 -0.45593999997E+02  0.45594000000E+02  0.51100000000E-03 0. -1.
    9900012    2    1    2    0    0 -0.10589758629E+02  0.38908063044E+02 -0.52139660933E+01  0.50528858345E+02  0.29999995427E+02 0.  0.
        -12    1    1    2    0    0  0.10589758629E+02 -0.38908063044E+02  0.52139660933E+01  0.40659141655E+02  0.00000000000E+00 0.  1.
         11    1    3    3    0    0 -0.10159434486E+02  0.21342977936E+02 -0.22135581813E+01  0.23741033178E+02  0.51100000000E-03 0. -1.
        -11    1    3    3    0    0 -0.99927194843E+01  0.81157638615E+01 -0.34813912291E+01  0.13335672120E+02  0.51100000000E-03 0.  1.
         12    1    3    3    0    0  0.95623953406E+01  0.94493212459E+01  0.48098331707E+00  0.13452153047E+02  0.00000000000E+00 0. -1.
</event>
<event>
 7    1  0.2937071E-011  0.5052886E+02  0.7816164E-02  0.1300439E+00
        -11   -1    0    0    0    0  0.00000000000E+00  0.00000000000E+00  0.45593999997E+02  0.45594000000E+02  0.51100000000E-03 0. -1.
         11   -1    0    0    0    0 -0.00000000000E+00 -0.00000000000E+00 -0.45593999997E+02  0.45594000000E+02  0.51100000000E-03 0.  1.
    9900012    2    1    2    0    0  0.13459214854E+01  0.40269468007E+02  0.54519966396E+01  0.50528858032E+02  0.29999994475E+02 0.  0.
        -12    1    1    2    0    0 -0.13459214854E+01 -0.40269468007E+02 -0.54519966396E+01  0.40659141968E+02  0.00000000000E+00 0.  1.
         11    1    3    3    0    0 -0.71793413881E+01  0.68675185952E+01  0.46146803949E+01  0.10954498155E+02  0.51100000000E-03 0. -1.
        -11    1    3    3    0    0 -0.52591589908E+01  0.18631607722E+02  0.63497868190E+00  0.19370047955E+02  0.51100000000E-03 0.  1.
        -12    1    3    3    0    0  0.13784421864E+02  0.14770341690E+02  0.20233756274E+00  0.20204311922E+02  0.00000000000E+00 0.  1.
</event>
<event>
 7    1  0.2937071E-011  0.5052885E+02  0.7816164E-02  0.1300439E+00
        -11   -1    0    0    0    0  0.00000000000E+00  0.00000000000E+00  0.45593999997E+02  0.45594000000E+02  0.51100000000E-03 0.  1.
         11   -1    0    0    0    0 -0.00000000000E+00 -0.00000000000E+00 -0.45593999997E+02  0.45594000000E+02  0.51100000000E-03 0. -1.
    9900012    2    1    2    0    0 -0.25945087329E+02  0.14546328667E+02 -0.27720445448E+02  0.50528851829E+02  0.29999975618E+02 0.  0.
        -12    1    1    2    0    0  0.25945087329E+02 -0.14546328667E+02  0.27720445448E+02  0.40659148171E+02  0.00000000000E+00 0.  1.
         11    1    3    3    0    0 -0.46110094852E+01 -0.19239333235E+01 -0.81312461257E+01  0.95435890379E+01  0.51100000000E-03 0. -1.
        -11    1    3    3    0    0  0.59469191303E+00 -0.43706785014E+01 -0.68777656502E+01  0.81706884431E+01  0.51100000000E-03 0.  1.
         12    1    3    3    0    0 -0.21928769756E+02  0.20840940492E+02 -0.12711433672E+02  0.32814574348E+02  0.00000000000E+00 0. -1.
</event>
<event>
 7    1  0.2937071E-011  0.5052885E+02  0.7816164E-02  0.1300439E+00
        -11   -1    0    0    0    0  0.00000000000E+00  0.00000000000E+00  0.45593999997E+02  0.45594000000E+02  0.51100000000E-03 0.  1.
         11   -1    0    0    0    0 -0.00000000000E+00 -0.00000000000E+00 -0.45593999997E+02  0.45594000000E+02  0.51100000000E-03 0. -1.
    9900012    2    1    2    0    0  0.19459851156E+02 -0.30439623948E+02 -0.18652336008E+02  0.50528854022E+02  0.29999982286E+02 0.  0.
        -12    1    1    2    0    0 -0.19459851156E+02  0.30439623948E+02  0.18652336008E+02  0.40659145978E+02  0.00000000000E+00 0.  1.
         11    1    3    3    0    0  0.94266289671E+01 -0.72535404496E+01 -0.37539808262E+01  0.12472672330E+02  0.51100000000E-03 0. -1.
        -11    1    3    3    0    0  0.16605751512E+02 -0.80714906737E+01 -0.66397800864E+01  0.19621076037E+02  0.51100000000E-03 0.  1.
         12    1    3    3    0    0 -0.65725293231E+01 -0.15114592824E+02 -0.82585750952E+01  0.18435105656E+02  0.00000000000E+00 0. -1.
</event>
<event>
 7    1  0.2937071E-011  0.5052887E+02  0.7816164E-02  0.1300439E+00
        -11   -1    0    0    0    0  0.00000000000E+00  0.00000000000E+00  0.45593999997E+02  0.45594000000E+02  0.51100000000E-03 0. -1.
         11   -1    0    0    0    0 -0.00000000000E+00 -0.00000000000E+00 -0.45593999997E+02  0.45594000000E+02  0.51100000000E-03 0.  1.
    9900012    2    1    2    0    0  0.36357891535E+02 -0.16330821604E+02  0.80357229939E+01  0.50528869965E+02  0.30000030746E+02 0.  0.
        -12    1    1    2    0    0 -0.36357891535E+02  0.16330821604E+02 -0.80357229939E+01  0.40659130035E+02  0.00000000000E+00 0.  1.
         11    1    3    3    0    0  0.10125443470E+02 -0.34316217901E+01  0.73846582541E+01  0.12993606557E+02  0.51100000000E-03 0.  1.
        -11    1    3    3    0    0  0.17352995524E+02 -0.38163184035E+01  0.11217768306E+02  0.21012593030E+02  0.51100000000E-03 0. -1.
        -12    1    3    3    0    0  0.88794525418E+01 -0.90828814103E+01 -0.10566703566E+02  0.16522670378E+02  0.00000000000E+00 0.  1.
</event>
<event>
 7    1  0.2937071E-011  0.5052887E+02  0.7816164E-02  0.1300439E+00
        -11   -1    0    0    0    0  0.00000000000E+00  0.00000000000E+00  0.45593999997E+02  0.45594000000E+02  0.51100000000E-03 0.  1.
         11   -1    0    0    0    0 -0.00000000000E+00 -0.00000000000E+00 -0.45593999997E+02  0.45594000000E+02  0.51100000000E-03 0. -1.
    9900012    2    1    2    0    0 -0.18083754856E+02 -0.15392777989E+02 -0.33003112793E+02  0.50528865013E+02  0.30000015693E+02 0.  0.
        -12    1    1    2    0    0  0.18083754856E+02  0.15392777989E+02  0.33003112793E+02  0.40659134987E+02  0.00000000000E+00 0.  1.
         11    1    3    3    0    0 -0.98373948671E+01 -0.62562328343E+01 -0.19894992376E+02  0.23059174074E+02  0.51100000000E-03 0. -1.
        -11    1    3    3    0    0  0.35216380606E+01 -0.72490626321E+01 -0.13298288641E+02  0.15549769281E+02  0.51100000000E-03 0.  1.
        -12    1    3    3    0    0 -0.11767998050E+02 -0.18874825222E+01  0.19016822451E+00  0.11919921658E+02  0.00000000000E+00 0.  1.
</event>
<event>
 7    1  0.2937071E-011  0.5052887E+02  0.7816164E-02  0.1300439E+00
        -11   -1    0    0    0    0  0.00000000000E+00  0.00000000000E+00  0.45593999997E+02  0.45594000000E+02  0.51100000000E-03 0.  1.
         11   -1    0    0    0    0 -0.00000000000E+00 -0.00000000000E+00 -0.45593999997E+02  0.45594000000E+02  0.51100000000E-03 0. -1.
    9900012    2    1    2    0    0  0.25443430686E+02  0.24906788517E+02 -0.19632848461E+02  0.50528867963E+02  0.30000024661E+02 0.  0.
        -12    1    1    2    0    0 -0.25443430686E+02 -0.24906788517E+02  0.19632848461E+02  0.40659132037E+02  0.00000000000E+00 0.  1.
         11    1    3    3    0    0  0.17566837340E+02  0.18788063684E+02 -0.18452849290E+02  0.31655848722E+02  0.51100000000E-03 0. -1.
        -11    1    3    3    0    0  0.86349827255E+01  0.10767324287E+02  0.65620166954E+00  0.13817698790E+02  0.51100000000E-03 0.  1.
        -12    1    3    3    0    0 -0.75838937966E+00 -0.46485994539E+01 -0.18362008404E+01  0.50553204508E+01  0.00000000000E+00 0.  1.
</event>
<event>
 7    1  0.2937071E-011  0.5052885E+02  0.7816164E-02  0.1300439E+00
        -11   -1    0    0    0    0  0.00000000000E+00  0.00000000000E+00  0.45593999997E+02  0.45594000000E+02  0.51100000000E-03 0. -1.
         11   -1    0    0    0    0 -0.00000000000E+00 -0.00000000000E+00 -0.45593999997E+02  0.45594000000E+02  0.51100000000E-03 0.  1.
    9900012    2    1    2    0    0  0.24437974946E+02  0.26126571521E+02 -0.19322380924E+02  0.50528846498E+02  0.29999959416E+02 0.  0.
        -12    1    1    2    0    0 -0.24437974946E+02 -0.26126571521E+02  0.19322380924E+02  0.40659153502E+02  0.00000000000E+00 0.  1.
         11    1    3    3    0    0  0.57694133404E+00  0.32340997670E+01  0.90382934647E+00  0.34072232616E+01  0.51100000000E-03 0. -1.
        -11    1    3    3    0    0  0.80356988108E+01  0.24682027489E+02 -0.83923361078E+01  0.27280143730E+02  0.51100000000E-03 0.  1.
        -12    1    3    3    0    0  0.15825334801E+02 -0.17895557349E+01 -0.11833874163E+02  0.19841479507E+02  0.00000000000E+00 0.  1.
</event>
<event>
 7    1  0.2937071E-011  0.5052885E+02  0.7816164E-02  0.1300439E+00
        -11   -1    0    0    0    0  0.00000000000E+00  0.00000000000E+00  0.45593999997E+02  0.45594000000E+02  0.51100000000E-03 0.  1.
         11   -1    0    0    0    0 -0.00000000000E+00 -0.00000000000E+00 -0.45593999997E+02  0.45594000000E+02  0.51100000000E-03 0. -1.
    9900012    2    1    2    0    0 -0.20247714587E+02 -0.22443297257E+02 -0.27193661425E+02  0.50528846547E+02  0.29999959566E+02 0.  0.
        -12    1    1    2    0    0  0.20247714587E+02  0.22443297257E+02  0.27193661425E+02  0.40659153453E+02  0.00000000000E+00 0.  1.
         11    1    3    3    0    0 -0.11223903013E+02 -0.20163985837E+02 -0.13839364369E+02  0.26908926587E+02  0.51100000000E-03 0. -1.
        -11    1    3    3    0    0  0.44970794178E+01 -0.36003832161E+01 -0.27369356548E+01  0.63778757931E+01  0.51100000000E-03 0.  1.
        -12    1    3    3    0    0 -0.13520890992E+02  0.13210717966E+01 -0.10617361402E+02  0.17242044167E+02  0.00000000000E+00 0.  1.
</event>
<event>
 7    1  0.2937071E-011  0.5052887E+02  0.7816164E-02  0.1300439E+00
        -11   -1    0    0    0    0  0.00000000000E+00  0.00000000000E+00  0.45593999997E+02  0.45594000000E+02  0.51100000000E-03 0.  1.
         11   -1    0    0    0    0 -0.00000000000E+00 -0.00000000000E+00 -0.45593999997E+02  0.45594000000E+02  0.51100000000E-03 0. -1.
    9900012    2    1    2    0    0  0.11885021152E+02  0.36762281674E+02 -0.12666716848E+02  0.50528870676E+02  0.30000032907E+02 0.  0.
        -12    1    1    2    0    0 -0.11885021152E+02 -0.36762281674E+02  0.12666716848E+02  0.40659129324E+02  0.00000000000E+00 0.  1.
         11    1    3    3    0    0 -0.34103100446E+01  0.22012750032E+01 -0.97751668867E+01  0.10584409014E+02  0.51100000000E-03 0. -1.
        -11    1    3    3    0    0  0.55450745689E+01  0.23936118598E+01  0.94674524834E+00  0.61133915739E+01  0.51100000000E-03 0.  1.
         12    1    3    3    0    0  0.97502566274E+01  0.32167394811E+02 -0.38382952099E+01  0.33831070089E+02  0.00000000000E+00 0. -1.
</event>
<event>
 7    1  0.2937071E-011  0.5052884E+02  0.7816164E-02  0.1300439E+00
        -11   -1    0    0    0    0  0.00000000000E+00  0.00000000000E+00  0.45593999997E+02  0.45594000000E+02  0.51100000000E-03 0.  1.
         11   -1    0    0    0    0 -0.00000000000E+00 -0.00000000000E+00 -0.45593999997E+02  0.45594000000E+02  0.51100000000E-03 0. -1.
    9900012    2    1    2    0    0  0.17393757900E+02 -0.36496951172E+02 -0.43124705981E+01  0.50528835456E+02  0.29999925853E+02 0.  0.
        -12    1    1    2    0    0 -0.17393757900E+02  0.36496951172E+02  0.43124705981E+01  0.40659164544E+02  0.00000000000E+00 0.  1.
         11    1    3    3    0    0  0.22577822984E+02 -0.18778451353E+02 -0.44709344346E+01  0.29704841035E+02  0.51100000000E-03 0. -1.
        -11    1    3    3    0    0 -0.18384981947E+01 -0.56467379130E+01 -0.45085714688E+01  0.74560674367E+01  0.51100000000E-03 0.  1.
        -12    1    3    3    0    0 -0.33455668897E+01 -0.12071761906E+02  0.46670353053E+01  0.13367926985E+02  0.00000000000E+00 0.  1.
</event>
<event>
 7    1  0.2937071E-011  0.5052886E+02  0.7816164E-02  0.1300439E+00
        -11   -1    0    0    0    0  0.00000000000E+00  0.00000000000E+00  0.45593999997E+02  0.45594000000E+02  0.51100000000E-03 0.  1.
         11   -1    0    0    0    0 -0.00000000000E+00 -0.00000000000E+00 -0.45593999997E+02  0.45594000000E+02  0.51100000000E-03 0. -1.
    9900012    2    1    2    0    0  0.29352795139E+01 -0.38868174932E+02 -0.11567830577E+02  0.50528860897E+02  0.30000003182E+02 0.  0.
        -12    1    1    2    0    0 -0.29352795139E+01  0.38868174932E+02  0.11567830577E+02  0.40659139103E+02  0.00000000000E+00 0.  1.
         11    1    3    3    0    0  0.74191463733E+01 -0.10163739711E+02 -0.84436985000E+01  0.15153923005E+02  0.51100000000E-03 0. -1.
        -11    1    3    3    0    0  0.12690058182E+01  0.27832431751E+01  0.70131818554E+00  0.31382584019E+01  0.51100000000E-03 0.  1.
        -12    1    3    3    0    0 -0.57528726776E+01 -0.31487678396E+02 -0.38254502623E+01  0.32236679490E+02  0.00000000000E+00 0.  1.
</event>
<event>
 7    1  0.2937071E-011  0.5052885E+02  0.7816164E-02  0.1300439E+00
        -11   -1    0    0    0    0  0.00000000000E+00  0.00000000000E+00  0.45593999997E+02  0.45594000000E+02  0.51100000000E-03 0. -1.
         11   -1    0    0    0    0 -0.00000000000E+00 -0.00000000000E+00 -0.45593999997E+02  0.45594000000E+02  0.51100000000E-03 0.  1.
    9900012    2    1    2    0    0  0.29464885373E+02 -0.27291027446E+02  0.63393279443E+01  0.50528846936E+02  0.29999960746E+02 0.  0.
        -12    1    1    2    0    0 -0.29464885373E+02  0.27291027446E+02 -0.63393279443E+01  0.40659153064E+02  0.00000000000E+00 0.  1.
         11    1    3    3    0    0  0.22215395629E+02 -0.24407394810E+02  0.74339216550E+01  0.33830576640E+02  0.51100000000E-03 0. -1.
        -11    1    3    3    0    0  0.96814143867E+01 -0.63063380346E+01  0.16654640755E+01  0.11673622179E+02  0.51100000000E-03 0.  1.
        -12    1    3    3    0    0 -0.24319246420E+01  0.34227053989E+01 -0.27600577862E+01  0.50246481166E+01  0.00000000000E+00 0.  1.
</event>
<event>
 7    1  0.2937071E-011  0.5052885E+02  0.7816164E-02  0.1300439E+00
        -11   -1    0    0    0    0  0.00000000000E+00  0.00000000000E+00  0.45593999997E+02  0.45594000000E+02  0.51100000000E-03 0. -1.
         11   -1    0    0    0    0 -0.00000000000E+00 -0.00000000000E+00 -0.45593999997E+02  0.45594000000E+02  0.51100000000E-03 0.  1.
    9900012    2    1    2    0    0 -0.15499840506E+02 -0.18886604223E+02  0.32499496672E+02  0.50528853935E+02  0.29999982021E+02 0.  0.
        -12    1    1    2    0    0  0.15499840506E+02  0.18886604223E+02 -0.32499496672E+02  0.40659146065E+02  0.00000000000E+00 0.  1.
         11    1    3    3    0    0  0.17960089875E+01 -0.18822907037E+01  0.26605614129E+01  0.37211898459E+01  0.51100000000E-03 0. -1.
        -11    1    3    3    0    0  0.10335714935E+01  0.24679362084E+01  0.16880775276E+02  0.17091505297E+02  0.51100000000E-03 0.  1.
         12    1    3    3    0    0 -0.18329420987E+02 -0.19472249727E+02  0.12958159984E+02  0.29716158792E+02  0.00000000000E+00 0. -1.
</event>
<event>
 7    1  0.2937071E-011  0.5052887E+02  0.7816164E-02  0.1300439E+00
        -11   -1    0    0    0    0  0.00000000000E+00  0.00000000000E+00  0.45593999997E+02  0.45594000000E+02  0.51100000000E-03 0.  1.
         11   -1    0    0    0    0 -0.00000000000E+00 -0.00000000000E+00 -0.45593999997E+02  0.45594000000E+02  0.51100000000E-03 0. -1.
    9900012    2    1    2    0    0  0.22242989485E+01  0.24839504259E+02 -0.32112563794E+02  0.50528865343E+02  0.30000016696E+02 0.  0.
        -12    1    1    2    0    0 -0.22242989485E+01 -0.24839504259E+02  0.32112563794E+02  0.40659134657E+02  0.00000000000E+00 0.  1.
         11    1    3    3    0    0 -0.73260162320E+01  0.10285344719E+02 -0.19561082767E+02  0.23282929135E+02  0.51100000000E-03 0. -1.
        -11    1    3    3    0    0 -0.29798136083E+01  0.61296744787E+01  0.10841137476E+01  0.69012680889E+01  0.51100000000E-03 0.  1.
         12    1    3    3    0    0  0.12530128789E+02  0.84244850620E+01 -0.13635594774E+02  0.20344668119E+02  0.00000000000E+00 0. -1.
</event>
<event>
 7    1  0.2937071E-011  0.5052886E+02  0.7816164E-02  0.1300439E+00
        -11   -1    0    0    0    0  0.00000000000E+00  0.00000000000E+00  0.45593999997E+02  0.45594000000E+02  0.51100000000E-03 0. -1.
         11   -1    0    0    0    0 -0.00000000000E+00 -0.00000000000E+00 -0.45593999997E+02  0.45594000000E+02  0.51100000000E-03 0.  1.
    9900012    2    1    2    0    0  0.69976744548E+01 -0.27573000842E+02  0.29050435344E+02  0.50528860599E+02  0.30000002276E+02 0.  0.
        -12    1    1    2    0    0 -0.69976744548E+01  0.27573000842E+02 -0.29050435344E+02  0.40659139401E+02  0.00000000000E+00 0.  1.
         11    1    3    3    0    0  0.43750443749E+01 -0.16083995870E+02  0.10750946515E+02  0.19834787311E+02  0.51100000000E-03 0. -1.
        -11    1    3    3    0    0 -0.61530568183E+01 -0.14149764687E+02  0.10596987923E+02  0.18718229142E+02  0.51100000000E-03 0.  1.
        -12    1    3    3    0    0  0.87756868981E+01  0.26607597160E+01  0.77025009051E+01  0.11975844145E+02  0.00000000000E+00 0.  1.
</event>
<event>
 7    1  0.2937071E-011  0.5052885E+02  0.7816164E-02  0.1300439E+00
        -11   -1    0    0    0    0  0.00000000000E+00  0.00000000000E+00  0.45593999997E+02  0.45594000000E+02  0.51100000000E-03 0. -1.
         11   -1    0    0    0    0 -0.00000000000E+00 -0.00000000000E+00 -0.45593999997E+02  0.45594000000E+02  0.51100000000E-03 0.  1.
    9900012    2    1    2    0    0  0.24321865507E+02  0.19511430322E+00  0.32581818493E+02  0.50528854563E+02  0.29999983929E+02 0.  0.
        -12    1    1    2    0    0 -0.24321865507E+02 -0.19511430322E+00 -0.32581818493E+02  0.40659145437E+02  0.00000000000E+00 0.  1.
         11    1    3    3    0    0  0.88327629671E+01  0.80575303608E+01  0.28100212747E+02  0.30537901922E+02  0.51100000000E-03 0. -1.
        -11    1    3    3    0    0  0.85183860726E+01 -0.37983565230E+01  0.68609231833E+01  0.11578543982E+02  0.51100000000E-03 0.  1.
        -12    1    3    3    0    0  0.69707164675E+01 -0.40640595345E+01 -0.23793174367E+01  0.84124086583E+01  0.00000000000E+00 0.  1.
</event>
<event>
 7    1  0.2937071E-011  0.5052888E+02  0.7816164E-02  0.1300439E+00
        -11   -1    0    0    0    0  0.00000000000E+00  0.00000000000E+00  0.45593999997E+02  0.45594000000E+02  0.51100000000E-03 0. -1.
         11   -1    0    0    0    0 -0.00000000000E+00 -0.00000000000E+00 -0.45593999997E+02  0.45594000000E+02  0.51100000000E-03 0.  1.
    9900012    2    1    2    0    0  0.21814291287E+02 -0.32530379436E+02 -0.10912174558E+02  0.50528875019E+02  0.30000046109E+02 0.  0.
        -12    1    1    2    0    0 -0.21814291287E+02  0.32530379436E+02  0.10912174558E+02  0.40659124981E+02  0.00000000000E+00 0.  1.
         11    1    3    3    0    0  0.52107474254E+01 -0.10405479542E+00 -0.22821134595E+00  0.52167803108E+01  0.51100000000E-03 0. -1.
        -11    1    3    3    0    0  0.11053711379E+02 -0.49452533681E+01  0.50986488377E+01  0.13139112845E+02  0.51100000000E-03 0.  1.
        -12    1    3    3    0    0  0.55498324826E+01 -0.27481071273E+02 -0.15782612050E+02  0.32172981864E+02  0.00000000000E+00 0.  1.
</event>
<event>
 7    1  0.2937071E-011  0.5052885E+02  0.7816164E-02  0.1300439E+00
        -11   -1    0    0    0    0  0.00000000000E+00  0.00000000000E+00  0.45593999997E+02  0.45594000000E+02  0.51100000000E-03 0.  1.
         11   -1    0    0    0    0 -0.00000000000E+00 -0.00000000000E+00 -0.45593999997E+02  0.45594000000E+02  0.51100000000E-03 0. -1.
    9900012    2    1    2    0    0  0.19769397334E+02 -0.23640460835E+02 -0.26522928653E+02  0.50528853381E+02  0.29999980336E+02 0.  0.
        -12    1    1    2    0    0 -0.19769397334E+02  0.23640460835E+02  0.26522928653E+02  0.40659146619E+02  0.00000000000E+00 0.  1.
         11    1    3    3    0    0  0.22224687465E+02 -0.82359920317E+01 -0.83865784603E+01  0.25141658581E+02  0.51100000000E-03 0.  1.
        -11    1    3    3    0    0  0.23044723061E+01 -0.12244538935E+01 -0.41921549804E+01  0.49380202093E+01  0.51100000000E-03 0. -1.
        -12    1    3    3    0    0 -0.47597624374E+01 -0.14180014910E+02 -0.13944195213E+02  0.20449174591E+02  0.00000000000E+00 0.  1.
</event>
<event>
 7    1  0.2937071E-011  0.5052886E+02  0.7816164E-02  0.1300439E+00
        -11   -1    0    0    0    0  0.00000000000E+00  0.00000000000E+00  0.45593999997E+02  0.45594000000E+02  0.51100000000E-03 0.  1.
         11   -1    0    0    0    0 -0.00000000000E+00 -0.00000000000E+00 -0.45593999997E+02  0.45594000000E+02  0.51100000000E-03 0. -1.
    9900012    2    1    2    0    0  0.28991114353E+02  0.17993930957E+02  0.22111065022E+02  0.50528862538E+02  0.30000008172E+02 0.  0.
        -12    1    1    2    0    0 -0.28991114353E+02 -0.17993930957E+02 -0.22111065022E+02  0.40659137462E+02  0.00000000000E+00 0.  1.
         11    1    3    3    0    0  0.13263332982E+02  0.16041897372E+02  0.83275629970E+01  0.22418893345E+02  0.51100000000E-03 0. -1.
        -11    1    3    3    0    0  0.11097827519E+02 -0.73159369173E+00 -0.21271026344E+01  0.11323496405E+02  0.51100000000E-03 0.  1.
        -12    1    3    3    0    0  0.46299538524E+01  0.26836272762E+01  0.15910604659E+02  0.16786472788E+02  0.00000000000E+00 0.  1.
</event>
<event>
 7    1  0.2937071E-011  0.5052886E+02  0.7816164E-02  0.1300439E+00
        -11   -1    0    0    0    0  0.00000000000E+00  0.00000000000E+00  0.45593999997E+02  0.45594000000E+02  0.51100000000E-03 0. -1.
         11   -1    0    0    0    0 -0.00000000000E+00 -0.00000000000E+00 -0.45593999997E+02  0.45594000000E+02  0.51100000000E-03 0.  1.
    9900012    2    1    2    0    0  0.88184660084E+01  0.27312621198E+02  0.28799669174E+02  0.50528861249E+02  0.30000004252E+02 0.  0.
        -12    1    1    2    0    0 -0.88184660084E+01 -0.27312621198E+02 -0.28799669174E+02  0.40659138751E+02  0.00000000000E+00 0.  1.
         11    1    3    3    0    0 -0.90453670971E+01  0.11224200631E+02  0.80115383080E+01  0.16492000851E+02  0.51100000000E-03 0. -1.
        -11    1    3    3    0    0  0.43925489021E+00  0.10981022184E+01 -0.15736748862E+01  0.19685594350E+01  0.51100000000E-03 0.  1.
         12    1    3    3    0    0  0.17424578215E+02  0.14990318348E+02  0.22361805753E+02  0.32068300963E+02  0.00000000000E+00 0. -1.
</event>
<event>
 7    1  0.2937071E-011  0.5052886E+02  0.7816164E-02  0.1300439E+00
        -11   -1    0    0    0    0  0.00000000000E+00  0.00000000000E+00  0.45593999997E+02  0.45594000000E+02  0.51100000000E-03 0. -1.
         11   -1    0    0    0    0 -0.00000000000E+00 -0.00000000000E+00 -0.45593999997E+02  0.45594000000E+02  0.51100000000E-03 0.  1.
    9900012    2    1    2    0    0  0.25746805305E+02 -0.47018627232E+01  0.31115271033E+02  0.50528860954E+02  0.30000003356E+02 0.  0.
        -12    1    1    2    0    0 -0.25746805305E+02  0.47018627232E+01 -0.31115271033E+02  0.40659139046E+02  0.00000000000E+00 0.  1.
         11    1    3    3    0    0  0.15129716628E+02 -0.11620735271E+02  0.96778216340E+01  0.21391821926E+02  0.51100000000E-03 0. -1.
        -11    1    3    3    0    0 -0.88295720149E+00 -0.33886973791E+01  0.12463677766E+01  0.37170305679E+01  0.51100000000E-03 0.  1.
         12    1    3    3    0    0  0.11500045879E+02  0.10307569927E+02  0.20191081622E+02  0.25420008460E+02  0.00000000000E+00 0. -1.
</event>
<event>
 7    1  0.2937071E-011  0.5052892E+02  0.7816164E-02  0.1300439E+00
        -11   -1    0    0    0    0  0.00000000000E+00  0.00000000000E+00  0.45593999997E+02  0.45594000000E+02  0.51100000000E-03 0.  1.
         11   -1    0    0    0    0 -0.00000000000E+00 -0.00000000000E+00 -0.45593999997E+02  0.45594000000E+02  0.51100000000E-03 0. -1.
    9900012    2    1    2    0    0  0.17115591619E+02  0.29921110909E+02 -0.21562566308E+02  0.50528922043E+02  0.30000189042E+02 0.  0.
        -12    1    1    2    0    0 -0.17115591619E+02 -0.29921110909E+02  0.21562566308E+02  0.40659077957E+02  0.00000000000E+00 0.  1.
         11    1    3    3    0    0  0.78706627669E+01  0.22961778312E+02 -0.20516515346E+02  0.31782353560E+02  0.51100000000E-03 0. -1.
        -11    1    3    3    0    0  0.11831190750E+02  0.92777173847E+01 -0.19410240120E+01  0.15159838024E+02  0.51100000000E-03 0.  1.
        -12    1    3    3    0    0 -0.25862618976E+01 -0.23183847878E+01  0.89497304981E+00  0.35867304593E+01  0.00000000000E+00 0.  1.
</event>
<event>
 7    1  0.2937071E-011  0.5052894E+02  0.7816164E-02  0.1300439E+00
        -11   -1    0    0    0    0  0.00000000000E+00  0.00000000000E+00  0.45593999997E+02  0.45594000000E+02  0.51100000000E-03 0. -1.
         11   -1    0    0    0    0 -0.00000000000E+00 -0.00000000000E+00 -0.45593999997E+02  0.45594000000E+02  0.51100000000E-03 0.  1.
    9900012    2    1    2    0    0  0.22927464407E+01  0.38656397895E+02  0.12392956033E+02  0.50528940202E+02  0.30000244237E+02 0.  0.
        -12    1    1    2    0    0 -0.22927464407E+01 -0.38656397895E+02 -0.12392956033E+02  0.40659059798E+02  0.00000000000E+00 0.  1.
         11    1    3    3    0    0  0.11580715451E+01  0.11015146411E+02  0.30321714658E+01  0.11483407344E+02  0.51100000000E-03 0. -1.
        -11    1    3    3    0    0 -0.94412704793E+00  0.21205187663E+02 -0.61709945434E+01  0.22105034124E+02  0.51100000000E-03 0.  1.
        -12    1    3    3    0    0  0.20788019435E+01  0.64360638201E+01  0.15531779111E+02  0.16940498734E+02  0.00000000000E+00 0.  1.
</event>
<event>
 7    1  0.2937071E-011  0.5052886E+02  0.7816164E-02  0.1300439E+00
        -11   -1    0    0    0    0  0.00000000000E+00  0.00000000000E+00  0.45593999997E+02  0.45594000000E+02  0.51100000000E-03 0. -1.
         11   -1    0    0    0    0 -0.00000000000E+00 -0.00000000000E+00 -0.45593999997E+02  0.45594000000E+02  0.51100000000E-03 0.  1.
    9900012    2    1    2    0    0  0.17719933002E+02 -0.13973584184E+02  0.33821718946E+02  0.50528858924E+02  0.29999997186E+02 0.  0.
        -12    1    1    2    0    0 -0.17719933002E+02  0.13973584184E+02 -0.33821718946E+02  0.40659141076E+02  0.00000000000E+00 0.  1.
         11    1    3    3    0    0  0.22736483716E-01 -0.42310263500E+01  0.16280280990E+02  0.16821107285E+02  0.51100000000E-03 0. -1.
        -11    1    3    3    0    0  0.98906780050E+00  0.43512744536E+01  0.93581309445E+01  0.10367567676E+02  0.51100000000E-03 0.  1.
         12    1    3    3    0    0  0.16708128717E+02 -0.14093832287E+02  0.81833070123E+01  0.23340183963E+02  0.00000000000E+00 0. -1.
</event>
<event>
 7    1  0.2937071E-011  0.5052886E+02  0.7816164E-02  0.1300439E+00
        -11   -1    0    0    0    0  0.00000000000E+00  0.00000000000E+00  0.45593999997E+02  0.45594000000E+02  0.51100000000E-03 0. -1.
         11   -1    0    0    0    0 -0.00000000000E+00 -0.00000000000E+00 -0.45593999997E+02  0.45594000000E+02  0.51100000000E-03 0.  1.
    9900012    2    1    2    0    0  0.25929888697E+01  0.37047326217E+02  0.16551058853E+02  0.50528861787E+02  0.30000005887E+02 0.  0.
        -12    1    1    2    0    0 -0.25929888697E+01 -0.37047326217E+02 -0.16551058853E+02  0.40659138213E+02  0.00000000000E+00 0.  1.
         11    1    3    3    0    0 -0.28983893645E+01  0.26841378662E+01  0.41604687456E+01  0.57371384363E+01  0.51100000000E-03 0. -1.
        -11    1    3    3    0    0  0.93903949004E+00  0.24458041877E+02  0.19907829014E+02  0.31549948715E+02  0.51100000000E-03 0.  1.
        -12    1    3    3    0    0  0.45523387441E+01  0.99051464736E+01 -0.75172389069E+01  0.13241774635E+02  0.00000000000E+00 0.  1.
</event>
<event>
 7    1  0.2937071E-011  0.5052886E+02  0.7816164E-02  0.1300439E+00
        -11   -1    0    0    0    0  0.00000000000E+00  0.00000000000E+00  0.45593999997E+02  0.45594000000E+02  0.51100000000E-03 0.  1.
         11   -1    0    0    0    0 -0.00000000000E+00 -0.00000000000E+00 -0.45593999997E+02  0.45594000000E+02  0.51100000000E-03 0. -1.
    9900012    2    1    2    0    0  0.38738498554E+01  0.26330977631E+01 -0.40388434297E+02  0.50528861526E+02  0.30000005093E+02 0.  0.
        -12    1    1    2    0    0 -0.38738498554E+01 -0.26330977631E+01  0.40388434297E+02  0.40659138474E+02  0.00000000000E+00 0.  1.
         11    1    3    3    0    0 -0.35114701409E+01 -0.59235511295E+01 -0.23673183405E+02  0.24654380814E+02  0.51100000000E-03 0. -1.
        -11    1    3    3    0    0 -0.11655602994E+00  0.69410164958E-01 -0.14289566941E+02  0.14290210870E+02  0.51100000000E-03 0.  1.
        -12    1    3    3    0    0  0.75018760263E+01  0.84872387277E+01 -0.24256839503E+01  0.11584269841E+02  0.00000000000E+00 0.  1.
</event>
<event>
 7    1  0.2937071E-011  0.5052886E+02  0.7816164E-02  0.1300439E+00
        -11   -1    0    0    0    0  0.00000000000E+00  0.00000000000E+00  0.45593999997E+02  0.45594000000E+02  0.51100000000E-03 0.  1.
         11   -1    0    0    0    0 -0.00000000000E+00 -0.00000000000E+00 -0.45593999997E+02  0.45594000000E+02  0.51100000000E-03 0. -1.
    9900012    2    1    2    0    0  0.18994975020E+02  0.28033087598E+02 -0.22505607565E+02  0.50528862674E+02  0.30000008583E+02 0.  0.
        -12    1    1    2    0    0 -0.18994975020E+02 -0.28033087598E+02  0.22505607565E+02  0.40659137326E+02  0.00000000000E+00 0.  1.
         11    1    3    3    0    0  0.60452770049E+01  0.68683804841E+01 -0.13978436158E+02  0.16706786113E+02  0.51100000000E-03 0. -1.
        -11    1    3    3    0    0  0.83750070642E+01  0.90044983529E+01 -0.14926236659E+02  0.19339448673E+02  0.51100000000E-03 0.  1.
        -12    1    3    3    0    0  0.45746909505E+01  0.12160208761E+02  0.63990652533E+01  0.14482627887E+02  0.00000000000E+00 0.  1.
</event>
<event>
 7    1  0.2937071E-011  0.5052885E+02  0.7816164E-02  0.1300439E+00
        -11   -1    0    0    0    0  0.00000000000E+00  0.00000000000E+00  0.45593999997E+02  0.45594000000E+02  0.51100000000E-03 0.  1.
         11   -1    0    0    0    0 -0.00000000000E+00 -0.00000000000E+00 -0.45593999997E+02  0.45594000000E+02  0.51100000000E-03 0. -1.
    9900012    2    1    2    0    0  0.17804411695E+02 -0.36538503637E+02  0.10522341571E+01  0.50528849486E+02  0.29999968497E+02 0.  0.
        -12    1    1    2    0    0 -0.17804411695E+02  0.36538503637E+02 -0.10522341571E+01  0.40659150514E+02  0.00000000000E+00 0.  1.
         11    1    3    3    0    0  0.17650760858E+02 -0.26272867235E+02  0.27174957046E+00  0.31652594834E+02  0.51100000000E-03 0. -1.
        -11    1    3    3    0    0  0.69079527508E+01 -0.98588360619E+01  0.11933490588E+01  0.12097129492E+02  0.51100000000E-03 0.  1.
        -12    1    3    3    0    0 -0.67543019142E+01 -0.40680034008E+00 -0.41286447211E+00  0.67791251602E+01  0.00000000000E+00 0.  1.
</event>
<event>
 7    1  0.2937071E-011  0.5052886E+02  0.7816164E-02  0.1300439E+00
        -11   -1    0    0    0    0  0.00000000000E+00  0.00000000000E+00  0.45593999997E+02  0.45594000000E+02  0.51100000000E-03 0.  1.
         11   -1    0    0    0    0 -0.00000000000E+00 -0.00000000000E+00 -0.45593999997E+02  0.45594000000E+02  0.51100000000E-03 0. -1.
    9900012    2    1    2    0    0 -0.12688274097E+01 -0.31287254893E+02  0.25935751858E+02  0.50528862451E+02  0.30000007906E+02 0.  0.
        -12    1    1    2    0    0  0.12688274097E+01  0.31287254893E+02 -0.25935751858E+02  0.40659137549E+02  0.00000000000E+00 0.  1.
         11    1    3    3    0    0 -0.62781873322E+01 -0.23398754009E+02  0.24497584772E+01  0.24349920785E+02  0.51100000000E-03 0. -1.
        -11    1    3    3    0    0  0.47948849002E+00 -0.69985037198E-02 -0.39816943093E+00  0.62329555426E+00  0.51100000000E-03 0.  1.
        -12    1    3    3    0    0  0.45298714324E+01 -0.78815023803E+01  0.23884162812E+02  0.25555646112E+02  0.00000000000E+00 0.  1.
</event>
<event>
 7    1  0.2937071E-011  0.5052885E+02  0.7816164E-02  0.1300439E+00
        -11   -1    0    0    0    0  0.00000000000E+00  0.00000000000E+00  0.45593999997E+02  0.45594000000E+02  0.51100000000E-03 0.  1.
         11   -1    0    0    0    0 -0.00000000000E+00 -0.00000000000E+00 -0.45593999997E+02  0.45594000000E+02  0.51100000000E-03 0. -1.
    9900012    2    1    2    0    0 -0.71888275583E+01 -0.10099240878E+02 -0.38723277335E+02  0.50528854467E+02  0.29999983637E+02 0.  0.
        -12    1    1    2    0    0  0.71888275583E+01  0.10099240878E+02  0.38723277335E+02  0.40659145533E+02  0.00000000000E+00 0.  1.
         11    1    3    3    0    0 -0.76595004133E+01 -0.40523027936E+01 -0.21550700370E+02  0.23227608384E+02  0.51100000000E-03 0. -1.
        -11    1    3    3    0    0  0.39653619532E+01  0.41042259021E+01 -0.15395612983E+02  0.16419307691E+02  0.51100000000E-03 0.  1.
        -12    1    3    3    0    0 -0.34946890982E+01 -0.10151163987E+02 -0.17769639813E+01  0.10881938392E+02  0.00000000000E+00 0.  1.
</event>
<event>
 7    1  0.2937071E-011  0.5052887E+02  0.7816164E-02  0.1300439E+00
        -11   -1    0    0    0    0  0.00000000000E+00  0.00000000000E+00  0.45593999997E+02  0.45594000000E+02  0.51100000000E-03 0.  1.
         11   -1    0    0    0    0 -0.00000000000E+00 -0.00000000000E+00 -0.45593999997E+02  0.45594000000E+02  0.51100000000E-03 0. -1.
    9900012    2    1    2    0    0  0.70255636419E+01  0.99004213156E+01 -0.38804483134E+02  0.50528870668E+02  0.30000032883E+02 0.  0.
        -12    1    1    2    0    0 -0.70255636419E+01 -0.99004213156E+01  0.38804483134E+02  0.40659129332E+02  0.00000000000E+00 0.  1.
         11    1    3    3    0    0 -0.19343645724E+01  0.22963924251E+01 -0.13007942011E+02  0.13349971539E+02  0.51100000000E-03 0. -1.
        -11    1    3    3    0    0  0.50198393263E+00 -0.63737792132E+00 -0.25348193554E+02  0.25361174168E+02  0.51100000000E-03 0.  1.
        -12    1    3    3    0    0  0.84579442816E+01  0.82414068118E+01 -0.44834756933E+00  0.11817724961E+02  0.00000000000E+00 0.  1.
</event>
<event>
 7    1  0.2937071E-011  0.5052886E+02  0.7816164E-02  0.1300439E+00
        -11   -1    0    0    0    0  0.00000000000E+00  0.00000000000E+00  0.45593999997E+02  0.45594000000E+02  0.51100000000E-03 0. -1.
         11   -1    0    0    0    0 -0.00000000000E+00 -0.00000000000E+00 -0.45593999997E+02  0.45594000000E+02  0.51100000000E-03 0.  1.
    9900012    2    1    2    0    0 -0.17646332656E+01  0.22724923271E+02  0.33669418092E+02  0.50528858557E+02  0.29999996070E+02 0.  0.
        -12    1    1    2    0    0  0.17646332656E+01 -0.22724923271E+02 -0.33669418092E+02  0.40659141443E+02  0.00000000000E+00 0.  1.
         11    1    3    3    0    0  0.32966036077E+00  0.19264666075E+02  0.15051579376E+02  0.24449664147E+02  0.51100000000E-03 0. -1.
        -11    1    3    3    0    0 -0.94342383177E+01  0.48262620792E+01  0.89964295052E+01  0.13900841787E+02  0.51100000000E-03 0.  1.
        -12    1    3    3    0    0  0.73399446913E+01 -0.13660048832E+01  0.96214092100E+01  0.12178352623E+02  0.00000000000E+00 0.  1.
</event>
<event>
 7    1  0.2937071E-011  0.5052886E+02  0.7816164E-02  0.1300439E+00
        -11   -1    0    0    0    0  0.00000000000E+00  0.00000000000E+00  0.45593999997E+02  0.45594000000E+02  0.51100000000E-03 0.  1.
         11   -1    0    0    0    0 -0.00000000000E+00 -0.00000000000E+00 -0.45593999997E+02  0.45594000000E+02  0.51100000000E-03 0. -1.
    9900012    2    1    2    0    0  0.15862769556E+02 -0.30795163739E+02 -0.21288402005E+02  0.50528860467E+02  0.30000001874E+02 0.  0.
        -12    1    1    2    0    0 -0.15862769556E+02  0.30795163739E+02  0.21288402005E+02  0.40659139533E+02  0.00000000000E+00 0.  1.
         11    1    3    3    0    0 -0.21702088927E+01 -0.20423983847E+02 -0.55967904978E+01  0.21287860084E+02  0.51100000000E-03 0.  1.
        -11    1    3    3    0    0 -0.18777777265E+00 -0.55919496307E+01 -0.53994338768E+01  0.77755416284E+01  0.51100000000E-03 0. -1.
         12    1    3    3    0    0  0.18220756221E+02 -0.47792302614E+01 -0.10292177630E+02  0.21465458755E+02  0.00000000000E+00 0. -1.
</event>
<event>
 7    1  0.2937071E-011  0.5052887E+02  0.7816164E-02  0.1300439E+00
        -11   -1    0    0    0    0  0.00000000000E+00  0.00000000000E+00  0.45593999997E+02  0.45594000000E+02  0.51100000000E-03 0.  1.
         11   -1    0    0    0    0 -0.00000000000E+00 -0.00000000000E+00 -0.45593999997E+02  0.45594000000E+02  0.51100000000E-03 0. -1.
    9900012    2    1    2    0    0  0.99139900205E+01 -0.19169546991E+02 -0.34458754559E+02  0.50528874386E+02  0.30000044184E+02 0.  0.
        -12    1    1    2    0    0 -0.99139900205E+01  0.19169546991E+02  0.34458754559E+02  0.40659125614E+02  0.00000000000E+00 0.  1.
         11    1    3    3    0    0 -0.63039959857E+00 -0.11582664829E+00  0.91955665900E+00  0.11208943646E+01  0.51100000000E-03 0. -1.
        -11    1    3    3    0    0 -0.28482695066E+01 -0.20588732872E+02 -0.24160278410E+02  0.31870481853E+02  0.51100000000E-03 0.  1.
         12    1    3    3    0    0  0.13392659126E+02  0.15350125295E+01 -0.11218032808E+02  0.17537498168E+02  0.00000000000E+00 0. -1.
</event>
<event>
 7    1  0.2937071E-011  0.5052886E+02  0.7816164E-02  0.1300439E+00
        -11   -1    0    0    0    0  0.00000000000E+00  0.00000000000E+00  0.45593999997E+02  0.45594000000E+02  0.51100000000E-03 0.  1.
         11   -1    0    0    0    0 -0.00000000000E+00 -0.00000000000E+00 -0.45593999997E+02  0.45594000000E+02  0.51100000000E-03 0. -1.
    9900012    2    1    2    0    0 -0.12972047320E+02 -0.38333270425E+02  0.39309162730E+01  0.50528859135E+02  0.29999997827E+02 0.  0.
        -12    1    1    2    0    0  0.12972047320E+02  0.38333270425E+02 -0.39309162730E+01  0.40659140865E+02  0.00000000000E+00 0.  1.
         11    1    3    3    0    0  0.13602376067E+01  0.58583158079E+00 -0.11584361597E+01  0.18802711466E+01  0.51100000000E-03 0. -1.
        -11    1    3    3    0    0 -0.28215027763E+01 -0.72242012255E+01  0.11941532808E+02  0.14239036741E+02  0.51100000000E-03 0.  1.
        -12    1    3    3    0    0 -0.11510782150E+02 -0.31694900780E+02 -0.68521803749E+01  0.34409551247E+02  0.00000000000E+00 0.  1.
</event>
<event>
 7    1  0.2937071E-011  0.5052887E+02  0.7816164E-02  0.1300439E+00
        -11   -1    0    0    0    0  0.00000000000E+00  0.00000000000E+00  0.45593999997E+02  0.45594000000E+02  0.51100000000E-03 0. -1.
         11   -1    0    0    0    0 -0.00000000000E+00 -0.00000000000E+00 -0.45593999997E+02  0.45594000000E+02  0.51100000000E-03 0.  1.
    9900012    2    1    2    0    0  0.19739178235E+02 -0.41658110422E+00  0.35543725154E+02  0.50528867015E+02  0.30000021780E+02 0.  0.
        -12    1    1    2    0    0 -0.19739178235E+02  0.41658110422E+00 -0.35543725154E+02  0.40659132985E+02  0.00000000000E+00 0.  1.
         11    1    3    3    0    0  0.14772187191E+02  0.38434622883E+01  0.16813724926E+02  0.22708832267E+02  0.51100000000E-03 0. -1.
        -11    1    3    3    0    0  0.27644306348E+01 -0.12095638746E+02  0.11957644925E+02  0.17231709893E+02  0.51100000000E-03 0.  1.
         12    1    3    3    0    0  0.22025604093E+01  0.78355953536E+01  0.67723553029E+01  0.10588324856E+02  0.00000000000E+00 0. -1.
</event>
<event>
 7    1  0.2937071E-011  0.5052886E+02  0.7816164E-02  0.1300439E+00
        -11   -1    0    0    0    0  0.00000000000E+00  0.00000000000E+00  0.45593999997E+02  0.45594000000E+02  0.51100000000E-03 0. -1.
         11   -1    0    0    0    0 -0.00000000000E+00 -0.00000000000E+00 -0.45593999997E+02  0.45594000000E+02  0.51100000000E-03 0.  1.
    9900012    2    1    2    0    0 -0.11358219717E+02  0.21185128708E+02  0.32792476305E+02  0.50528864056E+02  0.30000012785E+02 0.  0.
        -12    1    1    2    0    0  0.11358219717E+02 -0.21185128708E+02 -0.32792476305E+02  0.40659135944E+02  0.00000000000E+00 0.  1.
         11    1    3    3    0    0 -0.12058209175E+02  0.72770676177E+01  0.10593421294E+02  0.17623186335E+02  0.51100000000E-03 0. -1.
        -11    1    3    3    0    0  0.21975321944E+01  0.15881901337E+02  0.24659753306E+02  0.29413727597E+02  0.51100000000E-03 0.  1.
         12    1    3    3    0    0 -0.14975427356E+01 -0.19738402468E+01 -0.24606982949E+01  0.34919501233E+01  0.00000000000E+00 0. -1.
</event>
<event>
 7    1  0.2937071E-011  0.5052886E+02  0.7816164E-02  0.1300439E+00
        -11   -1    0    0    0    0  0.00000000000E+00  0.00000000000E+00  0.45593999997E+02  0.45594000000E+02  0.51100000000E-03 0.  1.
         11   -1    0    0    0    0 -0.00000000000E+00 -0.00000000000E+00 -0.45593999997E+02  0.45594000000E+02  0.51100000000E-03 0. -1.
    9900012    2    1    2    0    0  0.74019122441E+01 -0.14453687156E+02 -0.37275576749E+02  0.50528855896E+02  0.29999987983E+02 0.  0.
        -12    1    1    2    0    0 -0.74019122441E+01  0.14453687156E+02  0.37275576749E+02  0.40659144104E+02  0.00000000000E+00 0.  1.
         11    1    3    3    0    0  0.95876454318E+01 -0.15666600434E+02 -0.41239520751E+02  0.45144915396E+02  0.51100000000E-03 0. -1.
        -11    1    3    3    0    0 -0.94716143204E+00  0.11474709339E+01  0.30276493238E+00  0.15183778146E+01  0.51100000000E-03 0.  1.
         12    1    3    3    0    0 -0.12385717557E+01  0.65442343525E-01  0.36611790701E+01  0.38655626857E+01  0.00000000000E+00 0. -1.
</event>
<event>
 7    1  0.2937071E-011  0.5052886E+02  0.7816164E-02  0.1300439E+00
        -11   -1    0    0    0    0  0.00000000000E+00  0.00000000000E+00  0.45593999997E+02  0.45594000000E+02  0.51100000000E-03 0. -1.
         11   -1    0    0    0    0 -0.00000000000E+00 -0.00000000000E+00 -0.45593999997E+02  0.45594000000E+02  0.51100000000E-03 0.  1.
    9900012    2    1    2    0    0  0.10029450314E+02  0.26994385285E+01  0.39310159851E+02  0.50528861919E+02  0.30000006288E+02 0.  0.
        -12    1    1    2    0    0 -0.10029450314E+02 -0.26994385285E+01 -0.39310159851E+02  0.40659138081E+02  0.00000000000E+00 0.  1.
         11    1    3    3    0    0  0.71013067379E+01  0.97668671322E+01  0.16708999014E+02  0.20615792473E+02  0.51100000000E-03 0. -1.
        -11    1    3    3    0    0 -0.12272913476E+01  0.35789693884E+01  0.16558574511E+02  0.16985336500E+02  0.51100000000E-03 0.  1.
         12    1    3    3    0    0  0.41554349236E+01 -0.10646397992E+02  0.60425863267E+01  0.12927732946E+02  0.00000000000E+00 0. -1.
</event>
<event>
 7    1  0.2937071E-011  0.5052886E+02  0.7816164E-02  0.1300439E+00
        -11   -1    0    0    0    0  0.00000000000E+00  0.00000000000E+00  0.45593999997E+02  0.45594000000E+02  0.51100000000E-03 0.  1.
         11   -1    0    0    0    0 -0.00000000000E+00 -0.00000000000E+00 -0.45593999997E+02  0.45594000000E+02  0.51100000000E-03 0. -1.
    9900012    2    1    2    0    0  0.29037585658E+01  0.11438506048E+02 -0.38908794712E+02  0.50528861540E+02  0.30000005136E+02 0.  0.
        -12    1    1    2    0    0 -0.29037585658E+01 -0.11438506048E+02  0.38908794712E+02  0.40659138460E+02  0.00000000000E+00 0.  1.
         11    1    3    3    0    0 -0.85468713527E+01  0.14937339319E+01 -0.27711890335E+02  0.29038407621E+02  0.51100000000E-03 0. -1.
        -11    1    3    3    0    0  0.83655522383E+01  0.30629455978E+01 -0.10713145193E+02  0.13933254472E+02  0.51100000000E-03 0.  1.
        -12    1    3    3    0    0  0.30850776802E+01  0.68818265187E+01 -0.48375918348E+00  0.75571994465E+01  0.00000000000E+00 0.  1.
</event>
<event>
 7    1  0.2937071E-011  0.5052886E+02  0.7816164E-02  0.1300439E+00
        -11   -1    0    0    0    0  0.00000000000E+00  0.00000000000E+00  0.45593999997E+02  0.45594000000E+02  0.51100000000E-03 0.  1.
         11   -1    0    0    0    0 -0.00000000000E+00 -0.00000000000E+00 -0.45593999997E+02  0.45594000000E+02  0.51100000000E-03 0. -1.
    9900012    2    1    2    0    0  0.77271934327E+01  0.20592061296E+02 -0.34196828236E+02  0.50528861197E+02  0.30000004095E+02 0.  0.
        -12    1    1    2    0    0 -0.77271934327E+01 -0.20592061296E+02  0.34196828236E+02  0.40659138803E+02  0.00000000000E+00 0.  1.
         11    1    3    3    0    0  0.40130352491E+01  0.65195056194E+01 -0.89740040457E+01  0.11795810880E+02  0.51100000000E-03 0. -1.
        -11    1    3    3    0    0  0.13235316305E+02  0.35502745950E+01 -0.18521940635E+02  0.23039972494E+02  0.51100000000E-03 0.  1.
         12    1    3    3    0    0 -0.95211581215E+01  0.10522281082E+02 -0.67008835558E+01  0.15693077823E+02  0.00000000000E+00 0. -1.
</event>
<event>
 7    1  0.2937071E-011  0.5052886E+02  0.7816164E-02  0.1300439E+00
        -11   -1    0    0    0    0  0.00000000000E+00  0.00000000000E+00  0.45593999997E+02  0.45594000000E+02  0.51100000000E-03 0.  1.
         11   -1    0    0    0    0 -0.00000000000E+00 -0.00000000000E+00 -0.45593999997E+02  0.45594000000E+02  0.51100000000E-03 0. -1.
    9900012    2    1    2    0    0  0.21759122416E+02  0.16619933850E+01 -0.34306612167E+02  0.50528864881E+02  0.30000015291E+02 0.  0.
        -12    1    1    2    0    0 -0.21759122416E+02 -0.16619933850E+01  0.34306612167E+02  0.40659135119E+02  0.00000000000E+00 0.  1.
         11    1    3    3    0    0  0.25376731059E+02  0.12483510702E+01 -0.21446489226E+02  0.33248891109E+02  0.51100000000E-03 0. -1.
        -11    1    3    3    0    0 -0.47313757569E+00 -0.50061108683E+01 -0.39858461950E+01  0.64165392029E+01  0.51100000000E-03 0.  1.
        -12    1    3    3    0    0 -0.31444710674E+01  0.54197531830E+01 -0.88742767459E+01  0.10863434568E+02  0.00000000000E+00 0.  1.
</event>
<event>
 7    1  0.2937071E-011  0.5052887E+02  0.7816164E-02  0.1300439E+00
        -11   -1    0    0    0    0  0.00000000000E+00  0.00000000000E+00  0.45593999997E+02  0.45594000000E+02  0.51100000000E-03 0. -1.
         11   -1    0    0    0    0 -0.00000000000E+00 -0.00000000000E+00 -0.45593999997E+02  0.45594000000E+02  0.51100000000E-03 0.  1.
    9900012    2    1    2    0    0  0.19792928379E+01 -0.40433851806E+02 -0.37882607584E+01  0.50528869517E+02  0.30000029385E+02 0.  0.
        -12    1    1    2    0    0 -0.19792928379E+01  0.40433851806E+02  0.37882607584E+01  0.40659130483E+02  0.00000000000E+00 0.  1.
         11    1    3    3    0    0 -0.97145167152E+00 -0.92395397299E+00  0.24303303156E+01  0.27755927292E+01  0.51100000000E-03 0. -1.
        -11    1    3    3    0    0 -0.82020515790E+01 -0.64888823433E+01 -0.75103920763E+01  0.12875761475E+02  0.51100000000E-03 0.  1.
         12    1    3    3    0    0  0.11152796088E+02 -0.33021015490E+02  0.12918010023E+01  0.34877515313E+02  0.00000000000E+00 0. -1.
</event>
<event>
 7    1  0.2937071E-011  0.5052887E+02  0.7816164E-02  0.1300439E+00
        -11   -1    0    0    0    0  0.00000000000E+00  0.00000000000E+00  0.45593999997E+02  0.45594000000E+02  0.51100000000E-03 0.  1.
         11   -1    0    0    0    0 -0.00000000000E+00 -0.00000000000E+00 -0.45593999997E+02  0.45594000000E+02  0.51100000000E-03 0. -1.
    9900012    2    1    2    0    0  0.51588150312E+01 -0.38335970283E+01 -0.40147913876E+02  0.50528870308E+02  0.30000031790E+02 0.  0.
        -12    1    1    2    0    0 -0.51588150312E+01  0.38335970283E+01  0.40147913876E+02  0.40659129692E+02  0.00000000000E+00 0.  1.
         11    1    3    3    0    0  0.70794646662E+01 -0.96579620902E+01 -0.33031810723E+02  0.35135389162E+02  0.51100000000E-03 0. -1.
        -11    1    3    3    0    0  0.10430375059E+01 -0.24671066439E+01 -0.59323835603E+01  0.65090488858E+01  0.51100000000E-03 0.  1.
        -12    1    3    3    0    0 -0.29636871409E+01  0.82914717058E+01 -0.11837195927E+01  0.88844322605E+01  0.00000000000E+00 0.  1.
</event>
<event>
 7    1  0.2937071E-011  0.5052886E+02  0.7816164E-02  0.1300439E+00
        -11   -1    0    0    0    0  0.00000000000E+00  0.00000000000E+00  0.45593999997E+02  0.45594000000E+02  0.51100000000E-03 0.  1.
         11   -1    0    0    0    0 -0.00000000000E+00 -0.00000000000E+00 -0.45593999997E+02  0.45594000000E+02  0.51100000000E-03 0. -1.
    9900012    2    1    2    0    0  0.18903796477E+02  0.11752048313E+02 -0.34025009991E+02  0.50528862458E+02  0.30000007926E+02 0.  0.
        -12    1    1    2    0    0 -0.18903796477E+02 -0.11752048313E+02  0.34025009991E+02  0.40659137542E+02  0.00000000000E+00 0.  1.
         11    1    3    3    0    0  0.53705138611E-01  0.48771933333E+01 -0.24697450308E+02  0.25174470224E+02  0.51100000000E-03 0. -1.
        -11    1    3    3    0    0  0.84623946398E+01 -0.84594085478E+00 -0.90354394122E+01  0.12408340123E+02  0.51100000000E-03 0.  1.
        -12    1    3    3    0    0  0.10387696698E+02  0.77207958344E+01 -0.29212027083E+00  0.12946052111E+02  0.00000000000E+00 0.  1.
</event>
<event>
 7    1  0.2937071E-011  0.5052883E+02  0.7816164E-02  0.1300439E+00
        -11   -1    0    0    0    0  0.00000000000E+00  0.00000000000E+00  0.45593999997E+02  0.45594000000E+02  0.51100000000E-03 0.  1.
         11   -1    0    0    0    0 -0.00000000000E+00 -0.00000000000E+00 -0.45593999997E+02  0.45594000000E+02  0.51100000000E-03 0. -1.
    9900012    2    1    2    0    0  0.32764936235E+02  0.83739026467E+01 -0.22572219595E+02  0.50528826503E+02  0.29999898638E+02 0.  0.
        -12    1    1    2    0    0 -0.32764936235E+02 -0.83739026467E+01  0.22572219595E+02  0.40659173497E+02  0.00000000000E+00 0.  1.
         11    1    3    3    0    0  0.24867142090E+01 -0.27602374457E+01  0.35803542403E+01  0.51596119100E+01  0.51100000000E-03 0.  1.
        -11    1    3    3    0    0  0.44149331797E+01  0.92843644432E+01 -0.32737448988E+01  0.10789275417E+02  0.51100000000E-03 0. -1.
         12    1    3    3    0    0  0.25863288847E+02  0.18497756492E+01 -0.22878828937E+02  0.34579939176E+02  0.00000000000E+00 0. -1.
</event>
<event>
 7    1  0.2937071E-011  0.5052886E+02  0.7816164E-02  0.1300439E+00
        -11   -1    0    0    0    0  0.00000000000E+00  0.00000000000E+00  0.45593999997E+02  0.45594000000E+02  0.51100000000E-03 0.  1.
         11   -1    0    0    0    0 -0.00000000000E+00 -0.00000000000E+00 -0.45593999997E+02  0.45594000000E+02  0.51100000000E-03 0. -1.
    9900012    2    1    2    0    0  0.11272758051E+02 -0.22421424109E+02 -0.31990161371E+02  0.50528858867E+02  0.29999997012E+02 0.  0.
        -12    1    1    2    0    0 -0.11272758051E+02  0.22421424109E+02  0.31990161371E+02  0.40659141133E+02  0.00000000000E+00 0.  1.
         11    1    3    3    0    0  0.73305126013E+01 -0.12578291525E+02 -0.12830105536E+02  0.19405191084E+02  0.51100000000E-03 0. -1.
        -11    1    3    3    0    0  0.31579751382E+01 -0.14501564397E+02 -0.41835671219E+01  0.15419805805E+02  0.51100000000E-03 0.  1.
        -12    1    3    3    0    0  0.78427031109E+00  0.46584318126E+01 -0.14976488712E+02  0.15703861978E+02  0.00000000000E+00 0.  1.
</event>
<event>
 7    1  0.2937071E-011  0.5052885E+02  0.7816164E-02  0.1300439E+00
        -11   -1    0    0    0    0  0.00000000000E+00  0.00000000000E+00  0.45593999997E+02  0.45594000000E+02  0.51100000000E-03 0.  1.
         11   -1    0    0    0    0 -0.00000000000E+00 -0.00000000000E+00 -0.45593999997E+02  0.45594000000E+02  0.51100000000E-03 0. -1.
    9900012    2    1    2    0    0 -0.20801140121E+02 -0.34883021050E+02 -0.19115208866E+01  0.50528849738E+02  0.29999969264E+02 0.  0.
        -12    1    1    2    0    0  0.20801140121E+02  0.34883021050E+02  0.19115208866E+01  0.40659150262E+02  0.00000000000E+00 0.  1.
         11    1    3    3    0    0 -0.21631726329E+00 -0.18331030592E+02  0.59084089997E+01  0.19260913085E+02  0.51100000000E-03 0. -1.
        -11    1    3    3    0    0 -0.36058480553E+01 -0.31889925512E+01  0.43340439969E+01  0.64773259388E+01  0.51100000000E-03 0.  1.
         12    1    3    3    0    0 -0.16978974802E+02 -0.13362997907E+02 -0.12153973883E+02  0.24790610714E+02  0.00000000000E+00 0. -1.
</event>
<event>
 7    1  0.2937071E-011  0.5052885E+02  0.7816164E-02  0.1300439E+00
        -11   -1    0    0    0    0  0.00000000000E+00  0.00000000000E+00  0.45593999997E+02  0.45594000000E+02  0.51100000000E-03 0. -1.
         11   -1    0    0    0    0 -0.00000000000E+00 -0.00000000000E+00 -0.45593999997E+02  0.45594000000E+02  0.51100000000E-03 0.  1.
    9900012    2    1    2    0    0 -0.29418260214E+02  0.11237529670E+02  0.25718673813E+02  0.50528852323E+02  0.29999977122E+02 0.  0.
        -12    1    1    2    0    0  0.29418260214E+02 -0.11237529670E+02 -0.25718673813E+02  0.40659147677E+02  0.00000000000E+00 0.  1.
         11    1    3    3    0    0 -0.97988211078E+01 -0.53337887333E+01  0.10197762511E+02  0.15114911771E+02  0.51100000000E-03 0. -1.
        -11    1    3    3    0    0 -0.44098332300E+01 -0.27171272545E+01  0.83479492035E+01  0.98243404765E+01  0.51100000000E-03 0.  1.
        -12    1    3    3    0    0 -0.15209605876E+02  0.19288445657E+02  0.71729620988E+01  0.25589600076E+02  0.00000000000E+00 0.  1.
</event>
<event>
 7    1  0.2937071E-011  0.5052894E+02  0.7816164E-02  0.1300438E+00
        -11   -1    0    0    0    0  0.00000000000E+00  0.00000000000E+00  0.45593999997E+02  0.45594000000E+02  0.51100000000E-03 0.  1.
         11   -1    0    0    0    0 -0.00000000000E+00 -0.00000000000E+00 -0.45593999997E+02  0.45594000000E+02  0.51100000000E-03 0. -1.
    9900012    2    1    2    0    0  0.15206659068E+02 -0.31533405467E+02 -0.20677540142E+02  0.50528944346E+02  0.30000256832E+02 0.  0.
        -12    1    1    2    0    0 -0.15206659068E+02  0.31533405467E+02  0.20677540142E+02  0.40659055654E+02  0.00000000000E+00 0.  1.
         11    1    3    3    0    0  0.15882596606E+01  0.48358315272E+00 -0.17236393659E+01  0.23931891567E+01  0.51100000000E-03 0. -1.
        -11    1    3    3    0    0 -0.57784393117E+01 -0.47357423939E+01  0.30582474739E+01  0.80728244607E+01  0.51100000000E-03 0.  1.
         12    1    3    3    0    0  0.19396838719E+02 -0.27281246226E+02 -0.22012148250E+02  0.40062930728E+02  0.00000000000E+00 0. -1.
</event>
<event>
 7    1  0.2937071E-011  0.5052887E+02  0.7816164E-02  0.1300439E+00
        -11   -1    0    0    0    0  0.00000000000E+00  0.00000000000E+00  0.45593999997E+02  0.45594000000E+02  0.51100000000E-03 0.  1.
         11   -1    0    0    0    0 -0.00000000000E+00 -0.00000000000E+00 -0.45593999997E+02  0.45594000000E+02  0.51100000000E-03 0. -1.
    9900012    2    1    2    0    0  0.35133473896E+01  0.38465410359E+02 -0.12697771910E+02  0.50528870454E+02  0.30000032232E+02 0.  0.
        -12    1    1    2    0    0 -0.35133473896E+01 -0.38465410359E+02  0.12697771910E+02  0.40659129546E+02  0.00000000000E+00 0.  1.
         11    1    3    3    0    0 -0.43603127978E+01  0.18669918982E+02 -0.26328508306E+01  0.19352263595E+02  0.51100000000E-03 0. -1.
        -11    1    3    3    0    0 -0.69463647629E+01  0.75698355872E+01 -0.29445615796E+01  0.10687602041E+02  0.51100000000E-03 0.  1.
        -12    1    3    3    0    0  0.14820024950E+02  0.12225655790E+02 -0.71203594994E+01  0.20489004818E+02  0.00000000000E+00 0.  1.
</event>
<event>
 7    1  0.2937071E-011  0.5052887E+02  0.7816164E-02  0.1300439E+00
        -11   -1    0    0    0    0  0.00000000000E+00  0.00000000000E+00  0.45593999997E+02  0.45594000000E+02  0.51100000000E-03 0. -1.
         11   -1    0    0    0    0 -0.00000000000E+00 -0.00000000000E+00 -0.45593999997E+02  0.45594000000E+02  0.51100000000E-03 0.  1.
    9900012    2    1    2    0    0  0.20250874269E+02  0.14822277776E+02  0.31990110827E+02  0.50528867965E+02  0.30000024667E+02 0.  0.
        -12    1    1    2    0    0 -0.20250874269E+02 -0.14822277776E+02 -0.31990110827E+02  0.40659132035E+02  0.00000000000E+00 0.  1.
         11    1    3    3    0    0  0.33993304733E+01  0.87034550072E+01  0.14667832745E+01  0.94581726652E+01  0.51100000000E-03 0.  1.
        -11    1    3    3    0    0  0.44627495757E+00  0.62841790945E+01 -0.13192710643E+00  0.63013866135E+01  0.51100000000E-03 0. -1.
         12    1    3    3    0    0  0.16405268838E+02 -0.16535632620E+00  0.30655254659E+02  0.34769308687E+02  0.00000000000E+00 0. -1.
</event>
<event>
 7    1  0.2937071E-011  0.5052887E+02  0.7816164E-02  0.1300439E+00
        -11   -1    0    0    0    0  0.00000000000E+00  0.00000000000E+00  0.45593999997E+02  0.45594000000E+02  0.51100000000E-03 0. -1.
         11   -1    0    0    0    0 -0.00000000000E+00 -0.00000000000E+00 -0.45593999997E+02  0.45594000000E+02  0.51100000000E-03 0.  1.
    9900012    2    1    2    0    0 -0.72536850401E+01  0.33406917710E+02  0.22011975093E+02  0.50528866401E+02  0.30000019912E+02 0.  0.
        -12    1    1    2    0    0  0.72536850401E+01 -0.33406917710E+02 -0.22011975093E+02  0.40659133599E+02  0.00000000000E+00 0.  1.
         11    1    3    3    0    0  0.56942141270E+01  0.46353560318E+01  0.31579556295E+01  0.79927019265E+01  0.51100000000E-03 0. -1.
        -11    1    3    3    0    0  0.58005303204E+01  0.90212471890E+01  0.71849056351E+01  0.12909373420E+02  0.51100000000E-03 0.  1.
        -12    1    3    3    0    0 -0.18748429487E+02  0.19750314489E+02  0.11669113828E+02  0.29626791055E+02  0.00000000000E+00 0.  1.
</event>
<event>
 7    1  0.2937071E-011  0.5052885E+02  0.7816164E-02  0.1300439E+00
        -11   -1    0    0    0    0  0.00000000000E+00  0.00000000000E+00  0.45593999997E+02  0.45594000000E+02  0.51100000000E-03 0.  1.
         11   -1    0    0    0    0 -0.00000000000E+00 -0.00000000000E+00 -0.45593999997E+02  0.45594000000E+02  0.51100000000E-03 0. -1.
    9900012    2    1    2    0    0 -0.23756853867E+02  0.90424949368E+01 -0.31733448055E+02  0.50528849175E+02  0.29999967553E+02 0.  0.
        -12    1    1    2    0    0  0.23756853867E+02 -0.90424949368E+01  0.31733448055E+02  0.40659150825E+02  0.00000000000E+00 0.  1.
         11    1    3    3    0    0 -0.78554390409E+01  0.97391770327E+01  0.23506875567E+01  0.12731269538E+02  0.51100000000E-03 0.  1.
        -11    1    3    3    0    0 -0.64582417730E+01 -0.74657762868E-01 -0.18150831806E+02  0.19265698952E+02  0.51100000000E-03 0. -1.
        -12    1    3    3    0    0 -0.94431730529E+01 -0.62202433310E+00 -0.15933303806E+02  0.18531880685E+02  0.00000000000E+00 0.  1.
</event>
<event>
 7    1  0.2937071E-011  0.5052886E+02  0.7816164E-02  0.1300439E+00
        -11   -1    0    0    0    0  0.00000000000E+00  0.00000000000E+00  0.45593999997E+02  0.45594000000E+02  0.51100000000E-03 0. -1.
         11   -1    0    0    0    0 -0.00000000000E+00 -0.00000000000E+00 -0.45593999997E+02  0.45594000000E+02  0.51100000000E-03 0.  1.
    9900012    2    1    2    0    0 -0.18537903519E+02  0.35408093889E+02  0.74685022653E+01  0.50528861964E+02  0.30000006426E+02 0.  0.
        -12    1    1    2    0    0  0.18537903519E+02 -0.35408093889E+02 -0.74685022653E+01  0.40659138036E+02  0.00000000000E+00 0.  1.
         11    1    3    3    0    0  0.43914096206E+01  0.42690456041E+01  0.65115761771E+01  0.89392311413E+01  0.51100000000E-03 0. -1.
        -11    1    3    3    0    0 -0.22138350327E+00  0.81001185393E+01  0.41130861651E+01  0.90872663145E+01  0.51100000000E-03 0.  1.
         12    1    3    3    0    0 -0.22707929636E+02  0.23038929746E+02 -0.31561600770E+01  0.32502364508E+02  0.00000000000E+00 0. -1.
</event>
<event>
 7    1  0.2937071E-011  0.5052886E+02  0.7816164E-02  0.1300439E+00
        -11   -1    0    0    0    0  0.00000000000E+00  0.00000000000E+00  0.45593999997E+02  0.45594000000E+02  0.51100000000E-03 0. -1.
         11   -1    0    0    0    0 -0.00000000000E+00 -0.00000000000E+00 -0.45593999997E+02  0.45594000000E+02  0.51100000000E-03 0.  1.
    9900012    2    1    2    0    0 -0.14364657719E+02 -0.34663346550E+01  0.37878840045E+02  0.50528863382E+02  0.30000010737E+02 0.  0.
        -12    1    1    2    0    0  0.14364657719E+02  0.34663346550E+01 -0.37878840045E+02  0.40659136618E+02  0.00000000000E+00 0.  1.
         11    1    3    3    0    0 -0.18610666428E+01 -0.46073065122E+00  0.44960774362E+01  0.48877964724E+01  0.51100000000E-03 0. -1.
        -11    1    3    3    0    0 -0.69638745603E+01 -0.10434836167E+02  0.17352602621E+01  0.12664615397E+02  0.51100000000E-03 0.  1.
        -12    1    3    3    0    0 -0.55397165163E+01  0.74292321629E+01  0.31647502347E+02  0.32976451513E+02  0.00000000000E+00 0.  1.
</event>
<event>
 7    1  0.2937071E-011  0.5052886E+02  0.7816164E-02  0.1300439E+00
        -11   -1    0    0    0    0  0.00000000000E+00  0.00000000000E+00  0.45593999997E+02  0.45594000000E+02  0.51100000000E-03 0.  1.
         11   -1    0    0    0    0 -0.00000000000E+00 -0.00000000000E+00 -0.45593999997E+02  0.45594000000E+02  0.51100000000E-03 0. -1.
    9900012    2    1    2    0    0 -0.11177887508E+02  0.72614971557E+01 -0.38412127748E+02  0.50528855048E+02  0.29999985405E+02 0.  0.
        -12    1    1    2    0    0  0.11177887508E+02 -0.72614971557E+01  0.38412127748E+02  0.40659144952E+02  0.00000000000E+00 0.  1.
         11    1    3    3    0    0 -0.36955857507E+01  0.34411683959E+01 -0.19790467384E+02  0.20424534107E+02  0.51100000000E-03 0. -1.
        -11    1    3    3    0    0 -0.21449777118E+01 -0.75079455012E+00 -0.22132496982E+02  0.22248866146E+02  0.51100000000E-03 0.  1.
        -12    1    3    3    0    0 -0.53373240453E+01  0.45711233099E+01  0.35108366181E+01  0.78554547951E+01  0.00000000000E+00 0.  1.
</event>
<event>
 7    1  0.2937071E-011  0.5052886E+02  0.7816164E-02  0.1300439E+00
        -11   -1    0    0    0    0  0.00000000000E+00  0.00000000000E+00  0.45593999997E+02  0.45594000000E+02  0.51100000000E-03 0. -1.
         11   -1    0    0    0    0 -0.00000000000E+00 -0.00000000000E+00 -0.45593999997E+02  0.45594000000E+02  0.51100000000E-03 0.  1.
    9900012    2    1    2    0    0  0.10291324591E+02  0.34214910193E+02 -0.19406044633E+02  0.50528855768E+02  0.29999987592E+02 0.  0.
        -12    1    1    2    0    0 -0.10291324591E+02 -0.34214910193E+02  0.19406044633E+02  0.40659144232E+02  0.00000000000E+00 0.  1.
         11    1    3    3    0    0 -0.11405482498E+00 -0.12116904556E+01  0.48569913304E+00  0.13103839789E+01  0.51100000000E-03 0. -1.
        -11    1    3    3    0    0 -0.82414512892E+01  0.81699509040E+01 -0.80988945868E+01  0.14151385477E+02  0.51100000000E-03 0.  1.
         12    1    3    3    0    0  0.18646830705E+02  0.27256649745E+02 -0.11792849180E+02  0.35067086312E+02  0.00000000000E+00 0. -1.
</event>
<event>
 7    1  0.2937071E-011  0.5052886E+02  0.7816164E-02  0.1300439E+00
        -11   -1    0    0    0    0  0.00000000000E+00  0.00000000000E+00  0.45593999997E+02  0.45594000000E+02  0.51100000000E-03 0.  1.
         11   -1    0    0    0    0 -0.00000000000E+00 -0.00000000000E+00 -0.45593999997E+02  0.45594000000E+02  0.51100000000E-03 0. -1.
    9900012    2    1    2    0    0  0.31744982401E+02  0.24381408371E+02  0.71392215601E+01  0.50528862450E+02  0.30000007904E+02 0.  0.
        -12    1    1    2    0    0 -0.31744982401E+02 -0.24381408371E+02 -0.71392215601E+01  0.40659137550E+02  0.00000000000E+00 0.  1.
         11    1    3    3    0    0  0.41832295939E+01 -0.27698810919E+00  0.45564811973E+01  0.61917407415E+01  0.51100000000E-03 0.  1.
        -11    1    3    3    0    0  0.15493674063E+02 -0.66404327730E+00  0.47048017029E+01  0.16205864641E+02  0.51100000000E-03 0. -1.
         12    1    3    3    0    0  0.12068078744E+02  0.25322439758E+02 -0.21220613401E+01  0.28131257067E+02  0.00000000000E+00 0. -1.
</event>
<event>
 7    1  0.2937071E-011  0.5052886E+02  0.7816164E-02  0.1300439E+00
        -11   -1    0    0    0    0  0.00000000000E+00  0.00000000000E+00  0.45593999997E+02  0.45594000000E+02  0.51100000000E-03 0. -1.
         11   -1    0    0    0    0 -0.00000000000E+00 -0.00000000000E+00 -0.45593999997E+02  0.45594000000E+02  0.51100000000E-03 0.  1.
    9900012    2    1    2    0    0 -0.38168626913E+02  0.89797678247E+01  0.10755721559E+02  0.50528857647E+02  0.29999993305E+02 0.  0.
        -12    1    1    2    0    0  0.38168626913E+02 -0.89797678247E+01 -0.10755721559E+02  0.40659142353E+02  0.00000000000E+00 0.  1.
         11    1    3    3    0    0 -0.17988898422E+02  0.77821176689E+01  0.29604641298E+01  0.19822365398E+02  0.51100000000E-03 0. -1.
        -11    1    3    3    0    0 -0.20324058909E+02  0.60374938869E+01 -0.37961885481E+00  0.21205254389E+02  0.51100000000E-03 0.  1.
        -12    1    3    3    0    0  0.14433041821E+00 -0.48398437312E+01  0.81748762841E+01  0.95012378600E+01  0.00000000000E+00 0.  1.
</event>
<event>
 7    1  0.2937071E-011  0.5052888E+02  0.7816164E-02  0.1300439E+00
        -11   -1    0    0    0    0  0.00000000000E+00  0.00000000000E+00  0.45593999997E+02  0.45594000000E+02  0.51100000000E-03 0. -1.
         11   -1    0    0    0    0 -0.00000000000E+00 -0.00000000000E+00 -0.45593999997E+02  0.45594000000E+02  0.51100000000E-03 0.  1.
    9900012    2    1    2    0    0  0.20583169294E+02  0.27196684893E+02  0.22132277213E+02  0.50528877752E+02  0.30000054415E+02 0.  0.
        -12    1    1    2    0    0 -0.20583169294E+02 -0.27196684893E+02 -0.22132277213E+02  0.40659122248E+02  0.00000000000E+00 0.  1.
         11    1    3    3    0    0  0.17339193044E+02  0.14580897609E+02  0.14235857621E+02  0.26756491417E+02  0.51100000000E-03 0. -1.
        -11    1    3    3    0    0 -0.20936645276E+01 -0.33616898222E+01  0.54698268804E+01  0.67530286522E+01  0.51100000000E-03 0.  1.
         12    1    3    3    0    0  0.53376407776E+01  0.15977477106E+02  0.24265927116E+01  0.17019357683E+02  0.00000000000E+00 0. -1.
</event>
<event>
 7    1  0.2937071E-011  0.5052886E+02  0.7816164E-02  0.1300439E+00
        -11   -1    0    0    0    0  0.00000000000E+00  0.00000000000E+00  0.45593999997E+02  0.45594000000E+02  0.51100000000E-03 0.  1.
         11   -1    0    0    0    0 -0.00000000000E+00 -0.00000000000E+00 -0.45593999997E+02  0.45594000000E+02  0.51100000000E-03 0. -1.
    9900012    2    1    2    0    0 -0.39190474958E+02  0.10035199400E+02  0.40702965681E+01  0.50528857503E+02  0.29999992866E+02 0.  0.
        -12    1    1    2    0    0  0.39190474958E+02 -0.10035199400E+02 -0.40702965681E+01  0.40659142497E+02  0.00000000000E+00 0.  1.
         11    1    3    3    0    0 -0.26057982279E+02 -0.10685746154E+01  0.49461162067E+00  0.26084572702E+02  0.51100000000E-03 0. -1.
        -11    1    3    3    0    0 -0.62620783081E+01  0.87980184701E+01 -0.60633941517E+01  0.12384809350E+02  0.51100000000E-03 0.  1.
         12    1    3    3    0    0 -0.68704143712E+01  0.23057555458E+01  0.96390790991E+01  0.12059475451E+02  0.00000000000E+00 0. -1.
</event>
<event>
 7    1  0.2937071E-011  0.5052887E+02  0.7816164E-02  0.1300439E+00
        -11   -1    0    0    0    0  0.00000000000E+00  0.00000000000E+00  0.45593999997E+02  0.45594000000E+02  0.51100000000E-03 0.  1.
         11   -1    0    0    0    0 -0.00000000000E+00 -0.00000000000E+00 -0.45593999997E+02  0.45594000000E+02  0.51100000000E-03 0. -1.
    9900012    2    1    2    0    0  0.16633720701E+02  0.19630248428E+02 -0.31482339641E+02  0.50528867853E+02  0.30000024326E+02 0.  0.
        -12    1    1    2    0    0 -0.16633720701E+02 -0.19630248428E+02  0.31482339641E+02  0.40659132147E+02  0.00000000000E+00 0.  1.
         11    1    3    3    0    0  0.13175126251E+02  0.24878452653E+02 -0.31167654916E+02  0.41999334177E+02  0.51100000000E-03 0. -1.
        -11    1    3    3    0    0  0.16151461856E+01  0.10353344592E+01  0.34047375977E+00  0.19484704990E+01  0.51100000000E-03 0.  1.
         12    1    3    3    0    0  0.18434482644E+01 -0.62835386839E+01 -0.65515848481E+00  0.65810631767E+01  0.00000000000E+00 0. -1.
</event>
<event>
 7    1  0.2937071E-011  0.5052886E+02  0.7816164E-02  0.1300439E+00
        -11   -1    0    0    0    0  0.00000000000E+00  0.00000000000E+00  0.45593999997E+02  0.45594000000E+02  0.51100000000E-03 0.  1.
         11   -1    0    0    0    0 -0.00000000000E+00 -0.00000000000E+00 -0.45593999997E+02  0.45594000000E+02  0.51100000000E-03 0. -1.
    9900012    2    1    2    0    0  0.12111393070E+02 -0.18602156577E+02 -0.34065222952E+02  0.50528862205E+02  0.30000007159E+02 0.  0.
        -12    1    1    2    0    0 -0.12111393070E+02  0.18602156577E+02  0.34065222952E+02  0.40659137795E+02  0.00000000000E+00 0.  1.
         11    1    3    3    0    0 -0.35891246515E+01 -0.85119165058E+01 -0.11754723098E+02  0.14950185743E+02  0.51100000000E-03 0. -1.
        -11    1    3    3    0    0 -0.34925928279E+01 -0.45872702383E+01 -0.17435733413E+00  0.57681586006E+01  0.51100000000E-03 0.  1.
         12    1    3    3    0    0  0.19193110549E+02 -0.55029698333E+01 -0.22136142520E+02  0.29810517862E+02  0.00000000000E+00 0. -1.
</event>
<event>
 7    1  0.3188331E-011  0.5052888E+02  0.7816164E-02  0.1300439E+00
        -11   -1    0    0    0    0  0.00000000000E+00  0.00000000000E+00  0.45593999997E+02  0.45594000000E+02  0.51100000000E-03 0. -1.
         11   -1    0    0    0    0 -0.00000000000E+00 -0.00000000000E+00 -0.45593999997E+02  0.45594000000E+02  0.51100000000E-03 0.  1.
    9900012    2    1    2    0    0  0.10852093780E+02  0.13244869391E+02  0.36877763432E+02  0.50528881216E+02  0.30000064943E+02 0.  0.
        -12    1    1    2    0    0 -0.10852093780E+02 -0.13244869391E+02 -0.36877763432E+02  0.40659118784E+02  0.00000000000E+00 0.  1.
         11    1    3    3    0    0 -0.23987095017E+01  0.12528789172E+02  0.18881864216E+02  0.22787039341E+02  0.51100000000E-03 0. -1.
        -11    1    3    3    0    0  0.11239928901E+02  0.67640391652E+01  0.16702875619E+02  0.21238509405E+02  0.51100000000E-03 0.  1.
        -12    1    3    3    0    0  0.20108743816E+01 -0.60479589466E+01  0.12930235970E+01  0.65033324704E+01  0.00000000000E+00 0.  1.
</event>
<event>
 7    1  0.2937071E-011  0.5052885E+02  0.7816164E-02  0.1300439E+00
        -11   -1    0    0    0    0  0.00000000000E+00  0.00000000000E+00  0.45593999997E+02  0.45594000000E+02  0.51100000000E-03 0. -1.
         11   -1    0    0    0    0 -0.00000000000E+00 -0.00000000000E+00 -0.45593999997E+02  0.45594000000E+02  0.51100000000E-03 0.  1.
    9900012    2    1    2    0    0 -0.13842830833E+02  0.38040469923E+02  0.38033072305E+01  0.50528850189E+02  0.29999970635E+02 0.  0.
        -12    1    1    2    0    0  0.13842830833E+02 -0.38040469923E+02 -0.38033072305E+01  0.40659149811E+02  0.00000000000E+00 0.  1.
         11    1    3    3    0    0 -0.12078569390E+02  0.30366712040E+02 -0.15958292344E+01  0.32719653266E+02  0.51100000000E-03 0. -1.
        -11    1    3    3    0    0 -0.97835029152E+00  0.10397044723E+02 -0.13110310636E+01  0.10524947077E+02  0.51100000000E-03 0.  1.
        -12    1    3    3    0    0 -0.78591115142E+00 -0.27232868404E+01  0.67101675285E+01  0.72842498457E+01  0.00000000000E+00 0.  1.
</event>
<event>
 7    1  0.2937071E-011  0.5052886E+02  0.7816164E-02  0.1300439E+00
        -11   -1    0    0    0    0  0.00000000000E+00  0.00000000000E+00  0.45593999997E+02  0.45594000000E+02  0.51100000000E-03 0.  1.
         11   -1    0    0    0    0 -0.00000000000E+00 -0.00000000000E+00 -0.45593999997E+02  0.45594000000E+02  0.51100000000E-03 0. -1.
    9900012    2    1    2    0    0  0.35039469078E+02 -0.88391224523E+01 -0.18635219163E+02  0.50528857458E+02  0.29999992728E+02 0.  0.
        -12    1    1    2    0    0 -0.35039469078E+02  0.88391224523E+01  0.18635219163E+02  0.40659142542E+02  0.00000000000E+00 0.  1.
         11    1    3    3    0    0 -0.27170562248E+01  0.48778657807E+00  0.17035665799E+01  0.32438356351E+01  0.51100000000E-03 0. -1.
        -11    1    3    3    0    0 -0.15594482253E+01 -0.23117804899E+00 -0.29475036183E+01  0.33426187187E+01  0.51100000000E-03 0.  1.
         12    1    3    3    0    0  0.39315973529E+02 -0.90957309813E+01 -0.17391282125E+02  0.43942403104E+02  0.00000000000E+00 0. -1.
</event>
<event>
 7    1  0.2937071E-011  0.5052887E+02  0.7816164E-02  0.1300439E+00
        -11   -1    0    0    0    0  0.00000000000E+00  0.00000000000E+00  0.45593999997E+02  0.45594000000E+02  0.51100000000E-03 0.  1.
         11   -1    0    0    0    0 -0.00000000000E+00 -0.00000000000E+00 -0.45593999997E+02  0.45594000000E+02  0.51100000000E-03 0. -1.
    9900012    2    1    2    0    0 -0.26095364973E+02 -0.21442975754E+02 -0.22636161600E+02  0.50528867025E+02  0.30000021810E+02 0.  0.
        -12    1    1    2    0    0  0.26095364973E+02  0.21442975754E+02  0.22636161600E+02  0.40659132975E+02  0.00000000000E+00 0.  1.
         11    1    3    3    0    0  0.28099882144E-01 -0.17341468945E+01 -0.55727804437E+01  0.58364318886E+01  0.51100000000E-03 0. -1.
        -11    1    3    3    0    0  0.47171989151E+01 -0.40535724580E-01 -0.16253747610E+01  0.49895342592E+01  0.51100000000E-03 0.  1.
         12    1    3    3    0    0 -0.30840663770E+02 -0.19668293135E+02 -0.15438006395E+02  0.39702900878E+02  0.00000000000E+00 0. -1.
</event>
<event>
 7    1  0.2937071E-011  0.5052887E+02  0.7816164E-02  0.1300439E+00
        -11   -1    0    0    0    0  0.00000000000E+00  0.00000000000E+00  0.45593999997E+02  0.45594000000E+02  0.51100000000E-03 0.  1.
         11   -1    0    0    0    0 -0.00000000000E+00 -0.00000000000E+00 -0.45593999997E+02  0.45594000000E+02  0.51100000000E-03 0. -1.
    9900012    2    1    2    0    0 -0.24780866979E+02 -0.17145332502E+02 -0.27296724544E+02  0.50528868607E+02  0.30000026616E+02 0.  0.
        -12    1    1    2    0    0  0.24780866979E+02  0.17145332502E+02  0.27296724544E+02  0.40659131393E+02  0.00000000000E+00 0.  1.
         11    1    3    3    0    0 -0.16901376994E+02 -0.22865533898E+02 -0.20932863380E+02  0.35308270338E+02  0.51100000000E-03 0. -1.
        -11    1    3    3    0    0 -0.26648709399E+01  0.36503149402E+01 -0.81614166874E+01  0.93292582179E+01  0.51100000000E-03 0.  1.
        -12    1    3    3    0    0 -0.52146190455E+01  0.20698864559E+01  0.17975555233E+01  0.58913400504E+01  0.00000000000E+00 0.  1.
</event>
<event>
 7    1  0.2937071E-011  0.5052885E+02  0.7816164E-02  0.1300439E+00
        -11   -1    0    0    0    0  0.00000000000E+00  0.00000000000E+00  0.45593999997E+02  0.45594000000E+02  0.51100000000E-03 0.  1.
         11   -1    0    0    0    0 -0.00000000000E+00 -0.00000000000E+00 -0.45593999997E+02  0.45594000000E+02  0.51100000000E-03 0. -1.
    9900012    2    1    2    0    0 -0.11642459258E+02  0.26079313567E+01 -0.38869246547E+02  0.50528849853E+02  0.29999969613E+02 0.  0.
        -12    1    1    2    0    0  0.11642459258E+02 -0.26079313567E+01  0.38869246547E+02  0.40659150147E+02  0.00000000000E+00 0.  1.
         11    1    3    3    0    0 -0.19003944700E+01  0.29534980051E+01 -0.72279775181E+01  0.80360630206E+01  0.51100000000E-03 0. -1.
        -11    1    3    3    0    0 -0.15106592571E+02 -0.47569813574E+01 -0.31821558258E+02  0.35545035953E+02  0.51100000000E-03 0.  1.
        -12    1    3    3    0    0  0.53645277829E+01  0.44114147091E+01  0.18028922833E+00  0.69477508788E+01  0.00000000000E+00 0.  1.
</event>
<event>
 7    1  0.2937071E-011  0.5052886E+02  0.7816164E-02  0.1300439E+00
        -11   -1    0    0    0    0  0.00000000000E+00  0.00000000000E+00  0.45593999997E+02  0.45594000000E+02  0.51100000000E-03 0.  1.
         11   -1    0    0    0    0 -0.00000000000E+00 -0.00000000000E+00 -0.45593999997E+02  0.45594000000E+02  0.51100000000E-03 0. -1.
    9900012    2    1    2    0    0  0.30641917553E+02 -0.18652131889E+02 -0.19139913978E+02  0.50528862744E+02  0.30000008797E+02 0.  0.
        -12    1    1    2    0    0 -0.30641917553E+02  0.18652131889E+02  0.19139913978E+02  0.40659137256E+02  0.00000000000E+00 0.  1.
         11    1    3    3    0    0  0.88042594806E+01 -0.95282112292E+01  0.12076377303E+01  0.13029205017E+02  0.51100000000E-03 0. -1.
        -11    1    3    3    0    0  0.10443490304E+01 -0.10048437658E+02 -0.34020206177E+01  0.10659995723E+02  0.51100000000E-03 0.  1.
         12    1    3    3    0    0  0.20793309042E+02  0.92451699801E+00 -0.16945531090E+02  0.26839662005E+02  0.00000000000E+00 0. -1.
</event>
<event>
 7    1  0.2937071E-011  0.5052886E+02  0.7816164E-02  0.1300439E+00
        -11   -1    0    0    0    0  0.00000000000E+00  0.00000000000E+00  0.45593999997E+02  0.45594000000E+02  0.51100000000E-03 0.  1.
         11   -1    0    0    0    0 -0.00000000000E+00 -0.00000000000E+00 -0.45593999997E+02  0.45594000000E+02  0.51100000000E-03 0. -1.
    9900012    2    1    2    0    0 -0.33162293013E+02  0.31194742984E+01  0.23317306428E+02  0.50528861091E+02  0.30000003772E+02 0.  0.
        -12    1    1    2    0    0  0.33162293013E+02 -0.31194742984E+01 -0.23317306428E+02  0.40659138909E+02  0.00000000000E+00 0.  1.
         11    1    3    3    0    0 -0.11720148655E+02  0.44477387434E+01  0.61434522168E+01  0.13960167256E+02  0.51100000000E-03 0. -1.
        -11    1    3    3    0    0 -0.19034220397E+02  0.83225873888E+01  0.16623910592E+02  0.26606792565E+02  0.51100000000E-03 0.  1.
        -12    1    3    3    0    0 -0.24079239611E+01 -0.96508518338E+01  0.54994361908E+00  0.99619012695E+01  0.00000000000E+00 0.  1.
</event>
<event>
 7    1  0.2937071E-011  0.5052883E+02  0.7816164E-02  0.1300439E+00
        -11   -1    0    0    0    0  0.00000000000E+00  0.00000000000E+00  0.45593999997E+02  0.45594000000E+02  0.51100000000E-03 0.  1.
         11   -1    0    0    0    0 -0.00000000000E+00 -0.00000000000E+00 -0.45593999997E+02  0.45594000000E+02  0.51100000000E-03 0. -1.
    9900012    2    1    2    0    0 -0.33383286412E+01  0.19156994521E+02 -0.35707611181E+02  0.50528826700E+02  0.29999899238E+02 0.  0.
        -12    1    1    2    0    0  0.33383286412E+01 -0.19156994521E+02  0.35707611181E+02  0.40659173300E+02  0.00000000000E+00 0.  1.
         11    1    3    3    0    0 -0.38537462246E+01  0.15517681840E+02 -0.22929817716E+02  0.27954004193E+02  0.51100000000E-03 0. -1.
        -11    1    3    3    0    0 -0.45052191980E+01  0.36999450194E+01 -0.15712441898E+02  0.16759099732E+02  0.51100000000E-03 0.  1.
        -12    1    3    3    0    0  0.50206367814E+01 -0.60632338131E-01  0.29346484336E+01  0.58157227753E+01  0.00000000000E+00 0.  1.
</event>
<event>
 7    1  0.2937071E-011  0.5052892E+02  0.7816164E-02  0.1300439E+00
        -11   -1    0    0    0    0  0.00000000000E+00  0.00000000000E+00  0.45593999997E+02  0.45594000000E+02  0.51100000000E-03 0.  1.
         11   -1    0    0    0    0 -0.00000000000E+00 -0.00000000000E+00 -0.45593999997E+02  0.45594000000E+02  0.51100000000E-03 0. -1.
    9900012    2    1    2    0    0 -0.92893293046E+01  0.21165145469E+02 -0.33450046909E+02  0.50528921556E+02  0.30000187562E+02 0.  0.
        -12    1    1    2    0    0  0.92893293046E+01 -0.21165145469E+02  0.33450046909E+02  0.40659078444E+02  0.00000000000E+00 0.  1.
         11    1    3    3    0    0 -0.83303084839E+01  0.17119280784E+02 -0.16329456909E+02  0.25082164524E+02  0.51100000000E-03 0.  1.
        -11    1    3    3    0    0 -0.92809998719E+01  0.43030629168E+01 -0.72769634963E+01  0.12554182852E+02  0.51100000000E-03 0. -1.
         12    1    3    3    0    0  0.83219790512E+01 -0.25719823195E+00 -0.98436265042E+01  0.12892574181E+02  0.00000000000E+00 0. -1.
</event>
<event>
 7    1  0.2937071E-011  0.5052885E+02  0.7816164E-02  0.1300439E+00
        -11   -1    0    0    0    0  0.00000000000E+00  0.00000000000E+00  0.45593999997E+02  0.45594000000E+02  0.51100000000E-03 0.  1.
         11   -1    0    0    0    0 -0.00000000000E+00 -0.00000000000E+00 -0.45593999997E+02  0.45594000000E+02  0.51100000000E-03 0. -1.
    9900012    2    1    2    0    0 -0.78971220388E+00  0.40003260652E+01 -0.40454169374E+02  0.50528854980E+02  0.29999985198E+02 0.  0.
        -12    1    1    2    0    0  0.78971220388E+00 -0.40003260652E+01  0.40454169374E+02  0.40659145020E+02  0.00000000000E+00 0.  1.
         11    1    3    3    0    0  0.32607109521E+01 -0.17447700991E+00 -0.12450085583E+02  0.12871181353E+02  0.51100000000E-03 0. -1.
        -11    1    3    3    0    0  0.90039902216E+01  0.39131676790E+01 -0.20165662854E+02  0.22428523799E+02  0.51100000000E-03 0.  1.
        -12    1    3    3    0    0 -0.13054413378E+02  0.26163539615E+00 -0.78384209370E+01  0.15229149829E+02  0.00000000000E+00 0.  1.
</event>
<event>
 7    1  0.2937071E-011  0.5052886E+02  0.7816164E-02  0.1300439E+00
        -11   -1    0    0    0    0  0.00000000000E+00  0.00000000000E+00  0.45593999997E+02  0.45594000000E+02  0.51100000000E-03 0.  1.
         11   -1    0    0    0    0 -0.00000000000E+00 -0.00000000000E+00 -0.45593999997E+02  0.45594000000E+02  0.51100000000E-03 0. -1.
    9900012    2    1    2    0    0  0.48791850365E+01 -0.34736806913E+02 -0.20560000062E+02  0.50528858301E+02  0.29999995292E+02 0.  0.
        -12    1    1    2    0    0 -0.48791850365E+01  0.34736806913E+02  0.20560000062E+02  0.40659141699E+02  0.00000000000E+00 0.  1.
         11    1    3    3    0    0  0.14175213866E+02 -0.17995084819E+02 -0.49992590412E+01  0.23446798438E+02  0.51100000000E-03 0. -1.
        -11    1    3    3    0    0  0.16534119269E+01  0.48151824184E+00 -0.82700361363E+00  0.19103837455E+01  0.51100000000E-03 0.  1.
         12    1    3    3    0    0 -0.10949440756E+02 -0.17223240336E+02 -0.14733737407E+02  0.25171676117E+02  0.00000000000E+00 0. -1.
</event>
<event>
 7    1  0.2937071E-011  0.5052886E+02  0.7816164E-02  0.1300439E+00
        -11   -1    0    0    0    0  0.00000000000E+00  0.00000000000E+00  0.45593999997E+02  0.45594000000E+02  0.51100000000E-03 0.  1.
         11   -1    0    0    0    0 -0.00000000000E+00 -0.00000000000E+00 -0.45593999997E+02  0.45594000000E+02  0.51100000000E-03 0. -1.
    9900012    2    1    2    0    0  0.21396115689E+02 -0.88485628079E+01 -0.33422670685E+02  0.50528859010E+02  0.29999997445E+02 0.  0.
        -12    1    1    2    0    0 -0.21396115689E+02  0.88485628079E+01  0.33422670685E+02  0.40659140990E+02  0.00000000000E+00 0.  1.
         11    1    3    3    0    0  0.44785806340E+00 -0.24121497987E+01 -0.40403053174E+00  0.24864200023E+01  0.51100000000E-03 0. -1.
        -11    1    3    3    0    0 -0.14736744165E+01  0.41800821873E+01  0.22120051430E+01  0.49535613847E+01  0.51100000000E-03 0.  1.
         12    1    3    3    0    0  0.22421932043E+02 -0.10616495196E+02 -0.35230645296E+02  0.43088877623E+02  0.00000000000E+00 0. -1.
</event>
<event>
 7    1  0.2937071E-011  0.5052885E+02  0.7816164E-02  0.1300439E+00
        -11   -1    0    0    0    0  0.00000000000E+00  0.00000000000E+00  0.45593999997E+02  0.45594000000E+02  0.51100000000E-03 0.  1.
         11   -1    0    0    0    0 -0.00000000000E+00 -0.00000000000E+00 -0.45593999997E+02  0.45594000000E+02  0.51100000000E-03 0. -1.
    9900012    2    1    2    0    0  0.87940812782E+01  0.30447192436E+02 -0.25471537168E+02  0.50528848528E+02  0.29999965585E+02 0.  0.
        -12    1    1    2    0    0 -0.87940812782E+01 -0.30447192436E+02  0.25471537168E+02  0.40659151472E+02  0.00000000000E+00 0.  1.
         11    1    3    3    0    0  0.10313349305E+02  0.58480239115E+01 -0.39160047848E+01  0.12485978187E+02  0.51100000000E-03 0. -1.
        -11    1    3    3    0    0  0.21777400230E+01  0.25770603985E+02 -0.13664600303E+02  0.29250433895E+02  0.51100000000E-03 0.  1.
         12    1    3    3    0    0 -0.36970080496E+01 -0.11714354609E+01 -0.78909320801E+01  0.87924364456E+01  0.00000000000E+00 0. -1.
</event>
<event>
 7    1  0.2937071E-011  0.5052885E+02  0.7816164E-02  0.1300439E+00
        -11   -1    0    0    0    0  0.00000000000E+00  0.00000000000E+00  0.45593999997E+02  0.45594000000E+02  0.51100000000E-03 0. -1.
         11   -1    0    0    0    0 -0.00000000000E+00 -0.00000000000E+00 -0.45593999997E+02  0.45594000000E+02  0.51100000000E-03 0.  1.
    9900012    2    1    2    0    0 -0.24325169676E+02 -0.32427104322E+02  0.31521090819E+01  0.50528846465E+02  0.29999959316E+02 0.  0.
        -12    1    1    2    0    0  0.24325169676E+02  0.32427104322E+02 -0.31521090819E+01  0.40659153535E+02  0.00000000000E+00 0.  1.
         11    1    3    3    0    0 -0.15930437351E+02 -0.34037367713E+02 -0.23298985891E+01  0.37653016648E+02  0.51100000000E-03 0. -1.
        -11    1    3    3    0    0 -0.45641965113E+00  0.31952327697E+00  0.47693187589E+01  0.48017513168E+01  0.51100000000E-03 0.  1.
        -12    1    3    3    0    0 -0.79383126737E+01  0.12907401134E+01  0.71268891202E+00  0.80740785004E+01  0.00000000000E+00 0.  1.
</event>
<event>
 7    1  0.2937071E-011  0.5052886E+02  0.7816164E-02  0.1300439E+00
        -11   -1    0    0    0    0  0.00000000000E+00  0.00000000000E+00  0.45593999997E+02  0.45594000000E+02  0.51100000000E-03 0. -1.
         11   -1    0    0    0    0 -0.00000000000E+00 -0.00000000000E+00 -0.45593999997E+02  0.45594000000E+02  0.51100000000E-03 0.  1.
    9900012    2    1    2    0    0 -0.86777585800E+01  0.37121540188E+02 -0.14136962591E+02  0.50528856487E+02  0.29999989779E+02 0.  0.
        -12    1    1    2    0    0  0.86777585800E+01 -0.37121540188E+02  0.14136962591E+02  0.40659143513E+02  0.00000000000E+00 0.  1.
         11    1    3    3    0    0  0.83388033565E+00  0.18110368089E+00  0.32400441713E+01  0.33505285330E+01  0.51100000000E-03 0. -1.
        -11    1    3    3    0    0 -0.12154002589E+02  0.18497691159E+02 -0.65424483349E+00  0.22142998752E+02  0.51100000000E-03 0.  1.
        -12    1    3    3    0    0  0.26423636737E+01  0.18442745348E+02 -0.16722761929E+02  0.25035329203E+02  0.00000000000E+00 0.  1.
</event>
<event>
 7    1  0.2937071E-011  0.5052886E+02  0.7816164E-02  0.1300439E+00
        -11   -1    0    0    0    0  0.00000000000E+00  0.00000000000E+00  0.45593999997E+02  0.45594000000E+02  0.51100000000E-03 0. -1.
         11   -1    0    0    0    0 -0.00000000000E+00 -0.00000000000E+00 -0.45593999997E+02  0.45594000000E+02  0.51100000000E-03 0.  1.
    9900012    2    1    2    0    0  0.25050550141E+02 -0.29687042023E+02  0.12013110392E+02  0.50528863908E+02  0.30000012335E+02 0.  0.
        -12    1    1    2    0    0 -0.25050550141E+02  0.29687042023E+02 -0.12013110392E+02  0.40659136092E+02  0.00000000000E+00 0.  1.
         11    1    3    3    0    0  0.13020333885E+02 -0.22442341411E+02 -0.24705154938E+01  0.26063216025E+02  0.51100000000E-03 0. -1.
        -11    1    3    3    0    0  0.25438488938E+01 -0.57465329337E+01 -0.88153761200E+00  0.63459370290E+01  0.51100000000E-03 0.  1.
        -12    1    3    3    0    0  0.94863673623E+01 -0.14981676780E+01  0.15365163498E+02  0.18119710854E+02  0.00000000000E+00 0.  1.
</event>
<event>
 7    1  0.2937071E-011  0.5052886E+02  0.7816164E-02  0.1300439E+00
        -11   -1    0    0    0    0  0.00000000000E+00  0.00000000000E+00  0.45593999997E+02  0.45594000000E+02  0.51100000000E-03 0. -1.
         11   -1    0    0    0    0 -0.00000000000E+00 -0.00000000000E+00 -0.45593999997E+02  0.45594000000E+02  0.51100000000E-03 0.  1.
    9900012    2    1    2    0    0  0.35726038485E+02  0.13903969556E+02  0.13546053101E+02  0.50528858963E+02  0.29999997303E+02 0.  0.
        -12    1    1    2    0    0 -0.35726038485E+02 -0.13903969556E+02 -0.13546053101E+02  0.40659141037E+02  0.00000000000E+00 0.  1.
         11    1    3    3    0    0  0.29759836700E+01 -0.59133572317E+01 -0.16943405273E+01  0.68333785669E+01  0.51100000000E-03 0.  1.
        -11    1    3    3    0    0  0.74346845202E+01  0.15613501986E+01 -0.22428282829E+01  0.79210243861E+01  0.51100000000E-03 0. -1.
         12    1    3    3    0    0  0.25315370295E+02  0.18255976589E+02  0.17483221911E+02  0.35774456010E+02  0.00000000000E+00 0. -1.
</event>
<event>
 7    1  0.2937071E-011  0.5052886E+02  0.7816164E-02  0.1300439E+00
        -11   -1    0    0    0    0  0.00000000000E+00  0.00000000000E+00  0.45593999997E+02  0.45594000000E+02  0.51100000000E-03 0. -1.
         11   -1    0    0    0    0 -0.00000000000E+00 -0.00000000000E+00 -0.45593999997E+02  0.45594000000E+02  0.51100000000E-03 0.  1.
    9900012    2    1    2    0    0 -0.30080924534E+02 -0.17782693825E+02  0.20786516651E+02  0.50528862098E+02  0.30000006832E+02 0.  0.
        -12    1    1    2    0    0  0.30080924534E+02  0.17782693825E+02 -0.20786516651E+02  0.40659137902E+02  0.00000000000E+00 0.  1.
         11    1    3    3    0    0 -0.16539328556E+02 -0.16680926858E+02  0.20184648812E+02  0.30971321539E+02  0.51100000000E-03 0. -1.
        -11    1    3    3    0    0 -0.22497095101E+01 -0.60129876481E+00  0.64312626544E+01  0.68398751944E+01  0.51100000000E-03 0.  1.
         12    1    3    3    0    0 -0.11291886467E+02 -0.50046820276E+00 -0.58293948155E+01  0.12717665365E+02  0.00000000000E+00 0. -1.
</event>
<event>
 7    1  0.2937071E-011  0.5052888E+02  0.7816164E-02  0.1300439E+00
        -11   -1    0    0    0    0  0.00000000000E+00  0.00000000000E+00  0.45593999997E+02  0.45594000000E+02  0.51100000000E-03 0.  1.
         11   -1    0    0    0    0 -0.00000000000E+00 -0.00000000000E+00 -0.45593999997E+02  0.45594000000E+02  0.51100000000E-03 0. -1.
    9900012    2    1    2    0    0 -0.85634708141E+01  0.67303344107E+01 -0.39173124266E+02  0.50528879271E+02  0.30000059032E+02 0.  0.
        -12    1    1    2    0    0  0.85634708141E+01 -0.67303344107E+01  0.39173124266E+02  0.40659120729E+02  0.00000000000E+00 0.  1.
         11    1    3    3    0    0 -0.65069396128E+00 -0.69603410371E+01 -0.71384038994E+01  0.99913242604E+01  0.51100000000E-03 0. -1.
        -11    1    3    3    0    0 -0.60360027430E+00 -0.44672977083E+01 -0.10553305970E+02  0.11475772273E+02  0.51100000000E-03 0.  1.
        -12    1    3    3    0    0 -0.73091765785E+01  0.18157973156E+02 -0.21481414396E+02  0.29061782737E+02  0.00000000000E+00 0.  1.
</event>
<event>
 7    1  0.2937071E-011  0.5052887E+02  0.7816164E-02  0.1300439E+00
        -11   -1    0    0    0    0  0.00000000000E+00  0.00000000000E+00  0.45593999997E+02  0.45594000000E+02  0.51100000000E-03 0.  1.
         11   -1    0    0    0    0 -0.00000000000E+00 -0.00000000000E+00 -0.45593999997E+02  0.45594000000E+02  0.51100000000E-03 0. -1.
    9900012    2    1    2    0    0  0.20331663437E+02 -0.18601017701E+02 -0.29896330563E+02  0.50528868445E+02  0.30000026127E+02 0.  0.
        -12    1    1    2    0    0 -0.20331663437E+02  0.18601017701E+02  0.29896330563E+02  0.40659131555E+02  0.00000000000E+00 0.  1.
         11    1    3    3    0    0  0.54379790278E-02 -0.24924721026E+00  0.10816005639E+01  0.11099611635E+01  0.51100000000E-03 0.  1.
        -11    1    3    3    0    0  0.90100321613E+01 -0.23908950058E+02 -0.23766308688E+02  0.34894928018E+02  0.51100000000E-03 0. -1.
         12    1    3    3    0    0  0.11316193296E+02  0.55571795674E+01 -0.72116224391E+01  0.14523979264E+02  0.00000000000E+00 0. -1.
</event>
<event>
 7    1  0.2937071E-011  0.5052886E+02  0.7816164E-02  0.1300439E+00
        -11   -1    0    0    0    0  0.00000000000E+00  0.00000000000E+00  0.45593999997E+02  0.45594000000E+02  0.51100000000E-03 0.  1.
         11   -1    0    0    0    0 -0.00000000000E+00 -0.00000000000E+00 -0.45593999997E+02  0.45594000000E+02  0.51100000000E-03 0. -1.
    9900012    2    1    2    0    0  0.18741286035E+02 -0.35871923383E+02  0.38903266132E+01  0.50528864119E+02  0.30000012976E+02 0.  0.
        -12    1    1    2    0    0 -0.18741286035E+02  0.35871923383E+02 -0.38903266132E+01  0.40659135881E+02  0.00000000000E+00 0.  1.
         11    1    3    3    0    0  0.29441615047E+01 -0.14080183891E+02 -0.44040652810E+01  0.15043784651E+02  0.51100000000E-03 0. -1.
        -11    1    3    3    0    0  0.24657436169E+01 -0.17659716208E+02  0.11430244070E+02  0.21180083755E+02  0.51100000000E-03 0.  1.
        -12    1    3    3    0    0  0.13331380913E+02 -0.41320232844E+01 -0.31358521758E+01  0.14304995713E+02  0.00000000000E+00 0.  1.
</event>
<event>
 7    1  0.2937071E-011  0.5052887E+02  0.7816164E-02  0.1300439E+00
        -11   -1    0    0    0    0  0.00000000000E+00  0.00000000000E+00  0.45593999997E+02  0.45594000000E+02  0.51100000000E-03 0.  1.
         11   -1    0    0    0    0 -0.00000000000E+00 -0.00000000000E+00 -0.45593999997E+02  0.45594000000E+02  0.51100000000E-03 0. -1.
    9900012    2    1    2    0    0 -0.80719414891E+00 -0.21155191899E+02 -0.34712700091E+02  0.50528865057E+02  0.30000015829E+02 0.  0.
        -12    1    1    2    0    0  0.80719414891E+00  0.21155191899E+02  0.34712700091E+02  0.40659134943E+02  0.00000000000E+00 0.  1.
         11    1    3    3    0    0  0.17478325590E+01 -0.22066298342E+02 -0.15990568629E+02  0.27307045364E+02  0.51100000000E-03 0. -1.
        -11    1    3    3    0    0 -0.16970765024E+01 -0.29668337731E+01  0.62209406013E+00  0.34740714692E+01  0.51100000000E-03 0.  1.
         12    1    3    3    0    0 -0.85795020554E+00  0.38779402162E+01 -0.19344225522E+02  0.19747748224E+02  0.00000000000E+00 0. -1.
</event>
<event>
 7    1  0.2937071E-011  0.5052871E+02  0.7816164E-02  0.1300439E+00
        -11   -1    0    0    0    0  0.00000000000E+00  0.00000000000E+00  0.45593999997E+02  0.45594000000E+02  0.51100000000E-03 0.  1.
         11   -1    0    0    0    0 -0.00000000000E+00 -0.00000000000E+00 -0.45593999997E+02  0.45594000000E+02  0.51100000000E-03 0. -1.
    9900012    2    1    2    0    0  0.25958036838E+02  0.10383190745E+02 -0.29521981013E+02  0.50528712138E+02  0.29999551010E+02 0.  0.
        -12    1    1    2    0    0 -0.25958036838E+02 -0.10383190745E+02  0.29521981013E+02  0.40659287862E+02  0.00000000000E+00 0.  1.
         11    1    3    3    0    0  0.83048335351E+01  0.42241122829E+01 -0.21665795400E+02  0.23584318417E+02  0.51100000000E-03 0. -1.
        -11    1    3    3    0    0  0.90309642324E+01  0.12228168719E+02 -0.52554245388E+01  0.16084337491E+02  0.51100000000E-03 0.  1.
         12    1    3    3    0    0  0.86222390710E+01 -0.60690902567E+01 -0.26007610739E+01  0.10860056229E+02  0.00000000000E+00 0. -1.
</event>
<event>
 7    1  0.2937071E-011  0.5052886E+02  0.7816164E-02  0.1300439E+00
        -11   -1    0    0    0    0  0.00000000000E+00  0.00000000000E+00  0.45593999997E+02  0.45594000000E+02  0.51100000000E-03 0.  1.
         11   -1    0    0    0    0 -0.00000000000E+00 -0.00000000000E+00 -0.45593999997E+02  0.45594000000E+02  0.51100000000E-03 0. -1.
    9900012    2    1    2    0    0  0.46717792989E+01  0.34715651342E+02  0.20643729542E+02  0.50528861552E+02  0.30000005173E+02 0.  0.
        -12    1    1    2    0    0 -0.46717792989E+01 -0.34715651342E+02 -0.20643729542E+02  0.40659138448E+02  0.00000000000E+00 0.  1.
         11    1    3    3    0    0  0.14872045975E+01  0.22450101554E+02  0.16490249581E+02  0.27895289366E+02  0.51100000000E-03 0. -1.
        -11    1    3    3    0    0 -0.47006425966E+01  0.70217205221E+01  0.87008228803E+01  0.12128681667E+02  0.51100000000E-03 0.  1.
         12    1    3    3    0    0  0.78852172980E+01  0.52438292661E+01 -0.45473429189E+01  0.10504890520E+02  0.00000000000E+00 0. -1.
</event>
<event>
 7    1  0.2937071E-011  0.5052889E+02  0.7816164E-02  0.1300439E+00
        -11   -1    0    0    0    0  0.00000000000E+00  0.00000000000E+00  0.45593999997E+02  0.45594000000E+02  0.51100000000E-03 0.  1.
         11   -1    0    0    0    0 -0.00000000000E+00 -0.00000000000E+00 -0.45593999997E+02  0.45594000000E+02  0.51100000000E-03 0. -1.
    9900012    2    1    2    0    0 -0.70114013312E+01 -0.85314258224E+01 -0.39130787350E+02  0.50528886706E+02  0.30000081632E+02 0.  0.
        -12    1    1    2    0    0  0.70114013312E+01  0.85314258224E+01  0.39130787350E+02  0.40659113294E+02  0.00000000000E+00 0.  1.
         11    1    3    3    0    0 -0.31893031772E+01  0.33030790975E+01 -0.14683610861E+00  0.45938597480E+01  0.51100000000E-03 0. -1.
        -11    1    3    3    0    0 -0.65632900438E+01 -0.27834800185E+01 -0.15114401343E+01  0.72875914233E+01  0.51100000000E-03 0.  1.
         12    1    3    3    0    0  0.27411918898E+01 -0.90510249013E+01 -0.37472511107E+02  0.38647435535E+02  0.00000000000E+00 0. -1.
</event>
<event>
 7    1  0.2937071E-011  0.5052887E+02  0.7816164E-02  0.1300439E+00
        -11   -1    0    0    0    0  0.00000000000E+00  0.00000000000E+00  0.45593999997E+02  0.45594000000E+02  0.51100000000E-03 0.  1.
         11   -1    0    0    0    0 -0.00000000000E+00 -0.00000000000E+00 -0.45593999997E+02  0.45594000000E+02  0.51100000000E-03 0. -1.
    9900012    2    1    2    0    0  0.53760831233E+01  0.30427030386E+02 -0.26428358517E+02  0.50528873327E+02  0.30000040966E+02 0.  0.
        -12    1    1    2    0    0 -0.53760831233E+01 -0.30427030386E+02  0.26428358517E+02  0.40659126673E+02  0.00000000000E+00 0.  1.
         11    1    3    3    0    0 -0.15393871176E+01  0.21150245073E+02 -0.11096929064E+02  0.23934168343E+02  0.51100000000E-03 0. -1.
        -11    1    3    3    0    0  0.14292716433E+01  0.20512681564E+01  0.42968172527E+01  0.49712329702E+01  0.51100000000E-03 0.  1.
        -12    1    3    3    0    0  0.54861985975E+01  0.72255171569E+01 -0.19628246706E+02  0.21623472015E+02  0.00000000000E+00 0.  1.
</event>
<event>
 7    1  0.2937071E-011  0.5052886E+02  0.7816164E-02  0.1300439E+00
        -11   -1    0    0    0    0  0.00000000000E+00  0.00000000000E+00  0.45593999997E+02  0.45594000000E+02  0.51100000000E-03 0.  1.
         11   -1    0    0    0    0 -0.00000000000E+00 -0.00000000000E+00 -0.45593999997E+02  0.45594000000E+02  0.51100000000E-03 0. -1.
    9900012    2    1    2    0    0 -0.23297434258E+02  0.16927749518E+02 -0.28702731430E+02  0.50528856645E+02  0.29999990259E+02 0.  0.
        -12    1    1    2    0    0  0.23297434258E+02 -0.16927749518E+02  0.28702731430E+02  0.40659143355E+02  0.00000000000E+00 0.  1.
         11    1    3    3    0    0 -0.48142984007E+01  0.88913773044E+01 -0.34654684707E+01  0.10688476573E+02  0.51100000000E-03 0. -1.
        -11    1    3    3    0    0 -0.13233828350E+02  0.15600181227E+02 -0.12003028071E+02  0.23718611895E+02  0.51100000000E-03 0.  1.
         12    1    3    3    0    0 -0.52493075077E+01 -0.75638090128E+01 -0.13234234888E+02  0.16121768178E+02  0.00000000000E+00 0. -1.
</event>
<event>
 7    1  0.2937071E-011  0.5052886E+02  0.7816164E-02  0.1300439E+00
        -11   -1    0    0    0    0  0.00000000000E+00  0.00000000000E+00  0.45593999997E+02  0.45594000000E+02  0.51100000000E-03 0.  1.
         11   -1    0    0    0    0 -0.00000000000E+00 -0.00000000000E+00 -0.45593999997E+02  0.45594000000E+02  0.51100000000E-03 0. -1.
    9900012    2    1    2    0    0 -0.11268190266E+02  0.38993891820E+02 -0.23812048773E+01  0.50528857759E+02  0.29999993644E+02 0.  0.
        -12    1    1    2    0    0  0.11268190266E+02 -0.38993891820E+02  0.23812048773E+01  0.40659142241E+02  0.00000000000E+00 0.  1.
         11    1    3    3    0    0 -0.12332232286E+02  0.86358724429E+01 -0.50264244786E+01  0.15872214380E+02  0.51100000000E-03 0. -1.
        -11    1    3    3    0    0 -0.36902204255E+01  0.29461730964E+02  0.18099074638E+01  0.29747051677E+02  0.51100000000E-03 0.  1.
        -12    1    3    3    0    0  0.47542624453E+01  0.89628841295E+00  0.83531213758E+00  0.49095917025E+01  0.00000000000E+00 0.  1.
</event>
<event>
 7    1  0.2937071E-011  0.5052886E+02  0.7816164E-02  0.1300439E+00
        -11   -1    0    0    0    0  0.00000000000E+00  0.00000000000E+00  0.45593999997E+02  0.45594000000E+02  0.51100000000E-03 0. -1.
         11   -1    0    0    0    0 -0.00000000000E+00 -0.00000000000E+00 -0.45593999997E+02  0.45594000000E+02  0.51100000000E-03 0.  1.
    9900012    2    1    2    0    0  0.39215097704E+01  0.16477711753E+02  0.36963124339E+02  0.50528858539E+02  0.29999996014E+02 0.  0.
        -12    1    1    2    0    0 -0.39215097704E+01 -0.16477711753E+02 -0.36963124339E+02  0.40659141461E+02  0.00000000000E+00 0.  1.
         11    1    3    3    0    0 -0.35962598757E+01  0.18539707395E+01  0.48749810713E+01  0.63352768924E+01  0.51100000000E-03 0.  1.
        -11    1    3    3    0    0  0.54805602364E+00  0.86588142215E+01  0.33770205412E+02  0.34866921329E+02  0.51100000000E-03 0. -1.
        -12    1    3    3    0    0  0.69697136225E+01  0.59649267920E+01 -0.16820621445E+01  0.93266603171E+01  0.00000000000E+00 0.  1.
</event>
<event>
 7    1  0.2937071E-011  0.5052886E+02  0.7816164E-02  0.1300439E+00
        -11   -1    0    0    0    0  0.00000000000E+00  0.00000000000E+00  0.45593999997E+02  0.45594000000E+02  0.51100000000E-03 0.  1.
         11   -1    0    0    0    0 -0.00000000000E+00 -0.00000000000E+00 -0.45593999997E+02  0.45594000000E+02  0.51100000000E-03 0. -1.
    9900012    2    1    2    0    0 -0.29093888955E+02  0.40158000667E+01 -0.28117337294E+02  0.50528859808E+02  0.29999999872E+02 0.  0.
        -12    1    1    2    0    0  0.29093888955E+02 -0.40158000667E+01  0.28117337294E+02  0.40659140192E+02  0.00000000000E+00 0.  1.
         11    1    3    3    0    0 -0.50427536945E+01 -0.70618015087E+01 -0.71415688619E+00  0.87068034140E+01  0.51100000000E-03 0. -1.
        -11    1    3    3    0    0 -0.11492230787E+02 -0.37271820174E+01 -0.12131244407E+02  0.17121049775E+02  0.51100000000E-03 0.  1.
        -12    1    3    3    0    0 -0.12558904473E+02  0.14804783593E+02 -0.15271936001E+02  0.24701006619E+02  0.00000000000E+00 0.  1.
</event>
<event>
 7    1  0.2937071E-011  0.5052886E+02  0.7816164E-02  0.1300439E+00
        -11   -1    0    0    0    0  0.00000000000E+00  0.00000000000E+00  0.45593999997E+02  0.45594000000E+02  0.51100000000E-03 0. -1.
         11   -1    0    0    0    0 -0.00000000000E+00 -0.00000000000E+00 -0.45593999997E+02  0.45594000000E+02  0.51100000000E-03 0.  1.
    9900012    2    1    2    0    0 -0.13450269664E+02 -0.53853843624E+01  0.37990173840E+02  0.50528862931E+02  0.30000009365E+02 0.  0.
        -12    1    1    2    0    0  0.13450269664E+02  0.53853843624E+01 -0.37990173840E+02  0.40659137069E+02  0.00000000000E+00 0.  1.
         11    1    3    3    0    0 -0.65938209049E+01 -0.21206372071E+01  0.11711163761E+01  0.70247484024E+01  0.51100000000E-03 0. -1.
        -11    1    3    3    0    0 -0.10176650584E+02  0.69561424609E+01  0.21663228007E+02  0.24924838675E+02  0.51100000000E-03 0.  1.
         12    1    3    3    0    0  0.33202018245E+01 -0.10220889616E+02  0.15155829457E+02  0.18579275853E+02  0.00000000000E+00 0. -1.
</event>
<event>
 7    1  0.2937071E-011  0.5052881E+02  0.7816164E-02  0.1300439E+00
        -11   -1    0    0    0    0  0.00000000000E+00  0.00000000000E+00  0.45593999997E+02  0.45594000000E+02  0.51100000000E-03 0. -1.
         11   -1    0    0    0    0 -0.00000000000E+00 -0.00000000000E+00 -0.45593999997E+02  0.45594000000E+02  0.51100000000E-03 0.  1.
    9900012    2    1    2    0    0  0.38858861935E+02 -0.70481198879E+01  0.96686317692E+01  0.50528811799E+02  0.29999853944E+02 0.  0.
        -12    1    1    2    0    0 -0.38858861935E+02  0.70481198879E+01 -0.96686317692E+01  0.40659188201E+02  0.00000000000E+00 0.  1.
         11    1    3    3    0    0  0.49322962520E+01 -0.27448779583E+01  0.24992337941E+01  0.61731735066E+01  0.51100000000E-03 0. -1.
        -11    1    3    3    0    0  0.17221453861E+02 -0.11277229458E+02 -0.65935132792E+01  0.21615475821E+02  0.51100000000E-03 0.  1.
         12    1    3    3    0    0  0.16705111822E+02  0.69739875286E+01  0.13762911254E+02  0.22740162472E+02  0.00000000000E+00 0. -1.
</event>
<event>
 7    1  0.2937071E-011  0.5052886E+02  0.7816164E-02  0.1300439E+00
        -11   -1    0    0    0    0  0.00000000000E+00  0.00000000000E+00  0.45593999997E+02  0.45594000000E+02  0.51100000000E-03 0.  1.
         11   -1    0    0    0    0 -0.00000000000E+00 -0.00000000000E+00 -0.45593999997E+02  0.45594000000E+02  0.51100000000E-03 0. -1.
    9900012    2    1    2    0    0  0.28988085113E+02 -0.27499262080E+02 -0.75264277457E+01  0.50528860706E+02  0.30000002603E+02 0.  0.
        -12    1    1    2    0    0 -0.28988085113E+02  0.27499262080E+02  0.75264277457E+01  0.40659139294E+02  0.00000000000E+00 0.  1.
         11    1    3    3    0    0 -0.27434771204E+01 -0.43451861478E+00 -0.26721934557E+01  0.38543600328E+01  0.51100000000E-03 0.  1.
        -11    1    3    3    0    0  0.53987312922E+01 -0.53768655377E+01 -0.95732987336E+01  0.12235400749E+02  0.51100000000E-03 0. -1.
        -12    1    3    3    0    0  0.26332830942E+02 -0.21687877928E+02  0.47190644436E+01  0.34439099925E+02  0.00000000000E+00 0.  1.
</event>
<event>
 7    1  0.2937071E-011  0.5052887E+02  0.7816164E-02  0.1300439E+00
        -11   -1    0    0    0    0  0.00000000000E+00  0.00000000000E+00  0.45593999997E+02  0.45594000000E+02  0.51100000000E-03 0. -1.
         11   -1    0    0    0    0 -0.00000000000E+00 -0.00000000000E+00 -0.45593999997E+02  0.45594000000E+02  0.51100000000E-03 0.  1.
    9900012    2    1    2    0    0  0.12954206215E+02  0.38524512814E+02 -0.11025469948E+01  0.50528866265E+02  0.30000019500E+02 0.  0.
        -12    1    1    2    0    0 -0.12954206215E+02 -0.38524512814E+02  0.11025469948E+01  0.40659133735E+02  0.00000000000E+00 0.  1.
         11    1    3    3    0    0 -0.26327464378E+01  0.71662047939E+00 -0.15926474583E+00  0.27331784131E+01  0.51100000000E-03 0. -1.
        -11    1    3    3    0    0  0.32499660248E+01 -0.10059818999E+01 -0.58565881718E+01  0.67730276849E+01  0.51100000000E-03 0.  1.
         12    1    3    3    0    0  0.12336986628E+02  0.38813874234E+02  0.49133059228E+01  0.41022660167E+02  0.00000000000E+00 0. -1.
</event>
<event>
 7    1  0.2937071E-011  0.5052887E+02  0.7816164E-02  0.1300439E+00
        -11   -1    0    0    0    0  0.00000000000E+00  0.00000000000E+00  0.45593999997E+02  0.45594000000E+02  0.51100000000E-03 0. -1.
         11   -1    0    0    0    0 -0.00000000000E+00 -0.00000000000E+00 -0.45593999997E+02  0.45594000000E+02  0.51100000000E-03 0.  1.
    9900012    2    1    2    0    0  0.29044309272E-01 -0.40115321770E+02  0.66275945006E+01  0.50528869499E+02  0.30000029328E+02 0.  0.
        -12    1    1    2    0    0 -0.29044309272E-01  0.40115321770E+02 -0.66275945006E+01  0.40659130501E+02  0.00000000000E+00 0.  1.
         11    1    3    3    0    0 -0.31136424679E+01 -0.25860721987E+02  0.89739174596E+01  0.27550007367E+02  0.51100000000E-03 0. -1.
        -11    1    3    3    0    0 -0.30495011718E+01 -0.16077334023E+02 -0.10694654169E+01  0.16398898842E+02  0.51100000000E-03 0.  1.
         12    1    3    3    0    0  0.61921879490E+01  0.18227342405E+01 -0.12768575421E+01  0.65799632894E+01  0.00000000000E+00 0. -1.
</event>
<event>
 7    1  0.2937071E-011  0.5052887E+02  0.7816164E-02  0.1300439E+00
        -11   -1    0    0    0    0  0.00000000000E+00  0.00000000000E+00  0.45593999997E+02  0.45594000000E+02  0.51100000000E-03 0. -1.
         11   -1    0    0    0    0 -0.00000000000E+00 -0.00000000000E+00 -0.45593999997E+02  0.45594000000E+02  0.51100000000E-03 0.  1.
    9900012    2    1    2    0    0 -0.28202631932E+02  0.73614285942E+00  0.29278561812E+02  0.50528873891E+02  0.30000042679E+02 0.  0.
        -12    1    1    2    0    0  0.28202631932E+02 -0.73614285942E+00 -0.29278561812E+02  0.40659126109E+02  0.00000000000E+00 0.  1.
         11    1    3    3    0    0  0.15183727874E+01  0.64019610408E+01  0.15558462880E+02  0.16892493260E+02  0.51100000000E-03 0. -1.
        -11    1    3    3    0    0 -0.33484874352E+01  0.42053262777E+00  0.19748552101E+00  0.33805645367E+01  0.51100000000E-03 0.  1.
         12    1    3    3    0    0 -0.26372517284E+02 -0.60863508092E+01  0.13522613411E+02  0.30255816094E+02  0.00000000000E+00 0. -1.
</event>
<event>
 7    1  0.2937071E-011  0.5052886E+02  0.7816164E-02  0.1300439E+00
        -11   -1    0    0    0    0  0.00000000000E+00  0.00000000000E+00  0.45593999997E+02  0.45594000000E+02  0.51100000000E-03 0.  1.
         11   -1    0    0    0    0 -0.00000000000E+00 -0.00000000000E+00 -0.45593999997E+02  0.45594000000E+02  0.51100000000E-03 0. -1.
    9900012    2    1    2    0    0 -0.38692111751E+02 -0.61350377259E+01 -0.10883357814E+02  0.50528859860E+02  0.30000000030E+02 0.  0.
        -12    1    1    2    0    0  0.38692111751E+02  0.61350377259E+01  0.10883357814E+02  0.40659140140E+02  0.00000000000E+00 0.  1.
         11    1    3    3    0    0 -0.24399090587E+02 -0.12149824946E+02 -0.20932062047E+01  0.27337069707E+02  0.51100000000E-03 0. -1.
        -11    1    3    3    0    0 -0.14872666957E+02  0.37213173431E+01 -0.13567721724E+01  0.15391077160E+02  0.51100000000E-03 0.  1.
        -12    1    3    3    0    0  0.57964579311E+00  0.22934698773E+01 -0.74333794373E+01  0.78007129920E+01  0.00000000000E+00 0.  1.
</event>
<event>
 7    1  0.2937071E-011  0.5052885E+02  0.7816164E-02  0.1300439E+00
        -11   -1    0    0    0    0  0.00000000000E+00  0.00000000000E+00  0.45593999997E+02  0.45594000000E+02  0.51100000000E-03 0. -1.
         11   -1    0    0    0    0 -0.00000000000E+00 -0.00000000000E+00 -0.45593999997E+02  0.45594000000E+02  0.51100000000E-03 0.  1.
    9900012    2    1    2    0    0  0.17196480629E+02 -0.30161628550E+02  0.21159480010E+02  0.50528851250E+02  0.29999973860E+02 0.  0.
        -12    1    1    2    0    0 -0.17196480629E+02  0.30161628550E+02 -0.21159480010E+02  0.40659148750E+02  0.00000000000E+00 0.  1.
         11    1    3    3    0    0  0.10351661384E+02 -0.18235815648E+02  0.36390362064E+01  0.21282491643E+02  0.51100000000E-03 0. -1.
        -11    1    3    3    0    0  0.54665552847E+01 -0.16306554790E+02  0.86354679690E+01  0.19244694415E+02  0.51100000000E-03 0.  1.
         12    1    3    3    0    0  0.13782639601E+01  0.43807418889E+01  0.88849758344E+01  0.10001665192E+02  0.00000000000E+00 0. -1.
</event>
<event>
 7    1  0.2937071E-011  0.5052886E+02  0.7816164E-02  0.1300439E+00
        -11   -1    0    0    0    0  0.00000000000E+00  0.00000000000E+00  0.45593999997E+02  0.45594000000E+02  0.51100000000E-03 0. -1.
         11   -1    0    0    0    0 -0.00000000000E+00 -0.00000000000E+00 -0.45593999997E+02  0.45594000000E+02  0.51100000000E-03 0.  1.
    9900012    2    1    2    0    0  0.30368348746E+02  0.22770328592E+01  0.26939632681E+02  0.50528864579E+02  0.30000014374E+02 0.  0.
        -12    1    1    2    0    0 -0.30368348746E+02 -0.22770328592E+01 -0.26939632681E+02  0.40659135421E+02  0.00000000000E+00 0.  1.
         11    1    3    3    0    0  0.43549081266E+01 -0.60607088233E+01  0.14804991320E+02  0.16579661772E+02  0.51100000000E-03 0. -1.
        -11    1    3    3    0    0  0.43273445721E+01  0.72635498965E+00  0.99353793708E+01  0.10861181617E+02  0.51100000000E-03 0.  1.
        -12    1    3    3    0    0  0.21686096047E+02  0.76113866928E+01  0.21992619906E+01  0.23088021190E+02  0.00000000000E+00 0.  1.
</event>
<event>
 7    1  0.2937071E-011  0.5052892E+02  0.7816164E-02  0.1300439E+00
        -11   -1    0    0    0    0  0.00000000000E+00  0.00000000000E+00  0.45593999997E+02  0.45594000000E+02  0.51100000000E-03 0.  1.
         11   -1    0    0    0    0 -0.00000000000E+00 -0.00000000000E+00 -0.45593999997E+02  0.45594000000E+02  0.51100000000E-03 0. -1.
    9900012    2    1    2    0    0  0.22197493324E+02 -0.33834848195E+02 -0.39541088053E+01  0.50528921817E+02  0.30000188355E+02 0.  0.
        -12    1    1    2    0    0 -0.22197493324E+02  0.33834848195E+02  0.39541088053E+01  0.40659078183E+02  0.00000000000E+00 0.  1.
         11    1    3    3    0    0  0.15805908969E+02 -0.11073273685E+02  0.42265224317E+01  0.19756205115E+02  0.51100000000E-03 0. -1.
        -11    1    3    3    0    0 -0.17810937646E+01  0.18288860176E+01  0.16699737023E+01  0.30505624877E+01  0.51100000000E-03 0.  1.
        -12    1    3    3    0    0  0.81726781197E+01 -0.24590460528E+02 -0.98506049394E+01  0.27722154214E+02  0.00000000000E+00 0.  1.
</event>
<event>
 7    1  0.2937071E-011  0.5052887E+02  0.7816164E-02  0.1300439E+00
        -11   -1    0    0    0    0  0.00000000000E+00  0.00000000000E+00  0.45593999997E+02  0.45594000000E+02  0.51100000000E-03 0.  1.
         11   -1    0    0    0    0 -0.00000000000E+00 -0.00000000000E+00 -0.45593999997E+02  0.45594000000E+02  0.51100000000E-03 0. -1.
    9900012    2    1    2    0    0  0.20880690416E+02  0.18034916120E+02 -0.29864749316E+02  0.50528872078E+02  0.30000037168E+02 0.  0.
        -12    1    1    2    0    0 -0.20880690416E+02 -0.18034916120E+02  0.29864749316E+02  0.40659127922E+02  0.00000000000E+00 0.  1.
         11    1    3    3    0    0  0.50082725980E+01  0.71117791441E+01 -0.10419919489E+02  0.13573316449E+02  0.51100000000E-03 0. -1.
        -11    1    3    3    0    0  0.16015842765E+02  0.17238814065E+02 -0.99422498337E+01  0.25544711035E+02  0.51100000000E-03 0.  1.
        -12    1    3    3    0    0 -0.14342494709E+00 -0.63156770898E+01 -0.95025799931E+01  0.11410844594E+02  0.00000000000E+00 0.  1.
</event>
<event>
 7    1  0.2937071E-011  0.5052886E+02  0.7816164E-02  0.1300439E+00
        -11   -1    0    0    0    0  0.00000000000E+00  0.00000000000E+00  0.45593999997E+02  0.45594000000E+02  0.51100000000E-03 0.  1.
         11   -1    0    0    0    0 -0.00000000000E+00 -0.00000000000E+00 -0.45593999997E+02  0.45594000000E+02  0.51100000000E-03 0. -1.
    9900012    2    1    2    0    0  0.37464017373E+02  0.14771859671E+02 -0.56040345339E+01  0.50528860328E+02  0.30000001451E+02 0.  0.
        -12    1    1    2    0    0 -0.37464017373E+02 -0.14771859671E+02  0.56040345339E+01  0.40659139672E+02  0.00000000000E+00 0.  1.
         11    1    3    3    0    0  0.13892185053E+02  0.50897033279E+01 -0.41242667123E+01  0.15359279335E+02  0.51100000000E-03 0. -1.
        -11    1    3    3    0    0  0.27480183521E+02  0.11905573257E+02 -0.36621576848E+01  0.30171419590E+02  0.51100000000E-03 0.  1.
        -12    1    3    3    0    0 -0.39083512013E+01 -0.22234169141E+01  0.21823898631E+01  0.49981614021E+01  0.00000000000E+00 0.  1.
</event>
<event>
 7    1  0.2937071E-011  0.5052887E+02  0.7816164E-02  0.1300439E+00
        -11   -1    0    0    0    0  0.00000000000E+00  0.00000000000E+00  0.45593999997E+02  0.45594000000E+02  0.51100000000E-03 0.  1.
         11   -1    0    0    0    0 -0.00000000000E+00 -0.00000000000E+00 -0.45593999997E+02  0.45594000000E+02  0.51100000000E-03 0. -1.
    9900012    2    1    2    0    0  0.21229310309E+02 -0.34282035507E+02 -0.52175838313E+01  0.50528871188E+02  0.30000034463E+02 0.  0.
        -12    1    1    2    0    0 -0.21229310309E+02  0.34282035507E+02  0.52175838313E+01  0.40659128812E+02  0.00000000000E+00 0.  1.
         11    1    3    3    0    0  0.21713282214E+02 -0.15833081207E+02 -0.15633889934E+01  0.26918344496E+02  0.51100000000E-03 0. -1.
        -11    1    3    3    0    0  0.48309966711E+01 -0.11703473487E+01  0.68970899107E+00  0.50183603405E+01  0.51100000000E-03 0.  1.
        -12    1    3    3    0    0 -0.53149685763E+01 -0.17278606952E+02 -0.43439038290E+01  0.18592166351E+02  0.00000000000E+00 0.  1.
</event>
<event>
 7    1  0.2937071E-011  0.5052886E+02  0.7816164E-02  0.1300439E+00
        -11   -1    0    0    0    0  0.00000000000E+00  0.00000000000E+00  0.45593999997E+02  0.45594000000E+02  0.51100000000E-03 0.  1.
         11   -1    0    0    0    0 -0.00000000000E+00 -0.00000000000E+00 -0.45593999997E+02  0.45594000000E+02  0.51100000000E-03 0. -1.
    9900012    2    1    2    0    0  0.36733231284E+01 -0.37807516827E+02  0.14500488355E+02  0.50528858420E+02  0.29999995654E+02 0.  0.
        -12    1    1    2    0    0 -0.36733231284E+01  0.37807516827E+02 -0.14500488355E+02  0.40659141580E+02  0.00000000000E+00 0.  1.
         11    1    3    3    0    0 -0.44341419613E+01 -0.86363915288E+01  0.46831996487E+01  0.10778739851E+02  0.51100000000E-03 0. -1.
        -11    1    3    3    0    0 -0.36164474961E+01 -0.20966027906E+02  0.13210538178E+02  0.25043389105E+02  0.51100000000E-03 0.  1.
        -12    1    3    3    0    0  0.11723912586E+02 -0.82050973922E+01 -0.33932494718E+01  0.14706729463E+02  0.00000000000E+00 0.  1.
</event>
<event>
 7    1  0.2937071E-011  0.5052885E+02  0.7816164E-02  0.1300439E+00
        -11   -1    0    0    0    0  0.00000000000E+00  0.00000000000E+00  0.45593999997E+02  0.45594000000E+02  0.51100000000E-03 0.  1.
         11   -1    0    0    0    0 -0.00000000000E+00 -0.00000000000E+00 -0.45593999997E+02  0.45594000000E+02  0.51100000000E-03 0. -1.
    9900012    2    1    2    0    0  0.16165238169E+02  0.30343935872E+02 -0.21704762461E+02  0.50528854869E+02  0.29999984860E+02 0.  0.
        -12    1    1    2    0    0 -0.16165238169E+02 -0.30343935872E+02  0.21704762461E+02  0.40659145131E+02  0.00000000000E+00 0.  1.
         11    1    3    3    0    0  0.90286514991E+00  0.27008545427E+01 -0.48633391294E+01  0.56357651200E+01  0.51100000000E-03 0. -1.
        -11    1    3    3    0    0 -0.31012113272E+01 -0.35272344939E+01 -0.49203728058E+01  0.68021293489E+01  0.51100000000E-03 0.  1.
        -12    1    3    3    0    0  0.18363584346E+02  0.31170315823E+02 -0.11921050526E+02  0.38090960400E+02  0.00000000000E+00 0.  1.
</event>
<event>
 7    1  0.2937071E-011  0.5052886E+02  0.7816164E-02  0.1300439E+00
        -11   -1    0    0    0    0  0.00000000000E+00  0.00000000000E+00  0.45593999997E+02  0.45594000000E+02  0.51100000000E-03 0.  1.
         11   -1    0    0    0    0 -0.00000000000E+00 -0.00000000000E+00 -0.45593999997E+02  0.45594000000E+02  0.51100000000E-03 0. -1.
    9900012    2    1    2    0    0 -0.70678468257E+01 -0.16215885836E+02 -0.36609511895E+02  0.50528858673E+02  0.29999996424E+02 0.  0.
        -12    1    1    2    0    0  0.70678468257E+01  0.16215885836E+02  0.36609511895E+02  0.40659141327E+02  0.00000000000E+00 0.  1.
         11    1    3    3    0    0 -0.43997440969E+01 -0.10792935652E+02 -0.14750397740E+02  0.18799453232E+02  0.51100000000E-03 0. -1.
        -11    1    3    3    0    0 -0.10982710250E+02 -0.27925074127E+01 -0.19729468637E+02  0.22752361527E+02  0.51100000000E-03 0.  1.
        -12    1    3    3    0    0  0.83146075212E+01 -0.26304427716E+01 -0.21296455188E+01  0.89770439144E+01  0.00000000000E+00 0.  1.
</event>
<event>
 7    1  0.2937071E-011  0.5052887E+02  0.7816164E-02  0.1300439E+00
        -11   -1    0    0    0    0  0.00000000000E+00  0.00000000000E+00  0.45593999997E+02  0.45594000000E+02  0.51100000000E-03 0.  1.
         11   -1    0    0    0    0 -0.00000000000E+00 -0.00000000000E+00 -0.45593999997E+02  0.45594000000E+02  0.51100000000E-03 0. -1.
    9900012    2    1    2    0    0 -0.28619036653E+02 -0.28078690789E+02  0.67603979419E+01  0.50528866761E+02  0.30000021008E+02 0.  0.
        -12    1    1    2    0    0  0.28619036653E+02  0.28078690789E+02 -0.67603979419E+01  0.40659133239E+02  0.00000000000E+00 0.  1.
         11    1    3    3    0    0 -0.28457427905E+02 -0.17333923393E+02  0.92045056992E+01  0.34568960479E+02  0.51100000000E-03 0. -1.
        -11    1    3    3    0    0 -0.28571865229E+01  0.84887442144E+00  0.16073592000E+01  0.33864002228E+01  0.51100000000E-03 0.  1.
         12    1    3    3    0    0  0.26955777746E+01 -0.11593641817E+02 -0.40514669573E+01  0.12573506060E+02  0.00000000000E+00 0. -1.
</event>
<event>
 7    1  0.2937071E-011  0.5052886E+02  0.7816164E-02  0.1300439E+00
        -11   -1    0    0    0    0  0.00000000000E+00  0.00000000000E+00  0.45593999997E+02  0.45594000000E+02  0.51100000000E-03 0. -1.
         11   -1    0    0    0    0 -0.00000000000E+00 -0.00000000000E+00 -0.45593999997E+02  0.45594000000E+02  0.51100000000E-03 0.  1.
    9900012    2    1    2    0    0 -0.34637853387E+02 -0.10137391520E+02 -0.18724805583E+02  0.50528856647E+02  0.29999990264E+02 0.  0.
        -12    1    1    2    0    0  0.34637853387E+02  0.10137391520E+02  0.18724805583E+02  0.40659143353E+02  0.00000000000E+00 0.  1.
         11    1    3    3    0    0 -0.16662736154E+02  0.61921901986E+01 -0.14199262255E+01  0.17832727955E+02  0.51100000000E-03 0. -1.
        -11    1    3    3    0    0  0.97845479985E+00 -0.42962427325E+01 -0.93796186622E-01  0.44072523637E+01  0.51100000000E-03 0.  1.
        -12    1    3    3    0    0 -0.18953572033E+02 -0.12033338987E+02 -0.17211083171E+02  0.28288876328E+02  0.00000000000E+00 0.  1.
</event>
<event>
 7    1  0.2937071E-011  0.5052886E+02  0.7816164E-02  0.1300439E+00
        -11   -1    0    0    0    0  0.00000000000E+00  0.00000000000E+00  0.45593999997E+02  0.45594000000E+02  0.51100000000E-03 0.  1.
         11   -1    0    0    0    0 -0.00000000000E+00 -0.00000000000E+00 -0.45593999997E+02  0.45594000000E+02  0.51100000000E-03 0. -1.
    9900012    2    1    2    0    0 -0.34450533382E+02 -0.19113707711E+02 -0.10049526773E+02  0.50528855136E+02  0.29999985671E+02 0.  0.
        -12    1    1    2    0    0  0.34450533382E+02  0.19113707711E+02  0.10049526773E+02  0.40659144864E+02  0.00000000000E+00 0.  1.
         11    1    3    3    0    0 -0.63651374140E+00 -0.18360808327E+01 -0.10247503505E+02  0.10430132833E+02  0.51100000000E-03 0. -1.
        -11    1    3    3    0    0 -0.59754581117E+01 -0.88243954245E+01  0.23922540782E+01  0.10922405142E+02  0.51100000000E-03 0.  1.
         12    1    3    3    0    0 -0.27838561528E+02 -0.84532314535E+01 -0.21942773456E+01  0.29176317160E+02  0.00000000000E+00 0. -1.
</event>
<event>
 7    1  0.2937071E-011  0.5052887E+02  0.7816164E-02  0.1300439E+00
        -11   -1    0    0    0    0  0.00000000000E+00  0.00000000000E+00  0.45593999997E+02  0.45594000000E+02  0.51100000000E-03 0. -1.
         11   -1    0    0    0    0 -0.00000000000E+00 -0.00000000000E+00 -0.45593999997E+02  0.45594000000E+02  0.51100000000E-03 0.  1.
    9900012    2    1    2    0    0  0.16653716913E+02  0.18224548905E+02  0.32306099753E+02  0.50528873705E+02  0.30000042114E+02 0.  0.
        -12    1    1    2    0    0 -0.16653716913E+02 -0.18224548905E+02 -0.32306099753E+02  0.40659126295E+02  0.00000000000E+00 0.  1.
         11    1    3    3    0    0 -0.31278602974E+01  0.99796253082E+01  0.21212957600E+02  0.23650919681E+02  0.51100000000E-03 0. -1.
        -11    1    3    3    0    0  0.84619106537E+01  0.95755598884E+01  0.37419705647E+01  0.13315315357E+02  0.51100000000E-03 0.  1.
        -12    1    3    3    0    0  0.11319666557E+02 -0.13306362919E+01  0.73511715883E+01  0.13562638668E+02  0.00000000000E+00 0.  1.
</event>
<event>
 7    1  0.2937071E-011  0.5052887E+02  0.7816164E-02  0.1300439E+00
        -11   -1    0    0    0    0  0.00000000000E+00  0.00000000000E+00  0.45593999997E+02  0.45594000000E+02  0.51100000000E-03 0. -1.
         11   -1    0    0    0    0 -0.00000000000E+00 -0.00000000000E+00 -0.45593999997E+02  0.45594000000E+02  0.51100000000E-03 0.  1.
    9900012    2    1    2    0    0  0.17143167459E+02  0.36033550705E-01  0.36868357230E+02  0.50528865064E+02  0.30000015848E+02 0.  0.
        -12    1    1    2    0    0 -0.17143167459E+02 -0.36033550705E-01 -0.36868357230E+02  0.40659134936E+02  0.00000000000E+00 0.  1.
         11    1    3    3    0    0 -0.26002101481E+01 -0.13261688346E+01 -0.24407182006E+00  0.29290592187E+01  0.51100000000E-03 0. -1.
        -11    1    3    3    0    0  0.55730256602E+01  0.38552633406E+01 -0.10111128519E+01  0.68515706152E+01  0.51100000000E-03 0.  1.
         12    1    3    3    0    0  0.14170351947E+02 -0.24930609553E+01  0.38123541902E+02  0.40748235230E+02  0.00000000000E+00 0. -1.
</event>
<event>
 7    1  0.2937071E-011  0.5052889E+02  0.7816164E-02  0.1300439E+00
        -11   -1    0    0    0    0  0.00000000000E+00  0.00000000000E+00  0.45593999997E+02  0.45594000000E+02  0.51100000000E-03 0.  1.
         11   -1    0    0    0    0 -0.00000000000E+00 -0.00000000000E+00 -0.45593999997E+02  0.45594000000E+02  0.51100000000E-03 0. -1.
    9900012    2    1    2    0    0 -0.14084371161E+02  0.28580376718E+02 -0.25257783062E+02  0.50528892170E+02  0.30000098240E+02 0.  0.
        -12    1    1    2    0    0  0.14084371161E+02 -0.28580376718E+02  0.25257783062E+02  0.40659107830E+02  0.00000000000E+00 0.  1.
         11    1    3    3    0    0 -0.31248625522E+01  0.21078759734E+02 -0.15649726192E+02  0.26438472120E+02  0.51100000000E-03 0. -1.
        -11    1    3    3    0    0 -0.10347439740E+02  0.80931170381E+01 -0.14244119534E+02  0.19376867500E+02  0.51100000000E-03 0.  1.
         12    1    3    3    0    0 -0.61206886875E+00 -0.59150005415E+00  0.46360626641E+01  0.47135525498E+01  0.00000000000E+00 0. -1.
</event>
<event>
 7    1  0.2937071E-011  0.5052886E+02  0.7816164E-02  0.1300439E+00
        -11   -1    0    0    0    0  0.00000000000E+00  0.00000000000E+00  0.45593999997E+02  0.45594000000E+02  0.51100000000E-03 0.  1.
         11   -1    0    0    0    0 -0.00000000000E+00 -0.00000000000E+00 -0.45593999997E+02  0.45594000000E+02  0.51100000000E-03 0. -1.
    9900012    2    1    2    0    0 -0.87261219644E+01 -0.16093895715E+02 -0.36304363164E+02  0.50528862423E+02  0.30000007820E+02 0.  0.
        -12    1    1    2    0    0  0.87261219644E+01  0.16093895715E+02  0.36304363164E+02  0.40659137577E+02  0.00000000000E+00 0.  1.
         11    1    3    3    0    0  0.43281919277E+01 -0.24970180883E+01 -0.18616151660E+01  0.53323499494E+01  0.51100000000E-03 0. -1.
        -11    1    3    3    0    0  0.60055225106E+01 -0.59255532559E+01 -0.13014652971E+02  0.15509986274E+02  0.51100000000E-03 0.  1.
         12    1    3    3    0    0 -0.19059836403E+02 -0.76713243706E+01 -0.21428095027E+02  0.29686526199E+02  0.00000000000E+00 0. -1.
</event>
<event>
 7    1  0.2937071E-011  0.5052886E+02  0.7816164E-02  0.1300439E+00
        -11   -1    0    0    0    0  0.00000000000E+00  0.00000000000E+00  0.45593999997E+02  0.45594000000E+02  0.51100000000E-03 0.  1.
         11   -1    0    0    0    0 -0.00000000000E+00 -0.00000000000E+00 -0.45593999997E+02  0.45594000000E+02  0.51100000000E-03 0. -1.
    9900012    2    1    2    0    0  0.12494034184E+00 -0.14005004322E+02 -0.38170794038E+02  0.50528864819E+02  0.30000015104E+02 0.  0.
        -12    1    1    2    0    0 -0.12494034184E+00  0.14005004322E+02  0.38170794038E+02  0.40659135181E+02  0.00000000000E+00 0.  1.
         11    1    3    3    0    0 -0.83193883499E+01 -0.14670012417E+02 -0.25307843703E+02  0.30412307377E+02  0.51100000000E-03 0. -1.
        -11    1    3    3    0    0  0.16419936193E+01 -0.42069357388E+01  0.29278558839E+00  0.45255027365E+01  0.51100000000E-03 0.  1.
         12    1    3    3    0    0  0.68023350724E+01  0.48719438335E+01 -0.13155735924E+02  0.15591054706E+02  0.00000000000E+00 0. -1.
</event>
<event>
 7    1  0.2937071E-011  0.5052886E+02  0.7816164E-02  0.1300439E+00
        -11   -1    0    0    0    0  0.00000000000E+00  0.00000000000E+00  0.45593999997E+02  0.45594000000E+02  0.51100000000E-03 0. -1.
         11   -1    0    0    0    0 -0.00000000000E+00 -0.00000000000E+00 -0.45593999997E+02  0.45594000000E+02  0.51100000000E-03 0.  1.
    9900012    2    1    2    0    0  0.60574576312E+01 -0.22457896088E+02  0.33348401547E+02  0.50528858649E+02  0.29999996351E+02 0.  0.
        -12    1    1    2    0    0 -0.60574576312E+01  0.22457896088E+02 -0.33348401547E+02  0.40659141351E+02  0.00000000000E+00 0.  1.
         11    1    3    3    0    0 -0.39426138507E+01  0.24901587764E+01  0.15300992309E+02  0.15995795092E+02  0.51100000000E-03 0. -1.
        -11    1    3    3    0    0  0.12691410815E+01  0.32989104627E+00 -0.10426228837E+01  0.16752939819E+01  0.51100000000E-03 0.  1.
         12    1    3    3    0    0  0.87309304004E+01 -0.25277945910E+02  0.19090032121E+02  0.32857769576E+02  0.00000000000E+00 0. -1.
</event>
<event>
 7    1  0.2937071E-011  0.5052890E+02  0.7816164E-02  0.1300439E+00
        -11   -1    0    0    0    0  0.00000000000E+00  0.00000000000E+00  0.45593999997E+02  0.45594000000E+02  0.51100000000E-03 0.  1.
         11   -1    0    0    0    0 -0.00000000000E+00 -0.00000000000E+00 -0.45593999997E+02  0.45594000000E+02  0.51100000000E-03 0. -1.
    9900012    2    1    2    0    0 -0.22755397102E+02  0.31056203881E+02  0.13071599782E+02  0.50528897481E+02  0.30000114383E+02 0.  0.
        -12    1    1    2    0    0  0.22755397102E+02 -0.31056203881E+02 -0.13071599782E+02  0.40659102519E+02  0.00000000000E+00 0.  1.
         11    1    3    3    0    0 -0.67262861173E+01  0.18803328123E+02  0.12782620560E+02  0.23710830059E+02  0.51100000000E-03 0. -1.
        -11    1    3    3    0    0 -0.29202711306E+01  0.11162017823E+02  0.53578826751E+01  0.12721066479E+02  0.51100000000E-03 0.  1.
         12    1    3    3    0    0 -0.13108839854E+02  0.10908579351E+01 -0.50689034531E+01  0.14097000943E+02  0.00000000000E+00 0. -1.
</event>
<event>
 7    1  0.2937071E-011  0.5052886E+02  0.7816164E-02  0.1300439E+00
        -11   -1    0    0    0    0  0.00000000000E+00  0.00000000000E+00  0.45593999997E+02  0.45594000000E+02  0.51100000000E-03 0. -1.
         11   -1    0    0    0    0 -0.00000000000E+00 -0.00000000000E+00 -0.45593999997E+02  0.45594000000E+02  0.51100000000E-03 0.  1.
    9900012    2    1    2    0    0 -0.30987966203E+02  0.34595711174E+01  0.26094886898E+02  0.50528858298E+02  0.29999995281E+02 0.  0.
        -12    1    1    2    0    0  0.30987966203E+02 -0.34595711174E+01 -0.26094886898E+02  0.40659141702E+02  0.00000000000E+00 0.  1.
         11    1    3    3    0    0 -0.87415525329E+01  0.42169262403E+01  0.18919500252E+02  0.21263694356E+02  0.51100000000E-03 0. -1.
        -11    1    3    3    0    0 -0.18460934301E+02  0.69789384707E+01  0.44506790572E+01  0.20231663841E+02  0.51100000000E-03 0.  1.
         12    1    3    3    0    0 -0.37854793695E+01 -0.77362935937E+01  0.27247075891E+01  0.90335001007E+01  0.00000000000E+00 0. -1.
</event>
<event>
 7    1  0.2937071E-011  0.5052885E+02  0.7816164E-02  0.1300439E+00
        -11   -1    0    0    0    0  0.00000000000E+00  0.00000000000E+00  0.45593999997E+02  0.45594000000E+02  0.51100000000E-03 0.  1.
         11   -1    0    0    0    0 -0.00000000000E+00 -0.00000000000E+00 -0.45593999997E+02  0.45594000000E+02  0.51100000000E-03 0. -1.
    9900012    2    1    2    0    0 -0.31250850288E+01 -0.21575153784E+02 -0.34320735149E+02  0.50528852463E+02  0.29999977547E+02 0.  0.
        -12    1    1    2    0    0  0.31250850288E+01  0.21575153784E+02  0.34320735149E+02  0.40659147537E+02  0.00000000000E+00 0.  1.
         11    1    3    3    0    0  0.47555822008E+01 -0.16695779401E+01 -0.17968346704E+02  0.18661847071E+02  0.51100000000E-03 0. -1.
        -11    1    3    3    0    0 -0.79437368791E+01 -0.40973504266E+01  0.25078370628E+00  0.89417072672E+01  0.51100000000E-03 0.  1.
         12    1    3    3    0    0  0.63069649566E-01 -0.15808225417E+02 -0.16603172151E+02  0.22925298125E+02  0.00000000000E+00 0. -1.
</event>
<event>
 7    1  0.2937071E-011  0.5052886E+02  0.7816164E-02  0.1300439E+00
        -11   -1    0    0    0    0  0.00000000000E+00  0.00000000000E+00  0.45593999997E+02  0.45594000000E+02  0.51100000000E-03 0.  1.
         11   -1    0    0    0    0 -0.00000000000E+00 -0.00000000000E+00 -0.45593999997E+02  0.45594000000E+02  0.51100000000E-03 0. -1.
    9900012    2    1    2    0    0  0.61981478102E+01  0.10685363212E+02 -0.38737213941E+02  0.50528858751E+02  0.29999996659E+02 0.  0.
        -12    1    1    2    0    0 -0.61981478102E+01 -0.10685363212E+02  0.38737213941E+02  0.40659141249E+02  0.00000000000E+00 0.  1.
         11    1    3    3    0    0  0.59274338015E+01 -0.13474070251E+01 -0.36130491237E+00  0.60893775268E+01  0.51100000000E-03 0.  1.
        -11    1    3    3    0    0 -0.38158534130E+01  0.14297269514E+02 -0.36534701013E+02  0.39417724836E+02  0.51100000000E-03 0. -1.
         12    1    3    3    0    0  0.40865674217E+01 -0.22644992771E+01 -0.18412080148E+01  0.50217563882E+01  0.00000000000E+00 0. -1.
</event>
<event>
 7    1  0.2937071E-011  0.5052886E+02  0.7816164E-02  0.1300439E+00
        -11   -1    0    0    0    0  0.00000000000E+00  0.00000000000E+00  0.45593999997E+02  0.45594000000E+02  0.51100000000E-03 0.  1.
         11   -1    0    0    0    0 -0.00000000000E+00 -0.00000000000E+00 -0.45593999997E+02  0.45594000000E+02  0.51100000000E-03 0. -1.
    9900012    2    1    2    0    0  0.10109497278E+02 -0.36019893673E+02  0.15922649236E+02  0.50528862846E+02  0.30000009106E+02 0.  0.
        -12    1    1    2    0    0 -0.10109497278E+02  0.36019893673E+02 -0.15922649236E+02  0.40659137154E+02  0.00000000000E+00 0.  1.
         11    1    3    3    0    0  0.71814655432E+01 -0.16499734600E+02 -0.54152930983E+00  0.18002998180E+02  0.51100000000E-03 0. -1.
        -11    1    3    3    0    0  0.79901972977E+01 -0.21237655615E+02  0.13730528464E+02  0.26521852896E+02  0.51100000000E-03 0.  1.
        -12    1    3    3    0    0 -0.50621655628E+01  0.17174965423E+01  0.27336500815E+01  0.60040117693E+01  0.00000000000E+00 0.  1.
</event>
<event>
 7    1  0.2937071E-011  0.5052886E+02  0.7816164E-02  0.1300439E+00
        -11   -1    0    0    0    0  0.00000000000E+00  0.00000000000E+00  0.45593999997E+02  0.45594000000E+02  0.51100000000E-03 0. -1.
         11   -1    0    0    0    0 -0.00000000000E+00 -0.00000000000E+00 -0.45593999997E+02  0.45594000000E+02  0.51100000000E-03 0.  1.
    9900012    2    1    2    0    0 -0.14612765195E+02  0.12829504228E+02  0.35707654241E+02  0.50528860107E+02  0.30000000783E+02 0.  0.
        -12    1    1    2    0    0  0.14612765195E+02 -0.12829504228E+02 -0.35707654241E+02  0.40659139893E+02  0.00000000000E+00 0.  1.
         11    1    3    3    0    0 -0.13379279763E+02  0.64348793602E+01  0.14489595886E+02  0.20745148555E+02  0.51100000000E-03 0. -1.
        -11    1    3    3    0    0 -0.59862895842E+01  0.11838841825E+02  0.16418010198E+02  0.21107934476E+02  0.51100000000E-03 0.  1.
         12    1    3    3    0    0  0.47528041512E+01 -0.54442169570E+01  0.48000481571E+01  0.86757770767E+01  0.00000000000E+00 0. -1.
</event>
<event>
 7    1  0.2937071E-011  0.5052877E+02  0.7816164E-02  0.1300439E+00
        -11   -1    0    0    0    0  0.00000000000E+00  0.00000000000E+00  0.45593999997E+02  0.45594000000E+02  0.51100000000E-03 0.  1.
         11   -1    0    0    0    0 -0.00000000000E+00 -0.00000000000E+00 -0.45593999997E+02  0.45594000000E+02  0.51100000000E-03 0. -1.
    9900012    2    1    2    0    0 -0.22673081089E+01 -0.15502578178E+02 -0.37519358974E+02  0.50528770863E+02  0.29999729513E+02 0.  0.
        -12    1    1    2    0    0  0.22673081089E+01  0.15502578178E+02  0.37519358974E+02  0.40659229137E+02  0.00000000000E+00 0.  1.
         11    1    3    3    0    0 -0.43661778451E+01 -0.15298334384E+02 -0.12445948092E+02  0.20199113052E+02  0.51100000000E-03 0. -1.
        -11    1    3    3    0    0  0.61686780266E+00 -0.15250102292E+01 -0.27298344202E+02  0.27347866069E+02  0.51100000000E-03 0.  1.
         12    1    3    3    0    0  0.14820019335E+01  0.13207664353E+01  0.22249333210E+01  0.29817917416E+01  0.00000000000E+00 0. -1.
</event>
<event>
 7    1  0.2937071E-011  0.5052878E+02  0.7816164E-02  0.1300439E+00
        -11   -1    0    0    0    0  0.00000000000E+00  0.00000000000E+00  0.45593999997E+02  0.45594000000E+02  0.51100000000E-03 0.  1.
         11   -1    0    0    0    0 -0.00000000000E+00 -0.00000000000E+00 -0.45593999997E+02  0.45594000000E+02  0.51100000000E-03 0. -1.
    9900012    2    1    2    0    0  0.81547177316E+01 -0.24093484017E+02 -0.31720290939E+02  0.50528779021E+02  0.29999754311E+02 0.  0.
        -12    1    1    2    0    0 -0.81547177316E+01  0.24093484017E+02  0.31720290939E+02  0.40659220979E+02  0.00000000000E+00 0.  1.
         11    1    3    3    0    0 -0.82855030827E+01 -0.42857960858E+01 -0.53470700860E+01  0.10752151793E+02  0.51100000000E-03 0. -1.
        -11    1    3    3    0    0  0.82777090855E+01 -0.18860565376E+02 -0.13931417677E+02  0.24866157579E+02  0.51100000000E-03 0.  1.
        -12    1    3    3    0    0  0.81625117288E+01 -0.94712255540E+00 -0.12441803177E+02  0.14910469649E+02  0.00000000000E+00 0.  1.
</event>
<event>
 7    1  0.2937071E-011  0.5052886E+02  0.7816164E-02  0.1300439E+00
        -11   -1    0    0    0    0  0.00000000000E+00  0.00000000000E+00  0.45593999997E+02  0.45594000000E+02  0.51100000000E-03 0.  1.
         11   -1    0    0    0    0 -0.00000000000E+00 -0.00000000000E+00 -0.45593999997E+02  0.45594000000E+02  0.51100000000E-03 0. -1.
    9900012    2    1    2    0    0  0.20791608610E+02  0.51969959276E+01 -0.34552370389E+02  0.50528855214E+02  0.29999985908E+02 0.  0.
        -12    1    1    2    0    0 -0.20791608610E+02 -0.51969959276E+01  0.34552370389E+02  0.40659144786E+02  0.00000000000E+00 0.  1.
         11    1    3    3    0    0  0.10657985077E+02 -0.24141596785E+01 -0.21102263028E+01  0.11129863799E+02  0.51100000000E-03 0. -1.
        -11    1    3    3    0    0  0.81397326429E+01 -0.43154507392E+01 -0.83111638306E+01  0.12407812340E+02  0.51100000000E-03 0.  1.
         12    1    3    3    0    0  0.19938908898E+01  0.11926606345E+02 -0.24130980255E+02  0.26991179075E+02  0.00000000000E+00 0. -1.
</event>
<event>
 7    1  0.2937071E-011  0.5052886E+02  0.7816164E-02  0.1300439E+00
        -11   -1    0    0    0    0  0.00000000000E+00  0.00000000000E+00  0.45593999997E+02  0.45594000000E+02  0.51100000000E-03 0. -1.
         11   -1    0    0    0    0 -0.00000000000E+00 -0.00000000000E+00 -0.45593999997E+02  0.45594000000E+02  0.51100000000E-03 0.  1.
    9900012    2    1    2    0    0  0.32816157557E+02 -0.13489347080E+02  0.19857060931E+02  0.50528861417E+02  0.30000004763E+02 0.  0.
        -12    1    1    2    0    0 -0.32816157557E+02  0.13489347080E+02 -0.19857060931E+02  0.40659138583E+02  0.00000000000E+00 0.  1.
         11    1    3    3    0    0  0.13619723059E+02 -0.27339602836E+01  0.24857141058E+01  0.14112057607E+02  0.51100000000E-03 0.  1.
        -11    1    3    3    0    0  0.24201304054E+02 -0.57419256410E+01  0.14346307307E+02  0.28713922783E+02  0.51100000000E-03 0. -1.
        -12    1    3    3    0    0 -0.50048695554E+01 -0.50134611557E+01  0.30250395185E+01  0.77028810269E+01  0.00000000000E+00 0.  1.
</event>
<event>
 7    1  0.2937071E-011  0.5052886E+02  0.7816164E-02  0.1300439E+00
        -11   -1    0    0    0    0  0.00000000000E+00  0.00000000000E+00  0.45593999997E+02  0.45594000000E+02  0.51100000000E-03 0.  1.
         11   -1    0    0    0    0 -0.00000000000E+00 -0.00000000000E+00 -0.45593999997E+02  0.45594000000E+02  0.51100000000E-03 0. -1.
    9900012    2    1    2    0    0 -0.41620137215E+01  0.15454729907E+01 -0.40416022526E+02  0.50528859308E+02  0.29999998353E+02 0.  0.
        -12    1    1    2    0    0  0.41620137215E+01 -0.15454729907E+01  0.40416022526E+02  0.40659140692E+02  0.00000000000E+00 0.  1.
         11    1    3    3    0    0 -0.48002123942E+01  0.11987983517E+01  0.62701293781E+00  0.49872138517E+01  0.51100000000E-03 0. -1.
        -11    1    3    3    0    0  0.36943628006E+01 -0.31168509704E+01 -0.64034495463E+00  0.48757684929E+01  0.51100000000E-03 0.  1.
         12    1    3    3    0    0 -0.30561641279E+01  0.34635256094E+01 -0.40402690509E+02  0.40665876963E+02  0.00000000000E+00 0. -1.
</event>
<event>
 7    1  0.2937071E-011  0.5052885E+02  0.7816164E-02  0.1300439E+00
        -11   -1    0    0    0    0  0.00000000000E+00  0.00000000000E+00  0.45593999997E+02  0.45594000000E+02  0.51100000000E-03 0.  1.
         11   -1    0    0    0    0 -0.00000000000E+00 -0.00000000000E+00 -0.45593999997E+02  0.45594000000E+02  0.51100000000E-03 0. -1.
    9900012    2    1    2    0    0 -0.32544611359E+02  0.21337644630E+02 -0.11777918103E+02  0.50528853898E+02  0.29999981910E+02 0.  0.
        -12    1    1    2    0    0  0.32544611359E+02 -0.21337644630E+02  0.11777918103E+02  0.40659146102E+02  0.00000000000E+00 0.  1.
         11    1    3    3    0    0 -0.78780047269E+01  0.61028895742E+00 -0.10100799798E+02  0.12824257012E+02  0.51100000000E-03 0. -1.
        -11    1    3    3    0    0 -0.20600410296E+02  0.20194810817E+02 -0.82079501756E+01  0.29992961419E+02  0.51100000000E-03 0.  1.
        -12    1    3    3    0    0 -0.40661963359E+01  0.53254485552E+00  0.65308318708E+01  0.77116354679E+01  0.00000000000E+00 0.  1.
</event>
<event>
 7    1  0.2937071E-011  0.5052883E+02  0.7816164E-02  0.1300439E+00
        -11   -1    0    0    0    0  0.00000000000E+00  0.00000000000E+00  0.45593999997E+02  0.45594000000E+02  0.51100000000E-03 0.  1.
         11   -1    0    0    0    0 -0.00000000000E+00 -0.00000000000E+00 -0.45593999997E+02  0.45594000000E+02  0.51100000000E-03 0. -1.
    9900012    2    1    2    0    0  0.40503866894E+02 -0.14065530573E+01  0.32598839446E+01  0.50528825535E+02  0.29999895695E+02 0.  0.
        -12    1    1    2    0    0 -0.40503866894E+02  0.14065530573E+01 -0.32598839446E+01  0.40659174465E+02  0.00000000000E+00 0.  1.
         11    1    3    3    0    0  0.84052325034E+01  0.10664587760E+02 -0.15816365044E+01  0.13670513517E+02  0.51100000000E-03 0. -1.
        -11    1    3    3    0    0  0.22306512884E+00  0.76135145261E+00  0.22652874296E+01  0.24001961349E+01  0.51100000000E-03 0.  1.
        -12    1    3    3    0    0  0.31875569262E+02 -0.12832492270E+02  0.25762330194E+01  0.34458115883E+02  0.00000000000E+00 0.  1.
</event>
<event>
 7    1  0.2937071E-011  0.5052886E+02  0.7816164E-02  0.1300439E+00
        -11   -1    0    0    0    0  0.00000000000E+00  0.00000000000E+00  0.45593999997E+02  0.45594000000E+02  0.51100000000E-03 0. -1.
         11   -1    0    0    0    0 -0.00000000000E+00 -0.00000000000E+00 -0.45593999997E+02  0.45594000000E+02  0.51100000000E-03 0.  1.
    9900012    2    1    2    0    0 -0.36715582494E+02  0.40904895004E+01  0.16982332129E+02  0.50528859493E+02  0.29999998915E+02 0.  0.
        -12    1    1    2    0    0  0.36715582494E+02 -0.40904895004E+01 -0.16982332129E+02  0.40659140507E+02  0.00000000000E+00 0.  1.
         11    1    3    3    0    0 -0.38391088259E+01  0.26459221092E+01  0.13804660350E+02  0.14570803273E+02  0.51100000000E-03 0. -1.
        -11    1    3    3    0    0 -0.24426462354E+02  0.12200334294E+01  0.85891028318E+01  0.25921289174E+02  0.51100000000E-03 0.  1.
        -12    1    3    3    0    0 -0.84500113140E+01  0.22453396175E+00 -0.54114310525E+01  0.10036767046E+02  0.00000000000E+00 0.  1.
</event>
<event>
 7    1  0.2937071E-011  0.5052890E+02  0.7816164E-02  0.1300439E+00
        -11   -1    0    0    0    0  0.00000000000E+00  0.00000000000E+00  0.45593999997E+02  0.45594000000E+02  0.51100000000E-03 0.  1.
         11   -1    0    0    0    0 -0.00000000000E+00 -0.00000000000E+00 -0.45593999997E+02  0.45594000000E+02  0.51100000000E-03 0. -1.
    9900012    2    1    2    0    0  0.85101257415E+00 -0.39160303307E+01 -0.40461128880E+02  0.50528899343E+02  0.30000120043E+02 0.  0.
        -12    1    1    2    0    0 -0.85101257415E+00  0.39160303307E+01  0.40461128880E+02  0.40659100657E+02  0.00000000000E+00 0.  1.
         11    1    3    3    0    0  0.17942375173E+01  0.96192174077E+00 -0.11581249378E+02  0.11758823033E+02  0.51100000000E-03 0. -1.
        -11    1    3    3    0    0  0.75316479232E+00  0.93349416682E+01 -0.19568714340E+02  0.21694307418E+02  0.51100000000E-03 0.  1.
         12    1    3    3    0    0 -0.16963897355E+01 -0.14212893740E+02 -0.93111651621E+01  0.17075768892E+02  0.00000000000E+00 0. -1.
</event>
<event>
 7    1  0.2937071E-011  0.5052887E+02  0.7816164E-02  0.1300439E+00
        -11   -1    0    0    0    0  0.00000000000E+00  0.00000000000E+00  0.45593999997E+02  0.45594000000E+02  0.51100000000E-03 0.  1.
         11   -1    0    0    0    0 -0.00000000000E+00 -0.00000000000E+00 -0.45593999997E+02  0.45594000000E+02  0.51100000000E-03 0. -1.
    9900012    2    1    2    0    0 -0.18760814329E+01 -0.26280956516E+02 -0.30967026993E+02  0.50528866737E+02  0.30000020933E+02 0.  0.
        -12    1    1    2    0    0  0.18760814329E+01  0.26280956516E+02  0.30967026993E+02  0.40659133263E+02  0.00000000000E+00 0.  1.
         11    1    3    3    0    0 -0.38264349021E+01 -0.12053988122E+01 -0.23821360123E+01  0.46657435204E+01  0.51100000000E-03 0. -1.
        -11    1    3    3    0    0 -0.28149363774E+01 -0.13910119489E+02  0.65095561172E+00  0.14207006527E+02  0.51100000000E-03 0.  1.
         12    1    3    3    0    0  0.47652898466E+01 -0.11165438216E+02 -0.29235846592E+02  0.31656116689E+02  0.00000000000E+00 0. -1.
</event>
<event>
 7    1  0.2937071E-011  0.5052887E+02  0.7816164E-02  0.1300439E+00
        -11   -1    0    0    0    0  0.00000000000E+00  0.00000000000E+00  0.45593999997E+02  0.45594000000E+02  0.51100000000E-03 0.  1.
         11   -1    0    0    0    0 -0.00000000000E+00 -0.00000000000E+00 -0.45593999997E+02  0.45594000000E+02  0.51100000000E-03 0. -1.
    9900012    2    1    2    0    0  0.86083789718E+01  0.39731851553E+02  0.66400994524E+00  0.50528866641E+02  0.30000020641E+02 0.  0.
        -12    1    1    2    0    0 -0.86083789718E+01 -0.39731851553E+02 -0.66400994524E+00  0.40659133359E+02  0.00000000000E+00 0.  1.
         11    1    3    3    0    0  0.92389317239E+01  0.23579235147E+02 -0.52788907150E+01  0.25868994510E+02  0.51100000000E-03 0. -1.
        -11    1    3    3    0    0  0.71419067131E+01  0.76632711425E+01 -0.20141427204E+01  0.10667208035E+02  0.51100000000E-03 0.  1.
        -12    1    3    3    0    0 -0.77724594653E+01  0.84893452632E+01  0.79570433806E+01  0.13992664096E+02  0.00000000000E+00 0.  1.
</event>
<event>
 7    1  0.2937071E-011  0.5052886E+02  0.7816164E-02  0.1300439E+00
        -11   -1    0    0    0    0  0.00000000000E+00  0.00000000000E+00  0.45593999997E+02  0.45594000000E+02  0.51100000000E-03 0. -1.
         11   -1    0    0    0    0 -0.00000000000E+00 -0.00000000000E+00 -0.45593999997E+02  0.45594000000E+02  0.51100000000E-03 0.  1.
    9900012    2    1    2    0    0  0.24318321721E+02  0.26239021762E+02  0.19320941615E+02  0.50528858110E+02  0.29999994711E+02 0.  0.
        -12    1    1    2    0    0 -0.24318321721E+02 -0.26239021762E+02 -0.19320941615E+02  0.40659141890E+02  0.00000000000E+00 0.  1.
         11    1    3    3    0    0  0.39039857024E+01 -0.37565789992E+01  0.64921385129E+01  0.84558176940E+01  0.51100000000E-03 0. -1.
        -11    1    3    3    0    0  0.19123639849E+02  0.21454852193E+02  0.28599584708E+01  0.28882583791E+02  0.51100000000E-03 0.  1.
         12    1    3    3    0    0  0.12906961690E+01  0.85407485686E+01  0.99688446309E+01  0.13190456625E+02  0.00000000000E+00 0. -1.
</event>
<event>
 7    1  0.2937071E-011  0.5052885E+02  0.7816164E-02  0.1300439E+00
        -11   -1    0    0    0    0  0.00000000000E+00  0.00000000000E+00  0.45593999997E+02  0.45594000000E+02  0.51100000000E-03 0. -1.
         11   -1    0    0    0    0 -0.00000000000E+00 -0.00000000000E+00 -0.45593999997E+02  0.45594000000E+02  0.51100000000E-03 0.  1.
    9900012    2    1    2    0    0 -0.32324410286E+02 -0.20846329511E+02  0.13180645651E+02  0.50528851286E+02  0.29999973968E+02 0.  0.
        -12    1    1    2    0    0  0.32324410286E+02  0.20846329511E+02 -0.13180645651E+02  0.40659148714E+02  0.00000000000E+00 0.  1.
         11    1    3    3    0    0 -0.38986891607E+00 -0.52482995340E+01  0.46293139077E+01  0.70090793466E+01  0.51100000000E-03 0. -1.
        -11    1    3    3    0    0 -0.15648412767E+01  0.29914336447E+01  0.71243792351E+01  0.78837924388E+01  0.51100000000E-03 0.  1.
         12    1    3    3    0    0 -0.30369700093E+02 -0.18589463622E+02  0.14269525079E+01  0.35635979500E+02  0.00000000000E+00 0. -1.
</event>
<event>
 7    1  0.2937071E-011  0.5052886E+02  0.7816164E-02  0.1300439E+00
        -11   -1    0    0    0    0  0.00000000000E+00  0.00000000000E+00  0.45593999997E+02  0.45594000000E+02  0.51100000000E-03 0.  1.
         11   -1    0    0    0    0 -0.00000000000E+00 -0.00000000000E+00 -0.45593999997E+02  0.45594000000E+02  0.51100000000E-03 0. -1.
    9900012    2    1    2    0    0 -0.34815265610E+02 -0.19435459138E+02 -0.79577610942E+01  0.50528858924E+02  0.29999997185E+02 0.  0.
        -12    1    1    2    0    0  0.34815265610E+02  0.19435459138E+02  0.79577610942E+01  0.40659141076E+02  0.00000000000E+00 0.  1.
         11    1    3    3    0    0 -0.44801203351E+01  0.26179365340E+01 -0.30039793092E+01  0.59957453135E+01  0.51100000000E-03 0. -1.
        -11    1    3    3    0    0 -0.58723360236E+01 -0.53431005822E+01 -0.11709442695E+02  0.14147229506E+02  0.51100000000E-03 0.  1.
         12    1    3    3    0    0 -0.24462809252E+02 -0.16710295090E+02  0.67556609100E+01  0.30385884104E+02  0.00000000000E+00 0. -1.
</event>
<event>
 7    1  0.2937071E-011  0.5052886E+02  0.7816164E-02  0.1300439E+00
        -11   -1    0    0    0    0  0.00000000000E+00  0.00000000000E+00  0.45593999997E+02  0.45594000000E+02  0.51100000000E-03 0.  1.
         11   -1    0    0    0    0 -0.00000000000E+00 -0.00000000000E+00 -0.45593999997E+02  0.45594000000E+02  0.51100000000E-03 0. -1.
    9900012    2    1    2    0    0 -0.16502167250E+01  0.23369088639E+02 -0.33231430833E+02  0.50528861860E+02  0.30000006110E+02 0.  0.
        -12    1    1    2    0    0  0.16502167250E+01 -0.23369088639E+02  0.33231430833E+02  0.40659138140E+02  0.00000000000E+00 0.  1.
         11    1    3    3    0    0  0.12569016917E+01  0.20436063199E+02 -0.19260500540E+02  0.28110129175E+02  0.51100000000E-03 0. -1.
        -11    1    3    3    0    0 -0.93010152707E+01  0.25962358306E+00 -0.12055449068E+02  0.15228596191E+02  0.51100000000E-03 0.  1.
         12    1    3    3    0    0  0.63938968540E+01  0.26734018572E+01 -0.19154812247E+01  0.71901364932E+01  0.00000000000E+00 0. -1.
</event>
<event>
 7    1  0.2937071E-011  0.5052887E+02  0.7816164E-02  0.1300439E+00
        -11   -1    0    0    0    0  0.00000000000E+00  0.00000000000E+00  0.45593999997E+02  0.45594000000E+02  0.51100000000E-03 0.  1.
         11   -1    0    0    0    0 -0.00000000000E+00 -0.00000000000E+00 -0.45593999997E+02  0.45594000000E+02  0.51100000000E-03 0. -1.
    9900012    2    1    2    0    0 -0.10217245531E+02  0.96042672790E+01 -0.38164527005E+02  0.50528865999E+02  0.30000018691E+02 0.  0.
        -12    1    1    2    0    0  0.10217245531E+02 -0.96042672790E+01  0.38164527005E+02  0.40659134001E+02  0.00000000000E+00 0.  1.
         11    1    3    3    0    0 -0.43049247466E+01  0.13872829507E+01 -0.86943143414E+01  0.98004098479E+01  0.51100000000E-03 0. -1.
        -11    1    3    3    0    0 -0.93489970207E+01  0.11300804144E+02 -0.32186974775E+02  0.35371079500E+02  0.51100000000E-03 0.  1.
        -12    1    3    3    0    0  0.34366762365E+01 -0.30838198153E+01  0.27167621119E+01  0.53573766510E+01  0.00000000000E+00 0.  1.
</event>
<event>
 7    1  0.2937071E-011  0.5052884E+02  0.7816164E-02  0.1300439E+00
        -11   -1    0    0    0    0  0.00000000000E+00  0.00000000000E+00  0.45593999997E+02  0.45594000000E+02  0.51100000000E-03 0. -1.
         11   -1    0    0    0    0 -0.00000000000E+00 -0.00000000000E+00 -0.45593999997E+02  0.45594000000E+02  0.51100000000E-03 0.  1.
    9900012    2    1    2    0    0  0.43354869015E+01 -0.37687744350E+02  0.14628905180E+02  0.50528838823E+02  0.29999936086E+02 0.  0.
        -12    1    1    2    0    0 -0.43354869015E+01  0.37687744350E+02 -0.14628905180E+02  0.40659161177E+02  0.00000000000E+00 0.  1.
         11    1    3    3    0    0  0.17596392931E+01 -0.65711011485E+01  0.12416837858E+02  0.14158162430E+02  0.51100000000E-03 0.  1.
        -11    1    3    3    0    0  0.70210217801E+01 -0.28627888058E+02 -0.22993206493E+01  0.29565818054E+02  0.51100000000E-03 0. -1.
         12    1    3    3    0    0 -0.44451741717E+01 -0.24887551433E+01  0.45113879711E+01  0.68048583384E+01  0.00000000000E+00 0. -1.
</event>
<event>
 7    1  0.2937071E-011  0.5052886E+02  0.7816164E-02  0.1300439E+00
        -11   -1    0    0    0    0  0.00000000000E+00  0.00000000000E+00  0.45593999997E+02  0.45594000000E+02  0.51100000000E-03 0.  1.
         11   -1    0    0    0    0 -0.00000000000E+00 -0.00000000000E+00 -0.45593999997E+02  0.45594000000E+02  0.51100000000E-03 0. -1.
    9900012    2    1    2    0    0 -0.23370191061E+02 -0.13844697920E+01 -0.33242785868E+02  0.50528863277E+02  0.30000010416E+02 0.  0.
        -12    1    1    2    0    0  0.23370191061E+02  0.13844697920E+01  0.33242785868E+02  0.40659136723E+02  0.00000000000E+00 0.  1.
         11    1    3    3    0    0 -0.14806725551E+01 -0.35623057433E+01 -0.17370720583E+02  0.17793941308E+02  0.51100000000E-03 0. -1.
        -11    1    3    3    0    0 -0.90491611071E+01 -0.29421861281E+01 -0.16334189292E+02  0.18903690540E+02  0.51100000000E-03 0.  1.
         12    1    3    3    0    0 -0.12840357399E+02  0.51200220794E+01  0.46212400773E+00  0.13831231428E+02  0.00000000000E+00 0. -1.
</event>
<event>
 7    1  0.2937071E-011  0.5052891E+02  0.7816164E-02  0.1300439E+00
        -11   -1    0    0    0    0  0.00000000000E+00  0.00000000000E+00  0.45593999997E+02  0.45594000000E+02  0.51100000000E-03 0.  1.
         11   -1    0    0    0    0 -0.00000000000E+00 -0.00000000000E+00 -0.45593999997E+02  0.45594000000E+02  0.51100000000E-03 0. -1.
    9900012    2    1    2    0    0  0.80262316021E+01 -0.57954944261E+01 -0.39435431105E+02  0.50528912753E+02  0.30000160802E+02 0.  0.
        -12    1    1    2    0    0 -0.80262316021E+01  0.57954944261E+01  0.39435431105E+02  0.40659087247E+02  0.00000000000E+00 0.  1.
         11    1    3    3    0    0 -0.93810687257E-01  0.25855392051E+01 -0.23697563340E+02  0.23838379180E+02  0.51100000000E-03 0. -1.
        -11    1    3    3    0    0 -0.11939986722E+01  0.39811609023E+01 -0.87926513011E+01  0.97255329994E+01  0.51100000000E-03 0.  1.
         12    1    3    3    0    0  0.93140409615E+01 -0.12362194533E+02 -0.69452164637E+01  0.16965000573E+02  0.00000000000E+00 0. -1.
</event>
<event>
 7    1  0.2937071E-011  0.5052887E+02  0.7816164E-02  0.1300439E+00
        -11   -1    0    0    0    0  0.00000000000E+00  0.00000000000E+00  0.45593999997E+02  0.45594000000E+02  0.51100000000E-03 0.  1.
         11   -1    0    0    0    0 -0.00000000000E+00 -0.00000000000E+00 -0.45593999997E+02  0.45594000000E+02  0.51100000000E-03 0. -1.
    9900012    2    1    2    0    0  0.12326378815E+02 -0.36564723203E+02 -0.12815870828E+02  0.50528866430E+02  0.30000020001E+02 0.  0.
        -12    1    1    2    0    0 -0.12326378815E+02  0.36564723203E+02  0.12815870828E+02  0.40659133570E+02  0.00000000000E+00 0.  1.
         11    1    3    3    0    0  0.14946094481E+02 -0.20084197193E+02 -0.10151668389E+02  0.27015127031E+02  0.51100000000E-03 0. -1.
        -11    1    3    3    0    0  0.50493512320E+01 -0.13441363571E+02 -0.45298675262E+01  0.15056091876E+02  0.51100000000E-03 0.  1.
        -12    1    3    3    0    0 -0.76690668984E+01 -0.30391624383E+01  0.18656650864E+01  0.84576475236E+01  0.00000000000E+00 0.  1.
</event>
<event>
 7    1  0.2937071E-011  0.5052887E+02  0.7816164E-02  0.1300439E+00
        -11   -1    0    0    0    0  0.00000000000E+00  0.00000000000E+00  0.45593999997E+02  0.45594000000E+02  0.51100000000E-03 0. -1.
         11   -1    0    0    0    0 -0.00000000000E+00 -0.00000000000E+00 -0.45593999997E+02  0.45594000000E+02  0.51100000000E-03 0.  1.
    9900012    2    1    2    0    0  0.99069723944E+01 -0.37122368925E+02  0.13302127246E+02  0.50528868604E+02  0.30000026609E+02 0.  0.
        -12    1    1    2    0    0 -0.99069723944E+01  0.37122368925E+02 -0.13302127246E+02  0.40659131396E+02  0.00000000000E+00 0.  1.
         11    1    3    3    0    0 -0.39637838026E+01 -0.14460315041E+02  0.22771922214E+01  0.15165681580E+02  0.51100000000E-03 0. -1.
        -11    1    3    3    0    0  0.77606668708E+01 -0.97251328690E-02  0.88952635418E+01  0.11804819295E+02  0.51100000000E-03 0.  1.
         12    1    3    3    0    0  0.61100893262E+01 -0.22652328751E+02  0.21296714827E+01  0.23558367729E+02  0.00000000000E+00 0. -1.
</event>
<event>
 7    1  0.2937071E-011  0.5052886E+02  0.7816164E-02  0.1300439E+00
        -11   -1    0    0    0    0  0.00000000000E+00  0.00000000000E+00  0.45593999997E+02  0.45594000000E+02  0.51100000000E-03 0.  1.
         11   -1    0    0    0    0 -0.00000000000E+00 -0.00000000000E+00 -0.45593999997E+02  0.45594000000E+02  0.51100000000E-03 0. -1.
    9900012    2    1    2    0    0  0.38105375345E+02  0.14146473026E+02  0.10115280955E+01  0.50528861810E+02  0.30000005958E+02 0.  0.
        -12    1    1    2    0    0 -0.38105375345E+02 -0.14146473026E+02 -0.10115280955E+01  0.40659138190E+02  0.00000000000E+00 0.  1.
         11    1    3    3    0    0  0.31384782098E+01  0.50960858237E+01  0.42758322066E+01  0.73554658259E+01  0.51100000000E-03 0. -1.
        -11    1    3    3    0    0  0.32392343713E+02  0.77581453056E+01  0.56687265216E+01  0.33787382415E+02  0.51100000000E-03 0.  1.
         12    1    3    3    0    0  0.25745534218E+01  0.12922418967E+01 -0.89330306326E+01  0.93860135694E+01  0.00000000000E+00 0. -1.
</event>
<event>
 7    1  0.2937071E-011  0.5052886E+02  0.7816164E-02  0.1300439E+00
        -11   -1    0    0    0    0  0.00000000000E+00  0.00000000000E+00  0.45593999997E+02  0.45594000000E+02  0.51100000000E-03 0.  1.
         11   -1    0    0    0    0 -0.00000000000E+00 -0.00000000000E+00 -0.45593999997E+02  0.45594000000E+02  0.51100000000E-03 0. -1.
    9900012    2    1    2    0    0  0.28603014691E+02  0.28692427224E+02  0.34319006381E+01  0.50528858698E+02  0.29999996499E+02 0.  0.
        -12    1    1    2    0    0 -0.28603014691E+02 -0.28692427224E+02 -0.34319006381E+01  0.40659141302E+02  0.00000000000E+00 0.  1.
         11    1    3    3    0    0  0.10225330143E+02  0.71596779604E+01  0.32126207871E+01  0.12889503389E+02  0.51100000000E-03 0. -1.
        -11    1    3    3    0    0  0.24588936094E+02  0.16423693903E+02  0.75400572217E+00  0.29579080860E+02  0.51100000000E-03 0.  1.
        -12    1    3    3    0    0 -0.62112515454E+01  0.51090553610E+01 -0.53472587124E+00  0.80602744494E+01  0.00000000000E+00 0.  1.
</event>
<event>
 7    1  0.2937071E-011  0.5052899E+02  0.7816164E-02  0.1300438E+00
        -11   -1    0    0    0    0  0.00000000000E+00  0.00000000000E+00  0.45593999997E+02  0.45594000000E+02  0.51100000000E-03 0.  1.
         11   -1    0    0    0    0 -0.00000000000E+00 -0.00000000000E+00 -0.45593999997E+02  0.45594000000E+02  0.51100000000E-03 0. -1.
    9900012    2    1    2    0    0 -0.23763398043E+02  0.60044946559E+01 -0.32440742722E+02  0.50528993237E+02  0.30000405439E+02 0.  0.
        -12    1    1    2    0    0  0.23763398043E+02 -0.60044946559E+01  0.32440742722E+02  0.40659006763E+02  0.00000000000E+00 0.  1.
         11    1    3    3    0    0 -0.28048261591E+01  0.27186254840E+01  0.32303918833E+00  0.39194806905E+01  0.51100000000E-03 0. -1.
        -11    1    3    3    0    0 -0.18974575877E+02  0.11381293236E+02 -0.14282101164E+02  0.26335276330E+02  0.51100000000E-03 0.  1.
         12    1    3    3    0    0 -0.19839960065E+01 -0.80954240642E+01 -0.18481680747E+02  0.20274236216E+02  0.00000000000E+00 0. -1.
</event>
<event>
 7    1  0.2937071E-011  0.5052886E+02  0.7816164E-02  0.1300439E+00
        -11   -1    0    0    0    0  0.00000000000E+00  0.00000000000E+00  0.45593999997E+02  0.45594000000E+02  0.51100000000E-03 0. -1.
         11   -1    0    0    0    0 -0.00000000000E+00 -0.00000000000E+00 -0.45593999997E+02  0.45594000000E+02  0.51100000000E-03 0.  1.
    9900012    2    1    2    0    0 -0.37570535481E+02  0.14731302724E+02 -0.49607320895E+01  0.50528864751E+02  0.30000014899E+02 0.  0.
        -12    1    1    2    0    0  0.37570535481E+02 -0.14731302724E+02  0.49607320895E+01  0.40659135249E+02  0.00000000000E+00 0.  1.
         11    1    3    3    0    0 -0.42675722746E+01  0.10865402106E+02 -0.33437425232E+01  0.12142888881E+02  0.51100000000E-03 0. -1.
        -11    1    3    3    0    0  0.14291773954E+01 -0.38022189205E-01 -0.30893460008E+01  0.34041228956E+01  0.51100000000E-03 0.  1.
         12    1    3    3    0    0 -0.34732140602E+02  0.39039228063E+01  0.14723564346E+01  0.34981852975E+02  0.00000000000E+00 0. -1.
</event>
<event>
 7    1  0.2937071E-011  0.5052886E+02  0.7816164E-02  0.1300439E+00
        -11   -1    0    0    0    0  0.00000000000E+00  0.00000000000E+00  0.45593999997E+02  0.45594000000E+02  0.51100000000E-03 0. -1.
         11   -1    0    0    0    0 -0.00000000000E+00 -0.00000000000E+00 -0.45593999997E+02  0.45594000000E+02  0.51100000000E-03 0.  1.
    9900012    2    1    2    0    0 -0.20396685599E+02 -0.21000962920E+02 -0.28215251034E+02  0.50528860586E+02  0.30000002238E+02 0.  0.
        -12    1    1    2    0    0  0.20396685599E+02  0.21000962920E+02  0.28215251034E+02  0.40659139414E+02  0.00000000000E+00 0.  1.
         11    1    3    3    0    0  0.53831157991E+01 -0.38848495885E+01 -0.21200299794E+01  0.69688248225E+01  0.51100000000E-03 0. -1.
        -11    1    3    3    0    0 -0.22682634898E+01  0.15484618867E+01  0.11903617654E+01  0.29932782810E+01  0.51100000000E-03 0.  1.
         12    1    3    3    0    0 -0.23511537908E+02 -0.18664575218E+02 -0.27285582820E+02  0.40566757483E+02  0.00000000000E+00 0. -1.
</event>
<event>
 7    1  0.2937071E-011  0.5052885E+02  0.7816164E-02  0.1300439E+00
        -11   -1    0    0    0    0  0.00000000000E+00  0.00000000000E+00  0.45593999997E+02  0.45594000000E+02  0.51100000000E-03 0.  1.
         11   -1    0    0    0    0 -0.00000000000E+00 -0.00000000000E+00 -0.45593999997E+02  0.45594000000E+02  0.51100000000E-03 0. -1.
    9900012    2    1    2    0    0  0.39594463611E+02  0.60313798914E+01 -0.70047860249E+01  0.50528854420E+02  0.29999983494E+02 0.  0.
        -12    1    1    2    0    0 -0.39594463611E+02 -0.60313798914E+01  0.70047860249E+01  0.40659145580E+02  0.00000000000E+00 0.  1.
         11    1    3    3    0    0  0.18360818326E+02 -0.59698246626E+00 -0.94043215014E+00  0.18394576662E+02  0.51100000000E-03 0.  1.
        -11    1    3    3    0    0  0.19215186521E+02 -0.33875713217E+01 -0.90235841308E+01  0.21497071971E+02  0.51100000000E-03 0. -1.
        -12    1    3    3    0    0  0.20184587647E+01  0.10015933679E+02  0.29592302560E+01  0.10637205787E+02  0.00000000000E+00 0.  1.
</event>
<event>
 7    1  0.2937071E-011  0.5052887E+02  0.7816164E-02  0.1300439E+00
        -11   -1    0    0    0    0  0.00000000000E+00  0.00000000000E+00  0.45593999997E+02  0.45594000000E+02  0.51100000000E-03 0.  1.
         11   -1    0    0    0    0 -0.00000000000E+00 -0.00000000000E+00 -0.45593999997E+02  0.45594000000E+02  0.51100000000E-03 0. -1.
    9900012    2    1    2    0    0  0.33841730572E+02  0.22506325061E+02  0.11695084373E+01  0.50528866391E+02  0.30000019881E+02 0.  0.
        -12    1    1    2    0    0 -0.33841730572E+02 -0.22506325061E+02 -0.11695084373E+01  0.40659133609E+02  0.00000000000E+00 0.  1.
         11    1    3    3    0    0  0.14190588497E+02  0.10935718605E+02 -0.22557786428E+01  0.18056890122E+02  0.51100000000E-03 0. -1.
        -11    1    3    3    0    0  0.20309991698E+02  0.12845361593E+02 -0.44733814089E+01  0.24444022147E+02  0.51100000000E-03 0.  1.
        -12    1    3    3    0    0 -0.65884962331E+00 -0.12747551373E+01  0.78986684891E+01  0.80279541221E+01  0.00000000000E+00 0.  1.
</event>
<event>
 7    1  0.2937071E-011  0.5052885E+02  0.7816164E-02  0.1300439E+00
        -11   -1    0    0    0    0  0.00000000000E+00  0.00000000000E+00  0.45593999997E+02  0.45594000000E+02  0.51100000000E-03 0.  1.
         11   -1    0    0    0    0 -0.00000000000E+00 -0.00000000000E+00 -0.45593999997E+02  0.45594000000E+02  0.51100000000E-03 0. -1.
    9900012    2    1    2    0    0 -0.19597329218E+01 -0.15549837930E+02 -0.37517045416E+02  0.50528847162E+02  0.29999961433E+02 0.  0.
        -12    1    1    2    0    0  0.19597329218E+01  0.15549837930E+02  0.37517045416E+02  0.40659152838E+02  0.00000000000E+00 0.  1.
         11    1    3    3    0    0 -0.39881466404E+01 -0.12676346580E+02 -0.21382464733E+02  0.25175481615E+02  0.51100000000E-03 0. -1.
        -11    1    3    3    0    0 -0.74789459536E+01 -0.59513212701E+01 -0.75794782302E+01  0.12198415796E+02  0.51100000000E-03 0.  1.
        -12    1    3    3    0    0  0.95073596722E+01  0.30778299205E+01 -0.85551024531E+01  0.13154949751E+02  0.00000000000E+00 0.  1.
</event>
<event>
 7    1  0.2937071E-011  0.5052886E+02  0.7816164E-02  0.1300439E+00
        -11   -1    0    0    0    0  0.00000000000E+00  0.00000000000E+00  0.45593999997E+02  0.45594000000E+02  0.51100000000E-03 0.  1.
         11   -1    0    0    0    0 -0.00000000000E+00 -0.00000000000E+00 -0.45593999997E+02  0.45594000000E+02  0.51100000000E-03 0. -1.
    9900012    2    1    2    0    0  0.39169852281E+02  0.61748497200E+01 -0.89866451427E+01  0.50528857268E+02  0.29999992151E+02 0.  0.
        -12    1    1    2    0    0 -0.39169852281E+02 -0.61748497200E+01  0.89866451427E+01  0.40659142732E+02  0.00000000000E+00 0.  1.
         11    1    3    3    0    0  0.95157311503E+01 -0.12032212490E+01 -0.12416118615E+02  0.15689387573E+02  0.51100000000E-03 0. -1.
        -11    1    3    3    0    0  0.19044484681E+02 -0.25396691637E+01 -0.20385574925E+01  0.19320922160E+02  0.51100000000E-03 0.  1.
         12    1    3    3    0    0  0.10609636450E+02  0.99177401327E+01  0.54680309645E+01  0.15518547534E+02  0.00000000000E+00 0. -1.
</event>
<event>
 7    1  0.2937071E-011  0.5052886E+02  0.7816164E-02  0.1300439E+00
        -11   -1    0    0    0    0  0.00000000000E+00  0.00000000000E+00  0.45593999997E+02  0.45594000000E+02  0.51100000000E-03 0.  1.
         11   -1    0    0    0    0 -0.00000000000E+00 -0.00000000000E+00 -0.45593999997E+02  0.45594000000E+02  0.51100000000E-03 0. -1.
    9900012    2    1    2    0    0 -0.16774191470E+01 -0.17329587549E+02 -0.36742851125E+02  0.50528862670E+02  0.30000008572E+02 0.  0.
        -12    1    1    2    0    0  0.16774191470E+01  0.17329587549E+02  0.36742851125E+02  0.40659137330E+02  0.00000000000E+00 0.  1.
         11    1    3    3    0    0  0.50667998640E+01 -0.76428040375E+01 -0.16493012764E+02  0.18870728250E+02  0.51100000000E-03 0. -1.
        -11    1    3    3    0    0 -0.44758856692E+01 -0.16529938998E+02 -0.14181982587E+02  0.22235131350E+02  0.51100000000E-03 0.  1.
        -12    1    3    3    0    0 -0.22683333417E+01  0.68431554863E+01 -0.60678557741E+01  0.94230030698E+01  0.00000000000E+00 0.  1.
</event>
<event>
 7    1  0.2937071E-011  0.5052886E+02  0.7816164E-02  0.1300439E+00
        -11   -1    0    0    0    0  0.00000000000E+00  0.00000000000E+00  0.45593999997E+02  0.45594000000E+02  0.51100000000E-03 0.  1.
         11   -1    0    0    0    0 -0.00000000000E+00 -0.00000000000E+00 -0.45593999997E+02  0.45594000000E+02  0.51100000000E-03 0. -1.
    9900012    2    1    2    0    0 -0.56369111029E+01  0.21389850179E+02 -0.34115474456E+02  0.50528855213E+02  0.29999985905E+02 0.  0.
        -12    1    1    2    0    0  0.56369111029E+01 -0.21389850179E+02  0.34115474456E+02  0.40659144787E+02  0.00000000000E+00 0.  1.
         11    1    3    3    0    0 -0.50451385935E+01 -0.17572563005E+01 -0.67080389539E+01  0.85754976533E+01  0.51100000000E-03 0. -1.
        -11    1    3    3    0    0  0.60268482449E+00 -0.42733560671E+01 -0.38566960019E+01  0.57878238903E+01  0.51100000000E-03 0.  1.
         12    1    3    3    0    0 -0.11944573338E+01  0.27420462546E+02 -0.23550739500E+02  0.36165533669E+02  0.00000000000E+00 0. -1.
</event>
<event>
 7    1  0.2937071E-011  0.5052886E+02  0.7816164E-02  0.1300439E+00
        -11   -1    0    0    0    0  0.00000000000E+00  0.00000000000E+00  0.45593999997E+02  0.45594000000E+02  0.51100000000E-03 0.  1.
         11   -1    0    0    0    0 -0.00000000000E+00 -0.00000000000E+00 -0.45593999997E+02  0.45594000000E+02  0.51100000000E-03 0. -1.
    9900012    2    1    2    0    0 -0.30085407591E+02  0.27165696528E+02 -0.31716166413E+01  0.50528856257E+02  0.29999989079E+02 0.  0.
        -12    1    1    2    0    0  0.30085407591E+02 -0.27165696528E+02  0.31716166413E+01  0.40659143743E+02  0.00000000000E+00 0.  1.
         11    1    3    3    0    0 -0.72425202414E+01  0.30247765905E+01 -0.86370315822E+01  0.11670547874E+02  0.51100000000E-03 0.  1.
        -11    1    3    3    0    0 -0.23868615180E+02  0.12805762973E+02  0.40939817938E+01  0.27394507536E+02  0.51100000000E-03 0. -1.
         12    1    3    3    0    0  0.10257278299E+01  0.11335156964E+02  0.13714331471E+01  0.11463800847E+02  0.00000000000E+00 0. -1.
</event>
<event>
 7    1  0.2937071E-011  0.5052887E+02  0.7816164E-02  0.1300439E+00
        -11   -1    0    0    0    0  0.00000000000E+00  0.00000000000E+00  0.45593999997E+02  0.45594000000E+02  0.51100000000E-03 0.  1.
         11   -1    0    0    0    0 -0.00000000000E+00 -0.00000000000E+00 -0.45593999997E+02  0.45594000000E+02  0.51100000000E-03 0. -1.
    9900012    2    1    2    0    0 -0.32710397588E+02 -0.23026412985E+02 -0.72786883171E+01  0.50528866845E+02  0.30000021261E+02 0.  0.
        -12    1    1    2    0    0  0.32710397588E+02  0.23026412985E+02  0.72786883171E+01  0.40659133155E+02  0.00000000000E+00 0.  1.
         11    1    3    3    0    0 -0.10251993505E+02  0.51653747068E+00 -0.11192393123E+02  0.15186831331E+02  0.51100000000E-03 0. -1.
        -11    1    3    3    0    0 -0.13823678014E+01 -0.15633420723E+01 -0.34322480698E+01  0.40168776739E+01  0.51100000000E-03 0.  1.
        -12    1    3    3    0    0 -0.21076036281E+02 -0.21979608383E+02  0.73459528759E+01  0.31325157840E+02  0.00000000000E+00 0.  1.
</event>
<event>
 7    1  0.2937071E-011  0.5052886E+02  0.7816164E-02  0.1300439E+00
        -11   -1    0    0    0    0  0.00000000000E+00  0.00000000000E+00  0.45593999997E+02  0.45594000000E+02  0.51100000000E-03 0. -1.
         11   -1    0    0    0    0 -0.00000000000E+00 -0.00000000000E+00 -0.45593999997E+02  0.45594000000E+02  0.51100000000E-03 0.  1.
    9900012    2    1    2    0    0  0.22043072004E+02 -0.10326308572E+02  0.32567409424E+02  0.50528857993E+02  0.29999994357E+02 0.  0.
        -12    1    1    2    0    0 -0.22043072004E+02  0.10326308572E+02 -0.32567409424E+02  0.40659142007E+02  0.00000000000E+00 0.  1.
         11    1    3    3    0    0  0.36972805249E+01 -0.85787831975E+01  0.76784635080E+01  0.12092320147E+02  0.51100000000E-03 0. -1.
        -11    1    3    3    0    0 -0.53957144720E+00 -0.75717182881E+01  0.13864537141E+02  0.15806563371E+02  0.51100000000E-03 0.  1.
         12    1    3    3    0    0  0.18885362926E+02  0.58241929131E+01  0.11024408775E+02  0.22629974476E+02  0.00000000000E+00 0. -1.
</event>
<event>
 7    1  0.2937071E-011  0.5052885E+02  0.7816164E-02  0.1300439E+00
        -11   -1    0    0    0    0  0.00000000000E+00  0.00000000000E+00  0.45593999997E+02  0.45594000000E+02  0.51100000000E-03 0. -1.
         11   -1    0    0    0    0 -0.00000000000E+00 -0.00000000000E+00 -0.45593999997E+02  0.45594000000E+02  0.51100000000E-03 0.  1.
    9900012    2    1    2    0    0  0.23910411880E+01  0.22602082031E+02  0.33713423889E+02  0.50528854161E+02  0.29999982707E+02 0.  0.
        -12    1    1    2    0    0 -0.23910411880E+01 -0.22602082031E+02 -0.33713423889E+02  0.40659145839E+02  0.00000000000E+00 0.  1.
         11    1    3    3    0    0 -0.62115758490E+01  0.17189906800E+01  0.10033691973E+02  0.11925333469E+02  0.51100000000E-03 0. -1.
        -11    1    3    3    0    0 -0.16266466743E+01 -0.23944514791E+01  0.85265466012E+01  0.90045196703E+01  0.51100000000E-03 0.  1.
        -12    1    3    3    0    0  0.10229263711E+02  0.23277542830E+02  0.15153185315E+02  0.29599001021E+02  0.00000000000E+00 0.  1.
</event>
<event>
 7    1  0.2937071E-011  0.5052887E+02  0.7816164E-02  0.1300439E+00
        -11   -1    0    0    0    0  0.00000000000E+00  0.00000000000E+00  0.45593999997E+02  0.45594000000E+02  0.51100000000E-03 0.  1.
         11   -1    0    0    0    0 -0.00000000000E+00 -0.00000000000E+00 -0.45593999997E+02  0.45594000000E+02  0.51100000000E-03 0. -1.
    9900012    2    1    2    0    0 -0.49123554985E+01 -0.18744949033E+02 -0.35744380118E+02  0.50528867436E+02  0.30000023060E+02 0.  0.
        -12    1    1    2    0    0  0.49123554985E+01  0.18744949033E+02  0.35744380118E+02  0.40659132564E+02  0.00000000000E+00 0.  1.
         11    1    3    3    0    0  0.51400206850E+01 -0.94510142176E+01 -0.55419057949E+01  0.12101826411E+02  0.51100000000E-03 0. -1.
        -11    1    3    3    0    0 -0.19108168375E+01 -0.36792123926E+01 -0.27986519273E+02  0.28291926164E+02  0.51100000000E-03 0.  1.
        -12    1    3    3    0    0 -0.81415593460E+01 -0.56147224225E+01 -0.22159550507E+01  0.10135114861E+02  0.00000000000E+00 0.  1.
</event>
<event>
 7    1  0.2937071E-011  0.5052886E+02  0.7816164E-02  0.1300439E+00
        -11   -1    0    0    0    0  0.00000000000E+00  0.00000000000E+00  0.45593999997E+02  0.45594000000E+02  0.51100000000E-03 0. -1.
         11   -1    0    0    0    0 -0.00000000000E+00 -0.00000000000E+00 -0.45593999997E+02  0.45594000000E+02  0.51100000000E-03 0.  1.
    9900012    2    1    2    0    0 -0.37327266245E+02  0.90931570824E+00  0.16093923254E+02  0.50528855566E+02  0.29999986980E+02 0.  0.
        -12    1    1    2    0    0  0.37327266245E+02 -0.90931570824E+00 -0.16093923254E+02  0.40659144434E+02  0.00000000000E+00 0.  1.
         11    1    3    3    0    0 -0.65408198964E+01 -0.16301022332E+01  0.12589657214E+02  0.14280722224E+02  0.51100000000E-03 0. -1.
        -11    1    3    3    0    0 -0.37426418021E+00  0.33648123295E+01  0.47103995370E+01  0.58008533638E+01  0.51100000000E-03 0.  1.
        -12    1    3    3    0    0 -0.30412182168E+02 -0.82539438804E+00 -0.12061334962E+01  0.30447279979E+02  0.00000000000E+00 0.  1.
</event>
<event>
 7    1  0.2937071E-011  0.5052886E+02  0.7816164E-02  0.1300439E+00
        -11   -1    0    0    0    0  0.00000000000E+00  0.00000000000E+00  0.45593999997E+02  0.45594000000E+02  0.51100000000E-03 0. -1.
         11   -1    0    0    0    0 -0.00000000000E+00 -0.00000000000E+00 -0.45593999997E+02  0.45594000000E+02  0.51100000000E-03 0.  1.
    9900012    2    1    2    0    0 -0.35165257364E+02  0.11409112793E+02 -0.16923430881E+02  0.50528859663E+02  0.29999999431E+02 0.  0.
        -12    1    1    2    0    0  0.35165257364E+02 -0.11409112793E+02  0.16923430881E+02  0.40659140337E+02  0.00000000000E+00 0.  1.
         11    1    3    3    0    0 -0.20798890442E+01  0.87942784721E+01  0.39882405266E+01  0.98778203588E+01  0.51100000000E-03 0. -1.
        -11    1    3    3    0    0 -0.22238295440E+02  0.47879949073E+01 -0.91921058891E+01  0.24534903510E+02  0.51100000000E-03 0.  1.
        -12    1    3    3    0    0 -0.10847072880E+02 -0.21731605862E+01 -0.11719565519E+02  0.16116135794E+02  0.00000000000E+00 0.  1.
</event>
<event>
 7    1  0.2937071E-011  0.5052886E+02  0.7816164E-02  0.1300439E+00
        -11   -1    0    0    0    0  0.00000000000E+00  0.00000000000E+00  0.45593999997E+02  0.45594000000E+02  0.51100000000E-03 0. -1.
         11   -1    0    0    0    0 -0.00000000000E+00 -0.00000000000E+00 -0.45593999997E+02  0.45594000000E+02  0.51100000000E-03 0.  1.
    9900012    2    1    2    0    0  0.14838438154E+02 -0.36467262982E+02  0.10155043483E+02  0.50528862966E+02  0.30000009471E+02 0.  0.
        -12    1    1    2    0    0 -0.14838438154E+02  0.36467262982E+02 -0.10155043483E+02  0.40659137034E+02  0.00000000000E+00 0.  1.
         11    1    3    3    0    0  0.97875374018E+01 -0.27794278535E+01  0.30011519020E+01  0.10607922539E+02  0.51100000000E-03 0. -1.
        -11    1    3    3    0    0  0.25711972090E+01  0.12895296479E+01  0.36993122171E+01  0.46860274158E+01  0.51100000000E-03 0.  1.
        -12    1    3    3    0    0  0.24797035429E+01 -0.34977364776E+02  0.34545793634E+01  0.35234913012E+02  0.00000000000E+00 0.  1.
</event>
<event>
 7    1  0.2937071E-011  0.5052886E+02  0.7816164E-02  0.1300439E+00
        -11   -1    0    0    0    0  0.00000000000E+00  0.00000000000E+00  0.45593999997E+02  0.45594000000E+02  0.51100000000E-03 0. -1.
         11   -1    0    0    0    0 -0.00000000000E+00 -0.00000000000E+00 -0.45593999997E+02  0.45594000000E+02  0.51100000000E-03 0.  1.
    9900012    2    1    2    0    0 -0.76084340111E+00 -0.32244220546E+02  0.24756755799E+02  0.50528860818E+02  0.30000002942E+02 0.  0.
        -12    1    1    2    0    0  0.76084340111E+00  0.32244220546E+02 -0.24756755799E+02  0.40659139182E+02  0.00000000000E+00 0.  1.
         11    1    3    3    0    0 -0.59607107887E+01 -0.23856567105E+02  0.88434340148E+01  0.26131823368E+02  0.51100000000E-03 0. -1.
        -11    1    3    3    0    0 -0.19588387535E+01 -0.97971998100E+01  0.47546662126E+01  0.11064764997E+02  0.51100000000E-03 0.  1.
        -12    1    3    3    0    0  0.71587061411E+01  0.14095463683E+01  0.11158655572E+02  0.13332272453E+02  0.00000000000E+00 0.  1.
</event>
<event>
 7    1  0.2937071E-011  0.5052885E+02  0.7816164E-02  0.1300439E+00
        -11   -1    0    0    0    0  0.00000000000E+00  0.00000000000E+00  0.45593999997E+02  0.45594000000E+02  0.51100000000E-03 0.  1.
         11   -1    0    0    0    0 -0.00000000000E+00 -0.00000000000E+00 -0.45593999997E+02  0.45594000000E+02  0.51100000000E-03 0. -1.
    9900012    2    1    2    0    0  0.23669661577E+02 -0.13184862229E+02 -0.30316210707E+02  0.50528854623E+02  0.29999984111E+02 0.  0.
        -12    1    1    2    0    0 -0.23669661577E+02  0.13184862229E+02  0.30316210707E+02  0.40659145377E+02  0.00000000000E+00 0.  1.
         11    1    3    3    0    0  0.12485959134E+02  0.13831797353E+01 -0.83082645683E+01  0.15061195904E+02  0.51100000000E-03 0. -1.
        -11    1    3    3    0    0  0.12349556545E+02  0.62651605414E+00 -0.77167464144E+01  0.14575741652E+02  0.51100000000E-03 0.  1.
         12    1    3    3    0    0 -0.11658541014E+01 -0.15194558018E+02 -0.14291199724E+02  0.20891917066E+02  0.00000000000E+00 0. -1.
</event>
<event>
 7    1  0.2937071E-011  0.5052887E+02  0.7816164E-02  0.1300439E+00
        -11   -1    0    0    0    0  0.00000000000E+00  0.00000000000E+00  0.45593999997E+02  0.45594000000E+02  0.51100000000E-03 0.  1.
         11   -1    0    0    0    0 -0.00000000000E+00 -0.00000000000E+00 -0.45593999997E+02  0.45594000000E+02  0.51100000000E-03 0. -1.
    9900012    2    1    2    0    0 -0.25733795830E+02 -0.30925809520E+02  0.58763094393E+01  0.50528868739E+02  0.30000027018E+02 0.  0.
        -12    1    1    2    0    0  0.25733795830E+02  0.30925809520E+02 -0.58763094393E+01  0.40659131261E+02  0.00000000000E+00 0.  1.
         11    1    3    3    0    0 -0.14930822509E+02 -0.31484100367E+01  0.63948286645E+01  0.16544962389E+02  0.51100000000E-03 0. -1.
        -11    1    3    3    0    0 -0.97712481873E+00 -0.54727506600E+00  0.44703268875E+01  0.46084819249E+01  0.51100000000E-03 0.  1.
        -12    1    3    3    0    0 -0.98258485029E+01 -0.27230124418E+02 -0.49888461128E+01  0.29375424425E+02  0.00000000000E+00 0.  1.
</event>
<event>
 7    1  0.2937071E-011  0.5052881E+02  0.7816164E-02  0.1300439E+00
        -11   -1    0    0    0    0  0.00000000000E+00  0.00000000000E+00  0.45593999997E+02  0.45594000000E+02  0.51100000000E-03 0. -1.
         11   -1    0    0    0    0 -0.00000000000E+00 -0.00000000000E+00 -0.45593999997E+02  0.45594000000E+02  0.51100000000E-03 0.  1.
    9900012    2    1    2    0    0 -0.28417518888E+02 -0.25240919230E+02 -0.14439889385E+02  0.50528809296E+02  0.29999846334E+02 0.  0.
        -12    1    1    2    0    0  0.28417518888E+02  0.25240919230E+02  0.14439889385E+02  0.40659190704E+02  0.00000000000E+00 0.  1.
         11    1    3    3    0    0 -0.65479652307E+01  0.26309451348E+01  0.35765181876E+01  0.79113338681E+01  0.51100000000E-03 0.  1.
        -11    1    3    3    0    0 -0.14094172539E+02 -0.66775877286E+01 -0.10590838463E+02  0.18852101661E+02  0.51100000000E-03 0. -1.
        -12    1    3    3    0    0 -0.77753811176E+01 -0.21194276636E+02 -0.74255691093E+01  0.23765373766E+02  0.00000000000E+00 0.  1.
</event>
<event>
 7    1  0.2937071E-011  0.5052886E+02  0.7816164E-02  0.1300439E+00
        -11   -1    0    0    0    0  0.00000000000E+00  0.00000000000E+00  0.45593999997E+02  0.45594000000E+02  0.51100000000E-03 0.  1.
         11   -1    0    0    0    0 -0.00000000000E+00 -0.00000000000E+00 -0.45593999997E+02  0.45594000000E+02  0.51100000000E-03 0. -1.
    9900012    2    1    2    0    0  0.15648171453E+02 -0.18392725786E+02 -0.32710974971E+02  0.50528861849E+02  0.30000006075E+02 0.  0.
        -12    1    1    2    0    0 -0.15648171453E+02  0.18392725786E+02  0.32710974971E+02  0.40659138151E+02  0.00000000000E+00 0.  1.
         11    1    3    3    0    0  0.22621753620E+01 -0.10612531216E+01 -0.33979518537E+01  0.42177923867E+01  0.51100000000E-03 0. -1.
        -11    1    3    3    0    0  0.99657301058E+01  0.52185633061E+01 -0.17018626332E+02  0.20400559355E+02  0.51100000000E-03 0.  1.
         12    1    3    3    0    0  0.34202659856E+01 -0.22550035971E+02 -0.12294396785E+02  0.25910510107E+02  0.00000000000E+00 0. -1.
</event>
<event>
 7    1  0.2937071E-011  0.5052886E+02  0.7816164E-02  0.1300439E+00
        -11   -1    0    0    0    0  0.00000000000E+00  0.00000000000E+00  0.45593999997E+02  0.45594000000E+02  0.51100000000E-03 0. -1.
         11   -1    0    0    0    0 -0.00000000000E+00 -0.00000000000E+00 -0.45593999997E+02  0.45594000000E+02  0.51100000000E-03 0.  1.
    9900012    2    1    2    0    0 -0.13313123210E+02  0.30189510560E+02  0.23759625024E+02  0.50528861068E+02  0.30000003702E+02 0.  0.
        -12    1    1    2    0    0  0.13313123210E+02 -0.30189510560E+02 -0.23759625024E+02  0.40659138932E+02  0.00000000000E+00 0.  1.
         11    1    3    3    0    0 -0.24578106599E+01  0.19276804537E+02  0.14737143294E+02  0.24388920007E+02  0.51100000000E-03 0. -1.
        -11    1    3    3    0    0 -0.73897826355E+01  0.10376059666E+02  0.14709451451E+02  0.19458660382E+02  0.51100000000E-03 0.  1.
        -12    1    3    3    0    0 -0.34655299145E+01  0.53664635714E+00 -0.56869697213E+01  0.66812806790E+01  0.00000000000E+00 0.  1.
</event>
<event>
 7    1  0.2937071E-011  0.5052887E+02  0.7816164E-02  0.1300439E+00
        -11   -1    0    0    0    0  0.00000000000E+00  0.00000000000E+00  0.45593999997E+02  0.45594000000E+02  0.51100000000E-03 0.  1.
         11   -1    0    0    0    0 -0.00000000000E+00 -0.00000000000E+00 -0.45593999997E+02  0.45594000000E+02  0.51100000000E-03 0. -1.
    9900012    2    1    2    0    0 -0.33674963679E+02  0.22770233090E+02  0.82355032875E+00  0.50528869059E+02  0.30000027991E+02 0.  0.
        -12    1    1    2    0    0  0.33674963679E+02 -0.22770233090E+02 -0.82355032875E+00  0.40659130941E+02  0.00000000000E+00 0.  1.
         11    1    3    3    0    0 -0.84237361036E+01 -0.14669814203E+01 -0.44310505341E+01  0.96304503284E+01  0.51100000000E-03 0.  1.
        -11    1    3    3    0    0 -0.51701470619E+01 -0.27771049173E+01  0.42084451276E+01  0.72217548433E+01  0.51100000000E-03 0. -1.
         12    1    3    3    0    0 -0.20081080513E+02  0.27014319428E+02  0.10461557352E+01  0.33676663887E+02  0.00000000000E+00 0. -1.
</event>
<event>
 7    1  0.2937071E-011  0.5052886E+02  0.7816164E-02  0.1300439E+00
        -11   -1    0    0    0    0  0.00000000000E+00  0.00000000000E+00  0.45593999997E+02  0.45594000000E+02  0.51100000000E-03 0. -1.
         11   -1    0    0    0    0 -0.00000000000E+00 -0.00000000000E+00 -0.45593999997E+02  0.45594000000E+02  0.51100000000E-03 0.  1.
    9900012    2    1    2    0    0  0.25487993124E+02 -0.43304269107E-01  0.31678476028E+02  0.50528861886E+02  0.30000006188E+02 0.  0.
        -12    1    1    2    0    0 -0.25487993124E+02  0.43304269107E-01 -0.31678476028E+02  0.40659138114E+02  0.00000000000E+00 0.  1.
         11    1    3    3    0    0  0.34719715109E+00  0.12584899416E+01  0.27813009233E+01  0.30724546998E+01  0.51100000000E-03 0. -1.
        -11    1    3    3    0    0  0.31365144886E+02 -0.83107417008E+00  0.23437268562E+02  0.39163357311E+02  0.51100000000E-03 0.  1.
        -12    1    3    3    0    0 -0.62243489138E+01 -0.47072004061E+00  0.54599065434E+01  0.82930498745E+01  0.00000000000E+00 0.  1.
</event>
<event>
 7    1  0.2937071E-011  0.5052886E+02  0.7816164E-02  0.1300439E+00
        -11   -1    0    0    0    0  0.00000000000E+00  0.00000000000E+00  0.45593999997E+02  0.45594000000E+02  0.51100000000E-03 0. -1.
         11   -1    0    0    0    0 -0.00000000000E+00 -0.00000000000E+00 -0.45593999997E+02  0.45594000000E+02  0.51100000000E-03 0.  1.
    9900012    2    1    2    0    0  0.19045222172E+01  0.34592298541E+02  0.21281723354E+02  0.50528855000E+02  0.29999985258E+02 0.  0.
        -12    1    1    2    0    0 -0.19045222172E+01 -0.34592298541E+02 -0.21281723354E+02  0.40659145000E+02  0.00000000000E+00 0.  1.
         11    1    3    3    0    0 -0.53002264251E+01  0.14797923536E+02 -0.28271368371E+01  0.15970712072E+02  0.51100000000E-03 0. -1.
        -11    1    3    3    0    0  0.32975056403E+00  0.77550268959E+00 -0.16239351586E+01  0.18295642969E+01  0.51100000000E-03 0.  1.
         12    1    3    3    0    0  0.68749980783E+01  0.19018872316E+02  0.25732795350E+02  0.32728578632E+02  0.00000000000E+00 0. -1.
</event>
<event>
 7    1  0.2937071E-011  0.5052886E+02  0.7816164E-02  0.1300439E+00
        -11   -1    0    0    0    0  0.00000000000E+00  0.00000000000E+00  0.45593999997E+02  0.45594000000E+02  0.51100000000E-03 0.  1.
         11   -1    0    0    0    0 -0.00000000000E+00 -0.00000000000E+00 -0.45593999997E+02  0.45594000000E+02  0.51100000000E-03 0. -1.
    9900012    2    1    2    0    0 -0.91599707026E+01  0.11172740205E+02 -0.38005661730E+02  0.50528861906E+02  0.30000006250E+02 0.  0.
        -12    1    1    2    0    0  0.91599707026E+01 -0.11172740205E+02  0.38005661730E+02  0.40659138094E+02  0.00000000000E+00 0.  1.
         11    1    3    3    0    0 -0.11664549833E+02  0.10696578332E+02 -0.20373772194E+02  0.25798626019E+02  0.51100000000E-03 0. -1.
        -11    1    3    3    0    0 -0.19350730489E+01  0.78231605695E+01 -0.12029913943E+02  0.14479819706E+02  0.51100000000E-03 0.  1.
         12    1    3    3    0    0  0.44396521791E+01 -0.73469986966E+01 -0.56019755938E+01  0.10250416180E+02  0.00000000000E+00 0. -1.
</event>
<event>
 7    1  0.2937071E-011  0.5052886E+02  0.7816164E-02  0.1300439E+00
        -11   -1    0    0    0    0  0.00000000000E+00  0.00000000000E+00  0.45593999997E+02  0.45594000000E+02  0.51100000000E-03 0.  1.
         11   -1    0    0    0    0 -0.00000000000E+00 -0.00000000000E+00 -0.45593999997E+02  0.45594000000E+02  0.51100000000E-03 0. -1.
    9900012    2    1    2    0    0 -0.12346774359E+02 -0.15810706812E+02 -0.35365861161E+02  0.50528862988E+02  0.30000009537E+02 0.  0.
        -12    1    1    2    0    0  0.12346774359E+02  0.15810706812E+02  0.35365861161E+02  0.40659137012E+02  0.00000000000E+00 0.  1.
         11    1    3    3    0    0  0.21233102230E+01 -0.17302858563E+02 -0.20747237780E+02  0.27098805076E+02  0.51100000000E-03 0. -1.
        -11    1    3    3    0    0 -0.16060528228E+01 -0.34374363740E+01 -0.72197971119E+00  0.38622052585E+01  0.51100000000E-03 0.  1.
         12    1    3    3    0    0 -0.12864031759E+02  0.49295881253E+01 -0.13896643669E+02  0.19567852653E+02  0.00000000000E+00 0. -1.
</event>
<event>
 7    1  0.2937071E-011  0.5052885E+02  0.7816164E-02  0.1300439E+00
        -11   -1    0    0    0    0  0.00000000000E+00  0.00000000000E+00  0.45593999997E+02  0.45594000000E+02  0.51100000000E-03 0.  1.
         11   -1    0    0    0    0 -0.00000000000E+00 -0.00000000000E+00 -0.45593999997E+02  0.45594000000E+02  0.51100000000E-03 0. -1.
    9900012    2    1    2    0    0  0.18040187409E+02  0.35871018025E+02 -0.64021740061E+01  0.50528854314E+02  0.29999983173E+02 0.  0.
        -12    1    1    2    0    0 -0.18040187409E+02 -0.35871018025E+02  0.64021740061E+01  0.40659145686E+02  0.00000000000E+00 0.  1.
         11    1    3    3    0    0  0.17578595580E+02  0.34641870223E+02 -0.68979356373E+01  0.39454375061E+02  0.51100000000E-03 0. -1.
        -11    1    3    3    0    0  0.35796554649E+01  0.46260154075E+01  0.20660981982E+01  0.62034437068E+01  0.51100000000E-03 0.  1.
         12    1    3    3    0    0 -0.31180636354E+01 -0.33968676054E+01 -0.15703365670E+01  0.48710355466E+01  0.00000000000E+00 0. -1.
</event>
<event>
 7    1  0.2937071E-011  0.5052886E+02  0.7816164E-02  0.1300439E+00
        -11   -1    0    0    0    0  0.00000000000E+00  0.00000000000E+00  0.45593999997E+02  0.45594000000E+02  0.51100000000E-03 0. -1.
         11   -1    0    0    0    0 -0.00000000000E+00 -0.00000000000E+00 -0.45593999997E+02  0.45594000000E+02  0.51100000000E-03 0.  1.
    9900012    2    1    2    0    0  0.46617556690E+01 -0.38036959814E+02  0.13587620688E+02  0.50528859407E+02  0.29999998653E+02 0.  0.
        -12    1    1    2    0    0 -0.46617556690E+01  0.38036959814E+02 -0.13587620688E+02  0.40659140593E+02  0.00000000000E+00 0.  1.
         11    1    3    3    0    0  0.75637023600E+01 -0.64244945421E+01  0.71083908935E+01  0.12207085847E+02  0.51100000000E-03 0. -1.
        -11    1    3    3    0    0  0.13414872700E+01 -0.21910620222E+01  0.81536381767E+01  0.85488102481E+01  0.51100000000E-03 0.  1.
        -12    1    3    3    0    0 -0.42434339611E+01 -0.29421403250E+02 -0.16744083818E+01  0.29772963312E+02  0.00000000000E+00 0.  1.
</event>
<event>
 7    1  0.2937071E-011  0.5052886E+02  0.7816164E-02  0.1300439E+00
        -11   -1    0    0    0    0  0.00000000000E+00  0.00000000000E+00  0.45593999997E+02  0.45594000000E+02  0.51100000000E-03 0. -1.
         11   -1    0    0    0    0 -0.00000000000E+00 -0.00000000000E+00 -0.45593999997E+02  0.45594000000E+02  0.51100000000E-03 0.  1.
    9900012    2    1    2    0    0 -0.13131724473E+02 -0.35986151654E+02 -0.13627922723E+02  0.50528861098E+02  0.30000003794E+02 0.  0.
        -12    1    1    2    0    0  0.13131724473E+02  0.35986151654E+02  0.13627922723E+02  0.40659138902E+02  0.00000000000E+00 0.  1.
         11    1    3    3    0    0 -0.87939389580E+01 -0.11790756221E+02 -0.11376144711E+02  0.18594944566E+02  0.51100000000E-03 0. -1.
        -11    1    3    3    0    0 -0.11867478825E+02 -0.12151477000E+02 -0.44560379320E+01  0.17559946506E+02  0.51100000000E-03 0.  1.
         12    1    3    3    0    0  0.75296933102E+01 -0.12043918432E+02  0.22042599194E+01  0.14373970027E+02  0.00000000000E+00 0. -1.
</event>
<event>
 7    1  0.2937071E-011  0.5052883E+02  0.7816164E-02  0.1300439E+00
        -11   -1    0    0    0    0  0.00000000000E+00  0.00000000000E+00  0.45593999997E+02  0.45594000000E+02  0.51100000000E-03 0.  1.
         11   -1    0    0    0    0 -0.00000000000E+00 -0.00000000000E+00 -0.45593999997E+02  0.45594000000E+02  0.51100000000E-03 0. -1.
    9900012    2    1    2    0    0 -0.17567701634E+02 -0.12883833843E+02 -0.34330021644E+02  0.50528834966E+02  0.29999924364E+02 0.  0.
        -12    1    1    2    0    0  0.17567701634E+02  0.12883833843E+02  0.34330021644E+02  0.40659165034E+02  0.00000000000E+00 0.  1.
         11    1    3    3    0    0 -0.10070315479E+02 -0.83437314601E+01 -0.65953345095E+01  0.14646758893E+02  0.51100000000E-03 0. -1.
        -11    1    3    3    0    0 -0.93601790895E+01  0.60749600823E+00 -0.20249101473E+01  0.95959504664E+01  0.51100000000E-03 0.  1.
         12    1    3    3    0    0  0.18627929346E+01 -0.51475983909E+01 -0.25709776987E+02  0.26286125607E+02  0.00000000000E+00 0. -1.
</event>
<event>
 7    1  0.2937071E-011  0.5052886E+02  0.7816164E-02  0.1300439E+00
        -11   -1    0    0    0    0  0.00000000000E+00  0.00000000000E+00  0.45593999997E+02  0.45594000000E+02  0.51100000000E-03 0. -1.
         11   -1    0    0    0    0 -0.00000000000E+00 -0.00000000000E+00 -0.45593999997E+02  0.45594000000E+02  0.51100000000E-03 0.  1.
    9900012    2    1    2    0    0  0.34104904701E+02  0.21883182190E+02 -0.33388217402E+01  0.50528856895E+02  0.29999991017E+02 0.  0.
        -12    1    1    2    0    0 -0.34104904701E+02 -0.21883182190E+02  0.33388217402E+01  0.40659143105E+02  0.00000000000E+00 0.  1.
         11    1    3    3    0    0  0.17725701256E+02  0.21051574671E+01 -0.37566247579E+01  0.18241282927E+02  0.51100000000E-03 0. -1.
        -11    1    3    3    0    0  0.51745627367E+01 -0.34374285417E+01 -0.16476609613E+01  0.64270367510E+01  0.51100000000E-03 0.  1.
        -12    1    3    3    0    0  0.11204640709E+02  0.23215453265E+02  0.20654639790E+01  0.25860537217E+02  0.00000000000E+00 0.  1.
</event>
<event>
 7    1  0.2937071E-011  0.5052884E+02  0.7816164E-02  0.1300439E+00
        -11   -1    0    0    0    0  0.00000000000E+00  0.00000000000E+00  0.45593999997E+02  0.45594000000E+02  0.51100000000E-03 0.  1.
         11   -1    0    0    0    0 -0.00000000000E+00 -0.00000000000E+00 -0.45593999997E+02  0.45594000000E+02  0.51100000000E-03 0. -1.
    9900012    2    1    2    0    0 -0.25610518546E+02 -0.24149158279E+02 -0.20349125666E+02  0.50528838411E+02  0.29999934833E+02 0.  0.
        -12    1    1    2    0    0  0.25610518546E+02  0.24149158279E+02  0.20349125666E+02  0.40659161589E+02  0.00000000000E+00 0.  1.
         11    1    3    3    0    0 -0.22700099460E+00 -0.14082785336E+01 -0.37268802678E+01  0.39905406490E+01  0.51100000000E-03 0. -1.
        -11    1    3    3    0    0  0.53550025951E+01 -0.48572948227E+01 -0.60794611391E+01  0.94461216270E+01  0.51100000000E-03 0.  1.
         12    1    3    3    0    0 -0.30738520146E+02 -0.17883584923E+02 -0.10542784259E+02  0.37092176135E+02  0.00000000000E+00 0. -1.
</event>
<event>
 7    1  0.2937071E-011  0.5052886E+02  0.7816164E-02  0.1300439E+00
        -11   -1    0    0    0    0  0.00000000000E+00  0.00000000000E+00  0.45593999997E+02  0.45594000000E+02  0.51100000000E-03 0.  1.
         11   -1    0    0    0    0 -0.00000000000E+00 -0.00000000000E+00 -0.45593999997E+02  0.45594000000E+02  0.51100000000E-03 0. -1.
    9900012    2    1    2    0    0 -0.16680474330E+02  0.36809815794E+02  0.44681660083E+01  0.50528864862E+02  0.30000015235E+02 0.  0.
        -12    1    1    2    0    0  0.16680474330E+02 -0.36809815794E+02 -0.44681660083E+01  0.40659135138E+02  0.00000000000E+00 0.  1.
         11    1    3    3    0    0 -0.11096033429E+01  0.32892349493E+01 -0.60727620138E+01  0.69949070664E+01  0.51100000000E-03 0. -1.
        -11    1    3    3    0    0 -0.40801566169E+01 -0.15443821985E+01 -0.16624413932E+01  0.46686728350E+01  0.51100000000E-03 0.  1.
        -12    1    3    3    0    0 -0.11490714370E+02  0.35064963044E+02  0.12203369415E+02  0.38865284961E+02  0.00000000000E+00 0.  1.
</event>
<event>
 7    1  0.2937071E-011  0.5052886E+02  0.7816164E-02  0.1300439E+00
        -11   -1    0    0    0    0  0.00000000000E+00  0.00000000000E+00  0.45593999997E+02  0.45594000000E+02  0.51100000000E-03 0. -1.
         11   -1    0    0    0    0 -0.00000000000E+00 -0.00000000000E+00 -0.45593999997E+02  0.45594000000E+02  0.51100000000E-03 0.  1.
    9900012    2    1    2    0    0 -0.30519748163E+02 -0.73825435944E+01  0.25830380060E+02  0.50528861890E+02  0.30000006200E+02 0.  0.
        -12    1    1    2    0    0  0.30519748163E+02  0.73825435944E+01 -0.25830380060E+02  0.40659138110E+02  0.00000000000E+00 0.  1.
         11    1    3    3    0    0  0.53027427544E+01  0.55348145400E+00  0.17483847759E+01  0.56109065243E+01  0.51100000000E-03 0.  1.
        -11    1    3    3    0    0 -0.33143887591E+01 -0.38375509599E+01  0.22650901426E+01  0.55536117826E+01  0.51100000000E-03 0. -1.
        -12    1    3    3    0    0 -0.32508102158E+02 -0.40984740885E+01  0.21816905141E+02  0.39364343583E+02  0.00000000000E+00 0.  1.
</event>
<event>
 7    1  0.2937071E-011  0.5052886E+02  0.7816164E-02  0.1300439E+00
        -11   -1    0    0    0    0  0.00000000000E+00  0.00000000000E+00  0.45593999997E+02  0.45594000000E+02  0.51100000000E-03 0.  1.
         11   -1    0    0    0    0 -0.00000000000E+00 -0.00000000000E+00 -0.45593999997E+02  0.45594000000E+02  0.51100000000E-03 0. -1.
    9900012    2    1    2    0    0  0.11566055579E+02  0.12346236517E+02 -0.36972454941E+02  0.50528860534E+02  0.30000002078E+02 0.  0.
        -12    1    1    2    0    0 -0.11566055579E+02 -0.12346236517E+02  0.36972454941E+02  0.40659139466E+02  0.00000000000E+00 0.  1.
         11    1    3    3    0    0 -0.49631721734E+01 -0.26978907420E+01 -0.10070766369E+02  0.11546948861E+02  0.51100000000E-03 0. -1.
        -11    1    3    3    0    0  0.27496407515E+01 -0.35047397664E+01 -0.78828007097E+01  0.90544062413E+01  0.51100000000E-03 0.  1.
         12    1    3    3    0    0  0.13779587001E+02  0.18548867025E+02 -0.19018887862E+02  0.29927505431E+02  0.00000000000E+00 0. -1.
</event>
<event>
 7    1  0.2937071E-011  0.5052886E+02  0.7816164E-02  0.1300439E+00
        -11   -1    0    0    0    0  0.00000000000E+00  0.00000000000E+00  0.45593999997E+02  0.45594000000E+02  0.51100000000E-03 0.  1.
         11   -1    0    0    0    0 -0.00000000000E+00 -0.00000000000E+00 -0.45593999997E+02  0.45594000000E+02  0.51100000000E-03 0. -1.
    9900012    2    1    2    0    0  0.22036811839E+02  0.29977568961E+02 -0.16397865798E+02  0.50528859336E+02  0.29999998437E+02 0.  0.
        -12    1    1    2    0    0 -0.22036811839E+02 -0.29977568961E+02  0.16397865798E+02  0.40659140664E+02  0.00000000000E+00 0.  1.
         11    1    3    3    0    0 -0.90851492261E-01  0.12103150539E+02 -0.10403323509E+02  0.15960064137E+02  0.51100000000E-03 0. -1.
        -11    1    3    3    0    0  0.54233850282E+01 -0.34846566455E+01 -0.35095118236E+01  0.73397963597E+01  0.51100000000E-03 0.  1.
         12    1    3    3    0    0  0.16704278303E+02  0.21359075068E+02 -0.24850304652E+01  0.27228998839E+02  0.00000000000E+00 0. -1.
</event>
<event>
 7    1  0.2937071E-011  0.5052878E+02  0.7816164E-02  0.1300439E+00
        -11   -1    0    0    0    0  0.00000000000E+00  0.00000000000E+00  0.45593999997E+02  0.45594000000E+02  0.51100000000E-03 0.  1.
         11   -1    0    0    0    0 -0.00000000000E+00 -0.00000000000E+00 -0.45593999997E+02  0.45594000000E+02  0.51100000000E-03 0. -1.
    9900012    2    1    2    0    0 -0.14412789928E+02  0.37939275492E+02 -0.24606986589E+01  0.50528779936E+02  0.29999757092E+02 0.  0.
        -12    1    1    2    0    0  0.14412789928E+02 -0.37939275492E+02  0.24606986589E+01  0.40659220064E+02  0.00000000000E+00 0.  1.
         11    1    3    3    0    0 -0.39024562063E+01  0.50554108510E+00  0.63251173098E+01  0.74492848969E+01  0.51100000000E-03 0. -1.
        -11    1    3    3    0    0 -0.39026702311E+01  0.11761247554E+01  0.21872814560E+01  0.46258301743E+01  0.51100000000E-03 0.  1.
         12    1    3    3    0    0 -0.66076634908E+01  0.36257609651E+02 -0.10973097425E+02  0.38453664865E+02  0.00000000000E+00 0. -1.
</event>
<event>
 7    1  0.2937071E-011  0.5052886E+02  0.7816164E-02  0.1300439E+00
        -11   -1    0    0    0    0  0.00000000000E+00  0.00000000000E+00  0.45593999997E+02  0.45594000000E+02  0.51100000000E-03 0. -1.
         11   -1    0    0    0    0 -0.00000000000E+00 -0.00000000000E+00 -0.45593999997E+02  0.45594000000E+02  0.51100000000E-03 0.  1.
    9900012    2    1    2    0    0 -0.45799817253E+00  0.30595233321E+02  0.26774751484E+02  0.50528863495E+02  0.30000011079E+02 0.  0.
        -12    1    1    2    0    0  0.45799817253E+00 -0.30595233321E+02 -0.26774751484E+02  0.40659136505E+02  0.00000000000E+00 0.  1.
         11    1    3    3    0    0 -0.70414771447E+00 -0.21082005684E+01  0.22841632981E+01  0.31871203106E+01  0.51100000000E-03 0. -1.
        -11    1    3    3    0    0 -0.21552299799E+01  0.55297857094E+00 -0.38299537147E+01  0.44293732382E+01  0.51100000000E-03 0.  1.
         12    1    3    3    0    0  0.24013795218E+01  0.32150455319E+02  0.28320541901E+02  0.42912369946E+02  0.00000000000E+00 0. -1.
</event>
<event>
 7    1  0.2937071E-011  0.5052886E+02  0.7816164E-02  0.1300439E+00
        -11   -1    0    0    0    0  0.00000000000E+00  0.00000000000E+00  0.45593999997E+02  0.45594000000E+02  0.51100000000E-03 0. -1.
         11   -1    0    0    0    0 -0.00000000000E+00 -0.00000000000E+00 -0.45593999997E+02  0.45594000000E+02  0.51100000000E-03 0.  1.
    9900012    2    1    2    0    0 -0.39450675326E+02  0.58584462653E+01 -0.79049555908E+01  0.50528862045E+02  0.30000006673E+02 0.  0.
        -12    1    1    2    0    0  0.39450675326E+02 -0.58584462653E+01  0.79049555908E+01  0.40659137955E+02  0.00000000000E+00 0.  1.
         11    1    3    3    0    0 -0.78346720914E+01  0.70298403473E+01  0.66751930555E+01  0.12464306827E+02  0.51100000000E-03 0.  1.
        -11    1    3    3    0    0 -0.55751326482E+01  0.20464199670E+01  0.28262306857E+01  0.65770448437E+01  0.51100000000E-03 0. -1.
        -12    1    3    3    0    0 -0.26040870586E+02 -0.32178140491E+01 -0.17406379332E+02  0.31487510375E+02  0.00000000000E+00 0.  1.
</event>
<event>
 7    1  0.2937071E-011  0.5052886E+02  0.7816164E-02  0.1300439E+00
        -11   -1    0    0    0    0  0.00000000000E+00  0.00000000000E+00  0.45593999997E+02  0.45594000000E+02  0.51100000000E-03 0.  1.
         11   -1    0    0    0    0 -0.00000000000E+00 -0.00000000000E+00 -0.45593999997E+02  0.45594000000E+02  0.51100000000E-03 0. -1.
    9900012    2    1    2    0    0 -0.53241464025E+01  0.25184361928E+01 -0.40230292034E+02  0.50528862615E+02  0.30000008403E+02 0.  0.
        -12    1    1    2    0    0  0.53241464025E+01 -0.25184361928E+01  0.40230292034E+02  0.40659137385E+02  0.00000000000E+00 0.  1.
         11    1    3    3    0    0  0.54022575955E+01  0.15132760427E+01 -0.24353204917E+02  0.24991058031E+02  0.51100000000E-03 0.  1.
        -11    1    3    3    0    0  0.18729831717E+01 -0.20163236770E+01 -0.11556696366E+02  0.11879850937E+02  0.51100000000E-03 0. -1.
        -12    1    3    3    0    0 -0.12599387170E+02  0.30214838272E+01 -0.43203907509E+01  0.13657953647E+02  0.00000000000E+00 0.  1.
</event>
<event>
 7    1  0.2937071E-011  0.5052886E+02  0.7816164E-02  0.1300439E+00
        -11   -1    0    0    0    0  0.00000000000E+00  0.00000000000E+00  0.45593999997E+02  0.45594000000E+02  0.51100000000E-03 0.  1.
         11   -1    0    0    0    0 -0.00000000000E+00 -0.00000000000E+00 -0.45593999997E+02  0.45594000000E+02  0.51100000000E-03 0. -1.
    9900012    2    1    2    0    0  0.35783582722E+02 -0.87338989793E+00 -0.19285700801E+02  0.50528857636E+02  0.29999993272E+02 0.  0.
        -12    1    1    2    0    0 -0.35783582722E+02  0.87338989793E+00  0.19285700801E+02  0.40659142364E+02  0.00000000000E+00 0.  1.
         11    1    3    3    0    0  0.24078252512E+02 -0.33038006010E+01 -0.74717380707E+01  0.25426447107E+02  0.51100000000E-03 0. -1.
        -11    1    3    3    0    0  0.79389023273E+01 -0.71283430509E+01 -0.19238384472E+01  0.10841614245E+02  0.51100000000E-03 0.  1.
        -12    1    3    3    0    0  0.37664278836E+01  0.95587537540E+01 -0.98901242828E+01  0.14260796284E+02  0.00000000000E+00 0.  1.
</event>
<event>
 7    1  0.2937071E-011  0.5052886E+02  0.7816164E-02  0.1300439E+00
        -11   -1    0    0    0    0  0.00000000000E+00  0.00000000000E+00  0.45593999997E+02  0.45594000000E+02  0.51100000000E-03 0.  1.
         11   -1    0    0    0    0 -0.00000000000E+00 -0.00000000000E+00 -0.45593999997E+02  0.45594000000E+02  0.51100000000E-03 0. -1.
    9900012    2    1    2    0    0  0.15186269475E+02  0.34794962547E+02  0.14555195528E+02  0.50528856919E+02  0.29999991092E+02 0.  0.
        -12    1    1    2    0    0 -0.15186269475E+02 -0.34794962547E+02 -0.14555195528E+02  0.40659143081E+02  0.00000000000E+00 0.  1.
         11    1    3    3    0    0  0.75874971595E+01  0.12492583588E+02  0.10619961003E+02  0.18067050944E+02  0.51100000000E-03 0. -1.
        -11    1    3    3    0    0 -0.45807785889E+01  0.17398932306E+02  0.64128014921E+01  0.19100534053E+02  0.51100000000E-03 0.  1.
         12    1    3    3    0    0  0.12179550904E+02  0.49034466528E+01 -0.24775669672E+01  0.13361271922E+02  0.00000000000E+00 0. -1.
</event>
<event>
 7    1  0.2937071E-011  0.5052882E+02  0.7816164E-02  0.1300439E+00
        -11   -1    0    0    0    0  0.00000000000E+00  0.00000000000E+00  0.45593999997E+02  0.45594000000E+02  0.51100000000E-03 0.  1.
         11   -1    0    0    0    0 -0.00000000000E+00 -0.00000000000E+00 -0.45593999997E+02  0.45594000000E+02  0.51100000000E-03 0. -1.
    9900012    2    1    2    0    0  0.65162627332E+01  0.38861721373E+02 -0.10023649219E+02  0.50528823770E+02  0.29999890330E+02 0.  0.
        -12    1    1    2    0    0 -0.65162627332E+01 -0.38861721373E+02  0.10023649219E+02  0.40659176230E+02  0.00000000000E+00 0.  1.
         11    1    3    3    0    0 -0.74309226257E-01  0.23855626257E+02 -0.10045612789E+02  0.25884566107E+02  0.51100000000E-03 0. -1.
        -11    1    3    3    0    0 -0.53706759441E+01  0.10018189715E+02 -0.19577431631E+01  0.11534341933E+02  0.51100000000E-03 0.  1.
        -12    1    3    3    0    0  0.11961247904E+02  0.49879054003E+01  0.19797067329E+01  0.13109915730E+02  0.00000000000E+00 0.  1.
</event>
<event>
 7    1  0.2937071E-011  0.5052887E+02  0.7816164E-02  0.1300439E+00
        -11   -1    0    0    0    0  0.00000000000E+00  0.00000000000E+00  0.45593999997E+02  0.45594000000E+02  0.51100000000E-03 0.  1.
         11   -1    0    0    0    0 -0.00000000000E+00 -0.00000000000E+00 -0.45593999997E+02  0.45594000000E+02  0.51100000000E-03 0. -1.
    9900012    2    1    2    0    0  0.20189232587E+02  0.14615660042E+02 -0.32123862456E+02  0.50528866094E+02  0.30000018979E+02 0.  0.
        -12    1    1    2    0    0 -0.20189232587E+02 -0.14615660042E+02  0.32123862456E+02  0.40659133906E+02  0.00000000000E+00 0.  1.
         11    1    3    3    0    0  0.76191514001E+01 -0.22979914660E+01 -0.67185964375E+01  0.10414978213E+02  0.51100000000E-03 0. -1.
        -11    1    3    3    0    0 -0.65183781379E+01  0.33028411825E+01 -0.38171644708E+01  0.82443167263E+01  0.51100000000E-03 0.  1.
         12    1    3    3    0    0  0.19088459325E+02  0.13610810326E+02 -0.21588101547E+02  0.31869571154E+02  0.00000000000E+00 0. -1.
</event>
<event>
 7    1  0.2937071E-011  0.5052882E+02  0.7816164E-02  0.1300439E+00
        -11   -1    0    0    0    0  0.00000000000E+00  0.00000000000E+00  0.45593999997E+02  0.45594000000E+02  0.51100000000E-03 0.  1.
         11   -1    0    0    0    0 -0.00000000000E+00 -0.00000000000E+00 -0.45593999997E+02  0.45594000000E+02  0.51100000000E-03 0. -1.
    9900012    2    1    2    0    0 -0.26671576330E+01 -0.40138571400E+02 -0.59118590041E+01  0.50528822429E+02  0.29999886254E+02 0.  0.
        -12    1    1    2    0    0  0.26671576330E+01  0.40138571400E+02  0.59118590041E+01  0.40659177571E+02  0.00000000000E+00 0.  1.
         11    1    3    3    0    0  0.49692837820E+00 -0.29717823224E+02  0.50817231102E+01  0.30153272874E+02  0.51100000000E-03 0. -1.
        -11    1    3    3    0    0  0.60539894106E-02  0.20710477584E+01  0.13965353605E+01  0.24979164803E+01  0.51100000000E-03 0.  1.
         12    1    3    3    0    0 -0.31701400006E+01 -0.12491795935E+02 -0.12390117475E+02  0.17877633074E+02  0.00000000000E+00 0. -1.
</event>
<event>
 7    1  0.2937071E-011  0.5052884E+02  0.7816164E-02  0.1300439E+00
        -11   -1    0    0    0    0  0.00000000000E+00  0.00000000000E+00  0.45593999997E+02  0.45594000000E+02  0.51100000000E-03 0. -1.
         11   -1    0    0    0    0 -0.00000000000E+00 -0.00000000000E+00 -0.45593999997E+02  0.45594000000E+02  0.51100000000E-03 0.  1.
    9900012    2    1    2    0    0  0.18462545788E+02 -0.35856425295E+02  0.51593015069E+01  0.50528840836E+02  0.29999942205E+02 0.  0.
        -12    1    1    2    0    0 -0.18462545788E+02  0.35856425295E+02 -0.51593015069E+01  0.40659159164E+02  0.00000000000E+00 0.  1.
         11    1    3    3    0    0  0.13782019327E+02 -0.49451784388E+01 -0.28473829927E+01  0.14916649647E+02  0.51100000000E-03 0. -1.
        -11    1    3    3    0    0 -0.29274876699E+01 -0.15719987840E+01 -0.17698948473E+01  0.37648230059E+01  0.51100000000E-03 0.  1.
        -12    1    3    3    0    0  0.76080141300E+01 -0.29339248072E+02  0.97765793469E+01  0.31847368183E+02  0.00000000000E+00 0.  1.
</event>
<event>
 7    1  0.2937071E-011  0.5052885E+02  0.7816164E-02  0.1300439E+00
        -11   -1    0    0    0    0  0.00000000000E+00  0.00000000000E+00  0.45593999997E+02  0.45594000000E+02  0.51100000000E-03 0. -1.
         11   -1    0    0    0    0 -0.00000000000E+00 -0.00000000000E+00 -0.45593999997E+02  0.45594000000E+02  0.51100000000E-03 0.  1.
    9900012    2    1    2    0    0  0.28080583235E+02  0.22876680613E+01  0.29315756498E+02  0.50528853931E+02  0.29999982009E+02 0.  0.
        -12    1    1    2    0    0 -0.28080583235E+02 -0.22876680613E+01 -0.29315756498E+02  0.40659146069E+02  0.00000000000E+00 0.  1.
         11    1    3    3    0    0  0.11236720795E+01 -0.20387824039E+01  0.65785099949E+01  0.69782567054E+01  0.51100000000E-03 0. -1.
        -11    1    3    3    0    0 -0.92060931372E+00  0.34228513860E+01  0.13820555456E+02  0.14267837484E+02  0.51100000000E-03 0.  1.
        -12    1    3    3    0    0  0.27877520470E+02  0.90359907928E+00  0.89166910477E+01  0.29282759741E+02  0.00000000000E+00 0.  1.
</event>
<event>
 7    1  0.2937071E-011  0.5052885E+02  0.7816164E-02  0.1300439E+00
        -11   -1    0    0    0    0  0.00000000000E+00  0.00000000000E+00  0.45593999997E+02  0.45594000000E+02  0.51100000000E-03 0.  1.
         11   -1    0    0    0    0 -0.00000000000E+00 -0.00000000000E+00 -0.45593999997E+02  0.45594000000E+02  0.51100000000E-03 0. -1.
    9900012    2    1    2    0    0 -0.17297726856E+01  0.71101360094E+01 -0.39995249933E+02  0.50528853860E+02  0.29999981794E+02 0.  0.
        -12    1    1    2    0    0  0.17297726856E+01 -0.71101360094E+01  0.39995249933E+02  0.40659146140E+02  0.00000000000E+00 0.  1.
         11    1    3    3    0    0  0.29397814447E+01 -0.26107755908E+01 -0.20714458121E+02  0.21084288929E+02  0.51100000000E-03 0. -1.
        -11    1    3    3    0    0 -0.61872358371E+01 -0.22409259287E+01  0.14349048928E+00  0.65821141059E+01  0.51100000000E-03 0.  1.
        -12    1    3    3    0    0  0.15176817068E+01  0.11961837529E+02 -0.19424282301E+02  0.22862450825E+02  0.00000000000E+00 0.  1.
</event>
<event>
 7    1  0.2937071E-011  0.5052887E+02  0.7816164E-02  0.1300439E+00
        -11   -1    0    0    0    0  0.00000000000E+00  0.00000000000E+00  0.45593999997E+02  0.45594000000E+02  0.51100000000E-03 0.  1.
         11   -1    0    0    0    0 -0.00000000000E+00 -0.00000000000E+00 -0.45593999997E+02  0.45594000000E+02  0.51100000000E-03 0. -1.
    9900012    2    1    2    0    0  0.16790124681E+02 -0.14250106798E+02 -0.34178813526E+02  0.50528866652E+02  0.30000020674E+02 0.  0.
        -12    1    1    2    0    0 -0.16790124681E+02  0.14250106798E+02  0.34178813526E+02  0.40659133348E+02  0.00000000000E+00 0.  1.
         11    1    3    3    0    0  0.26314631236E+01 -0.55960313434E+00 -0.93137745299E+01  0.96945422839E+01  0.51100000000E-03 0. -1.
        -11    1    3    3    0    0 -0.21663576640E+01 -0.14116051787E+02 -0.18349160751E+02  0.23251832704E+02  0.51100000000E-03 0.  1.
         12    1    3    3    0    0  0.16325019222E+02  0.42554812302E+00 -0.65158782456E+01  0.17582491664E+02  0.00000000000E+00 0. -1.
</event>
<event>
 7    1  0.2937071E-011  0.5052886E+02  0.7816164E-02  0.1300439E+00
        -11   -1    0    0    0    0  0.00000000000E+00  0.00000000000E+00  0.45593999997E+02  0.45594000000E+02  0.51100000000E-03 0.  1.
         11   -1    0    0    0    0 -0.00000000000E+00 -0.00000000000E+00 -0.45593999997E+02  0.45594000000E+02  0.51100000000E-03 0. -1.
    9900012    2    1    2    0    0  0.34205602664E+01 -0.28204994504E+01 -0.40416706362E+02  0.50528860771E+02  0.30000002800E+02 0.  0.
        -12    1    1    2    0    0 -0.34205602664E+01  0.28204994504E+01  0.40416706362E+02  0.40659139229E+02  0.00000000000E+00 0.  1.
         11    1    3    3    0    0 -0.61647322621E+01 -0.57831332490E+01 -0.11802612960E+02  0.14517238959E+02  0.51100000000E-03 0. -1.
        -11    1    3    3    0    0  0.76321194153E+01 -0.61337089038E+01 -0.58166021049E+01  0.11388787995E+02  0.51100000000E-03 0.  1.
         12    1    3    3    0    0  0.19531731132E+01  0.90963427024E+01 -0.22797491297E+02  0.24622833817E+02  0.00000000000E+00 0. -1.
</event>
<event>
 7    1  0.2937071E-011  0.5052886E+02  0.7816164E-02  0.1300439E+00
        -11   -1    0    0    0    0  0.00000000000E+00  0.00000000000E+00  0.45593999997E+02  0.45594000000E+02  0.51100000000E-03 0. -1.
         11   -1    0    0    0    0 -0.00000000000E+00 -0.00000000000E+00 -0.45593999997E+02  0.45594000000E+02  0.51100000000E-03 0.  1.
    9900012    2    1    2    0    0 -0.20959981999E+02  0.13401262577E+02  0.32159768477E+02  0.50528863357E+02  0.30000010660E+02 0.  0.
        -12    1    1    2    0    0  0.20959981999E+02 -0.13401262577E+02 -0.32159768477E+02  0.40659136643E+02  0.00000000000E+00 0.  1.
         11    1    3    3    0    0  0.45658971905E+01  0.39495416769E+01  0.15700602762E+02  0.16821272959E+02  0.51100000000E-03 0.  1.
        -11    1    3    3    0    0 -0.80454589505E+01  0.34169746795E+01  0.11713758198E+02  0.14615651100E+02  0.51100000000E-03 0. -1.
        -12    1    3    3    0    0 -0.17480420239E+02  0.60347462202E+01  0.47454075173E+01  0.19091939299E+02  0.00000000000E+00 0.  1.
</event>
<event>
 7    1  0.2937071E-011  0.5052886E+02  0.7816164E-02  0.1300439E+00
        -11   -1    0    0    0    0  0.00000000000E+00  0.00000000000E+00  0.45593999997E+02  0.45594000000E+02  0.51100000000E-03 0.  1.
         11   -1    0    0    0    0 -0.00000000000E+00 -0.00000000000E+00 -0.45593999997E+02  0.45594000000E+02  0.51100000000E-03 0. -1.
    9900012    2    1    2    0    0 -0.21821781600E+02 -0.31718235449E+02  0.13073991352E+02  0.50528857584E+02  0.29999993111E+02 0.  0.
        -12    1    1    2    0    0  0.21821781600E+02  0.31718235449E+02 -0.13073991352E+02  0.40659142416E+02  0.00000000000E+00 0.  1.
         11    1    3    3    0    0 -0.11327874222E+02 -0.64629618343E+01  0.43706535683E+01  0.13754752740E+02  0.51100000000E-03 0. -1.
        -11    1    3    3    0    0 -0.11499156566E+02 -0.10305784620E+02  0.14038734407E+02  0.20869256393E+02  0.51100000000E-03 0.  1.
        -12    1    3    3    0    0  0.10052491886E+01 -0.14949488994E+02 -0.53353966234E+01  0.15904848451E+02  0.00000000000E+00 0.  1.
</event>
<event>
 7    1  0.2937071E-011  0.5052887E+02  0.7816164E-02  0.1300439E+00
        -11   -1    0    0    0    0  0.00000000000E+00  0.00000000000E+00  0.45593999997E+02  0.45594000000E+02  0.51100000000E-03 0.  1.
         11   -1    0    0    0    0 -0.00000000000E+00 -0.00000000000E+00 -0.45593999997E+02  0.45594000000E+02  0.51100000000E-03 0. -1.
    9900012    2    1    2    0    0  0.26938729247E+02 -0.74743745573E+01 -0.29522927167E+02  0.50528872649E+02  0.30000038903E+02 0.  0.
        -12    1    1    2    0    0 -0.26938729247E+02  0.74743745573E+01  0.29522927167E+02  0.40659127351E+02  0.00000000000E+00 0.  1.
         11    1    3    3    0    0  0.27691137837E+01  0.89060296234E-01  0.44617292972E+01  0.52519473975E+01  0.51100000000E-03 0. -1.
        -11    1    3    3    0    0  0.53642909316E+00 -0.50972688205E+01 -0.21642879816E+01  0.55636362506E+01  0.51100000000E-03 0.  1.
         12    1    3    3    0    0  0.23633186370E+02 -0.24661660331E+01 -0.31820368483E+02  0.39713289001E+02  0.00000000000E+00 0. -1.
</event>
<event>
 7    1  0.2937071E-011  0.5052887E+02  0.7816164E-02  0.1300439E+00
        -11   -1    0    0    0    0  0.00000000000E+00  0.00000000000E+00  0.45593999997E+02  0.45594000000E+02  0.51100000000E-03 0. -1.
         11   -1    0    0    0    0 -0.00000000000E+00 -0.00000000000E+00 -0.45593999997E+02  0.45594000000E+02  0.51100000000E-03 0.  1.
    9900012    2    1    2    0    0  0.24243534330E+02  0.24824862692E+02  0.21192966463E+02  0.50528873202E+02  0.30000040585E+02 0.  0.
        -12    1    1    2    0    0 -0.24243534330E+02 -0.24824862692E+02 -0.21192966463E+02  0.40659126798E+02  0.00000000000E+00 0.  1.
         11    1    3    3    0    0 -0.17503553770E+01 -0.30622292855E+01 -0.25978303927E-01  0.35272747662E+01  0.51100000000E-03 0. -1.
        -11    1    3    3    0    0  0.44719521520E+01 -0.34193917635E+00 -0.16459466983E+01  0.47774908943E+01  0.51100000000E-03 0.  1.
         12    1    3    3    0    0  0.21521937555E+02  0.28229031154E+02  0.22864891465E+02  0.42224107542E+02  0.00000000000E+00 0. -1.
</event>
<event>
 7    1  0.2937071E-011  0.5052880E+02  0.7816164E-02  0.1300439E+00
        -11   -1    0    0    0    0  0.00000000000E+00  0.00000000000E+00  0.45593999997E+02  0.45594000000E+02  0.51100000000E-03 0.  1.
         11   -1    0    0    0    0 -0.00000000000E+00 -0.00000000000E+00 -0.45593999997E+02  0.45594000000E+02  0.51100000000E-03 0. -1.
    9900012    2    1    2    0    0  0.72015115032E+01  0.31399744916E+02 -0.24806552220E+02  0.50528797084E+02  0.29999809215E+02 0.  0.
        -12    1    1    2    0    0 -0.72015115032E+01 -0.31399744916E+02  0.24806552220E+02  0.40659202916E+02  0.00000000000E+00 0.  1.
         11    1    3    3    0    0 -0.36779442407E+00  0.88463896663E+01 -0.16311156576E+02  0.18559302573E+02  0.51100000000E-03 0. -1.
        -11    1    3    3    0    0  0.12735504654E+02  0.15131354863E+02 -0.10940338352E+02  0.22601813695E+02  0.51100000000E-03 0.  1.
        -12    1    3    3    0    0 -0.51661987271E+01  0.74220003872E+01  0.24449427076E+01  0.93676808165E+01  0.00000000000E+00 0.  1.
</event>
<event>
 7    1  0.2937071E-011  0.5052887E+02  0.7816164E-02  0.1300439E+00
        -11   -1    0    0    0    0  0.00000000000E+00  0.00000000000E+00  0.45593999997E+02  0.45594000000E+02  0.51100000000E-03 0. -1.
         11   -1    0    0    0    0 -0.00000000000E+00 -0.00000000000E+00 -0.45593999997E+02  0.45594000000E+02  0.51100000000E-03 0.  1.
    9900012    2    1    2    0    0 -0.74891444375E+01 -0.29680656522E+02  0.26760727469E+02  0.50528865840E+02  0.30000018207E+02 0.  0.
        -12    1    1    2    0    0  0.74891444375E+01  0.29680656522E+02 -0.26760727469E+02  0.40659134160E+02  0.00000000000E+00 0.  1.
         11    1    3    3    0    0 -0.38082815699E+01 -0.10168349977E+02 -0.40224978060E+01  0.11579241712E+02  0.51100000000E-03 0. -1.
        -11    1    3    3    0    0 -0.12053899935E+01  0.28134496600E+00 -0.88557965351E+00  0.15219630778E+01  0.51100000000E-03 0.  1.
         12    1    3    3    0    0 -0.24754728741E+01 -0.19793651511E+02  0.31668804928E+02  0.37427661050E+02  0.00000000000E+00 0. -1.
</event>
<event>
 7    1  0.2937071E-011  0.5052886E+02  0.7816164E-02  0.1300439E+00
        -11   -1    0    0    0    0  0.00000000000E+00  0.00000000000E+00  0.45593999997E+02  0.45594000000E+02  0.51100000000E-03 0. -1.
         11   -1    0    0    0    0 -0.00000000000E+00 -0.00000000000E+00 -0.45593999997E+02  0.45594000000E+02  0.51100000000E-03 0.  1.
    9900012    2    1    2    0    0 -0.27243867351E+02 -0.96032513352E+01  0.28613195765E+02  0.50528859376E+02  0.29999998559E+02 0.  0.
        -12    1    1    2    0    0  0.27243867351E+02  0.96032513352E+01 -0.28613195765E+02  0.40659140624E+02  0.00000000000E+00 0.  1.
         11    1    3    3    0    0 -0.13317375073E+02 -0.71674833081E+01  0.79884389611E+01  0.17103813993E+02  0.51100000000E-03 0. -1.
        -11    1    3    3    0    0 -0.19040999395E+02  0.23426256567E+01  0.13659834767E+02  0.23550767271E+02  0.51100000000E-03 0.  1.
         12    1    3    3    0    0  0.51145071176E+01 -0.47783936837E+01  0.69649220363E+01  0.98742781115E+01  0.00000000000E+00 0. -1.
</event>
<event>
 7    1  0.2937071E-011  0.5052886E+02  0.7816164E-02  0.1300439E+00
        -11   -1    0    0    0    0  0.00000000000E+00  0.00000000000E+00  0.45593999997E+02  0.45594000000E+02  0.51100000000E-03 0.  1.
         11   -1    0    0    0    0 -0.00000000000E+00 -0.00000000000E+00 -0.45593999997E+02  0.45594000000E+02  0.51100000000E-03 0. -1.
    9900012    2    1    2    0    0  0.31481779512E+02 -0.24800604596E+02 -0.68551453100E+01  0.50528862690E+02  0.30000008632E+02 0.  0.
        -12    1    1    2    0    0 -0.31481779512E+02  0.24800604596E+02  0.68551453100E+01  0.40659137310E+02  0.00000000000E+00 0.  1.
         11    1    3    3    0    0  0.20304210611E+02 -0.83159153352E+01  0.28862221910E+01  0.22130198716E+02  0.51100000000E-03 0. -1.
        -11    1    3    3    0    0  0.40877319499E+01  0.17863138201E+01  0.26718096408E+01  0.51999073623E+01  0.51100000000E-03 0.  1.
         12    1    3    3    0    0  0.70898369512E+01 -0.18271003081E+02 -0.12413177142E+02  0.23198756612E+02  0.00000000000E+00 0. -1.
</event>
<event>
 7    1  0.2937071E-011  0.5052888E+02  0.7816164E-02  0.1300439E+00
        -11   -1    0    0    0    0  0.00000000000E+00  0.00000000000E+00  0.45593999997E+02  0.45594000000E+02  0.51100000000E-03 0.  1.
         11   -1    0    0    0    0 -0.00000000000E+00 -0.00000000000E+00 -0.45593999997E+02  0.45594000000E+02  0.51100000000E-03 0. -1.
    9900012    2    1    2    0    0  0.30474083496E+02  0.52727883079E+01 -0.26394920742E+02  0.50528881681E+02  0.30000066358E+02 0.  0.
        -12    1    1    2    0    0 -0.30474083496E+02 -0.52727883079E+01  0.26394920742E+02  0.40659118319E+02  0.00000000000E+00 0.  1.
         11    1    3    3    0    0  0.21233301170E+02 -0.93866892303E+01 -0.12298345549E+02  0.26271892143E+02  0.51100000000E-03 0. -1.
        -11    1    3    3    0    0  0.55066212812E+01  0.11767797401E+01 -0.28754842779E+01  0.63226654652E+01  0.51100000000E-03 0.  1.
        -12    1    3    3    0    0  0.37341610455E+01  0.13482697798E+02 -0.11221090915E+02  0.17934324073E+02  0.00000000000E+00 0.  1.
</event>
<event>
 7    1  0.2937071E-011  0.5052886E+02  0.7816164E-02  0.1300439E+00
        -11   -1    0    0    0    0  0.00000000000E+00  0.00000000000E+00  0.45593999997E+02  0.45594000000E+02  0.51100000000E-03 0.  1.
         11   -1    0    0    0    0 -0.00000000000E+00 -0.00000000000E+00 -0.45593999997E+02  0.45594000000E+02  0.51100000000E-03 0. -1.
    9900012    2    1    2    0    0  0.27201745875E+02  0.19989324698E+02 -0.22664013517E+02  0.50528860938E+02  0.30000003307E+02 0.  0.
        -12    1    1    2    0    0 -0.27201745875E+02 -0.19989324698E+02  0.22664013517E+02  0.40659139062E+02  0.00000000000E+00 0.  1.
         11    1    3    3    0    0  0.39902810600E+01 -0.26939020250E+01 -0.41084813779E+01  0.63292235346E+01  0.51100000000E-03 0. -1.
        -11    1    3    3    0    0 -0.23316511886E+01 -0.29455100950E+01 -0.59569382807E+00  0.38036138583E+01  0.51100000000E-03 0.  1.
         12    1    3    3    0    0  0.25543116004E+02  0.25628736818E+02 -0.17959838311E+02  0.40396023545E+02  0.00000000000E+00 0. -1.
</event>
<event>
 7    1  0.2937071E-011  0.5052885E+02  0.7816164E-02  0.1300439E+00
        -11   -1    0    0    0    0  0.00000000000E+00  0.00000000000E+00  0.45593999997E+02  0.45594000000E+02  0.51100000000E-03 0.  1.
         11   -1    0    0    0    0 -0.00000000000E+00 -0.00000000000E+00 -0.45593999997E+02  0.45594000000E+02  0.51100000000E-03 0. -1.
    9900012    2    1    2    0    0 -0.15537098273E+02 -0.31560838903E+02 -0.20388187492E+02  0.50528853868E+02  0.29999981816E+02 0.  0.
        -12    1    1    2    0    0  0.15537098273E+02  0.31560838903E+02  0.20388187492E+02  0.40659146132E+02  0.00000000000E+00 0.  1.
         11    1    3    3    0    0 -0.91397324860E+01 -0.19282186425E+02 -0.80972582064E+01  0.22823299805E+02  0.51100000000E-03 0. -1.
        -11    1    3    3    0    0 -0.12795970071E+02 -0.51157733271E+01 -0.11708875932E+02  0.18083300657E+02  0.51100000000E-03 0.  1.
        -12    1    3    3    0    0  0.63986042838E+01 -0.71628791506E+01 -0.58205335372E+00  0.96222534062E+01  0.00000000000E+00 0.  1.
</event>
<event>
 7    1  0.2937071E-011  0.5052885E+02  0.7816164E-02  0.1300439E+00
        -11   -1    0    0    0    0  0.00000000000E+00  0.00000000000E+00  0.45593999997E+02  0.45594000000E+02  0.51100000000E-03 0. -1.
         11   -1    0    0    0    0 -0.00000000000E+00 -0.00000000000E+00 -0.45593999997E+02  0.45594000000E+02  0.51100000000E-03 0.  1.
    9900012    2    1    2    0    0  0.14661398108E+01 -0.37047196322E+02  0.16688981370E+02  0.50528850717E+02  0.29999972240E+02 0.  0.
        -12    1    1    2    0    0 -0.14661398108E+01  0.37047196322E+02 -0.16688981370E+02  0.40659149283E+02  0.00000000000E+00 0.  1.
         11    1    3    3    0    0  0.23343509817E+00  0.27648318427E+01  0.15761609341E+00  0.27791419823E+01  0.51100000000E-03 0. -1.
        -11    1    3    3    0    0  0.12342428476E+01  0.20662794942E+01  0.27671937892E+01  0.36674552599E+01  0.51100000000E-03 0.  1.
         12    1    3    3    0    0 -0.15381349929E-02 -0.41878307659E+02  0.13764171487E+02  0.44082253475E+02  0.00000000000E+00 0. -1.
</event>
<event>
 7    1  0.2937071E-011  0.5052886E+02  0.7816164E-02  0.1300439E+00
        -11   -1    0    0    0    0  0.00000000000E+00  0.00000000000E+00  0.45593999997E+02  0.45594000000E+02  0.51100000000E-03 0.  1.
         11   -1    0    0    0    0 -0.00000000000E+00 -0.00000000000E+00 -0.45593999997E+02  0.45594000000E+02  0.51100000000E-03 0. -1.
    9900012    2    1    2    0    0 -0.16195607057E+02 -0.20663703896E+02 -0.31046408911E+02  0.50528857695E+02  0.29999993451E+02 0.  0.
        -12    1    1    2    0    0  0.16195607057E+02  0.20663703896E+02  0.31046408911E+02  0.40659142305E+02  0.00000000000E+00 0.  1.
         11    1    3    3    0    0  0.26599319820E+01 -0.48405082610E+01 -0.55286821805E+01  0.78148631010E+01  0.51100000000E-03 0. -1.
        -11    1    3    3    0    0  0.45941085934E+00 -0.13966106171E+02 -0.15526926430E+02  0.20888959394E+02  0.51100000000E-03 0.  1.
        -12    1    3    3    0    0 -0.19314949899E+02 -0.18570894642E+01 -0.99908003006E+01  0.21825035201E+02  0.00000000000E+00 0.  1.
</event>
<event>
 7    1  0.2937071E-011  0.5052886E+02  0.7816164E-02  0.1300439E+00
        -11   -1    0    0    0    0  0.00000000000E+00  0.00000000000E+00  0.45593999997E+02  0.45594000000E+02  0.51100000000E-03 0.  1.
         11   -1    0    0    0    0 -0.00000000000E+00 -0.00000000000E+00 -0.45593999997E+02  0.45594000000E+02  0.51100000000E-03 0. -1.
    9900012    2    1    2    0    0  0.24602050591E+02  0.17533414011E+02 -0.27211834325E+02  0.50528862928E+02  0.30000009356E+02 0.  0.
        -12    1    1    2    0    0 -0.24602050591E+02 -0.17533414011E+02  0.27211834325E+02  0.40659137072E+02  0.00000000000E+00 0.  1.
         11    1    3    3    0    0  0.34910407073E+01  0.12248821359E+02 -0.15855831456E+01  0.12834915819E+02  0.51100000000E-03 0.  1.
        -11    1    3    3    0    0  0.36243812999E+01  0.89020588000E+01 -0.69978166585E+01  0.11889164350E+02  0.51100000000E-03 0. -1.
        -12    1    3    3    0    0  0.17486628583E+02 -0.36174661488E+01 -0.18628434521E+02  0.25804782759E+02  0.00000000000E+00 0.  1.
</event>
<event>
 7    1  0.2937071E-011  0.5052886E+02  0.7816164E-02  0.1300439E+00
        -11   -1    0    0    0    0  0.00000000000E+00  0.00000000000E+00  0.45593999997E+02  0.45594000000E+02  0.51100000000E-03 0. -1.
         11   -1    0    0    0    0 -0.00000000000E+00 -0.00000000000E+00 -0.45593999997E+02  0.45594000000E+02  0.51100000000E-03 0.  1.
    9900012    2    1    2    0    0 -0.18037851406E+02 -0.27279798820E+02  0.24158108947E+02  0.50528859147E+02  0.29999997862E+02 0.  0.
        -12    1    1    2    0    0  0.18037851406E+02  0.27279798820E+02 -0.24158108947E+02  0.40659140853E+02  0.00000000000E+00 0.  1.
         11    1    3    3    0    0 -0.25253101255E+01 -0.87545632597E+01  0.13416187867E+02  0.16217696083E+02  0.51100000000E-03 0. -1.
        -11    1    3    3    0    0  0.32775659127E+01  0.26892844691E+01  0.16424127372E+01  0.45466701143E+01  0.51100000000E-03 0.  1.
        -12    1    3    3    0    0 -0.18790107194E+02 -0.21214520030E+02  0.90995083427E+01  0.29764492949E+02  0.00000000000E+00 0.  1.
</event>
<event>
 7    1  0.2937071E-011  0.5052885E+02  0.7816164E-02  0.1300439E+00
        -11   -1    0    0    0    0  0.00000000000E+00  0.00000000000E+00  0.45593999997E+02  0.45594000000E+02  0.51100000000E-03 0.  1.
         11   -1    0    0    0    0 -0.00000000000E+00 -0.00000000000E+00 -0.45593999997E+02  0.45594000000E+02  0.51100000000E-03 0. -1.
    9900012    2    1    2    0    0 -0.10361994496E+02  0.26876575026E+02 -0.28695733107E+02  0.50528852031E+02  0.29999976232E+02 0.  0.
        -12    1    1    2    0    0  0.10361994496E+02 -0.26876575026E+02  0.28695733107E+02  0.40659147969E+02  0.00000000000E+00 0.  1.
         11    1    3    3    0    0  0.78944846426E+01  0.10946109948E+02 -0.14130433850E+02  0.19539942984E+02  0.51100000000E-03 0. -1.
        -11    1    3    3    0    0 -0.90331872951E+01  0.34610841937E+01 -0.11759966586E+02  0.15227422332E+02  0.51100000000E-03 0.  1.
        -12    1    3    3    0    0 -0.92232918434E+01  0.12469380884E+02 -0.28053326704E+01  0.15761486714E+02  0.00000000000E+00 0.  1.
</event>
<event>
 7    1  0.2937071E-011  0.5052886E+02  0.7816164E-02  0.1300439E+00
        -11   -1    0    0    0    0  0.00000000000E+00  0.00000000000E+00  0.45593999997E+02  0.45594000000E+02  0.51100000000E-03 0. -1.
         11   -1    0    0    0    0 -0.00000000000E+00 -0.00000000000E+00 -0.45593999997E+02  0.45594000000E+02  0.51100000000E-03 0.  1.
    9900012    2    1    2    0    0 -0.13513725846E+02  0.35918598365E+02  0.13431271444E+02  0.50528861453E+02  0.30000004873E+02 0.  0.
        -12    1    1    2    0    0  0.13513725846E+02 -0.35918598365E+02 -0.13431271444E+02  0.40659138547E+02  0.00000000000E+00 0.  1.
         11    1    3    3    0    0 -0.11928544991E+02  0.24125790810E+02  0.91850947732E+01  0.28437825762E+02  0.51100000000E-03 0. -1.
        -11    1    3    3    0    0  0.13400954470E+01 -0.80784528001E+00  0.83691098791E+01  0.85141335574E+01  0.51100000000E-03 0.  1.
         12    1    3    3    0    0 -0.29252763029E+01  0.12600652835E+02 -0.41229332084E+01  0.13576902134E+02  0.00000000000E+00 0. -1.
</event>
<event>
 7    1  0.2937071E-011  0.5052886E+02  0.7816164E-02  0.1300439E+00
        -11   -1    0    0    0    0  0.00000000000E+00  0.00000000000E+00  0.45593999997E+02  0.45594000000E+02  0.51100000000E-03 0. -1.
         11   -1    0    0    0    0 -0.00000000000E+00 -0.00000000000E+00 -0.45593999997E+02  0.45594000000E+02  0.51100000000E-03 0.  1.
    9900012    2    1    2    0    0  0.19110585084E+01 -0.37787454528E+02  0.14886977739E+02  0.50528856249E+02  0.29999989055E+02 0.  0.
        -12    1    1    2    0    0 -0.19110585084E+01  0.37787454528E+02 -0.14886977739E+02  0.40659143751E+02  0.00000000000E+00 0.  1.
         11    1    3    3    0    0 -0.41386481250E+01  0.12919595305E+00 -0.21491457110E+01  0.46651824664E+01  0.51100000000E-03 0.  1.
        -11    1    3    3    0    0  0.54695524208E+01 -0.48223471756E+01 -0.21543820897E+01  0.76034464827E+01  0.51100000000E-03 0. -1.
         12    1    3    3    0    0  0.58015421256E+00 -0.33094303306E+02  0.19190505539E+02  0.38260227300E+02  0.00000000000E+00 0. -1.
</event>
<event>
 7    1  0.2937071E-011  0.5052889E+02  0.7816164E-02  0.1300439E+00
        -11   -1    0    0    0    0  0.00000000000E+00  0.00000000000E+00  0.45593999997E+02  0.45594000000E+02  0.51100000000E-03 0.  1.
         11   -1    0    0    0    0 -0.00000000000E+00 -0.00000000000E+00 -0.45593999997E+02  0.45594000000E+02  0.51100000000E-03 0. -1.
    9900012    2    1    2    0    0  0.16513036133E+02  0.30183494263E+02 -0.21666560350E+02  0.50528886315E+02  0.30000080443E+02 0.  0.
        -12    1    1    2    0    0 -0.16513036133E+02 -0.30183494263E+02  0.21666560350E+02  0.40659113685E+02  0.00000000000E+00 0.  1.
         11    1    3    3    0    0  0.10914720878E+02  0.19120931833E+02  0.26496228883E+01  0.22175699938E+02  0.51100000000E-03 0. -1.
        -11    1    3    3    0    0  0.37359955218E+01  0.25761440841E+01 -0.32976411881E+01  0.56096897015E+01  0.51100000000E-03 0.  1.
         12    1    3    3    0    0  0.18623197331E+01  0.84864183457E+01 -0.21018542050E+02  0.22743496676E+02  0.00000000000E+00 0. -1.
</event>
<event>
 7    1  0.2937071E-011  0.5052893E+02  0.7816164E-02  0.1300439E+00
        -11   -1    0    0    0    0  0.00000000000E+00  0.00000000000E+00  0.45593999997E+02  0.45594000000E+02  0.51100000000E-03 0.  1.
         11   -1    0    0    0    0 -0.00000000000E+00 -0.00000000000E+00 -0.45593999997E+02  0.45594000000E+02  0.51100000000E-03 0. -1.
    9900012    2    1    2    0    0  0.28169067179E+02  0.13858674182E+02 -0.25837975451E+02  0.50528927566E+02  0.30000205828E+02 0.  0.
        -12    1    1    2    0    0 -0.28169067179E+02 -0.13858674182E+02  0.25837975451E+02  0.40659072434E+02  0.00000000000E+00 0.  1.
         11    1    3    3    0    0  0.18017586130E+02  0.15003096418E+02 -0.16162868031E+02  0.28477440463E+02  0.51100000000E-03 0. -1.
        -11    1    3    3    0    0  0.91417169355E+01 -0.23543590452E+00  0.27523641552E+01  0.95499700155E+01  0.51100000000E-03 0.  1.
        -12    1    3    3    0    0  0.10097641130E+01 -0.90898633187E+00 -0.12427471575E+02  0.12501517087E+02  0.00000000000E+00 0.  1.
</event>
<event>
 7    1  0.2937071E-011  0.5052886E+02  0.7816164E-02  0.1300439E+00
        -11   -1    0    0    0    0  0.00000000000E+00  0.00000000000E+00  0.45593999997E+02  0.45594000000E+02  0.51100000000E-03 0.  1.
         11   -1    0    0    0    0 -0.00000000000E+00 -0.00000000000E+00 -0.45593999997E+02  0.45594000000E+02  0.51100000000E-03 0. -1.
    9900012    2    1    2    0    0 -0.18557849899E+02  0.45419905071E+01 -0.35890698591E+02  0.50528859380E+02  0.29999998571E+02 0.  0.
        -12    1    1    2    0    0  0.18557849899E+02 -0.45419905071E+01  0.35890698591E+02  0.40659140620E+02  0.00000000000E+00 0.  1.
         11    1    3    3    0    0 -0.15050257542E+02  0.87988879405E+01 -0.20173565191E+02  0.26662772058E+02  0.51100000000E-03 0. -1.
        -11    1    3    3    0    0  0.18403424775E+01  0.45555349438E+01  0.18325074745E+00  0.49166391119E+01  0.51100000000E-03 0.  1.
        -12    1    3    3    0    0 -0.53479348340E+01 -0.88124323772E+01 -0.15900384148E+02  0.18949448210E+02  0.00000000000E+00 0.  1.
</event>
<event>
 7    1  0.2937071E-011  0.5052884E+02  0.7816164E-02  0.1300439E+00
        -11   -1    0    0    0    0  0.00000000000E+00  0.00000000000E+00  0.45593999997E+02  0.45594000000E+02  0.51100000000E-03 0.  1.
         11   -1    0    0    0    0 -0.00000000000E+00 -0.00000000000E+00 -0.45593999997E+02  0.45594000000E+02  0.51100000000E-03 0. -1.
    9900012    2    1    2    0    0  0.62563937671E+01  0.20205896736E+02 -0.34723856172E+02  0.50528844656E+02  0.29999953815E+02 0.  0.
        -12    1    1    2    0    0 -0.62563937671E+01 -0.20205896736E+02  0.34723856172E+02  0.40659155344E+02  0.00000000000E+00 0.  1.
         11    1    3    3    0    0 -0.13518595953E+01  0.96490456041E+00 -0.17666099165E+02  0.17744002512E+02  0.51100000000E-03 0. -1.
        -11    1    3    3    0    0  0.13961680929E+02  0.12900202952E+02 -0.11124335161E+02  0.22024863305E+02  0.51100000000E-03 0.  1.
         12    1    3    3    0    0 -0.63534275661E+01  0.63407892230E+01 -0.59334218460E+01  0.10759978839E+02  0.00000000000E+00 0. -1.
</event>
<event>
 7    1  0.2937071E-011  0.5052885E+02  0.7816164E-02  0.1300439E+00
        -11   -1    0    0    0    0  0.00000000000E+00  0.00000000000E+00  0.45593999997E+02  0.45594000000E+02  0.51100000000E-03 0.  1.
         11   -1    0    0    0    0 -0.00000000000E+00 -0.00000000000E+00 -0.45593999997E+02  0.45594000000E+02  0.51100000000E-03 0. -1.
    9900012    2    1    2    0    0 -0.35897078092E+02 -0.19026291768E+02 -0.16020033935E+01  0.50528850859E+02  0.29999972672E+02 0.  0.
        -12    1    1    2    0    0  0.35897078092E+02  0.19026291768E+02  0.16020033935E+01  0.40659149141E+02  0.00000000000E+00 0.  1.
         11    1    3    3    0    0 -0.42775892836E+01 -0.25947216060E+01  0.65071626281E+01  0.82081371834E+01  0.51100000000E-03 0.  1.
        -11    1    3    3    0    0 -0.29440390013E+02 -0.11222597220E+02  0.10913187159E+01  0.31525770875E+02  0.51100000000E-03 0. -1.
        -12    1    3    3    0    0 -0.21790987957E+01 -0.52089729419E+01 -0.92004847375E+01  0.10794942801E+02  0.00000000000E+00 0.  1.
</event>
<event>
 7    1  0.2937071E-011  0.5052887E+02  0.7816164E-02  0.1300439E+00
        -11   -1    0    0    0    0  0.00000000000E+00  0.00000000000E+00  0.45593999997E+02  0.45594000000E+02  0.51100000000E-03 0.  1.
         11   -1    0    0    0    0 -0.00000000000E+00 -0.00000000000E+00 -0.45593999997E+02  0.45594000000E+02  0.51100000000E-03 0. -1.
    9900012    2    1    2    0    0  0.24721400310E+02 -0.85661043939E+01 -0.31122973393E+02  0.50528865103E+02  0.30000015967E+02 0.  0.
        -12    1    1    2    0    0 -0.24721400310E+02  0.85661043939E+01  0.31122973393E+02  0.40659134897E+02  0.00000000000E+00 0.  1.
         11    1    3    3    0    0  0.70698448618E+01 -0.48027647778E+01 -0.13062472885E+02  0.15610171492E+02  0.51100000000E-03 0. -1.
        -11    1    3    3    0    0  0.15191011479E+02  0.15361500683E+01 -0.22769197546E+02  0.27414648346E+02  0.51100000000E-03 0.  1.
        -12    1    3    3    0    0  0.24605439696E+01 -0.52994896843E+01  0.47086970384E+01  0.75040452651E+01  0.00000000000E+00 0.  1.
</event>
<event>
 7    1  0.2937071E-011  0.5052885E+02  0.7816164E-02  0.1300439E+00
        -11   -1    0    0    0    0  0.00000000000E+00  0.00000000000E+00  0.45593999997E+02  0.45594000000E+02  0.51100000000E-03 0.  1.
         11   -1    0    0    0    0 -0.00000000000E+00 -0.00000000000E+00 -0.45593999997E+02  0.45594000000E+02  0.51100000000E-03 0. -1.
    9900012    2    1    2    0    0 -0.29875737648E+02  0.16383798595E+02 -0.22185091411E+02  0.50528845590E+02  0.29999956655E+02 0.  0.
        -12    1    1    2    0    0  0.29875737648E+02 -0.16383798595E+02  0.22185091411E+02  0.40659154410E+02  0.00000000000E+00 0.  1.
         11    1    3    3    0    0 -0.69643608806E+01  0.43962353502E+00 -0.39580459525E+01  0.80225756059E+01  0.51100000000E-03 0. -1.
        -11    1    3    3    0    0 -0.68219646911E+01 -0.40540294334E+01  0.36930932445E+01  0.87529020826E+01  0.51100000000E-03 0.  1.
         12    1    3    3    0    0 -0.16089412076E+02  0.19998204493E+02 -0.21920138703E+02  0.33753367901E+02  0.00000000000E+00 0. -1.
</event>
<event>
 7    1  0.2937071E-011  0.5052887E+02  0.7816164E-02  0.1300439E+00
        -11   -1    0    0    0    0  0.00000000000E+00  0.00000000000E+00  0.45593999997E+02  0.45594000000E+02  0.51100000000E-03 0.  1.
         11   -1    0    0    0    0 -0.00000000000E+00 -0.00000000000E+00 -0.45593999997E+02  0.45594000000E+02  0.51100000000E-03 0. -1.
    9900012    2    1    2    0    0 -0.33442284874E+02 -0.20248693360E+02 -0.11169993027E+02  0.50528871325E+02  0.30000034880E+02 0.  0.
        -12    1    1    2    0    0  0.33442284874E+02  0.20248693360E+02  0.11169993027E+02  0.40659128675E+02  0.00000000000E+00 0.  1.
         11    1    3    3    0    0 -0.15131023892E+02 -0.67680513900E+01 -0.64254685689E+01  0.17777543425E+02  0.51100000000E-03 0. -1.
        -11    1    3    3    0    0  0.23208107639E+01 -0.55410320173E+00 -0.78522448591E+01  0.82067620015E+01  0.51100000000E-03 0.  1.
         12    1    3    3    0    0 -0.20632071746E+02 -0.12926538768E+02  0.31077204010E+01  0.24544565898E+02  0.00000000000E+00 0. -1.
</event>
<event>
 7    1  0.2937071E-011  0.5052886E+02  0.7816164E-02  0.1300439E+00
        -11   -1    0    0    0    0  0.00000000000E+00  0.00000000000E+00  0.45593999997E+02  0.45594000000E+02  0.51100000000E-03 0. -1.
         11   -1    0    0    0    0 -0.00000000000E+00 -0.00000000000E+00 -0.45593999997E+02  0.45594000000E+02  0.51100000000E-03 0.  1.
    9900012    2    1    2    0    0  0.28853406027E+02  0.19718409237E+02  0.20780538167E+02  0.50528862420E+02  0.30000007813E+02 0.  0.
        -12    1    1    2    0    0 -0.28853406027E+02 -0.19718409237E+02 -0.20780538167E+02  0.40659137580E+02  0.00000000000E+00 0.  1.
         11    1    3    3    0    0  0.30771949783E+02  0.10080713864E+02  0.15889731086E+02  0.36069616573E+02  0.51100000000E-03 0.  1.
        -11    1    3    3    0    0  0.24698811489E+01  0.85209256939E+01  0.20235311467E+01  0.90995146098E+01  0.51100000000E-03 0. -1.
        -12    1    3    3    0    0 -0.43884249045E+01  0.11167696786E+01  0.28672759346E+01  0.53597312379E+01  0.00000000000E+00 0.  1.
</event>
<event>
 7    1  0.2937071E-011  0.5052885E+02  0.7816164E-02  0.1300439E+00
        -11   -1    0    0    0    0  0.00000000000E+00  0.00000000000E+00  0.45593999997E+02  0.45594000000E+02  0.51100000000E-03 0. -1.
         11   -1    0    0    0    0 -0.00000000000E+00 -0.00000000000E+00 -0.45593999997E+02  0.45594000000E+02  0.51100000000E-03 0.  1.
    9900012    2    1    2    0    0 -0.21881562199E+02  0.34002237721E+02  0.42674859803E+01  0.50528851326E+02  0.29999974091E+02 0.  0.
        -12    1    1    2    0    0  0.21881562199E+02 -0.34002237721E+02 -0.42674859803E+01  0.40659148674E+02  0.00000000000E+00 0.  1.
         11    1    3    3    0    0 -0.13528564752E+01  0.51150489097E+00  0.37041460807E+01  0.39765005148E+01  0.51100000000E-03 0. -1.
        -11    1    3    3    0    0 -0.53987520726E+01  0.16011867253E+02  0.12034592238E+02  0.20745067546E+02  0.51100000000E-03 0.  1.
        -12    1    3    3    0    0 -0.15129953651E+02  0.17478865577E+02 -0.11471252339E+02  0.25807283266E+02  0.00000000000E+00 0.  1.
</event>
<event>
 7    1  0.2937071E-011  0.5052886E+02  0.7816164E-02  0.1300439E+00
        -11   -1    0    0    0    0  0.00000000000E+00  0.00000000000E+00  0.45593999997E+02  0.45594000000E+02  0.51100000000E-03 0. -1.
         11   -1    0    0    0    0 -0.00000000000E+00 -0.00000000000E+00 -0.45593999997E+02  0.45594000000E+02  0.51100000000E-03 0.  1.
    9900012    2    1    2    0    0 -0.22841247108E+01 -0.10281427305E+02  0.39271375872E+02  0.50528856674E+02  0.29999990345E+02 0.  0.
        -12    1    1    2    0    0  0.22841247108E+01  0.10281427305E+02 -0.39271375872E+02  0.40659143326E+02  0.00000000000E+00 0.  1.
         11    1    3    3    0    0 -0.44875407040E+01 -0.78977719139E+01  0.38005441744E+01  0.98466724866E+01  0.51100000000E-03 0. -1.
        -11    1    3    3    0    0  0.97240496026E+00 -0.10729879917E+02  0.14393433841E+02  0.17979066507E+02  0.51100000000E-03 0.  1.
        -12    1    3    3    0    0  0.12310110330E+01  0.83462245261E+01  0.21077397857E+02  0.22703117681E+02  0.00000000000E+00 0.  1.
</event>
<event>
 7    1  0.2937071E-011  0.5052888E+02  0.7816164E-02  0.1300439E+00
        -11   -1    0    0    0    0  0.00000000000E+00  0.00000000000E+00  0.45593999997E+02  0.45594000000E+02  0.51100000000E-03 0.  1.
         11   -1    0    0    0    0 -0.00000000000E+00 -0.00000000000E+00 -0.45593999997E+02  0.45594000000E+02  0.51100000000E-03 0. -1.
    9900012    2    1    2    0    0  0.27142415551E+02  0.30060583625E+02 -0.35797998984E+01  0.50528875844E+02  0.30000048615E+02 0.  0.
        -12    1    1    2    0    0 -0.27142415551E+02 -0.30060583625E+02  0.35797998984E+01  0.40659124156E+02  0.00000000000E+00 0.  1.
         11    1    3    3    0    0 -0.34003397996E+01  0.11825246962E+01 -0.25780260415E+01  0.44279672472E+01  0.51100000000E-03 0. -1.
        -11    1    3    3    0    0 -0.10368925876E+01 -0.15456565003E+01  0.11667521345E+01  0.21967045909E+01  0.51100000000E-03 0.  1.
         12    1    3    3    0    0  0.31579647938E+02  0.30423715429E+02 -0.21685259913E+01  0.43904204006E+02  0.00000000000E+00 0. -1.
</event>
<event>
 7    1  0.2937071E-011  0.5052886E+02  0.7816164E-02  0.1300439E+00
        -11   -1    0    0    0    0  0.00000000000E+00  0.00000000000E+00  0.45593999997E+02  0.45594000000E+02  0.51100000000E-03 0.  1.
         11   -1    0    0    0    0 -0.00000000000E+00 -0.00000000000E+00 -0.45593999997E+02  0.45594000000E+02  0.51100000000E-03 0. -1.
    9900012    2    1    2    0    0  0.28274248955E+02 -0.28786387709E+02 -0.50076208654E+01  0.50528861568E+02  0.30000005222E+02 0.  0.
        -12    1    1    2    0    0 -0.28274248955E+02  0.28786387709E+02  0.50076208654E+01  0.40659138432E+02  0.00000000000E+00 0.  1.
         11    1    3    3    0    0  0.37897836243E+01  0.13071113015E+01 -0.10259302871E+01  0.41380590968E+01  0.51100000000E-03 0. -1.
        -11    1    3    3    0    0  0.18984546820E+02 -0.38504339891E+01 -0.77556430665E+00  0.19386602594E+02  0.51100000000E-03 0.  1.
        -12    1    3    3    0    0  0.54999185102E+01 -0.26243065022E+02 -0.32061262716E+01  0.27004199877E+02  0.00000000000E+00 0.  1.
</event>
<event>
 7    1  0.2937071E-011  0.5052885E+02  0.7816164E-02  0.1300439E+00
        -11   -1    0    0    0    0  0.00000000000E+00  0.00000000000E+00  0.45593999997E+02  0.45594000000E+02  0.51100000000E-03 0.  1.
         11   -1    0    0    0    0 -0.00000000000E+00 -0.00000000000E+00 -0.45593999997E+02  0.45594000000E+02  0.51100000000E-03 0. -1.
    9900012    2    1    2    0    0  0.21329647413E+02 -0.34336306125E+02 -0.43852498418E+01  0.50528853511E+02  0.29999980732E+02 0.  0.
        -12    1    1    2    0    0 -0.21329647413E+02  0.34336306125E+02  0.43852498418E+01  0.40659146489E+02  0.00000000000E+00 0.  1.
         11    1    3    3    0    0 -0.24925100879E+01 -0.99397748822E+01  0.56347157499E+01  0.11694518079E+02  0.51100000000E-03 0.  1.
        -11    1    3    3    0    0  0.49398494164E+01 -0.12280022449E+02  0.19922937766E+01  0.13385450996E+02  0.51100000000E-03 0. -1.
         12    1    3    3    0    0  0.18882308084E+02 -0.12116508793E+02 -0.12012259368E+02  0.25448884436E+02  0.00000000000E+00 0. -1.
</event>
<event>
 7    1  0.2937071E-011  0.5052886E+02  0.7816164E-02  0.1300439E+00
        -11   -1    0    0    0    0  0.00000000000E+00  0.00000000000E+00  0.45593999997E+02  0.45594000000E+02  0.51100000000E-03 0. -1.
         11   -1    0    0    0    0 -0.00000000000E+00 -0.00000000000E+00 -0.45593999997E+02  0.45594000000E+02  0.51100000000E-03 0.  1.
    9900012    2    1    2    0    0  0.28283995915E+02 -0.59731354117E+01  0.28592012927E+02  0.50528856197E+02  0.29999988896E+02 0.  0.
        -12    1    1    2    0    0 -0.28283995915E+02  0.59731354117E+01 -0.28592012927E+02  0.40659143803E+02  0.00000000000E+00 0.  1.
         11    1    3    3    0    0  0.13976941846E+02  0.64570487856E+01  0.11480825289E+02  0.19205669267E+02  0.51100000000E-03 0. -1.
        -11    1    3    3    0    0  0.12876979825E+02  0.47923620708E+00  0.11115753270E+02  0.17017821476E+02  0.51100000000E-03 0.  1.
        -12    1    3    3    0    0  0.14300742436E+01 -0.12909420404E+02  0.59954343678E+01  0.14305365454E+02  0.00000000000E+00 0.  1.
</event>
<event>
 7    1  0.2937071E-011  0.5052886E+02  0.7816164E-02  0.1300439E+00
        -11   -1    0    0    0    0  0.00000000000E+00  0.00000000000E+00  0.45593999997E+02  0.45594000000E+02  0.51100000000E-03 0.  1.
         11   -1    0    0    0    0 -0.00000000000E+00 -0.00000000000E+00 -0.45593999997E+02  0.45594000000E+02  0.51100000000E-03 0. -1.
    9900012    2    1    2    0    0 -0.72624199778E+01 -0.27595878054E+02 -0.28963608206E+02  0.50528857980E+02  0.29999994316E+02 0.  0.
        -12    1    1    2    0    0  0.72624199778E+01  0.27595878054E+02  0.28963608206E+02  0.40659142020E+02  0.00000000000E+00 0.  1.
         11    1    3    3    0    0  0.32347109448E+01 -0.54489047271E+01 -0.82507789621E+00  0.63902012032E+01  0.51100000000E-03 0. -1.
        -11    1    3    3    0    0  0.33084304858E+01  0.35291408155E+01 -0.35293643077E+01  0.59880681236E+01  0.51100000000E-03 0.  1.
         12    1    3    3    0    0 -0.13805561408E+02 -0.25676114143E+02 -0.24609166002E+02  0.38150588653E+02  0.00000000000E+00 0. -1.
</event>
<event>
 7    1  0.2937071E-011  0.5052886E+02  0.7816164E-02  0.1300439E+00
        -11   -1    0    0    0    0  0.00000000000E+00  0.00000000000E+00  0.45593999997E+02  0.45594000000E+02  0.51100000000E-03 0. -1.
         11   -1    0    0    0    0 -0.00000000000E+00 -0.00000000000E+00 -0.45593999997E+02  0.45594000000E+02  0.51100000000E-03 0.  1.
    9900012    2    1    2    0    0 -0.23352556014E+02 -0.79119039730E+01 -0.32329947894E+02  0.50528860465E+02  0.30000001870E+02 0.  0.
        -12    1    1    2    0    0  0.23352556014E+02  0.79119039730E+01  0.32329947894E+02  0.40659139535E+02  0.00000000000E+00 0.  1.
         11    1    3    3    0    0 -0.42479678700E+00  0.10562283364E+00  0.52428856612E+00  0.68299872248E+00  0.51100000000E-03 0. -1.
        -11    1    3    3    0    0 -0.69003499161E+01 -0.15720019409E+00 -0.31159137244E+02  0.31914438346E+02  0.51100000000E-03 0.  1.
        -12    1    3    3    0    0 -0.16027409311E+02 -0.78603266126E+01 -0.16950992162E+01  0.17931423397E+02  0.00000000000E+00 0.  1.
</event>
<event>
 7    1  0.2937071E-011  0.5052886E+02  0.7816164E-02  0.1300439E+00
        -11   -1    0    0    0    0  0.00000000000E+00  0.00000000000E+00  0.45593999997E+02  0.45594000000E+02  0.51100000000E-03 0.  1.
         11   -1    0    0    0    0 -0.00000000000E+00 -0.00000000000E+00 -0.45593999997E+02  0.45594000000E+02  0.51100000000E-03 0. -1.
    9900012    2    1    2    0    0 -0.22254778866E+01  0.30332668215E+02 -0.26984113920E+02  0.50528856909E+02  0.29999991062E+02 0.  0.
        -12    1    1    2    0    0  0.22254778866E+01 -0.30332668215E+02  0.26984113920E+02  0.40659143091E+02  0.00000000000E+00 0.  1.
         11    1    3    3    0    0 -0.69801485903E+01  0.22803188349E+02 -0.20509002153E+02  0.31453569635E+02  0.51100000000E-03 0.  1.
        -11    1    3    3    0    0  0.25074758138E+01  0.10970492251E+02  0.17840341265E+00  0.11254819555E+02  0.51100000000E-03 0. -1.
        -12    1    3    3    0    0  0.22471948899E+01 -0.34410123848E+01 -0.66535151791E+01  0.78204677190E+01  0.00000000000E+00 0.  1.
</event>
<event>
 7    1  0.2937071E-011  0.5052886E+02  0.7816164E-02  0.1300439E+00
        -11   -1    0    0    0    0  0.00000000000E+00  0.00000000000E+00  0.45593999997E+02  0.45594000000E+02  0.51100000000E-03 0.  1.
         11   -1    0    0    0    0 -0.00000000000E+00 -0.00000000000E+00 -0.45593999997E+02  0.45594000000E+02  0.51100000000E-03 0. -1.
    9900012    2    1    2    0    0 -0.20862681908E+01 -0.38953826679E+02 -0.11463515785E+02  0.50528864224E+02  0.30000013296E+02 0.  0.
        -12    1    1    2    0    0  0.20862681908E+01  0.38953826679E+02  0.11463515785E+02  0.40659135776E+02  0.00000000000E+00 0.  1.
         11    1    3    3    0    0  0.60030840999E+01 -0.34669288163E+02 -0.26059669540E+01  0.35281547932E+02  0.51100000000E-03 0. -1.
        -11    1    3    3    0    0 -0.29343660705E+01  0.17203828582E+01 -0.43714376737E-01  0.34017837412E+01  0.51100000000E-03 0.  1.
        -12    1    3    3    0    0 -0.51549862202E+01 -0.60049213739E+01 -0.88138344541E+01  0.11845532551E+02  0.00000000000E+00 0.  1.
</event>
<event>
 7    1  0.2937071E-011  0.5052886E+02  0.7816164E-02  0.1300439E+00
        -11   -1    0    0    0    0  0.00000000000E+00  0.00000000000E+00  0.45593999997E+02  0.45594000000E+02  0.51100000000E-03 0. -1.
         11   -1    0    0    0    0 -0.00000000000E+00 -0.00000000000E+00 -0.45593999997E+02  0.45594000000E+02  0.51100000000E-03 0.  1.
    9900012    2    1    2    0    0  0.39057397226E+02  0.78485282775E+01 -0.81293314885E+01  0.50528859519E+02  0.29999998995E+02 0.  0.
        -12    1    1    2    0    0 -0.39057397226E+02 -0.78485282775E+01  0.81293314885E+01  0.40659140481E+02  0.00000000000E+00 0.  1.
         11    1    3    3    0    0  0.62077824972E+01 -0.41543871640E+01  0.20697254058E+01  0.77510811993E+01  0.51100000000E-03 0. -1.
        -11    1    3    3    0    0  0.50202288239E+01  0.78785224367E+01  0.52144399384E+01  0.10698794201E+02  0.51100000000E-03 0.  1.
         12    1    3    3    0    0  0.27829385905E+02  0.41243930048E+01 -0.15413496833E+02  0.32078984119E+02  0.00000000000E+00 0. -1.
</event>
<event>
 7    1  0.2937071E-011  0.5052885E+02  0.7816164E-02  0.1300439E+00
        -11   -1    0    0    0    0  0.00000000000E+00  0.00000000000E+00  0.45593999997E+02  0.45594000000E+02  0.51100000000E-03 0. -1.
         11   -1    0    0    0    0 -0.00000000000E+00 -0.00000000000E+00 -0.45593999997E+02  0.45594000000E+02  0.51100000000E-03 0.  1.
    9900012    2    1    2    0    0  0.83150398988E+01  0.31514147758E+02  0.24308119855E+02  0.50528854801E+02  0.29999984653E+02 0.  0.
        -12    1    1    2    0    0 -0.83150398988E+01 -0.31514147758E+02 -0.24308119855E+02  0.40659145199E+02  0.00000000000E+00 0.  1.
         11    1    3    3    0    0 -0.10191849862E+01  0.11684968843E+02  0.11721290717E+02  0.16582095502E+02  0.51100000000E-03 0. -1.
        -11    1    3    3    0    0 -0.55442699262E+01  0.14730404807E+02  0.52499756907E+01  0.16591744930E+02  0.51100000000E-03 0.  1.
         12    1    3    3    0    0  0.14878494811E+02  0.50987741087E+01  0.73368534465E+01  0.17355014369E+02  0.00000000000E+00 0. -1.
</event>
<event>
 7    1  0.2937071E-011  0.5052880E+02  0.7816164E-02  0.1300439E+00
        -11   -1    0    0    0    0  0.00000000000E+00  0.00000000000E+00  0.45593999997E+02  0.45594000000E+02  0.51100000000E-03 0. -1.
         11   -1    0    0    0    0 -0.00000000000E+00 -0.00000000000E+00 -0.45593999997E+02  0.45594000000E+02  0.51100000000E-03 0.  1.
    9900012    2    1    2    0    0  0.13036484051E+02  0.24428150779E+02  0.29773919508E+02  0.50528797477E+02  0.29999810411E+02 0.  0.
        -12    1    1    2    0    0 -0.13036484051E+02 -0.24428150779E+02 -0.29773919508E+02  0.40659202523E+02  0.00000000000E+00 0.  1.
         11    1    3    3    0    0  0.10721418687E+02  0.53131897629E+01  0.14570443463E+02  0.18854087809E+02  0.51100000000E-03 0. -1.
        -11    1    3    3    0    0  0.10307504507E+02  0.49664341684E+01  0.75858186521E+01  0.13727882663E+02  0.51100000000E-03 0.  1.
         12    1    3    3    0    0 -0.79924391433E+01  0.14148526848E+02  0.76176573930E+01  0.17946827006E+02  0.00000000000E+00 0. -1.
</event>
<event>
 7    1  0.2937071E-011  0.5052886E+02  0.7816164E-02  0.1300439E+00
        -11   -1    0    0    0    0  0.00000000000E+00  0.00000000000E+00  0.45593999997E+02  0.45594000000E+02  0.51100000000E-03 0. -1.
         11   -1    0    0    0    0 -0.00000000000E+00 -0.00000000000E+00 -0.45593999997E+02  0.45594000000E+02  0.51100000000E-03 0.  1.
    9900012    2    1    2    0    0  0.18918228821E+02 -0.11310208937E+02  0.34166435281E+02  0.50528861941E+02  0.30000006356E+02 0.  0.
        -12    1    1    2    0    0 -0.18918228821E+02  0.11310208937E+02 -0.34166435281E+02  0.40659138059E+02  0.00000000000E+00 0.  1.
         11    1    3    3    0    0  0.38653714783E+01  0.50223466910E+01  0.20265963982E+02  0.21233802282E+02  0.51100000000E-03 0. -1.
        -11    1    3    3    0    0  0.16997795534E+01  0.22305792425E+01  0.69589761431E+00  0.28894650089E+01  0.51100000000E-03 0.  1.
         12    1    3    3    0    0  0.13353077789E+02 -0.18563134871E+02  0.13204573684E+02  0.26405594650E+02  0.00000000000E+00 0. -1.
</event>
<event>
 7    1  0.2937071E-011  0.5052885E+02  0.7816164E-02  0.1300439E+00
        -11   -1    0    0    0    0  0.00000000000E+00  0.00000000000E+00  0.45593999997E+02  0.45594000000E+02  0.51100000000E-03 0.  1.
         11   -1    0    0    0    0 -0.00000000000E+00 -0.00000000000E+00 -0.45593999997E+02  0.45594000000E+02  0.51100000000E-03 0. -1.
    9900012    2    1    2    0    0  0.20112732049E+02  0.26577448881E+02 -0.23286981435E+02  0.50528852397E+02  0.29999977345E+02 0.  0.
        -12    1    1    2    0    0 -0.20112732049E+02 -0.26577448881E+02  0.23286981435E+02  0.40659147603E+02  0.00000000000E+00 0.  1.
         11    1    3    3    0    0  0.86908965010E+01  0.15769975560E+01 -0.33731965854E+00  0.88392526887E+01  0.51100000000E-03 0. -1.
        -11    1    3    3    0    0  0.98475370479E+00 -0.89015005214E+00 -0.11404037181E+02  0.11481035287E+02  0.51100000000E-03 0.  1.
         12    1    3    3    0    0  0.10437081843E+02  0.25890601377E+02 -0.11545624596E+02  0.30208564421E+02  0.00000000000E+00 0. -1.
</event>
<event>
 7    1  0.2937071E-011  0.5052886E+02  0.7816164E-02  0.1300439E+00
        -11   -1    0    0    0    0  0.00000000000E+00  0.00000000000E+00  0.45593999997E+02  0.45594000000E+02  0.51100000000E-03 0.  1.
         11   -1    0    0    0    0 -0.00000000000E+00 -0.00000000000E+00 -0.45593999997E+02  0.45594000000E+02  0.51100000000E-03 0. -1.
    9900012    2    1    2    0    0 -0.27554876246E+02 -0.42190657910E+01 -0.29598880553E+02  0.50528862637E+02  0.30000008472E+02 0.  0.
        -12    1    1    2    0    0  0.27554876246E+02  0.42190657910E+01  0.29598880553E+02  0.40659137363E+02  0.00000000000E+00 0.  1.
         11    1    3    3    0    0 -0.28453991733E+02  0.18492192577E+01 -0.22072938123E+02  0.36059171580E+02  0.51100000000E-03 0. -1.
        -11    1    3    3    0    0 -0.13456450911E+01  0.26310279103E+01 -0.36200871091E+01  0.46731252406E+01  0.51100000000E-03 0.  1.
        -12    1    3    3    0    0  0.22447605775E+01 -0.86993129590E+01 -0.39058553213E+01  0.97965658167E+01  0.00000000000E+00 0.  1.
</event>
<event>
 7    1  0.2937071E-011  0.5052886E+02  0.7816164E-02  0.1300439E+00
        -11   -1    0    0    0    0  0.00000000000E+00  0.00000000000E+00  0.45593999997E+02  0.45594000000E+02  0.51100000000E-03 0.  1.
         11   -1    0    0    0    0 -0.00000000000E+00 -0.00000000000E+00 -0.45593999997E+02  0.45594000000E+02  0.51100000000E-03 0. -1.
    9900012    2    1    2    0    0  0.33556091154E+02  0.22697694091E+02 -0.34596383397E+01  0.50528859970E+02  0.30000000364E+02 0.  0.
        -12    1    1    2    0    0 -0.33556091154E+02 -0.22697694091E+02  0.34596383397E+01  0.40659140030E+02  0.00000000000E+00 0.  1.
         11    1    3    3    0    0  0.10329591345E+02  0.14574038694E+01  0.45292730964E+01  0.11372721681E+02  0.51100000000E-03 0. -1.
        -11    1    3    3    0    0  0.55262758757E+01  0.50768086641E+01  0.75061968882E+01  0.10613986209E+02  0.51100000000E-03 0.  1.
         12    1    3    3    0    0  0.17700223933E+02  0.16163481557E+02 -0.15495108324E+02  0.28542152079E+02  0.00000000000E+00 0. -1.
</event>
<event>
 7    1  0.2937071E-011  0.5052886E+02  0.7816164E-02  0.1300439E+00
        -11   -1    0    0    0    0  0.00000000000E+00  0.00000000000E+00  0.45593999997E+02  0.45594000000E+02  0.51100000000E-03 0.  1.
         11   -1    0    0    0    0 -0.00000000000E+00 -0.00000000000E+00 -0.45593999997E+02  0.45594000000E+02  0.51100000000E-03 0. -1.
    9900012    2    1    2    0    0 -0.33394275246E+02  0.22738280009E+02 -0.45780398188E+01  0.50528862705E+02  0.30000008677E+02 0.  0.
        -12    1    1    2    0    0  0.33394275246E+02 -0.22738280009E+02  0.45780398188E+01  0.40659137295E+02  0.00000000000E+00 0.  1.
         11    1    3    3    0    0 -0.18759078292E+02  0.18563253346E+02 -0.33765729668E+01  0.26606364622E+02  0.51100000000E-03 0. -1.
        -11    1    3    3    0    0 -0.15412789081E+02  0.93149546251E+01  0.14866132106E+01  0.18070209352E+02  0.51100000000E-03 0.  1.
        -12    1    3    3    0    0  0.77759212634E+00 -0.51399279618E+01 -0.26880800625E+01  0.58522887309E+01  0.00000000000E+00 0.  1.
</event>
<event>
 7    1  0.2937071E-011  0.5052887E+02  0.7816164E-02  0.1300439E+00
        -11   -1    0    0    0    0  0.00000000000E+00  0.00000000000E+00  0.45593999997E+02  0.45594000000E+02  0.51100000000E-03 0.  1.
         11   -1    0    0    0    0 -0.00000000000E+00 -0.00000000000E+00 -0.45593999997E+02  0.45594000000E+02  0.51100000000E-03 0. -1.
    9900012    2    1    2    0    0 -0.21029180438E+01 -0.26620695332E+02 -0.30660742673E+02  0.50528870330E+02  0.30000031856E+02 0.  0.
        -12    1    1    2    0    0  0.21029180438E+01  0.26620695332E+02  0.30660742673E+02  0.40659129670E+02  0.00000000000E+00 0.  1.
         11    1    3    3    0    0  0.63404784698E+01 -0.57689220557E+01 -0.11698603283E+02  0.14503084084E+02  0.51100000000E-03 0. -1.
        -11    1    3    3    0    0  0.51493792488E+01 -0.11681047035E+02 -0.29389446785E+01  0.13099632154E+02  0.51100000000E-03 0.  1.
         12    1    3    3    0    0 -0.13592775762E+02 -0.91707262414E+01 -0.16023194711E+02  0.22926154093E+02  0.00000000000E+00 0. -1.
</event>
<event>
 7    1  0.2937071E-011  0.5052886E+02  0.7816164E-02  0.1300439E+00
        -11   -1    0    0    0    0  0.00000000000E+00  0.00000000000E+00  0.45593999997E+02  0.45594000000E+02  0.51100000000E-03 0.  1.
         11   -1    0    0    0    0 -0.00000000000E+00 -0.00000000000E+00 -0.45593999997E+02  0.45594000000E+02  0.51100000000E-03 0. -1.
    9900012    2    1    2    0    0  0.23965865606E+02  0.21426535762E+02 -0.24893900530E+02  0.50528862864E+02  0.30000009161E+02 0.  0.
        -12    1    1    2    0    0 -0.23965865606E+02 -0.21426535762E+02  0.24893900530E+02  0.40659137136E+02  0.00000000000E+00 0.  1.
         11    1    3    3    0    0  0.22816462135E+02  0.11252225979E+02 -0.19674867892E+02  0.32160596397E+02  0.51100000000E-03 0. -1.
        -11    1    3    3    0    0 -0.10289593073E+01  0.75055489968E+01 -0.99563398365E+01  0.12510824361E+02  0.51100000000E-03 0.  1.
         12    1    3    3    0    0  0.21783627786E+01  0.26687607865E+01  0.47373071975E+01  0.58574421051E+01  0.00000000000E+00 0. -1.
</event>
<event>
 7    1  0.2937071E-011  0.5052886E+02  0.7816164E-02  0.1300439E+00
        -11   -1    0    0    0    0  0.00000000000E+00  0.00000000000E+00  0.45593999997E+02  0.45594000000E+02  0.51100000000E-03 0. -1.
         11   -1    0    0    0    0 -0.00000000000E+00 -0.00000000000E+00 -0.45593999997E+02  0.45594000000E+02  0.51100000000E-03 0.  1.
    9900012    2    1    2    0    0  0.39110777644E+02  0.10526047785E+02 -0.35658325483E+01  0.50528858695E+02  0.29999996490E+02 0.  0.
        -12    1    1    2    0    0 -0.39110777644E+02 -0.10526047785E+02  0.35658325483E+01  0.40659141305E+02  0.00000000000E+00 0.  1.
         11    1    3    3    0    0  0.16816259184E+02  0.96534299583E+01  0.42920318898E+01  0.19859426500E+02  0.51100000000E-03 0. -1.
        -11    1    3    3    0    0  0.20134582315E+02  0.53754077695E+01  0.59865345396E+00  0.20848376433E+02  0.51100000000E-03 0.  1.
        -12    1    3    3    0    0  0.21599361447E+01 -0.45027899431E+01 -0.84565178920E+01  0.98210557619E+01  0.00000000000E+00 0.  1.
</event>
<event>
 7    1  0.2937071E-011  0.5052886E+02  0.7816164E-02  0.1300439E+00
        -11   -1    0    0    0    0  0.00000000000E+00  0.00000000000E+00  0.45593999997E+02  0.45594000000E+02  0.51100000000E-03 0.  1.
         11   -1    0    0    0    0 -0.00000000000E+00 -0.00000000000E+00 -0.45593999997E+02  0.45594000000E+02  0.51100000000E-03 0. -1.
    9900012    2    1    2    0    0 -0.21270752087E+02 -0.23301811738E+02 -0.25646558079E+02  0.50528864914E+02  0.30000015393E+02 0.  0.
        -12    1    1    2    0    0  0.21270752087E+02  0.23301811738E+02  0.25646558079E+02  0.40659135086E+02  0.00000000000E+00 0.  1.
         11    1    3    3    0    0 -0.27887566918E+01 -0.12501573827E+02 -0.51847168918E+01  0.13818386358E+02  0.51100000000E-03 0. -1.
        -11    1    3    3    0    0 -0.62309563790E+01 -0.12238980257E+02 -0.11323235092E+01  0.13780406812E+02  0.51100000000E-03 0.  1.
        -12    1    3    3    0    0 -0.12251039017E+02  0.14387423452E+01 -0.19329517678E+02  0.22930071744E+02  0.00000000000E+00 0.  1.
</event>
<event>
 7    1  0.2937071E-011  0.5052886E+02  0.7816164E-02  0.1300439E+00
        -11   -1    0    0    0    0  0.00000000000E+00  0.00000000000E+00  0.45593999997E+02  0.45594000000E+02  0.51100000000E-03 0.  1.
         11   -1    0    0    0    0 -0.00000000000E+00 -0.00000000000E+00 -0.45593999997E+02  0.45594000000E+02  0.51100000000E-03 0. -1.
    9900012    2    1    2    0    0 -0.33054787675E+02 -0.73256277001E+01 -0.22514043395E+02  0.50528856386E+02  0.29999989471E+02 0.  0.
        -12    1    1    2    0    0  0.33054787675E+02  0.73256277001E+01  0.22514043395E+02  0.40659143614E+02  0.00000000000E+00 0.  1.
         11    1    3    3    0    0 -0.54303287091E+01 -0.56835259154E+01 -0.12102369967E+02  0.14431157119E+02  0.51100000000E-03 0. -1.
        -11    1    3    3    0    0 -0.38114511046E+01  0.77684144895E+01 -0.58852388636E+00  0.86730492809E+01  0.51100000000E-03 0.  1.
        -12    1    3    3    0    0 -0.23813007861E+02 -0.94105162742E+01 -0.98231495418E+01  0.27424649986E+02  0.00000000000E+00 0.  1.
</event>
<event>
 7    1  0.2937071E-011  0.5052887E+02  0.7816164E-02  0.1300439E+00
        -11   -1    0    0    0    0  0.00000000000E+00  0.00000000000E+00  0.45593999997E+02  0.45594000000E+02  0.51100000000E-03 0.  1.
         11   -1    0    0    0    0 -0.00000000000E+00 -0.00000000000E+00 -0.45593999997E+02  0.45594000000E+02  0.51100000000E-03 0. -1.
    9900012    2    1    2    0    0  0.39416772111E+02  0.23173842126E+01 -0.97011741789E+01  0.50528868508E+02  0.30000026316E+02 0.  0.
        -12    1    1    2    0    0 -0.39416772111E+02 -0.23173842126E+01  0.97011741789E+01  0.40659131492E+02  0.00000000000E+00 0.  1.
         11    1    3    3    0    0  0.70426244733E+01 -0.57158535398E+01 -0.32459147568E+01  0.96335613367E+01  0.51100000000E-03 0. -1.
        -11    1    3    3    0    0  0.34809185438E+02  0.42606901249E+01 -0.29384862141E+01  0.35191867991E+02  0.51100000000E-03 0.  1.
        -12    1    3    3    0    0 -0.24350377995E+01  0.37725476275E+01 -0.35167732080E+01  0.57034391803E+01  0.00000000000E+00 0.  1.
</event>
<event>
 7    1  0.2937071E-011  0.5052886E+02  0.7816164E-02  0.1300439E+00
        -11   -1    0    0    0    0  0.00000000000E+00  0.00000000000E+00  0.45593999997E+02  0.45594000000E+02  0.51100000000E-03 0. -1.
         11   -1    0    0    0    0 -0.00000000000E+00 -0.00000000000E+00 -0.45593999997E+02  0.45594000000E+02  0.51100000000E-03 0.  1.
    9900012    2    1    2    0    0  0.20566953403E+02  0.34393055060E+02 -0.68763048202E+01  0.50528863553E+02  0.30000011256E+02 0.  0.
        -12    1    1    2    0    0 -0.20566953403E+02 -0.34393055060E+02  0.68763048202E+01  0.40659136447E+02  0.00000000000E+00 0.  1.
         11    1    3    3    0    0  0.27136772706E+01  0.93013406634E+01  0.23368980565E+01  0.99669491447E+01  0.51100000000E-03 0. -1.
        -11    1    3    3    0    0  0.17743411358E+02  0.29572212451E+02 -0.58989066092E+01  0.34987733497E+02  0.51100000000E-03 0.  1.
        -12    1    3    3    0    0  0.10986477444E+00 -0.44804980542E+01 -0.33142962675E+01  0.55741809112E+01  0.00000000000E+00 0.  1.
</event>
<event>
 7    1  0.2937071E-011  0.5052886E+02  0.7816164E-02  0.1300439E+00
        -11   -1    0    0    0    0  0.00000000000E+00  0.00000000000E+00  0.45593999997E+02  0.45594000000E+02  0.51100000000E-03 0.  1.
         11   -1    0    0    0    0 -0.00000000000E+00 -0.00000000000E+00 -0.45593999997E+02  0.45594000000E+02  0.51100000000E-03 0. -1.
    9900012    2    1    2    0    0  0.22948426249E+02  0.52520989199E+01 -0.33150430817E+02  0.50528857440E+02  0.29999992674E+02 0.  0.
        -12    1    1    2    0    0 -0.22948426249E+02 -0.52520989199E+01  0.33150430817E+02  0.40659142560E+02  0.00000000000E+00 0.  1.
         11    1    3    3    0    0  0.12474540418E+01 -0.50045862074E+01 -0.10662065931E+02  0.11844056521E+02  0.51100000000E-03 0. -1.
        -11    1    3    3    0    0  0.90556073214E+01  0.90847503613E+00 -0.21001957979E+02  0.22889115100E+02  0.51100000000E-03 0.  1.
        -12    1    3    3    0    0  0.12645364886E+02  0.93482100912E+01 -0.14864069074E+01  0.15795685819E+02  0.00000000000E+00 0.  1.
</event>
<event>
 7    1  0.2937071E-011  0.5052887E+02  0.7816164E-02  0.1300439E+00
        -11   -1    0    0    0    0  0.00000000000E+00  0.00000000000E+00  0.45593999997E+02  0.45594000000E+02  0.51100000000E-03 0.  1.
         11   -1    0    0    0    0 -0.00000000000E+00 -0.00000000000E+00 -0.45593999997E+02  0.45594000000E+02  0.51100000000E-03 0. -1.
    9900012    2    1    2    0    0  0.32085781592E+00  0.39900796653E+02 -0.78095167634E+01  0.50528867257E+02  0.30000022515E+02 0.  0.
        -12    1    1    2    0    0 -0.32085781592E+00 -0.39900796653E+02  0.78095167634E+01  0.40659132743E+02  0.00000000000E+00 0.  1.
         11    1    3    3    0    0  0.67633335067E+01  0.21790477539E+02 -0.22192300770E+01  0.22923624798E+02  0.51100000000E-03 0. -1.
        -11    1    3    3    0    0 -0.11173658800E+02  0.10214020254E+02  0.25078686624E+01  0.15344910108E+02  0.51100000000E-03 0.  1.
         12    1    3    3    0    0  0.47311831092E+01  0.78962988600E+01 -0.80981553487E+01  0.12260332351E+02  0.00000000000E+00 0. -1.
</event>
<event>
 7    1  0.2937071E-011  0.5052886E+02  0.7816164E-02  0.1300439E+00
        -11   -1    0    0    0    0  0.00000000000E+00  0.00000000000E+00  0.45593999997E+02  0.45594000000E+02  0.51100000000E-03 0.  1.
         11   -1    0    0    0    0 -0.00000000000E+00 -0.00000000000E+00 -0.45593999997E+02  0.45594000000E+02  0.51100000000E-03 0. -1.
    9900012    2    1    2    0    0  0.32108584685E+02  0.23691757288E+02 -0.78041549598E+01  0.50528863161E+02  0.30000010064E+02 0.  0.
        -12    1    1    2    0    0 -0.32108584685E+02 -0.23691757288E+02  0.78041549598E+01  0.40659136839E+02  0.00000000000E+00 0.  1.
         11    1    3    3    0    0  0.38014229945E+01 -0.65187062824E-01 -0.26318967847E+01  0.46240617516E+01  0.51100000000E-03 0. -1.
        -11    1    3    3    0    0  0.20130149831E+02  0.15832289527E+02 -0.15995249623E+02  0.30194905773E+02  0.51100000000E-03 0.  1.
        -12    1    3    3    0    0  0.81770118592E+01  0.79246548233E+01  0.10822991448E+02  0.15709895636E+02  0.00000000000E+00 0.  1.
</event>
<event>
 7    1  0.2937071E-011  0.5052886E+02  0.7816164E-02  0.1300439E+00
        -11   -1    0    0    0    0  0.00000000000E+00  0.00000000000E+00  0.45593999997E+02  0.45594000000E+02  0.51100000000E-03 0.  1.
         11   -1    0    0    0    0 -0.00000000000E+00 -0.00000000000E+00 -0.45593999997E+02  0.45594000000E+02  0.51100000000E-03 0. -1.
    9900012    2    1    2    0    0  0.34008092649E+02 -0.12158681050E+02 -0.18675704419E+02  0.50528858026E+02  0.29999994455E+02 0.  0.
        -12    1    1    2    0    0 -0.34008092649E+02  0.12158681050E+02  0.18675704419E+02  0.40659141974E+02  0.00000000000E+00 0.  1.
         11    1    3    3    0    0  0.15761224891E+02 -0.28245006045E+01  0.26236228122E+01  0.16225825423E+02  0.51100000000E-03 0. -1.
        -11    1    3    3    0    0  0.13383131861E+00  0.39538408595E+01 -0.11341005029E+01  0.41154529005E+01  0.51100000000E-03 0.  1.
         12    1    3    3    0    0  0.18113036440E+02 -0.13288021306E+02 -0.20165226729E+02  0.30187579703E+02  0.00000000000E+00 0. -1.
</event>
<event>
 7    1  0.2937071E-011  0.5052885E+02  0.7816164E-02  0.1300439E+00
        -11   -1    0    0    0    0  0.00000000000E+00  0.00000000000E+00  0.45593999997E+02  0.45594000000E+02  0.51100000000E-03 0.  1.
         11   -1    0    0    0    0 -0.00000000000E+00 -0.00000000000E+00 -0.45593999997E+02  0.45594000000E+02  0.51100000000E-03 0. -1.
    9900012    2    1    2    0    0  0.26585653787E+01  0.23700307275E+02 -0.32930131862E+02  0.50528854420E+02  0.29999983496E+02 0.  0.
        -12    1    1    2    0    0 -0.26585653787E+01 -0.23700307275E+02  0.32930131862E+02  0.40659145580E+02  0.00000000000E+00 0.  1.
         11    1    3    3    0    0  0.36161646298E+01  0.59140777711E-01 -0.27575921481E+01  0.45480170380E+01  0.51100000000E-03 0. -1.
        -11    1    3    3    0    0 -0.55160251165E+01 -0.22380674875E+01  0.22307121856E-01  0.59528125314E+01  0.51100000000E-03 0.  1.
         12    1    3    3    0    0  0.45584258654E+01  0.25879233985E+02 -0.30194846836E+02  0.40028024851E+02  0.00000000000E+00 0. -1.
</event>
<event>
 7    1  0.2937071E-011  0.5052886E+02  0.7816164E-02  0.1300439E+00
        -11   -1    0    0    0    0  0.00000000000E+00  0.00000000000E+00  0.45593999997E+02  0.45594000000E+02  0.51100000000E-03 0.  1.
         11   -1    0    0    0    0 -0.00000000000E+00 -0.00000000000E+00 -0.45593999997E+02  0.45594000000E+02  0.51100000000E-03 0. -1.
    9900012    2    1    2    0    0 -0.33185394344E+02 -0.87220458738E+01 -0.21813334466E+02  0.50528855364E+02  0.29999986364E+02 0.  0.
        -12    1    1    2    0    0  0.33185394344E+02  0.87220458738E+01  0.21813334466E+02  0.40659144636E+02  0.00000000000E+00 0.  1.
         11    1    3    3    0    0 -0.10494498131E+02 -0.32511146419E+00 -0.47740331354E+01  0.11533931729E+02  0.51100000000E-03 0. -1.
        -11    1    3    3    0    0 -0.23788993797E+02 -0.49788135191E+01 -0.22059783518E+02  0.32822840508E+02  0.51100000000E-03 0.  1.
        -12    1    3    3    0    0  0.10980975832E+01 -0.34181208906E+01  0.50204821878E+01  0.61720831267E+01  0.00000000000E+00 0.  1.
</event>
<event>
 7    1  0.2937071E-011  0.5052886E+02  0.7816164E-02  0.1300439E+00
        -11   -1    0    0    0    0  0.00000000000E+00  0.00000000000E+00  0.45593999997E+02  0.45594000000E+02  0.51100000000E-03 0.  1.
         11   -1    0    0    0    0 -0.00000000000E+00 -0.00000000000E+00 -0.45593999997E+02  0.45594000000E+02  0.51100000000E-03 0. -1.
    9900012    2    1    2    0    0 -0.22353860322E+02 -0.12706077423E+02 -0.31496443988E+02  0.50528862544E+02  0.30000008189E+02 0.  0.
        -12    1    1    2    0    0  0.22353860322E+02  0.12706077423E+02  0.31496443988E+02  0.40659137456E+02  0.00000000000E+00 0.  1.
         11    1    3    3    0    0 -0.29787475886E+00  0.12486351161E+01 -0.50648091180E+01  0.52249507833E+01  0.51100000000E-03 0. -1.
        -11    1    3    3    0    0  0.59464325523E+01 -0.24022707560E+01 -0.34616491378E+01  0.72879338566E+01  0.51100000000E-03 0.  1.
        -12    1    3    3    0    0 -0.28002418116E+02 -0.11552441783E+02 -0.22969985732E+02  0.38015977904E+02  0.00000000000E+00 0.  1.
</event>
<event>
 7    1  0.2937071E-011  0.5052886E+02  0.7816164E-02  0.1300439E+00
        -11   -1    0    0    0    0  0.00000000000E+00  0.00000000000E+00  0.45593999997E+02  0.45594000000E+02  0.51100000000E-03 0.  1.
         11   -1    0    0    0    0 -0.00000000000E+00 -0.00000000000E+00 -0.45593999997E+02  0.45594000000E+02  0.51100000000E-03 0. -1.
    9900012    2    1    2    0    0  0.37253925145E+02 -0.18150703380E+01  0.16186913350E+02  0.50528861017E+02  0.30000003548E+02 0.  0.
        -12    1    1    2    0    0 -0.37253925145E+02  0.18150703380E+01 -0.16186913350E+02  0.40659138983E+02  0.00000000000E+00 0.  1.
         11    1    3    3    0    0  0.53502435550E+01  0.84473987702E+00  0.24749560549E+01  0.59551741613E+01  0.51100000000E-03 0. -1.
        -11    1    3    3    0    0  0.14835699749E+02 -0.14798842839E+02  0.10313207932E+02  0.23355213433E+02  0.51100000000E-03 0.  1.
        -12    1    3    3    0    0  0.17067981841E+02  0.12139032623E+02  0.33987493636E+01  0.21218473423E+02  0.00000000000E+00 0.  1.
</event>
<event>
 7    1  0.2937071E-011  0.5052887E+02  0.7816164E-02  0.1300439E+00
        -11   -1    0    0    0    0  0.00000000000E+00  0.00000000000E+00  0.45593999997E+02  0.45594000000E+02  0.51100000000E-03 0.  1.
         11   -1    0    0    0    0 -0.00000000000E+00 -0.00000000000E+00 -0.45593999997E+02  0.45594000000E+02  0.51100000000E-03 0. -1.
    9900012    2    1    2    0    0 -0.99978860508E+00  0.15123012068E+02 -0.37728763354E+02  0.50528872421E+02  0.30000038210E+02 0.  0.
        -12    1    1    2    0    0  0.99978860508E+00 -0.15123012068E+02  0.37728763354E+02  0.40659127579E+02  0.00000000000E+00 0.  1.
         11    1    3    3    0    0  0.19322703311E+01  0.73344673149E+01 -0.19997437669E+02  0.21387510211E+02  0.51100000000E-03 0. -1.
        -11    1    3    3    0    0 -0.41703970771E+01  0.12280443515E+02 -0.20094931009E+02  0.23916683659E+02  0.51100000000E-03 0.  1.
        -12    1    3    3    0    0  0.12383381409E+01 -0.44918987618E+01  0.23636053238E+01  0.52246785513E+01  0.00000000000E+00 0.  1.
</event>
<event>
 7    1  0.2937071E-011  0.5052885E+02  0.7816164E-02  0.1300439E+00
        -11   -1    0    0    0    0  0.00000000000E+00  0.00000000000E+00  0.45593999997E+02  0.45594000000E+02  0.51100000000E-03 0. -1.
         11   -1    0    0    0    0 -0.00000000000E+00 -0.00000000000E+00 -0.45593999997E+02  0.45594000000E+02  0.51100000000E-03 0.  1.
    9900012    2    1    2    0    0 -0.19409374377E+02  0.29381651037E+02  0.20326362801E+02  0.50528852738E+02  0.29999978381E+02 0.  0.
        -12    1    1    2    0    0  0.19409374377E+02 -0.29381651037E+02 -0.20326362801E+02  0.40659147262E+02  0.00000000000E+00 0.  1.
         11    1    3    3    0    0 -0.20536321302E+01 -0.10661999633E+01  0.37980837186E+01  0.44474293117E+01  0.51100000000E-03 0. -1.
        -11    1    3    3    0    0 -0.73361809751E+00 -0.43693900196E+01  0.18738850411E+01  0.48105311625E+01  0.51100000000E-03 0.  1.
        -12    1    3    3    0    0 -0.16622124149E+02  0.34817241020E+02  0.14654394041E+02  0.41270892263E+02  0.00000000000E+00 0.  1.
</event>
<event>
 7    1  0.2937071E-011  0.5052887E+02  0.7816164E-02  0.1300439E+00
        -11   -1    0    0    0    0  0.00000000000E+00  0.00000000000E+00  0.45593999997E+02  0.45594000000E+02  0.51100000000E-03 0. -1.
         11   -1    0    0    0    0 -0.00000000000E+00 -0.00000000000E+00 -0.45593999997E+02  0.45594000000E+02  0.51100000000E-03 0.  1.
    9900012    2    1    2    0    0  0.25854556381E+02 -0.10624817213E+02  0.29526604632E+02  0.50528865632E+02  0.30000017575E+02 0.  0.
        -12    1    1    2    0    0 -0.25854556381E+02  0.10624817213E+02 -0.29526604632E+02  0.40659134368E+02  0.00000000000E+00 0.  1.
         11    1    3    3    0    0  0.34847115396E+01 -0.11814504912E+01  0.52291146807E+00  0.37165140175E+01  0.51100000000E-03 0. -1.
        -11    1    3    3    0    0  0.10067755898E+02  0.96778027744E+01  0.99432062466E+01  0.17143130580E+02  0.51100000000E-03 0.  1.
         12    1    3    3    0    0  0.12302088943E+02 -0.19121169496E+02  0.19060486918E+02  0.29669221035E+02  0.00000000000E+00 0. -1.
</event>
<event>
 7    1  0.2937071E-011  0.5052882E+02  0.7816164E-02  0.1300439E+00
        -11   -1    0    0    0    0  0.00000000000E+00  0.00000000000E+00  0.45593999997E+02  0.45594000000E+02  0.51100000000E-03 0. -1.
         11   -1    0    0    0    0 -0.00000000000E+00 -0.00000000000E+00 -0.45593999997E+02  0.45594000000E+02  0.51100000000E-03 0.  1.
    9900012    2    1    2    0    0 -0.37970391902E+02  0.11943932823E+02  0.82921949066E+01  0.50528822822E+02  0.29999887449E+02 0.  0.
        -12    1    1    2    0    0  0.37970391902E+02 -0.11943932823E+02 -0.82921949066E+01  0.40659177178E+02  0.00000000000E+00 0.  1.
         11    1    3    3    0    0 -0.23363926860E+02  0.82811695999E+01  0.10606571669E+02  0.26962014226E+02  0.51100000000E-03 0. -1.
        -11    1    3    3    0    0 -0.13893941826E+02 -0.22898791069E+01  0.42188117485E+01  0.14699780223E+02  0.51100000000E-03 0.  1.
         12    1    3    3    0    0 -0.71252321532E+00  0.59526423297E+01 -0.65331885110E+01  0.88670283725E+01  0.00000000000E+00 0. -1.
</event>
<event>
 7    1  0.2937071E-011  0.5052886E+02  0.7816164E-02  0.1300439E+00
        -11   -1    0    0    0    0  0.00000000000E+00  0.00000000000E+00  0.45593999997E+02  0.45594000000E+02  0.51100000000E-03 0.  1.
         11   -1    0    0    0    0 -0.00000000000E+00 -0.00000000000E+00 -0.45593999997E+02  0.45594000000E+02  0.51100000000E-03 0. -1.
    9900012    2    1    2    0    0 -0.21983205725E+01  0.25188276052E+02 -0.31841538427E+02  0.50528862857E+02  0.30000009139E+02 0.  0.
        -12    1    1    2    0    0  0.21983205725E+01 -0.25188276052E+02  0.31841538427E+02  0.40659137143E+02  0.00000000000E+00 0.  1.
         11    1    3    3    0    0  0.14381672155E+01  0.15551310658E+02 -0.59503542267E+01  0.16712818548E+02  0.51100000000E-03 0. -1.
        -11    1    3    3    0    0  0.30187025895E+01  0.89436407599E+01 -0.29057256290E+01  0.98764627807E+01  0.51100000000E-03 0.  1.
         12    1    3    3    0    0 -0.66551903775E+01  0.69332463426E+00 -0.22985458571E+02  0.23939581528E+02  0.00000000000E+00 0. -1.
</event>
<event>
 7    1  0.2937071E-011  0.5052887E+02  0.7816164E-02  0.1300439E+00
        -11   -1    0    0    0    0  0.00000000000E+00  0.00000000000E+00  0.45593999997E+02  0.45594000000E+02  0.51100000000E-03 0.  1.
         11   -1    0    0    0    0 -0.00000000000E+00 -0.00000000000E+00 -0.45593999997E+02  0.45594000000E+02  0.51100000000E-03 0. -1.
    9900012    2    1    2    0    0  0.14673655321E+02  0.33830994793E+02  0.17126359426E+02  0.50528873640E+02  0.30000041917E+02 0.  0.
        -12    1    1    2    0    0 -0.14673655321E+02 -0.33830994793E+02 -0.17126359426E+02  0.40659126360E+02  0.00000000000E+00 0.  1.
         11    1    3    3    0    0  0.18889582756E+02  0.18070083783E+02  0.14556421874E+02  0.29920455923E+02  0.51100000000E-03 0. -1.
        -11    1    3    3    0    0  0.83116860733E+00  0.28008997398E+01  0.56524109840E+01  0.63628319795E+01  0.51100000000E-03 0.  1.
         12    1    3    3    0    0 -0.50470960415E+01  0.12960011270E+02 -0.30824734321E+01  0.14245585738E+02  0.00000000000E+00 0. -1.
</event>
<event>
 7    1  0.2937071E-011  0.5052886E+02  0.7816164E-02  0.1300439E+00
        -11   -1    0    0    0    0  0.00000000000E+00  0.00000000000E+00  0.45593999997E+02  0.45594000000E+02  0.51100000000E-03 0.  1.
         11   -1    0    0    0    0 -0.00000000000E+00 -0.00000000000E+00 -0.45593999997E+02  0.45594000000E+02  0.51100000000E-03 0. -1.
    9900012    2    1    2    0    0  0.38442893275E+02 -0.92523672618E+01 -0.94711829749E+01  0.50528860188E+02  0.30000001029E+02 0.  0.
        -12    1    1    2    0    0 -0.38442893275E+02  0.92523672618E+01  0.94711829749E+01  0.40659139812E+02  0.00000000000E+00 0.  1.
         11    1    3    3    0    0  0.93470553146E-01 -0.10845968536E+01 -0.46715151877E+01  0.47966802571E+01  0.51100000000E-03 0. -1.
        -11    1    3    3    0    0  0.12410449396E+01 -0.73012178638E+01 -0.43942542945E+01  0.86114717618E+01  0.51100000000E-03 0.  1.
         12    1    3    3    0    0  0.37108377782E+02 -0.86655254442E+00 -0.40541349271E+00  0.37120708170E+02  0.00000000000E+00 0. -1.
</event>
<event>
 7    1  0.2937071E-011  0.5052880E+02  0.7816164E-02  0.1300439E+00
        -11   -1    0    0    0    0  0.00000000000E+00  0.00000000000E+00  0.45593999997E+02  0.45594000000E+02  0.51100000000E-03 0.  1.
         11   -1    0    0    0    0 -0.00000000000E+00 -0.00000000000E+00 -0.45593999997E+02  0.45594000000E+02  0.51100000000E-03 0. -1.
    9900012    2    1    2    0    0 -0.25838530194E+02 -0.30221742408E+01 -0.31247522778E+02  0.50528796128E+02  0.29999806310E+02 0.  0.
        -12    1    1    2    0    0  0.25838530194E+02  0.30221742408E+01  0.31247522778E+02  0.40659203872E+02  0.00000000000E+00 0.  1.
         11    1    3    3    0    0  0.49648293775E+01 -0.16478272445E+01 -0.46653028514E+01  0.70092735952E+01  0.51100000000E-03 0. -1.
        -11    1    3    3    0    0 -0.91183225324E+01  0.63393326638E+01 -0.58965816405E+01  0.12573806891E+02  0.51100000000E-03 0.  1.
         12    1    3    3    0    0 -0.21685037039E+02 -0.77136796600E+01 -0.20685638286E+02  0.30945715642E+02  0.00000000000E+00 0. -1.
</event>
<event>
 7    1  0.2937071E-011  0.5052886E+02  0.7816164E-02  0.1300439E+00
        -11   -1    0    0    0    0  0.00000000000E+00  0.00000000000E+00  0.45593999997E+02  0.45594000000E+02  0.51100000000E-03 0.  1.
         11   -1    0    0    0    0 -0.00000000000E+00 -0.00000000000E+00 -0.45593999997E+02  0.45594000000E+02  0.51100000000E-03 0. -1.
    9900012    2    1    2    0    0  0.12845264630E+02  0.17680120736E+02 -0.34286706070E+02  0.50528859505E+02  0.29999998951E+02 0.  0.
        -12    1    1    2    0    0 -0.12845264630E+02 -0.17680120736E+02  0.34286706070E+02  0.40659140495E+02  0.00000000000E+00 0.  1.
         11    1    3    3    0    0  0.40803963465E+00  0.10771964764E+02 -0.15797947934E+02  0.19125294257E+02  0.51100000000E-03 0. -1.
        -11    1    3    3    0    0 -0.22729184610E+01  0.81482828282E+01 -0.13287456501E+02  0.15751735521E+02  0.51100000000E-03 0.  1.
        -12    1    3    3    0    0  0.14710143456E+02 -0.12401268560E+01 -0.52013016347E+01  0.15651829727E+02  0.00000000000E+00 0.  1.
</event>
<event>
 7    1  0.2937071E-011  0.5052887E+02  0.7816164E-02  0.1300439E+00
        -11   -1    0    0    0    0  0.00000000000E+00  0.00000000000E+00  0.45593999997E+02  0.45594000000E+02  0.51100000000E-03 0.  1.
         11   -1    0    0    0    0 -0.00000000000E+00 -0.00000000000E+00 -0.45593999997E+02  0.45594000000E+02  0.51100000000E-03 0. -1.
    9900012    2    1    2    0    0  0.18812467736E+02 -0.90611405897E+01 -0.34887705002E+02  0.50528866077E+02  0.30000018927E+02 0.  0.
        -12    1    1    2    0    0 -0.18812467736E+02  0.90611405897E+01  0.34887705002E+02  0.40659133923E+02  0.00000000000E+00 0.  1.
         11    1    3    3    0    0  0.11334443367E+01  0.48791380949E+01 -0.13457103456E+02  0.14359119691E+02  0.51100000000E-03 0.  1.
        -11    1    3    3    0    0  0.12281837072E+02 -0.41474867862E+01 -0.21362383084E+02  0.24987928681E+02  0.51100000000E-03 0. -1.
        -12    1    3    3    0    0  0.53971863277E+01 -0.97927918985E+01 -0.68218462218E-01  0.11181817705E+02  0.00000000000E+00 0.  1.
</event>
<event>
 7    1  0.2937071E-011  0.5052882E+02  0.7816164E-02  0.1300439E+00
        -11   -1    0    0    0    0  0.00000000000E+00  0.00000000000E+00  0.45593999997E+02  0.45594000000E+02  0.51100000000E-03 0. -1.
         11   -1    0    0    0    0 -0.00000000000E+00 -0.00000000000E+00 -0.45593999997E+02  0.45594000000E+02  0.51100000000E-03 0.  1.
    9900012    2    1    2    0    0  0.31514696530E+02 -0.37676677934E+01  0.25412543705E+02  0.50528821510E+02  0.29999883461E+02 0.  0.
        -12    1    1    2    0    0 -0.31514696530E+02  0.37676677934E+01 -0.25412543705E+02  0.40659178490E+02  0.00000000000E+00 0.  1.
         11    1    3    3    0    0  0.95428968431E+00  0.40293817740E+01 -0.32395223844E+01  0.52574796074E+01  0.51100000000E-03 0. -1.
        -11    1    3    3    0    0  0.41787161717E+01 -0.32503796008E+01 -0.92927204773E+00  0.53749589015E+01  0.51100000000E-03 0.  1.
         12    1    3    3    0    0  0.26381690674E+02 -0.45466699666E+01  0.29581338137E+02  0.39896383001E+02  0.00000000000E+00 0. -1.
</event>
<event>
 7    1  0.2937071E-011  0.5052887E+02  0.7816164E-02  0.1300439E+00
        -11   -1    0    0    0    0  0.00000000000E+00  0.00000000000E+00  0.45593999997E+02  0.45594000000E+02  0.51100000000E-03 0.  1.
         11   -1    0    0    0    0 -0.00000000000E+00 -0.00000000000E+00 -0.45593999997E+02  0.45594000000E+02  0.51100000000E-03 0. -1.
    9900012    2    1    2    0    0  0.15344689513E+02  0.10234113801E+01 -0.37638513594E+02  0.50528873439E+02  0.30000041306E+02 0.  0.
        -12    1    1    2    0    0 -0.15344689513E+02 -0.10234113801E+01  0.37638513594E+02  0.40659126561E+02  0.00000000000E+00 0.  1.
         11    1    3    3    0    0 -0.21460908252E+01  0.13761629463E+01 -0.71600276547E+01  0.76003635809E+01  0.51100000000E-03 0. -1.
        -11    1    3    3    0    0  0.54786503050E+00 -0.10426392040E+02 -0.12053071308E+02  0.15946358057E+02  0.51100000000E-03 0.  1.
        -12    1    3    3    0    0  0.16942915307E+02  0.10073640474E+02 -0.18425414632E+02  0.26982151802E+02  0.00000000000E+00 0.  1.
</event>
<event>
 7    1  0.2937071E-011  0.5052886E+02  0.7816164E-02  0.1300439E+00
        -11   -1    0    0    0    0  0.00000000000E+00  0.00000000000E+00  0.45593999997E+02  0.45594000000E+02  0.51100000000E-03 0. -1.
         11   -1    0    0    0    0 -0.00000000000E+00 -0.00000000000E+00 -0.45593999997E+02  0.45594000000E+02  0.51100000000E-03 0.  1.
    9900012    2    1    2    0    0 -0.96381867573E+01 -0.27611510813E+02  0.28246694690E+02  0.50528856695E+02  0.29999990411E+02 0.  0.
        -12    1    1    2    0    0  0.96381867573E+01  0.27611510813E+02 -0.28246694690E+02  0.40659143305E+02  0.00000000000E+00 0.  1.
         11    1    3    3    0    0 -0.91604900324E-01 -0.12224399061E+01 -0.16219805317E+01  0.20331187590E+01  0.51100000000E-03 0. -1.
        -11    1    3    3    0    0 -0.31311720474E+01  0.45002121198E+01  0.69562378286E+00  0.55263043910E+01  0.51100000000E-03 0.  1.
         12    1    3    3    0    0 -0.64154098096E+01 -0.30889283027E+02  0.29173051439E+02  0.42969433545E+02  0.00000000000E+00 0. -1.
</event>
<event>
 7    1  0.2937071E-011  0.5052886E+02  0.7816164E-02  0.1300439E+00
        -11   -1    0    0    0    0  0.00000000000E+00  0.00000000000E+00  0.45593999997E+02  0.45594000000E+02  0.51100000000E-03 0.  1.
         11   -1    0    0    0    0 -0.00000000000E+00 -0.00000000000E+00 -0.45593999997E+02  0.45594000000E+02  0.51100000000E-03 0. -1.
    9900012    2    1    2    0    0  0.29582303719E+02  0.22335782541E+02 -0.16708266583E+02  0.50528855306E+02  0.29999986188E+02 0.  0.
        -12    1    1    2    0    0 -0.29582303719E+02 -0.22335782541E+02  0.16708266583E+02  0.40659144694E+02  0.00000000000E+00 0.  1.
         11    1    3    3    0    0  0.23401194232E+02  0.13003753422E+02 -0.68494046998E+01  0.27633816955E+02  0.51100000000E-03 0. -1.
        -11    1    3    3    0    0  0.70141288251E+01  0.90431105823E+01  0.14641535824E+01  0.11537746667E+02  0.51100000000E-03 0.  1.
        -12    1    3    3    0    0 -0.83301933809E+00  0.28891853676E+00 -0.11323015466E+02  0.11357291683E+02  0.00000000000E+00 0.  1.
</event>
<event>
 7    1  0.2937071E-011  0.5052886E+02  0.7816164E-02  0.1300439E+00
        -11   -1    0    0    0    0  0.00000000000E+00  0.00000000000E+00  0.45593999997E+02  0.45594000000E+02  0.51100000000E-03 0. -1.
         11   -1    0    0    0    0 -0.00000000000E+00 -0.00000000000E+00 -0.45593999997E+02  0.45594000000E+02  0.51100000000E-03 0.  1.
    9900012    2    1    2    0    0  0.16663409522E+01 -0.22940819521E+02  0.33527716854E+02  0.50528859700E+02  0.29999999545E+02 0.  0.
        -12    1    1    2    0    0 -0.16663409522E+01  0.22940819521E+02 -0.33527716854E+02  0.40659140300E+02  0.00000000000E+00 0.  1.
         11    1    3    3    0    0 -0.17801042179E+01 -0.20341200699E+02  0.28154760216E+02  0.34779645484E+02  0.51100000000E-03 0. -1.
        -11    1    3    3    0    0  0.32430398599E+00 -0.70169692153E+01  0.71813295323E+01  0.10045622139E+02  0.51100000000E-03 0.  1.
        -12    1    3    3    0    0  0.31221411841E+01  0.44173503930E+01 -0.18083728941E+01  0.57035920780E+01  0.00000000000E+00 0.  1.
</event>
<event>
 7    1  0.2937071E-011  0.5052888E+02  0.7816164E-02  0.1300439E+00
        -11   -1    0    0    0    0  0.00000000000E+00  0.00000000000E+00  0.45593999997E+02  0.45594000000E+02  0.51100000000E-03 0. -1.
         11   -1    0    0    0    0 -0.00000000000E+00 -0.00000000000E+00 -0.45593999997E+02  0.45594000000E+02  0.51100000000E-03 0.  1.
    9900012    2    1    2    0    0  0.17174455905E+02  0.27864681363E+02  0.24119731162E+02  0.50528882518E+02  0.30000068903E+02 0.  0.
        -12    1    1    2    0    0 -0.17174455905E+02 -0.27864681363E+02 -0.24119731162E+02  0.40659117482E+02  0.00000000000E+00 0.  1.
         11    1    3    3    0    0  0.45743052221E+01  0.23458145334E+02  0.11919871972E+02  0.26707530752E+02  0.51100000000E-03 0. -1.
        -11    1    3    3    0    0  0.56460035110E+01  0.95977013723E+01  0.38593851195E+01  0.11785078746E+02  0.51100000000E-03 0.  1.
         12    1    3    3    0    0  0.69541471717E+01 -0.51911653439E+01  0.83404740705E+01  0.12036273021E+02  0.00000000000E+00 0. -1.
</event>
<event>
 7    1  0.2937071E-011  0.5052889E+02  0.7816164E-02  0.1300439E+00
        -11   -1    0    0    0    0  0.00000000000E+00  0.00000000000E+00  0.45593999997E+02  0.45594000000E+02  0.51100000000E-03 0.  1.
         11   -1    0    0    0    0 -0.00000000000E+00 -0.00000000000E+00 -0.45593999997E+02  0.45594000000E+02  0.51100000000E-03 0. -1.
    9900012    2    1    2    0    0  0.18492546698E+01  0.86420285815E+01 -0.39687015671E+02  0.50528885232E+02  0.30000077151E+02 0.  0.
        -12    1    1    2    0    0 -0.18492546698E+01 -0.86420285815E+01  0.39687015671E+02  0.40659114768E+02  0.00000000000E+00 0.  1.
         11    1    3    3    0    0 -0.55773486451E+01  0.36348710642E+01 -0.55515612247E+01  0.86682719071E+01  0.51100000000E-03 0. -1.
        -11    1    3    3    0    0 -0.65957211414E+01  0.74908808281E+01 -0.13527136967E+02  0.16810718835E+02  0.51100000000E-03 0.  1.
        -12    1    3    3    0    0  0.14022324456E+02 -0.24837233108E+01 -0.20608317479E+02  0.25049894490E+02  0.00000000000E+00 0.  1.
</event>
<event>
 7    1  0.2937071E-011  0.5052885E+02  0.7816164E-02  0.1300439E+00
        -11   -1    0    0    0    0  0.00000000000E+00  0.00000000000E+00  0.45593999997E+02  0.45594000000E+02  0.51100000000E-03 0. -1.
         11   -1    0    0    0    0 -0.00000000000E+00 -0.00000000000E+00 -0.45593999997E+02  0.45594000000E+02  0.51100000000E-03 0.  1.
    9900012    2    1    2    0    0 -0.11129308211E+02  0.38764241716E+02  0.51612510934E+01  0.50528850354E+02  0.29999971136E+02 0.  0.
        -12    1    1    2    0    0  0.11129308211E+02 -0.38764241716E+02 -0.51612510934E+01  0.40659149646E+02  0.00000000000E+00 0.  1.
         11    1    3    3    0    0  0.15129665398E+01  0.14208645727E+02  0.55895048128E+01  0.15343312728E+02  0.51100000000E-03 0.  1.
        -11    1    3    3    0    0  0.46454747398E+01  0.14007982061E+02 -0.19038005841E+01  0.14880472234E+02  0.51100000000E-03 0. -1.
        -12    1    3    3    0    0 -0.17287749491E+02  0.10547613928E+02  0.14755468648E+01  0.20305065392E+02  0.00000000000E+00 0.  1.
</event>
<event>
 7    1  0.2937071E-011  0.5052887E+02  0.7816164E-02  0.1300439E+00
        -11   -1    0    0    0    0  0.00000000000E+00  0.00000000000E+00  0.45593999997E+02  0.45594000000E+02  0.51100000000E-03 0.  1.
         11   -1    0    0    0    0 -0.00000000000E+00 -0.00000000000E+00 -0.45593999997E+02  0.45594000000E+02  0.51100000000E-03 0. -1.
    9900012    2    1    2    0    0 -0.82694372004E+01  0.26140032041E+01 -0.39723395566E+02  0.50528871140E+02  0.30000034318E+02 0.  0.
        -12    1    1    2    0    0  0.82694372004E+01 -0.26140032041E+01  0.39723395566E+02  0.40659128860E+02  0.00000000000E+00 0.  1.
         11    1    3    3    0    0 -0.34074706174E+01 -0.11352599017E+01  0.97875275016E+00  0.37225835463E+01  0.51100000000E-03 0. -1.
        -11    1    3    3    0    0 -0.44582603903E+01  0.58340546273E+01 -0.14345637528E+01  0.74813269226E+01  0.51100000000E-03 0.  1.
         12    1    3    3    0    0 -0.40370619282E+00 -0.20847915216E+01 -0.39267584563E+02  0.39324960671E+02  0.00000000000E+00 0. -1.
</event>
<event>
 7    1  0.2937071E-011  0.5052885E+02  0.7816164E-02  0.1300439E+00
        -11   -1    0    0    0    0  0.00000000000E+00  0.00000000000E+00  0.45593999997E+02  0.45594000000E+02  0.51100000000E-03 0.  1.
         11   -1    0    0    0    0 -0.00000000000E+00 -0.00000000000E+00 -0.45593999997E+02  0.45594000000E+02  0.51100000000E-03 0. -1.
    9900012    2    1    2    0    0 -0.24690208491E+02  0.32184720571E+02 -0.27756043646E+01  0.50528848347E+02  0.29999965035E+02 0.  0.
        -12    1    1    2    0    0  0.24690208491E+02 -0.32184720571E+02  0.27756043646E+01  0.40659151653E+02  0.00000000000E+00 0.  1.
         11    1    3    3    0    0 -0.49317273159E+01  0.76047394959E+01  0.41379978325E+01  0.99637855979E+01  0.51100000000E-03 0. -1.
        -11    1    3    3    0    0  0.55561828858E+01  0.17176871465E+01 -0.32869244124E+00  0.58249168557E+01  0.51100000000E-03 0.  1.
        -12    1    3    3    0    0 -0.25314664061E+02  0.22862293929E+02 -0.65849097558E+01  0.34740145893E+02  0.00000000000E+00 0.  1.
</event>
<event>
 7    1  0.2937071E-011  0.5052886E+02  0.7816164E-02  0.1300439E+00
        -11   -1    0    0    0    0  0.00000000000E+00  0.00000000000E+00  0.45593999997E+02  0.45594000000E+02  0.51100000000E-03 0.  1.
         11   -1    0    0    0    0 -0.00000000000E+00 -0.00000000000E+00 -0.45593999997E+02  0.45594000000E+02  0.51100000000E-03 0. -1.
    9900012    2    1    2    0    0 -0.21289434192E+02  0.34632964526E+02  0.69550228372E+00  0.50528856336E+02  0.29999989319E+02 0.  0.
        -12    1    1    2    0    0  0.21289434192E+02 -0.34632964526E+02 -0.69550228372E+00  0.40659143664E+02  0.00000000000E+00 0.  1.
         11    1    3    3    0    0 -0.34597674589E+01  0.76373365933E+01 -0.12710606314E+01  0.84802415354E+01  0.51100000000E-03 0. -1.
        -11    1    3    3    0    0 -0.15225509633E+02  0.24161027120E+02  0.12245283989E+02  0.31072791238E+02  0.51100000000E-03 0.  1.
         12    1    3    3    0    0 -0.26041571006E+01  0.28346008122E+01 -0.10278721074E+02  0.10975823563E+02  0.00000000000E+00 0. -1.
</event>
<event>
 7    1  0.2937071E-011  0.5052884E+02  0.7816164E-02  0.1300439E+00
        -11   -1    0    0    0    0  0.00000000000E+00  0.00000000000E+00  0.45593999997E+02  0.45594000000E+02  0.51100000000E-03 0.  1.
         11   -1    0    0    0    0 -0.00000000000E+00 -0.00000000000E+00 -0.45593999997E+02  0.45594000000E+02  0.51100000000E-03 0. -1.
    9900012    2    1    2    0    0  0.31784080971E+02  0.14146709042E+02 -0.21043061296E+02  0.50528836105E+02  0.29999927826E+02 0.  0.
        -12    1    1    2    0    0 -0.31784080971E+02 -0.14146709042E+02  0.21043061296E+02  0.40659163895E+02  0.00000000000E+00 0.  1.
         11    1    3    3    0    0  0.25471621046E+01  0.23754350148E+01  0.36152956584E+01  0.50200686505E+01  0.51100000000E-03 0. -1.
        -11    1    3    3    0    0  0.74581097761E+01 -0.75584123477E+00  0.30612215117E+01  0.80972695898E+01  0.51100000000E-03 0.  1.
         12    1    3    3    0    0  0.21778809091E+02  0.12527115262E+02 -0.27719578466E+02  0.37411497865E+02  0.00000000000E+00 0. -1.
</event>
<event>
 7    1  0.2937071E-011  0.5052887E+02  0.7816164E-02  0.1300439E+00
        -11   -1    0    0    0    0  0.00000000000E+00  0.00000000000E+00  0.45593999997E+02  0.45594000000E+02  0.51100000000E-03 0.  1.
         11   -1    0    0    0    0 -0.00000000000E+00 -0.00000000000E+00 -0.45593999997E+02  0.45594000000E+02  0.51100000000E-03 0. -1.
    9900012    2    1    2    0    0  0.23257452535E+02 -0.61041179821E+01 -0.32787129198E+02  0.50528865776E+02  0.30000018013E+02 0.  0.
        -12    1    1    2    0    0 -0.23257452535E+02  0.61041179821E+01  0.32787129198E+02  0.40659134224E+02  0.00000000000E+00 0.  1.
         11    1    3    3    0    0  0.60422684443E+01  0.12962937634E+01 -0.63993801657E+01  0.88961481688E+01  0.51100000000E-03 0. -1.
        -11    1    3    3    0    0  0.19895861517E+02 -0.58764415285E+01 -0.68412173589E+01  0.21844452975E+02  0.51100000000E-03 0.  1.
        -12    1    3    3    0    0 -0.26806774267E+01 -0.15239702171E+01 -0.19546531674E+02  0.19788264632E+02  0.00000000000E+00 0.  1.
</event>
<event>
 7    1  0.2937071E-011  0.5052886E+02  0.7816164E-02  0.1300439E+00
        -11   -1    0    0    0    0  0.00000000000E+00  0.00000000000E+00  0.45593999997E+02  0.45594000000E+02  0.51100000000E-03 0.  1.
         11   -1    0    0    0    0 -0.00000000000E+00 -0.00000000000E+00 -0.45593999997E+02  0.45594000000E+02  0.51100000000E-03 0. -1.
    9900012    2    1    2    0    0 -0.19110557215E+02  0.96169318524E+01 -0.34575523679E+02  0.50528860646E+02  0.30000002420E+02 0.  0.
        -12    1    1    2    0    0  0.19110557215E+02 -0.96169318524E+01  0.34575523679E+02  0.40659139354E+02  0.00000000000E+00 0.  1.
         11    1    3    3    0    0 -0.54443002831E+01 -0.24655386500E+01 -0.32943703509E+01  0.68243800215E+01  0.51100000000E-03 0.  1.
        -11    1    3    3    0    0  0.47792753353E+01 -0.21984711056E+01 -0.80008886975E+00  0.53211737797E+01  0.51100000000E-03 0. -1.
         12    1    3    3    0    0 -0.18445532267E+02  0.14280941608E+02 -0.30481064459E+02  0.38383306845E+02  0.00000000000E+00 0. -1.
</event>
<event>
 7    1  0.2937071E-011  0.5052886E+02  0.7816164E-02  0.1300439E+00
        -11   -1    0    0    0    0  0.00000000000E+00  0.00000000000E+00  0.45593999997E+02  0.45594000000E+02  0.51100000000E-03 0.  1.
         11   -1    0    0    0    0 -0.00000000000E+00 -0.00000000000E+00 -0.45593999997E+02  0.45594000000E+02  0.51100000000E-03 0. -1.
    9900012    2    1    2    0    0 -0.31241412111E+02  0.16941453000E+02 -0.19751627716E+02  0.50528862554E+02  0.30000008218E+02 0.  0.
        -12    1    1    2    0    0  0.31241412111E+02 -0.16941453000E+02  0.19751627716E+02  0.40659137446E+02  0.00000000000E+00 0.  1.
         11    1    3    3    0    0 -0.12809920487E+02  0.10068399613E+02 -0.58438400328E+01  0.17309454071E+02  0.51100000000E-03 0. -1.
        -11    1    3    3    0    0 -0.22332268727E+02  0.71519155454E+01 -0.57071737664E+01  0.24134041417E+02  0.51100000000E-03 0.  1.
        -12    1    3    3    0    0  0.39007771028E+01 -0.27886215757E+00 -0.82006139166E+01  0.90853670657E+01  0.00000000000E+00 0.  1.
</event>
<event>
 7    1  0.2937071E-011  0.5052886E+02  0.7816164E-02  0.1300439E+00
        -11   -1    0    0    0    0  0.00000000000E+00  0.00000000000E+00  0.45593999997E+02  0.45594000000E+02  0.51100000000E-03 0.  1.
         11   -1    0    0    0    0 -0.00000000000E+00 -0.00000000000E+00 -0.45593999997E+02  0.45594000000E+02  0.51100000000E-03 0. -1.
    9900012    2    1    2    0    0 -0.38837356403E-01  0.32186881085E+02 -0.24842886605E+02  0.50528857889E+02  0.29999994039E+02 0.  0.
        -12    1    1    2    0    0  0.38837356403E-01 -0.32186881085E+02  0.24842886605E+02  0.40659142111E+02  0.00000000000E+00 0.  1.
         11    1    3    3    0    0  0.82329006488E+00  0.97329050074E+01 -0.11933289142E+02  0.15421110090E+02  0.51100000000E-03 0.  1.
        -11    1    3    3    0    0  0.34165665179E+01 -0.39065484727E+01  0.51971588018E+00  0.52157600211E+01  0.51100000000E-03 0. -1.
         12    1    3    3    0    0 -0.42786939392E+01  0.26360524551E+02 -0.13429313344E+02  0.29891987778E+02  0.00000000000E+00 0. -1.
</event>
<event>
 7    1  0.2937071E-011  0.5052886E+02  0.7816164E-02  0.1300439E+00
        -11   -1    0    0    0    0  0.00000000000E+00  0.00000000000E+00  0.45593999997E+02  0.45594000000E+02  0.51100000000E-03 0.  1.
         11   -1    0    0    0    0 -0.00000000000E+00 -0.00000000000E+00 -0.45593999997E+02  0.45594000000E+02  0.51100000000E-03 0. -1.
    9900012    2    1    2    0    0  0.38512958880E+02 -0.64062852304E+01 -0.11352415378E+02  0.50528858014E+02  0.29999994418E+02 0.  0.
        -12    1    1    2    0    0 -0.38512958880E+02  0.64062852304E+01  0.11352415378E+02  0.40659141986E+02  0.00000000000E+00 0.  1.
         11    1    3    3    0    0  0.46803511918E+01 -0.51608909946E+01  0.40551196718E+01  0.80612951162E+01  0.51100000000E-03 0. -1.
        -11    1    3    3    0    0  0.16897521254E+01 -0.38621181212E+01  0.31478628619E+01  0.52612032356E+01  0.51100000000E-03 0.  1.
         12    1    3    3    0    0  0.32142855563E+02  0.26167238855E+01 -0.18555397912E+02  0.37206359662E+02  0.00000000000E+00 0. -1.
</event>
<event>
 7    1  0.2937071E-011  0.5052886E+02  0.7816164E-02  0.1300439E+00
        -11   -1    0    0    0    0  0.00000000000E+00  0.00000000000E+00  0.45593999997E+02  0.45594000000E+02  0.51100000000E-03 0.  1.
         11   -1    0    0    0    0 -0.00000000000E+00 -0.00000000000E+00 -0.45593999997E+02  0.45594000000E+02  0.51100000000E-03 0. -1.
    9900012    2    1    2    0    0  0.36956132505E+01  0.35117520225E+02 -0.20156083600E+02  0.50528862156E+02  0.30000007011E+02 0.  0.
        -12    1    1    2    0    0 -0.36956132505E+01 -0.35117520225E+02  0.20156083600E+02  0.40659137844E+02  0.00000000000E+00 0.  1.
         11    1    3    3    0    0 -0.10170083231E+02  0.18171254646E+02 -0.75099338401E+01  0.22136490122E+02  0.51100000000E-03 0. -1.
        -11    1    3    3    0    0 -0.92455397722E+00  0.61960452223E+00  0.17513601852E+01  0.20750837525E+01  0.51100000000E-03 0.  1.
        -12    1    3    3    0    0  0.14790250459E+02  0.16326661057E+02 -0.14397509945E+02  0.26317288282E+02  0.00000000000E+00 0.  1.
</event>
<event>
 7    1  0.2937071E-011  0.5052885E+02  0.7816164E-02  0.1300439E+00
        -11   -1    0    0    0    0  0.00000000000E+00  0.00000000000E+00  0.45593999997E+02  0.45594000000E+02  0.51100000000E-03 0.  1.
         11   -1    0    0    0    0 -0.00000000000E+00 -0.00000000000E+00 -0.45593999997E+02  0.45594000000E+02  0.51100000000E-03 0. -1.
    9900012    2    1    2    0    0 -0.21726974618E+02  0.12320228583E+02 -0.32082967104E+02  0.50528852978E+02  0.29999979111E+02 0.  0.
        -12    1    1    2    0    0  0.21726974618E+02 -0.12320228583E+02  0.32082967104E+02  0.40659147022E+02  0.00000000000E+00 0.  1.
         11    1    3    3    0    0 -0.21409066212E+02  0.30785731524E+01 -0.85255786770E+01  0.23248897194E+02  0.51100000000E-03 0. -1.
        -11    1    3    3    0    0  0.44785029574E+00  0.14980264091E+01  0.76678795109E+00  0.17414410793E+01  0.51100000000E-03 0.  1.
        -12    1    3    3    0    0 -0.76575870214E+00  0.77436290219E+01 -0.24324176378E+02  0.25538514704E+02  0.00000000000E+00 0.  1.
</event>
<event>
 7    1  0.2937071E-011  0.5052885E+02  0.7816164E-02  0.1300439E+00
        -11   -1    0    0    0    0  0.00000000000E+00  0.00000000000E+00  0.45593999997E+02  0.45594000000E+02  0.51100000000E-03 0. -1.
         11   -1    0    0    0    0 -0.00000000000E+00 -0.00000000000E+00 -0.45593999997E+02  0.45594000000E+02  0.51100000000E-03 0.  1.
    9900012    2    1    2    0    0  0.13463695291E+02  0.47308627336E+01  0.38072488123E+02  0.50528849677E+02  0.29999969079E+02 0.  0.
        -12    1    1    2    0    0 -0.13463695291E+02 -0.47308627336E+01 -0.38072488123E+02  0.40659150323E+02  0.00000000000E+00 0.  1.
         11    1    3    3    0    0 -0.79713418594E-01 -0.93618915484E+00  0.10116684660E+02  0.10160222101E+02  0.51100000000E-03 0. -1.
        -11    1    3    3    0    0 -0.57197945145E+00  0.11333855459E+02  0.20494682062E+02  0.23426810135E+02  0.51100000000E-03 0.  1.
        -12    1    3    3    0    0  0.14115388161E+02 -0.56668035702E+01  0.74611214009E+01  0.16941817441E+02  0.00000000000E+00 0.  1.
</event>
<event>
 7    1  0.2937071E-011  0.5052883E+02  0.7816164E-02  0.1300439E+00
        -11   -1    0    0    0    0  0.00000000000E+00  0.00000000000E+00  0.45593999997E+02  0.45594000000E+02  0.51100000000E-03 0.  1.
         11   -1    0    0    0    0 -0.00000000000E+00 -0.00000000000E+00 -0.45593999997E+02  0.45594000000E+02  0.51100000000E-03 0. -1.
    9900012    2    1    2    0    0  0.25511487755E+02  0.31637041494E+02 -0.11957398552E+01  0.50528828885E+02  0.29999905878E+02 0.  0.
        -12    1    1    2    0    0 -0.25511487755E+02 -0.31637041494E+02  0.11957398552E+01  0.40659171115E+02  0.00000000000E+00 0.  1.
         11    1    3    3    0    0  0.12909888586E+02 -0.24037734399E+01  0.16864902396E+00  0.13132851664E+02  0.51100000000E-03 0. -1.
        -11    1    3    3    0    0  0.28869763517E+01  0.70148816565E+01  0.33503479366E+01  0.82926490742E+01  0.51100000000E-03 0.  1.
        -12    1    3    3    0    0  0.97146228170E+01  0.27025933277E+02 -0.47147368158E+01  0.29103328147E+02  0.00000000000E+00 0.  1.
</event>
<event>
 7    1  0.2937071E-011  0.5052885E+02  0.7816164E-02  0.1300439E+00
        -11   -1    0    0    0    0  0.00000000000E+00  0.00000000000E+00  0.45593999997E+02  0.45594000000E+02  0.51100000000E-03 0.  1.
         11   -1    0    0    0    0 -0.00000000000E+00 -0.00000000000E+00 -0.45593999997E+02  0.45594000000E+02  0.51100000000E-03 0. -1.
    9900012    2    1    2    0    0 -0.44797865731E+00  0.17524244858E+02 -0.36686052887E+02  0.50528851962E+02  0.29999976023E+02 0.  0.
        -12    1    1    2    0    0  0.44797865731E+00 -0.17524244858E+02  0.36686052887E+02  0.40659148038E+02  0.00000000000E+00 0.  1.
         11    1    3    3    0    0 -0.68098983784E+01  0.13549440623E+02 -0.13295492286E+02  0.20167602051E+02  0.51100000000E-03 0. -1.
        -11    1    3    3    0    0  0.61222534419E+00 -0.10118704471E+01  0.28253547812E+01  0.30628959458E+01  0.51100000000E-03 0.  1.
         12    1    3    3    0    0  0.57496943769E+01  0.49866746822E+01 -0.26215915383E+02  0.27298353965E+02  0.00000000000E+00 0. -1.
</event>
<event>
 7    1  0.2937071E-011  0.5052887E+02  0.7816164E-02  0.1300439E+00
        -11   -1    0    0    0    0  0.00000000000E+00  0.00000000000E+00  0.45593999997E+02  0.45594000000E+02  0.51100000000E-03 0.  1.
         11   -1    0    0    0    0 -0.00000000000E+00 -0.00000000000E+00 -0.45593999997E+02  0.45594000000E+02  0.51100000000E-03 0. -1.
    9900012    2    1    2    0    0  0.89569585398E+01 -0.28901024534E+02 -0.27160058683E+02  0.50528866794E+02  0.30000021106E+02 0.  0.
        -12    1    1    2    0    0 -0.89569585398E+01  0.28901024534E+02  0.27160058683E+02  0.40659133206E+02  0.00000000000E+00 0.  1.
         11    1    3    3    0    0  0.10430141885E+02 -0.14863499351E+02 -0.70082023928E+01  0.19463462532E+02  0.51100000000E-03 0. -1.
        -11    1    3    3    0    0 -0.54461741403E+01 -0.89875975591E+01 -0.64631756202E+00  0.10528791446E+02  0.51100000000E-03 0.  1.
         12    1    3    3    0    0  0.39729907952E+01 -0.50499276242E+01 -0.19505538729E+02  0.20536612816E+02  0.00000000000E+00 0. -1.
</event>
<event>
 7    1  0.2937071E-011  0.5052884E+02  0.7816164E-02  0.1300439E+00
        -11   -1    0    0    0    0  0.00000000000E+00  0.00000000000E+00  0.45593999997E+02  0.45594000000E+02  0.51100000000E-03 0.  1.
         11   -1    0    0    0    0 -0.00000000000E+00 -0.00000000000E+00 -0.45593999997E+02  0.45594000000E+02  0.51100000000E-03 0. -1.
    9900012    2    1    2    0    0 -0.33023643260E+02  0.66025485421E+01 -0.22781842173E+02  0.50528843661E+02  0.29999950791E+02 0.  0.
        -12    1    1    2    0    0  0.33023643260E+02 -0.66025485421E+01  0.22781842173E+02  0.40659156339E+02  0.00000000000E+00 0.  1.
         11    1    3    3    0    0 -0.16988670915E+02  0.28232904012E+01 -0.50150509259E+01  0.17937018821E+02  0.51100000000E-03 0. -1.
        -11    1    3    3    0    0 -0.78218021411E+01 -0.20743492293E+01  0.36817154736E+01  0.88903623407E+01  0.51100000000E-03 0.  1.
         12    1    3    3    0    0 -0.82131702042E+01  0.58536073702E+01 -0.21448506720E+02  0.23701462499E+02  0.00000000000E+00 0. -1.
</event>
<event>
 7    1  0.2937071E-011  0.5052886E+02  0.7816164E-02  0.1300439E+00
        -11   -1    0    0    0    0  0.00000000000E+00  0.00000000000E+00  0.45593999997E+02  0.45594000000E+02  0.51100000000E-03 0. -1.
         11   -1    0    0    0    0 -0.00000000000E+00 -0.00000000000E+00 -0.45593999997E+02  0.45594000000E+02  0.51100000000E-03 0.  1.
    9900012    2    1    2    0    0 -0.38306312140E+02  0.10961170982E+02 -0.81021460569E+01  0.50528860932E+02  0.30000003288E+02 0.  0.
        -12    1    1    2    0    0  0.38306312140E+02 -0.10961170982E+02  0.81021460569E+01  0.40659139068E+02  0.00000000000E+00 0.  1.
         11    1    3    3    0    0 -0.20820564395E+02  0.16107993973E+02 -0.11832292103E+02  0.28861159163E+02  0.51100000000E-03 0. -1.
        -11    1    3    3    0    0 -0.47548385127E+01  0.21526967219E+01  0.46133514033E+01  0.69660321482E+01  0.51100000000E-03 0.  1.
        -12    1    3    3    0    0 -0.12730909232E+02 -0.72995197129E+01 -0.88320535673E+00  0.14701669620E+02  0.00000000000E+00 0.  1.
</event>
<event>
 7    1  0.2937071E-011  0.5052886E+02  0.7816164E-02  0.1300439E+00
        -11   -1    0    0    0    0  0.00000000000E+00  0.00000000000E+00  0.45593999997E+02  0.45594000000E+02  0.51100000000E-03 0. -1.
         11   -1    0    0    0    0 -0.00000000000E+00 -0.00000000000E+00 -0.45593999997E+02  0.45594000000E+02  0.51100000000E-03 0.  1.
    9900012    2    1    2    0    0 -0.18210845700E+02 -0.23162714165E+02  0.28018200022E+02  0.50528858825E+02  0.29999996886E+02 0.  0.
        -12    1    1    2    0    0  0.18210845700E+02  0.23162714165E+02 -0.28018200022E+02  0.40659141175E+02  0.00000000000E+00 0.  1.
         11    1    3    3    0    0 -0.15431930475E+01 -0.27920082632E+01  0.45562912333E+01  0.55620630154E+01  0.51100000000E-03 0. -1.
        -11    1    3    3    0    0 -0.13926299555E+02  0.29592820075E+01  0.50002814400E+01  0.15089797350E+02  0.51100000000E-03 0.  1.
         12    1    3    3    0    0 -0.27413530969E+01 -0.23329987910E+02  0.18461627348E+02  0.29876998460E+02  0.00000000000E+00 0. -1.
</event>
<event>
 7    1  0.2937071E-011  0.5052886E+02  0.7816164E-02  0.1300439E+00
        -11   -1    0    0    0    0  0.00000000000E+00  0.00000000000E+00  0.45593999997E+02  0.45594000000E+02  0.51100000000E-03 0. -1.
         11   -1    0    0    0    0 -0.00000000000E+00 -0.00000000000E+00 -0.45593999997E+02  0.45594000000E+02  0.51100000000E-03 0.  1.
    9900012    2    1    2    0    0 -0.39133461989E+02 -0.11025732116E+02  0.41360081625E+00  0.50528859803E+02  0.29999999857E+02 0.  0.
        -12    1    1    2    0    0  0.39133461989E+02  0.11025732116E+02 -0.41360081625E+00  0.40659140197E+02  0.00000000000E+00 0.  1.
         11    1    3    3    0    0  0.75747022521E+00  0.43560452423E+01 -0.14742427821E+01  0.46607170410E+01  0.51100000000E-03 0.  1.
        -11    1    3    3    0    0 -0.21969411615E+02 -0.82410691063E+01  0.92468111393E+01  0.25220503231E+02  0.51100000000E-03 0. -1.
        -12    1    3    3    0    0 -0.17921520599E+02 -0.71407082522E+01 -0.73589675410E+01  0.20647639531E+02  0.00000000000E+00 0.  1.
</event>
<event>
 7    1  0.2937071E-011  0.5052888E+02  0.7816164E-02  0.1300439E+00
        -11   -1    0    0    0    0  0.00000000000E+00  0.00000000000E+00  0.45593999997E+02  0.45594000000E+02  0.51100000000E-03 0.  1.
         11   -1    0    0    0    0 -0.00000000000E+00 -0.00000000000E+00 -0.45593999997E+02  0.45594000000E+02  0.51100000000E-03 0. -1.
    9900012    2    1    2    0    0 -0.33551278234E+01 -0.21834744069E+02 -0.34134310466E+02  0.50528879470E+02  0.30000059636E+02 0.  0.
        -12    1    1    2    0    0  0.33551278234E+01  0.21834744069E+02  0.34134310466E+02  0.40659120530E+02  0.00000000000E+00 0.  1.
         11    1    3    3    0    0 -0.13236464817E+01 -0.17370359788E+02 -0.23331121063E+02  0.29117394278E+02  0.51100000000E-03 0. -1.
        -11    1    3    3    0    0 -0.39068541513E+01  0.16205230036E+01 -0.13756883317E+02  0.14392409215E+02  0.51100000000E-03 0.  1.
        -12    1    3    3    0    0  0.18753728096E+01 -0.60849072845E+01  0.29536939135E+01  0.70190759770E+01  0.00000000000E+00 0.  1.
</event>
<event>
 7    1  0.2937071E-011  0.5052887E+02  0.7816164E-02  0.1300439E+00
        -11   -1    0    0    0    0  0.00000000000E+00  0.00000000000E+00  0.45593999997E+02  0.45594000000E+02  0.51100000000E-03 0.  1.
         11   -1    0    0    0    0 -0.00000000000E+00 -0.00000000000E+00 -0.45593999997E+02  0.45594000000E+02  0.51100000000E-03 0. -1.
    9900012    2    1    2    0    0  0.85828934042E+01 -0.10955948031E+02 -0.38202962333E+02  0.50528865879E+02  0.30000018326E+02 0.  0.
        -12    1    1    2    0    0 -0.85828934042E+01  0.10955948031E+02  0.38202962333E+02  0.40659134121E+02  0.00000000000E+00 0.  1.
         11    1    3    3    0    0  0.63571402176E+01  0.16046821714E+01 -0.54388300867E+00  0.65790611492E+01  0.51100000000E-03 0. -1.
        -11    1    3    3    0    0  0.12967281575E+01  0.17377177338E+01  0.12385574491E+01  0.24970365741E+01  0.51100000000E-03 0.  1.
         12    1    3    3    0    0  0.92902502908E+00 -0.14298347936E+02 -0.38897636773E+02  0.41452768156E+02  0.00000000000E+00 0. -1.
</event>
<event>
 7    1  0.2937071E-011  0.5052885E+02  0.7816164E-02  0.1300439E+00
        -11   -1    0    0    0    0  0.00000000000E+00  0.00000000000E+00  0.45593999997E+02  0.45594000000E+02  0.51100000000E-03 0.  1.
         11   -1    0    0    0    0 -0.00000000000E+00 -0.00000000000E+00 -0.45593999997E+02  0.45594000000E+02  0.51100000000E-03 0. -1.
    9900012    2    1    2    0    0  0.33011544312E+02 -0.39703858040E+01 -0.23401715094E+02  0.50528852313E+02  0.29999977091E+02 0.  0.
        -12    1    1    2    0    0 -0.33011544312E+02  0.39703858040E+01  0.23401715094E+02  0.40659147687E+02  0.00000000000E+00 0.  1.
         11    1    3    3    0    0  0.52670052243E+01 -0.86242171789E+00 -0.10599513390E+02  0.11867383858E+02  0.51100000000E-03 0. -1.
        -11    1    3    3    0    0  0.52723111274E+01 -0.70948762661E+01 -0.13139207338E+02  0.15835823426E+02  0.51100000000E-03 0.  1.
        -12    1    3    3    0    0  0.22472227960E+02  0.39869121800E+01  0.33700563407E+00  0.22825645029E+02  0.00000000000E+00 0.  1.
</event>
<event>
 7    1  0.2937071E-011  0.5052886E+02  0.7816164E-02  0.1300439E+00
        -11   -1    0    0    0    0  0.00000000000E+00  0.00000000000E+00  0.45593999997E+02  0.45594000000E+02  0.51100000000E-03 0.  1.
         11   -1    0    0    0    0 -0.00000000000E+00 -0.00000000000E+00 -0.45593999997E+02  0.45594000000E+02  0.51100000000E-03 0. -1.
    9900012    2    1    2    0    0 -0.30407303323E+02  0.49140240184E+01 -0.26540796766E+02  0.50528860555E+02  0.30000002143E+02 0.  0.
        -12    1    1    2    0    0  0.30407303323E+02 -0.49140240184E+01  0.26540796766E+02  0.40659139445E+02  0.00000000000E+00 0.  1.
         11    1    3    3    0    0  0.61911307032E+00  0.44863816654E+01 -0.74109372435E+01  0.86852122905E+01  0.51100000000E-03 0. -1.
        -11    1    3    3    0    0  0.21082358052E+01  0.33421402880E+01 -0.19545606964E+01  0.44084994830E+01  0.51100000000E-03 0.  1.
         12    1    3    3    0    0 -0.33134652199E+02 -0.29144979350E+01 -0.17175298826E+02  0.37435148782E+02  0.00000000000E+00 0. -1.
</event>
<event>
 7    1  0.2937071E-011  0.5052886E+02  0.7816164E-02  0.1300439E+00
        -11   -1    0    0    0    0  0.00000000000E+00  0.00000000000E+00  0.45593999997E+02  0.45594000000E+02  0.51100000000E-03 0. -1.
         11   -1    0    0    0    0 -0.00000000000E+00 -0.00000000000E+00 -0.45593999997E+02  0.45594000000E+02  0.51100000000E-03 0.  1.
    9900012    2    1    2    0    0 -0.78233138155E+01  0.92571934178E+01  0.38810642594E+02  0.50528857762E+02  0.29999993652E+02 0.  0.
        -12    1    1    2    0    0  0.78233138155E+01 -0.92571934178E+01 -0.38810642594E+02  0.40659142238E+02  0.00000000000E+00 0.  1.
         11    1    3    3    0    0  0.62997471676E+01  0.41263451186E+01  0.74290044410E+01  0.10578451950E+02  0.51100000000E-03 0. -1.
        -11    1    3    3    0    0  0.72596218439E+00 -0.13629798118E+01 -0.21852102739E+01  0.26757950711E+01  0.51100000000E-03 0.  1.
         12    1    3    3    0    0 -0.14849023167E+02  0.64938281110E+01  0.33566848427E+02  0.37274610741E+02  0.00000000000E+00 0. -1.
</event>
<event>
 7    1  0.2937071E-011  0.5052886E+02  0.7816164E-02  0.1300439E+00
        -11   -1    0    0    0    0  0.00000000000E+00  0.00000000000E+00  0.45593999997E+02  0.45594000000E+02  0.51100000000E-03 0.  1.
         11   -1    0    0    0    0 -0.00000000000E+00 -0.00000000000E+00 -0.45593999997E+02  0.45594000000E+02  0.51100000000E-03 0. -1.
    9900012    2    1    2    0    0 -0.14166604986E+01 -0.16686914061E+02 -0.37050040397E+02  0.50528861774E+02  0.30000005847E+02 0.  0.
        -12    1    1    2    0    0  0.14166604986E+01  0.16686914061E+02  0.37050040397E+02  0.40659138226E+02  0.00000000000E+00 0.  1.
         11    1    3    3    0    0  0.62810626769E+01 -0.11714013560E+02 -0.29370884757E+02  0.32238466678E+02  0.51100000000E-03 0. -1.
        -11    1    3    3    0    0  0.30244377415E+01 -0.17457114392E+01  0.15106278849E+01  0.38048296872E+01  0.51100000000E-03 0.  1.
         12    1    3    3    0    0 -0.10722160917E+02 -0.32271890615E+01 -0.91897835249E+01  0.14485565408E+02  0.00000000000E+00 0. -1.
</event>
<event>
 7    1  0.2937071E-011  0.5052885E+02  0.7816164E-02  0.1300439E+00
        -11   -1    0    0    0    0  0.00000000000E+00  0.00000000000E+00  0.45593999997E+02  0.45594000000E+02  0.51100000000E-03 0.  1.
         11   -1    0    0    0    0 -0.00000000000E+00 -0.00000000000E+00 -0.45593999997E+02  0.45594000000E+02  0.51100000000E-03 0. -1.
    9900012    2    1    2    0    0 -0.33680766206E+02 -0.29558230855E+01 -0.22583960044E+02  0.50528853999E+02  0.29999982214E+02 0.  0.
        -12    1    1    2    0    0  0.33680766206E+02  0.29558230855E+01  0.22583960044E+02  0.40659146001E+02  0.00000000000E+00 0.  1.
         11    1    3    3    0    0 -0.99698454879E+01 -0.74422486770E+00 -0.12069316948E+02  0.15672271742E+02  0.51100000000E-03 0. -1.
        -11    1    3    3    0    0 -0.10774249780E+02 -0.12606184982E+01 -0.17145120317E+02  0.20288636432E+02  0.51100000000E-03 0.  1.
        -12    1    3    3    0    0 -0.12936670938E+02 -0.95097971966E+00  0.66304772210E+01  0.14567945825E+02  0.00000000000E+00 0.  1.
</event>
<event>
 7    1  0.2937071E-011  0.5052886E+02  0.7816164E-02  0.1300439E+00
        -11   -1    0    0    0    0  0.00000000000E+00  0.00000000000E+00  0.45593999997E+02  0.45594000000E+02  0.51100000000E-03 0.  1.
         11   -1    0    0    0    0 -0.00000000000E+00 -0.00000000000E+00 -0.45593999997E+02  0.45594000000E+02  0.51100000000E-03 0. -1.
    9900012    2    1    2    0    0 -0.11699090056E+02 -0.16460870740E+02 -0.35289323285E+02  0.50528864353E+02  0.30000013689E+02 0.  0.
        -12    1    1    2    0    0  0.11699090056E+02  0.16460870740E+02  0.35289323285E+02  0.40659135647E+02  0.00000000000E+00 0.  1.
         11    1    3    3    0    0 -0.88375579275E+01 -0.19443987388E+02 -0.22566319091E+02  0.31071044934E+02  0.51100000000E-03 0. -1.
        -11    1    3    3    0    0  0.26669169431E+01 -0.23250773955E+01 -0.11064154108E+02  0.11616106803E+02  0.51100000000E-03 0.  1.
        -12    1    3    3    0    0 -0.55284490718E+01  0.53081940444E+01 -0.16588500853E+01  0.78417126164E+01  0.00000000000E+00 0.  1.
</event>
<event>
 7    1  0.2937071E-011  0.5052886E+02  0.7816164E-02  0.1300439E+00
        -11   -1    0    0    0    0  0.00000000000E+00  0.00000000000E+00  0.45593999997E+02  0.45594000000E+02  0.51100000000E-03 0.  1.
         11   -1    0    0    0    0 -0.00000000000E+00 -0.00000000000E+00 -0.45593999997E+02  0.45594000000E+02  0.51100000000E-03 0. -1.
    9900012    2    1    2    0    0  0.30820872211E+02  0.23696071695E+02 -0.11905269658E+02  0.50528862980E+02  0.30000009513E+02 0.  0.
        -12    1    1    2    0    0 -0.30820872211E+02 -0.23696071695E+02  0.11905269658E+02  0.40659137020E+02  0.00000000000E+00 0.  1.
         11    1    3    3    0    0  0.18897360777E+02  0.11842596743E+02 -0.14479811437E+02  0.26589890588E+02  0.51100000000E-03 0. -1.
        -11    1    3    3    0    0  0.10891335307E+01  0.24770685419E+01 -0.64574699850E+01  0.70014997877E+01  0.51100000000E-03 0.  1.
        -12    1    3    3    0    0  0.10834377903E+02  0.93764064102E+01  0.90320117643E+01  0.16937472604E+02  0.00000000000E+00 0.  1.
</event>
<event>
 7    1  0.2937071E-011  0.5052886E+02  0.7816164E-02  0.1300439E+00
        -11   -1    0    0    0    0  0.00000000000E+00  0.00000000000E+00  0.45593999997E+02  0.45594000000E+02  0.51100000000E-03 0.  1.
         11   -1    0    0    0    0 -0.00000000000E+00 -0.00000000000E+00 -0.45593999997E+02  0.45594000000E+02  0.51100000000E-03 0. -1.
    9900012    2    1    2    0    0  0.36659990874E+02  0.13884190144E+02 -0.10790736663E+02  0.50528860012E+02  0.30000000493E+02 0.  0.
        -12    1    1    2    0    0 -0.36659990874E+02 -0.13884190144E+02  0.10790736663E+02  0.40659139988E+02  0.00000000000E+00 0.  1.
         11    1    3    3    0    0  0.10629465512E+02  0.14634059839E+02 -0.56042533141E+00  0.18095726603E+02  0.51100000000E-03 0. -1.
        -11    1    3    3    0    0  0.23264387472E+02  0.83333443984E+00 -0.17167239629E+01  0.23342521547E+02  0.51100000000E-03 0.  1.
         12    1    3    3    0    0  0.27661378895E+01 -0.15832041354E+01 -0.85135873689E+01  0.90906118632E+01  0.00000000000E+00 0. -1.
</event>
<event>
 7    1  0.2937071E-011  0.5052886E+02  0.7816164E-02  0.1300439E+00
        -11   -1    0    0    0    0  0.00000000000E+00  0.00000000000E+00  0.45593999997E+02  0.45594000000E+02  0.51100000000E-03 0. -1.
         11   -1    0    0    0    0 -0.00000000000E+00 -0.00000000000E+00 -0.45593999997E+02  0.45594000000E+02  0.51100000000E-03 0.  1.
    9900012    2    1    2    0    0 -0.37027562550E+02 -0.16793260073E+02 -0.33414093923E+00  0.50528860530E+02  0.30000002068E+02 0.  0.
        -12    1    1    2    0    0  0.37027562550E+02  0.16793260073E+02  0.33414093923E+00  0.40659139470E+02  0.00000000000E+00 0.  1.
         11    1    3    3    0    0 -0.21336932448E+02 -0.20870129083E+02 -0.85917776317E-03  0.29846724698E+02  0.51100000000E-03 0. -1.
        -11    1    3    3    0    0 -0.72271744558E+01 -0.36120696096E+01 -0.35181478558E+01  0.88122903989E+01  0.51100000000E-03 0.  1.
        -12    1    3    3    0    0 -0.84634556462E+01  0.76889386195E+01  0.31848660943E+01  0.11869845433E+02  0.00000000000E+00 0.  1.
</event>
<event>
 7    1  0.2937071E-011  0.5052885E+02  0.7816164E-02  0.1300439E+00
        -11   -1    0    0    0    0  0.00000000000E+00  0.00000000000E+00  0.45593999997E+02  0.45594000000E+02  0.51100000000E-03 0. -1.
         11   -1    0    0    0    0 -0.00000000000E+00 -0.00000000000E+00 -0.45593999997E+02  0.45594000000E+02  0.51100000000E-03 0.  1.
    9900012    2    1    2    0    0 -0.31575035682E+02  0.23480081253E+02  0.10240567799E+02  0.50528851917E+02  0.29999975888E+02 0.  0.
        -12    1    1    2    0    0  0.31575035682E+02 -0.23480081253E+02 -0.10240567799E+02  0.40659148083E+02  0.00000000000E+00 0.  1.
         11    1    3    3    0    0 -0.60649909378E+01  0.11829439066E+02  0.10381841292E+02  0.16867198124E+02  0.51100000000E-03 0. -1.
        -11    1    3    3    0    0 -0.81942535100E+01  0.12230486877E+02 -0.51993115679E+01  0.15612925442E+02  0.51100000000E-03 0.  1.
         12    1    3    3    0    0 -0.17315791234E+02 -0.57984468933E+00  0.50580380758E+01  0.18048728351E+02  0.00000000000E+00 0. -1.
</event>
<event>
 7    1  0.2937071E-011  0.5052886E+02  0.7816164E-02  0.1300439E+00
        -11   -1    0    0    0    0  0.00000000000E+00  0.00000000000E+00  0.45593999997E+02  0.45594000000E+02  0.51100000000E-03 0. -1.
         11   -1    0    0    0    0 -0.00000000000E+00 -0.00000000000E+00 -0.45593999997E+02  0.45594000000E+02  0.51100000000E-03 0.  1.
    9900012    2    1    2    0    0  0.37205646237E+02 -0.16391974551E+02  0.45671959956E+00  0.50528861613E+02  0.30000005360E+02 0.  0.
        -12    1    1    2    0    0 -0.37205646237E+02  0.16391974551E+02 -0.45671959956E+00  0.40659138387E+02  0.00000000000E+00 0.  1.
         11    1    3    3    0    0  0.11217066480E+02 -0.32387244747E+01 -0.74764988000E+01  0.13863980352E+02  0.51100000000E-03 0. -1.
        -11    1    3    3    0    0  0.22421603304E+02 -0.81943029760E+01 -0.30810875770E+01  0.24070064331E+02  0.51100000000E-03 0.  1.
        -12    1    3    3    0    0  0.35669764529E+01 -0.49589471003E+01  0.11014305977E+02  0.12594816930E+02  0.00000000000E+00 0.  1.
</event>
<event>
 7    1  0.2937071E-011  0.5052884E+02  0.7816164E-02  0.1300439E+00
        -11   -1    0    0    0    0  0.00000000000E+00  0.00000000000E+00  0.45593999997E+02  0.45594000000E+02  0.51100000000E-03 0. -1.
         11   -1    0    0    0    0 -0.00000000000E+00 -0.00000000000E+00 -0.45593999997E+02  0.45594000000E+02  0.51100000000E-03 0.  1.
    9900012    2    1    2    0    0 -0.29407459604E+02  0.27977056988E+02 -0.23776183872E+01  0.50528837843E+02  0.29999933109E+02 0.  0.
        -12    1    1    2    0    0  0.29407459604E+02 -0.27977056988E+02  0.23776183872E+01  0.40659162157E+02  0.00000000000E+00 0.  1.
         11    1    3    3    0    0 -0.10200692203E+02  0.65452883124E+01 -0.52677026720E+01  0.13215279498E+02  0.51100000000E-03 0. -1.
        -11    1    3    3    0    0 -0.40435667349E+01 -0.28682040981E+01 -0.55610483826E+01  0.74499856418E+01  0.51100000000E-03 0.  1.
         12    1    3    3    0    0 -0.15163200666E+02  0.24299972774E+02  0.84511326674E+01  0.29863572704E+02  0.00000000000E+00 0. -1.
</event>
<event>
 7    1  0.2937071E-011  0.5052885E+02  0.7816164E-02  0.1300439E+00
        -11   -1    0    0    0    0  0.00000000000E+00  0.00000000000E+00  0.45593999997E+02  0.45594000000E+02  0.51100000000E-03 0. -1.
         11   -1    0    0    0    0 -0.00000000000E+00 -0.00000000000E+00 -0.45593999997E+02  0.45594000000E+02  0.51100000000E-03 0.  1.
    9900012    2    1    2    0    0 -0.20847582304E+02 -0.32370023592E+02  0.13066216269E+02  0.50528854376E+02  0.29999983362E+02 0.  0.
        -12    1    1    2    0    0  0.20847582304E+02  0.32370023592E+02 -0.13066216269E+02  0.40659145624E+02  0.00000000000E+00 0.  1.
         11    1    3    3    0    0 -0.17029642155E+01 -0.25422979983E+01 -0.33668695573E+01  0.45496348324E+01  0.51100000000E-03 0. -1.
        -11    1    3    3    0    0 -0.53879191984E+01  0.37543321960E+01  0.14978952874E+01  0.67356049528E+01  0.51100000000E-03 0.  1.
         12    1    3    3    0    0 -0.13756698890E+02 -0.33582057790E+02  0.14935190539E+02  0.39243614591E+02  0.00000000000E+00 0. -1.
</event>
<event>
 7    1  0.2937071E-011  0.5052883E+02  0.7816164E-02  0.1300439E+00
        -11   -1    0    0    0    0  0.00000000000E+00  0.00000000000E+00  0.45593999997E+02  0.45594000000E+02  0.51100000000E-03 0. -1.
         11   -1    0    0    0    0 -0.00000000000E+00 -0.00000000000E+00 -0.45593999997E+02  0.45594000000E+02  0.51100000000E-03 0.  1.
    9900012    2    1    2    0    0 -0.32043315764E+02 -0.22475587585E+02 -0.11010977436E+02  0.50528834409E+02  0.29999922670E+02 0.  0.
        -12    1    1    2    0    0  0.32043315764E+02  0.22475587585E+02  0.11010977436E+02  0.40659165591E+02  0.00000000000E+00 0.  1.
         11    1    3    3    0    0  0.37924667623E+00 -0.10579867765E+02 -0.30994605102E+01  0.11031050978E+02  0.51100000000E-03 0. -1.
        -11    1    3    3    0    0  0.72426860410E+00  0.99741894897E+00 -0.34369972045E+01  0.36513503825E+01  0.51100000000E-03 0.  1.
         12    1    3    3    0    0 -0.33146831044E+02 -0.12893138769E+02 -0.44745197212E+01  0.35846433049E+02  0.00000000000E+00 0. -1.
</event>
<event>
 7    1  0.2937071E-011  0.5052886E+02  0.7816164E-02  0.1300439E+00
        -11   -1    0    0    0    0  0.00000000000E+00  0.00000000000E+00  0.45593999997E+02  0.45594000000E+02  0.51100000000E-03 0.  1.
         11   -1    0    0    0    0 -0.00000000000E+00 -0.00000000000E+00 -0.45593999997E+02  0.45594000000E+02  0.51100000000E-03 0. -1.
    9900012    2    1    2    0    0 -0.27494733945E+02  0.29738471794E+02  0.35816768663E+01  0.50528861931E+02  0.30000006327E+02 0.  0.
        -12    1    1    2    0    0  0.27494733945E+02 -0.29738471794E+02 -0.35816768663E+01  0.40659138069E+02  0.00000000000E+00 0.  1.
         11    1    3    3    0    0 -0.15187228693E+02  0.68016482349E+01 -0.30756816494E+01  0.16922592944E+02  0.51100000000E-03 0. -1.
        -11    1    3    3    0    0  0.16921360082E+01 -0.29781704431E+01  0.80449177703E-01  0.34262655749E+01  0.51100000000E-03 0.  1.
         12    1    3    3    0    0 -0.13999641260E+02  0.25914994002E+02  0.65769093379E+01  0.30180003412E+02  0.00000000000E+00 0. -1.
</event>
<event>
 7    1  0.2937071E-011  0.5052886E+02  0.7816164E-02  0.1300439E+00
        -11   -1    0    0    0    0  0.00000000000E+00  0.00000000000E+00  0.45593999997E+02  0.45594000000E+02  0.51100000000E-03 0. -1.
         11   -1    0    0    0    0 -0.00000000000E+00 -0.00000000000E+00 -0.45593999997E+02  0.45594000000E+02  0.51100000000E-03 0.  1.
    9900012    2    1    2    0    0  0.16891430782E+02 -0.31424024360E+02  0.19503220179E+02  0.50528864025E+02  0.30000012692E+02 0.  0.
        -12    1    1    2    0    0 -0.16891430782E+02  0.31424024360E+02 -0.19503220179E+02  0.40659135975E+02  0.00000000000E+00 0.  1.
         11    1    3    3    0    0  0.35201494294E+01 -0.13340828970E+02  0.17170910052E+02  0.22027467442E+02  0.51100000000E-03 0. -1.
        -11    1    3    3    0    0  0.11826481313E+01  0.27894578504E-01  0.62164160634E+01  0.63279746874E+01  0.51100000000E-03 0.  1.
        -12    1    3    3    0    0  0.12188633221E+02 -0.18111089969E+02 -0.38841059369E+01  0.22173421896E+02  0.00000000000E+00 0.  1.
</event>
<event>
 7    1  0.2937071E-011  0.5052886E+02  0.7816164E-02  0.1300439E+00
        -11   -1    0    0    0    0  0.00000000000E+00  0.00000000000E+00  0.45593999997E+02  0.45594000000E+02  0.51100000000E-03 0.  1.
         11   -1    0    0    0    0 -0.00000000000E+00 -0.00000000000E+00 -0.45593999997E+02  0.45594000000E+02  0.51100000000E-03 0. -1.
    9900012    2    1    2    0    0  0.98709232467E+01 -0.44595621981E+01 -0.39189831716E+02  0.50528859199E+02  0.29999998021E+02 0.  0.
        -12    1    1    2    0    0 -0.98709232467E+01  0.44595621981E+01  0.39189831716E+02  0.40659140801E+02  0.00000000000E+00 0.  1.
         11    1    3    3    0    0 -0.48272643872E+01 -0.97556235253E+01 -0.24619655377E+02  0.26918434259E+02  0.51100000000E-03 0. -1.
        -11    1    3    3    0    0  0.78927559471E+01  0.50733330749E+01 -0.13897410958E+02  0.16768194194E+02  0.51100000000E-03 0.  1.
        -12    1    3    3    0    0  0.68054316869E+01  0.22272825225E+00 -0.67276538095E+00  0.68422307457E+01  0.00000000000E+00 0.  1.
</event>
<event>
 7    1  0.2937071E-011  0.5052887E+02  0.7816164E-02  0.1300439E+00
        -11   -1    0    0    0    0  0.00000000000E+00  0.00000000000E+00  0.45593999997E+02  0.45594000000E+02  0.51100000000E-03 0.  1.
         11   -1    0    0    0    0 -0.00000000000E+00 -0.00000000000E+00 -0.45593999997E+02  0.45594000000E+02  0.51100000000E-03 0. -1.
    9900012    2    1    2    0    0 -0.12870873437E+02 -0.36110029656E+02  0.13548860267E+02  0.50528865241E+02  0.30000016386E+02 0.  0.
        -12    1    1    2    0    0  0.12870873437E+02  0.36110029656E+02 -0.13548860267E+02  0.40659134759E+02  0.00000000000E+00 0.  1.
         11    1    3    3    0    0  0.13151974815E+01 -0.11106738918E+02 -0.58857761747E+01  0.12638502888E+02  0.51100000000E-03 0. -1.
        -11    1    3    3    0    0 -0.14506067105E+02 -0.11585412556E+02  0.78332947470E+01  0.20149646990E+02  0.51100000000E-03 0.  1.
         12    1    3    3    0    0  0.31999618670E+00 -0.13417878183E+02  0.11601341695E+02  0.17740715364E+02  0.00000000000E+00 0. -1.
</event>
<event>
 7    1  0.2937071E-011  0.5052886E+02  0.7816164E-02  0.1300439E+00
        -11   -1    0    0    0    0  0.00000000000E+00  0.00000000000E+00  0.45593999997E+02  0.45594000000E+02  0.51100000000E-03 0.  1.
         11   -1    0    0    0    0 -0.00000000000E+00 -0.00000000000E+00 -0.45593999997E+02  0.45594000000E+02  0.51100000000E-03 0. -1.
    9900012    2    1    2    0    0  0.94523346671E+01  0.19556702629E+02 -0.34370836625E+02  0.50528860084E+02  0.30000000713E+02 0.  0.
        -12    1    1    2    0    0 -0.94523346671E+01 -0.19556702629E+02  0.34370836625E+02  0.40659139916E+02  0.00000000000E+00 0.  1.
         11    1    3    3    0    0  0.57460417993E+01  0.90605008294E+01 -0.21190453742E+01  0.10936179644E+02  0.51100000000E-03 0.  1.
        -11    1    3    3    0    0  0.71415024222E+01  0.14955279244E+02 -0.28005426943E+02  0.32541748150E+02  0.51100000000E-03 0. -1.
         12    1    3    3    0    0 -0.34352095545E+01 -0.44590774447E+01 -0.42463643078E+01  0.70509322912E+01  0.00000000000E+00 0. -1.
</event>
<event>
 7    1  0.2937071E-011  0.5052886E+02  0.7816164E-02  0.1300439E+00
        -11   -1    0    0    0    0  0.00000000000E+00  0.00000000000E+00  0.45593999997E+02  0.45594000000E+02  0.51100000000E-03 0. -1.
         11   -1    0    0    0    0 -0.00000000000E+00 -0.00000000000E+00 -0.45593999997E+02  0.45594000000E+02  0.51100000000E-03 0.  1.
    9900012    2    1    2    0    0 -0.34401692320E+02  0.37132196142E+01  0.21351840833E+02  0.50528861527E+02  0.30000005099E+02 0.  0.
        -12    1    1    2    0    0  0.34401692320E+02 -0.37132196142E+01 -0.21351840833E+02  0.40659138473E+02  0.00000000000E+00 0.  1.
         11    1    3    3    0    0 -0.22912779613E+02  0.92719671128E+01  0.21045481874E+02  0.32463474110E+02  0.51100000000E-03 0. -1.
        -11    1    3    3    0    0 -0.54415722967E+01  0.39126823895E+01  0.11344456707E+01  0.67975554270E+01  0.51100000000E-03 0.  1.
        -12    1    3    3    0    0 -0.60473404101E+01 -0.94714298881E+01 -0.82808671164E+00  0.11267831990E+02  0.00000000000E+00 0.  1.
</event>
<event>
 7    1  0.2937071E-011  0.5052891E+02  0.7816164E-02  0.1300439E+00
        -11   -1    0    0    0    0  0.00000000000E+00  0.00000000000E+00  0.45593999997E+02  0.45594000000E+02  0.51100000000E-03 0. -1.
         11   -1    0    0    0    0 -0.00000000000E+00 -0.00000000000E+00 -0.45593999997E+02  0.45594000000E+02  0.51100000000E-03 0.  1.
    9900012    2    1    2    0    0 -0.18152886528E+02  0.32936147337E+02  0.15454585783E+02  0.50528913531E+02  0.30000163170E+02 0.  0.
        -12    1    1    2    0    0  0.18152886528E+02 -0.32936147337E+02 -0.15454585783E+02  0.40659086469E+02  0.00000000000E+00 0.  1.
         11    1    3    3    0    0 -0.13664942968E+02  0.26624525932E+02  0.17070079879E+02  0.34452629432E+02  0.51100000000E-03 0. -1.
        -11    1    3    3    0    0 -0.39110367770E+01  0.95998477664E+01 -0.48352051618E+01  0.11438203313E+02  0.51100000000E-03 0.  1.
        -12    1    3    3    0    0 -0.57690678334E+00 -0.32882263610E+01  0.32197110660E+01  0.46380807869E+01  0.00000000000E+00 0.  1.
</event>
<event>
 7    1  0.2937071E-011  0.5052886E+02  0.7816164E-02  0.1300439E+00
        -11   -1    0    0    0    0  0.00000000000E+00  0.00000000000E+00  0.45593999997E+02  0.45594000000E+02  0.51100000000E-03 0.  1.
         11   -1    0    0    0    0 -0.00000000000E+00 -0.00000000000E+00 -0.45593999997E+02  0.45594000000E+02  0.51100000000E-03 0. -1.
    9900012    2    1    2    0    0 -0.15778448399E+02  0.34171507634E+02 -0.15379016023E+02  0.50528862015E+02  0.30000006580E+02 0.  0.
        -12    1    1    2    0    0  0.15778448399E+02 -0.34171507634E+02  0.15379016023E+02  0.40659137985E+02  0.00000000000E+00 0.  1.
         11    1    3    3    0    0 -0.12046243247E+02  0.12870744935E+02 -0.13688600179E+00  0.17629146025E+02  0.51100000000E-03 0. -1.
        -11    1    3    3    0    0 -0.16807686050E+01  0.10491470148E+02  0.34829752002E+01  0.11181549333E+02  0.51100000000E-03 0.  1.
        -12    1    3    3    0    0 -0.20514365474E+01  0.10809292551E+02 -0.18725105222E+02  0.21718166657E+02  0.00000000000E+00 0.  1.
</event>
<event>
 7    1  0.2937071E-011  0.5052886E+02  0.7816164E-02  0.1300439E+00
        -11   -1    0    0    0    0  0.00000000000E+00  0.00000000000E+00  0.45593999997E+02  0.45594000000E+02  0.51100000000E-03 0.  1.
         11   -1    0    0    0    0 -0.00000000000E+00 -0.00000000000E+00 -0.45593999997E+02  0.45594000000E+02  0.51100000000E-03 0. -1.
    9900012    2    1    2    0    0 -0.31336298374E+02  0.12625520210E+02 -0.22622954035E+02  0.50528863196E+02  0.30000010170E+02 0.  0.
        -12    1    1    2    0    0  0.31336298374E+02 -0.12625520210E+02  0.22622954035E+02  0.40659136804E+02  0.00000000000E+00 0.  1.
         11    1    3    3    0    0 -0.11008627473E+02  0.11330598338E+01 -0.70906655870E+01  0.13143486682E+02  0.51100000000E-03 0. -1.
        -11    1    3    3    0    0 -0.24048629522E+02  0.11535079991E+02 -0.18637751562E+02  0.32538599168E+02  0.51100000000E-03 0.  1.
        -12    1    3    3    0    0  0.37209586211E+01 -0.42619614513E-01  0.31054631134E+01  0.48467773458E+01  0.00000000000E+00 0.  1.
</event>
<event>
 7    1  0.2937071E-011  0.5052886E+02  0.7816164E-02  0.1300439E+00
        -11   -1    0    0    0    0  0.00000000000E+00  0.00000000000E+00  0.45593999997E+02  0.45594000000E+02  0.51100000000E-03 0.  1.
         11   -1    0    0    0    0 -0.00000000000E+00 -0.00000000000E+00 -0.45593999997E+02  0.45594000000E+02  0.51100000000E-03 0. -1.
    9900012    2    1    2    0    0  0.33724848967E+02 -0.11493171188E+02 -0.19588455039E+02  0.50528855977E+02  0.29999988229E+02 0.  0.
        -12    1    1    2    0    0 -0.33724848967E+02  0.11493171188E+02  0.19588455039E+02  0.40659144023E+02  0.00000000000E+00 0.  1.
         11    1    3    3    0    0  0.17447163088E+02 -0.12069628222E+01 -0.10349688293E+02  0.20321818498E+02  0.51100000000E-03 0. -1.
        -11    1    3    3    0    0  0.60962625521E+01 -0.75918337643E+01 -0.15240436853E+02  0.18085111908E+02  0.51100000000E-03 0.  1.
        -12    1    3    3    0    0  0.10181423328E+02 -0.26943746020E+01  0.60016701067E+01  0.12121925571E+02  0.00000000000E+00 0.  1.
</event>
<event>
 7    1  0.2937071E-011  0.5052893E+02  0.7816164E-02  0.1300439E+00
        -11   -1    0    0    0    0  0.00000000000E+00  0.00000000000E+00  0.45593999997E+02  0.45594000000E+02  0.51100000000E-03 0. -1.
         11   -1    0    0    0    0 -0.00000000000E+00 -0.00000000000E+00 -0.45593999997E+02  0.45594000000E+02  0.51100000000E-03 0.  1.
    9900012    2    1    2    0    0  0.34058831160E+02  0.66458381100E+01  0.21189353512E+02  0.50528931560E+02  0.30000217970E+02 0.  0.
        -12    1    1    2    0    0 -0.34058831160E+02 -0.66458381100E+01 -0.21189353512E+02  0.40659068440E+02  0.00000000000E+00 0.  1.
         11    1    3    3    0    0  0.14678551083E+02  0.95300628283E+01  0.23259574038E+02  0.29108241858E+02  0.51100000000E-03 0.  1.
        -11    1    3    3    0    0  0.67061412363E+01  0.16093283347E+01 -0.37812512958E+01  0.78651210794E+01  0.51100000000E-03 0. -1.
        -12    1    3    3    0    0  0.12674138840E+02 -0.44935530530E+01  0.17110307697E+01  0.13555568623E+02  0.00000000000E+00 0.  1.
</event>
<event>
 7    1  0.2937071E-011  0.5052886E+02  0.7816164E-02  0.1300439E+00
        -11   -1    0    0    0    0  0.00000000000E+00  0.00000000000E+00  0.45593999997E+02  0.45594000000E+02  0.51100000000E-03 0. -1.
         11   -1    0    0    0    0 -0.00000000000E+00 -0.00000000000E+00 -0.45593999997E+02  0.45594000000E+02  0.51100000000E-03 0.  1.
    9900012    2    1    2    0    0 -0.31646865986E+02  0.24788244048E+02  0.60978880176E+01  0.50528863167E+02  0.30000010083E+02 0.  0.
        -12    1    1    2    0    0  0.31646865986E+02 -0.24788244048E+02 -0.60978880176E+01  0.40659136833E+02  0.00000000000E+00 0.  1.
         11    1    3    3    0    0 -0.24368767726E+02  0.62646955218E+01  0.55300776661E+00  0.25167222102E+02  0.51100000000E-03 0. -1.
        -11    1    3    3    0    0 -0.54393168468E+01  0.21189781340E+01 -0.32252621864E+01  0.66692242820E+01  0.51100000000E-03 0.  1.
        -12    1    3    3    0    0 -0.18387814129E+01  0.16404570392E+02  0.87701424374E+01  0.18692416783E+02  0.00000000000E+00 0.  1.
</event>
<event>
 7    1  0.2937071E-011  0.5052886E+02  0.7816164E-02  0.1300439E+00
        -11   -1    0    0    0    0  0.00000000000E+00  0.00000000000E+00  0.45593999997E+02  0.45594000000E+02  0.51100000000E-03 0.  1.
         11   -1    0    0    0    0 -0.00000000000E+00 -0.00000000000E+00 -0.45593999997E+02  0.45594000000E+02  0.51100000000E-03 0. -1.
    9900012    2    1    2    0    0 -0.29307772558E+02  0.10724574884E+02 -0.26061530521E+02  0.50528863120E+02  0.30000009939E+02 0.  0.
        -12    1    1    2    0    0  0.29307772558E+02 -0.10724574884E+02  0.26061530521E+02  0.40659136880E+02  0.00000000000E+00 0.  1.
         11    1    3    3    0    0 -0.37781928813E+01  0.18321248683E+00 -0.46513989869E+01  0.59953165938E+01  0.51100000000E-03 0. -1.
        -11    1    3    3    0    0 -0.67351655053E+01 -0.81733141095E+01 -0.23313364839E+00  0.10593388007E+02  0.51100000000E-03 0.  1.
        -12    1    3    3    0    0 -0.18794414171E+02  0.18714676507E+02 -0.21176997886E+02  0.33940158518E+02  0.00000000000E+00 0.  1.
</event>
<event>
 7    1  0.2937071E-011  0.5052885E+02  0.7816164E-02  0.1300439E+00
        -11   -1    0    0    0    0  0.00000000000E+00  0.00000000000E+00  0.45593999997E+02  0.45594000000E+02  0.51100000000E-03 0. -1.
         11   -1    0    0    0    0 -0.00000000000E+00 -0.00000000000E+00 -0.45593999997E+02  0.45594000000E+02  0.51100000000E-03 0.  1.
    9900012    2    1    2    0    0  0.21674459403E+02  0.17862855787E+02  0.29399022639E+02  0.50528851713E+02  0.29999975268E+02 0.  0.
        -12    1    1    2    0    0 -0.21674459403E+02 -0.17862855787E+02 -0.29399022639E+02  0.40659148287E+02  0.00000000000E+00 0.  1.
         11    1    3    3    0    0  0.80731570579E+01  0.62182302246E+00  0.10291168992E+02  0.13094681678E+02  0.51100000000E-03 0. -1.
        -11    1    3    3    0    0  0.25212134965E+01 -0.59149098670E+01  0.49807445018E+01  0.81332952905E+01  0.51100000000E-03 0.  1.
         12    1    3    3    0    0  0.11080088848E+02  0.23155942632E+02  0.14127109145E+02  0.29300874745E+02  0.00000000000E+00 0. -1.
</event>
<event>
 7    1  0.2937071E-011  0.5052886E+02  0.7816164E-02  0.1300439E+00
        -11   -1    0    0    0    0  0.00000000000E+00  0.00000000000E+00  0.45593999997E+02  0.45594000000E+02  0.51100000000E-03 0.  1.
         11   -1    0    0    0    0 -0.00000000000E+00 -0.00000000000E+00 -0.45593999997E+02  0.45594000000E+02  0.51100000000E-03 0. -1.
    9900012    2    1    2    0    0  0.17085134995E+02 -0.16571015911E+02 -0.32964611777E+02  0.50528855448E+02  0.29999986619E+02 0.  0.
        -12    1    1    2    0    0 -0.17085134995E+02  0.16571015911E+02  0.32964611777E+02  0.40659144552E+02  0.00000000000E+00 0.  1.
         11    1    3    3    0    0  0.15088663104E+01 -0.60988337981E+00 -0.34673547739E+01  0.38302982480E+01  0.51100000000E-03 0. -1.
        -11    1    3    3    0    0  0.97548964570E+01 -0.20811849031E+02 -0.87207493066E+01  0.24583379216E+02  0.51100000000E-03 0.  1.
        -12    1    3    3    0    0  0.58213722272E+01  0.48507164995E+01 -0.20776507697E+02  0.22115177983E+02  0.00000000000E+00 0.  1.
</event>
<event>
 7    1  0.2937071E-011  0.5052886E+02  0.7816164E-02  0.1300439E+00
        -11   -1    0    0    0    0  0.00000000000E+00  0.00000000000E+00  0.45593999997E+02  0.45594000000E+02  0.51100000000E-03 0.  1.
         11   -1    0    0    0    0 -0.00000000000E+00 -0.00000000000E+00 -0.45593999997E+02  0.45594000000E+02  0.51100000000E-03 0. -1.
    9900012    2    1    2    0    0  0.33293585519E+01 -0.34193421533E+02 -0.21746047580E+02  0.50528864620E+02  0.30000014498E+02 0.  0.
        -12    1    1    2    0    0 -0.33293585519E+01  0.34193421533E+02  0.21746047580E+02  0.40659135380E+02  0.00000000000E+00 0.  1.
         11    1    3    3    0    0  0.15105101054E+01 -0.10058447173E+02  0.32777263480E+01  0.10686322594E+02  0.51100000000E-03 0. -1.
        -11    1    3    3    0    0 -0.26992591227E+01  0.87295575931E+00  0.14154762894E+01  0.31704297747E+01  0.51100000000E-03 0.  1.
         12    1    3    3    0    0  0.45181075693E+01 -0.25007930120E+02 -0.26439250217E+02  0.36672112251E+02  0.00000000000E+00 0. -1.
</event>
<event>
 7    1  0.2937071E-011  0.5052886E+02  0.7816164E-02  0.1300439E+00
        -11   -1    0    0    0    0  0.00000000000E+00  0.00000000000E+00  0.45593999997E+02  0.45594000000E+02  0.51100000000E-03 0. -1.
         11   -1    0    0    0    0 -0.00000000000E+00 -0.00000000000E+00 -0.45593999997E+02  0.45594000000E+02  0.51100000000E-03 0.  1.
    9900012    2    1    2    0    0  0.13445720744E+01 -0.34254089567E+02  0.21863553673E+02  0.50528861970E+02  0.30000006444E+02 0.  0.
        -12    1    1    2    0    0 -0.13445720744E+01  0.34254089567E+02 -0.21863553673E+02  0.40659138030E+02  0.00000000000E+00 0.  1.
         11    1    3    3    0    0  0.44378126152E+01  0.24865805301E+01  0.10082807412E+01  0.51859323033E+01  0.51100000000E-03 0. -1.
        -11    1    3    3    0    0  0.53038851480E+01 -0.92840124830E+01  0.16972151796E+01  0.10826108492E+02  0.51100000000E-03 0.  1.
         12    1    3    3    0    0 -0.83971256888E+01 -0.27456657614E+02  0.19158057752E+02  0.34516821175E+02  0.00000000000E+00 0. -1.
</event>
<event>
 7    1  0.2937071E-011  0.5052886E+02  0.7816164E-02  0.1300439E+00
        -11   -1    0    0    0    0  0.00000000000E+00  0.00000000000E+00  0.45593999997E+02  0.45594000000E+02  0.51100000000E-03 0.  1.
         11   -1    0    0    0    0 -0.00000000000E+00 -0.00000000000E+00 -0.45593999997E+02  0.45594000000E+02  0.51100000000E-03 0. -1.
    9900012    2    1    2    0    0  0.30687800614E+02 -0.23800618734E+02  0.12039722144E+02  0.50528862430E+02  0.30000007842E+02 0.  0.
        -12    1    1    2    0    0 -0.30687800614E+02  0.23800618734E+02 -0.12039722144E+02  0.40659137570E+02  0.00000000000E+00 0.  1.
         11    1    3    3    0    0  0.13879654684E+02 -0.13848150997E+02  0.16343082626E+01  0.19674528303E+02  0.51100000000E-03 0. -1.
        -11    1    3    3    0    0  0.14568571408E+01 -0.24843495340E+01 -0.63260914199E+01  0.69508170922E+01  0.51100000000E-03 0.  1.
         12    1    3    3    0    0  0.15351288789E+02 -0.74681182037E+01  0.16731505302E+02  0.23903517035E+02  0.00000000000E+00 0. -1.
</event>
<event>
 7    1  0.2937071E-011  0.5052886E+02  0.7816164E-02  0.1300439E+00
        -11   -1    0    0    0    0  0.00000000000E+00  0.00000000000E+00  0.45593999997E+02  0.45594000000E+02  0.51100000000E-03 0.  1.
         11   -1    0    0    0    0 -0.00000000000E+00 -0.00000000000E+00 -0.45593999997E+02  0.45594000000E+02  0.51100000000E-03 0. -1.
    9900012    2    1    2    0    0  0.23379578167E+02  0.12554298085E+02 -0.30805046629E+02  0.50528856213E+02  0.29999988945E+02 0.  0.
        -12    1    1    2    0    0 -0.23379578167E+02 -0.12554298085E+02  0.30805046629E+02  0.40659143787E+02  0.00000000000E+00 0.  1.
         11    1    3    3    0    0  0.37519396504E+01  0.11817747430E+02 -0.55962963067E+01  0.13603482572E+02  0.51100000000E-03 0. -1.
        -11    1    3    3    0    0 -0.21143620258E+01  0.23697860104E+01  0.50105683860E+00  0.32151937310E+01  0.51100000000E-03 0.  1.
         12    1    3    3    0    0  0.21742000542E+02 -0.16332353556E+01 -0.25709807161E+02  0.33710179910E+02  0.00000000000E+00 0. -1.
</event>
<event>
 7    1  0.2937071E-011  0.5052885E+02  0.7816164E-02  0.1300439E+00
        -11   -1    0    0    0    0  0.00000000000E+00  0.00000000000E+00  0.45593999997E+02  0.45594000000E+02  0.51100000000E-03 0.  1.
         11   -1    0    0    0    0 -0.00000000000E+00 -0.00000000000E+00 -0.45593999997E+02  0.45594000000E+02  0.51100000000E-03 0. -1.
    9900012    2    1    2    0    0 -0.18033468325E+01 -0.14664794464E+02 -0.37879518212E+02  0.50528853964E+02  0.29999982108E+02 0.  0.
        -12    1    1    2    0    0  0.18033468325E+01  0.14664794464E+02  0.37879518212E+02  0.40659146036E+02  0.00000000000E+00 0.  1.
         11    1    3    3    0    0 -0.30698303902E+01 -0.92901795388E+01 -0.13854642892E+02  0.16961203507E+02  0.51100000000E-03 0. -1.
        -11    1    3    3    0    0 -0.33597217642E+01  0.56119705908E+01 -0.19909552621E+02  0.20956436483E+02  0.51100000000E-03 0.  1.
         12    1    3    3    0    0  0.46262053219E+01 -0.10986585516E+02 -0.41153226993E+01  0.12611213974E+02  0.00000000000E+00 0. -1.
</event>
<event>
 7    1  0.2937071E-011  0.5052885E+02  0.7816164E-02  0.1300439E+00
        -11   -1    0    0    0    0  0.00000000000E+00  0.00000000000E+00  0.45593999997E+02  0.45594000000E+02  0.51100000000E-03 0.  1.
         11   -1    0    0    0    0 -0.00000000000E+00 -0.00000000000E+00 -0.45593999997E+02  0.45594000000E+02  0.51100000000E-03 0. -1.
    9900012    2    1    2    0    0  0.48886104727E+01  0.13778651294E+02 -0.37939640866E+02  0.50528854745E+02  0.29999984481E+02 0.  0.
        -12    1    1    2    0    0 -0.48886104727E+01 -0.13778651294E+02  0.37939640866E+02  0.40659145255E+02  0.00000000000E+00 0.  1.
         11    1    3    3    0    0 -0.88115984683E-01  0.28413003681E+01  0.11021878131E+01  0.30488637957E+01  0.51100000000E-03 0. -1.
        -11    1    3    3    0    0  0.89336643649E+01 -0.94013257468E+00 -0.32351233972E+01  0.95477867539E+01  0.51100000000E-03 0.  1.
         12    1    3    3    0    0 -0.39569379075E+01  0.11877483501E+02 -0.35806705282E+02  0.37932204195E+02  0.00000000000E+00 0. -1.
</event>
<event>
 7    1  0.2937071E-011  0.5052886E+02  0.7816164E-02  0.1300439E+00
        -11   -1    0    0    0    0  0.00000000000E+00  0.00000000000E+00  0.45593999997E+02  0.45594000000E+02  0.51100000000E-03 0.  1.
         11   -1    0    0    0    0 -0.00000000000E+00 -0.00000000000E+00 -0.45593999997E+02  0.45594000000E+02  0.51100000000E-03 0. -1.
    9900012    2    1    2    0    0  0.23349398845E+01  0.39838560618E+02 -0.77847794242E+01  0.50528860227E+02  0.30000001146E+02 0.  0.
        -12    1    1    2    0    0 -0.23349398845E+01 -0.39838560618E+02  0.77847794242E+01  0.40659139773E+02  0.00000000000E+00 0.  1.
         11    1    3    3    0    0  0.53230917339E+01  0.65550026257E+01 -0.90868146423E+01  0.12404578414E+02  0.51100000000E-03 0. -1.
        -11    1    3    3    0    0  0.52043957907E+01  0.80218839222E+01  0.58078554806E+01  0.11187830118E+02  0.51100000000E-03 0.  1.
        -12    1    3    3    0    0 -0.81925476401E+01  0.25261674070E+02 -0.45058202625E+01  0.26936451695E+02  0.00000000000E+00 0.  1.
</event>
<event>
 7    1  0.2937071E-011  0.5052886E+02  0.7816164E-02  0.1300439E+00
        -11   -1    0    0    0    0  0.00000000000E+00  0.00000000000E+00  0.45593999997E+02  0.45594000000E+02  0.51100000000E-03 0.  1.
         11   -1    0    0    0    0 -0.00000000000E+00 -0.00000000000E+00 -0.45593999997E+02  0.45594000000E+02  0.51100000000E-03 0. -1.
    9900012    2    1    2    0    0 -0.34729395850E+02  0.20941280899E+02 -0.29150910807E+01  0.50528856652E+02  0.29999990279E+02 0.  0.
        -12    1    1    2    0    0  0.34729395850E+02 -0.20941280899E+02  0.29150910807E+01  0.40659143348E+02  0.00000000000E+00 0.  1.
         11    1    3    3    0    0 -0.11955170060E+02  0.25750190487E+01 -0.15095127715E+01  0.12322152545E+02  0.51100000000E-03 0. -1.
        -11    1    3    3    0    0 -0.19500456690E+02  0.98156754514E+01  0.96354137547E+01  0.23863287581E+02  0.51100000000E-03 0.  1.
        -12    1    3    3    0    0 -0.32737690999E+01  0.85505863984E+01 -0.11040992064E+02  0.14343416526E+02  0.00000000000E+00 0.  1.
</event>
<event>
 7    1  0.2937071E-011  0.5052886E+02  0.7816164E-02  0.1300439E+00
        -11   -1    0    0    0    0  0.00000000000E+00  0.00000000000E+00  0.45593999997E+02  0.45594000000E+02  0.51100000000E-03 0. -1.
         11   -1    0    0    0    0 -0.00000000000E+00 -0.00000000000E+00 -0.45593999997E+02  0.45594000000E+02  0.51100000000E-03 0.  1.
    9900012    2    1    2    0    0  0.31519463135E+02  0.23814289837E+02  0.96212622382E+01  0.50528860268E+02  0.30000001269E+02 0.  0.
        -12    1    1    2    0    0 -0.31519463135E+02 -0.23814289837E+02 -0.96212622382E+01  0.40659139732E+02  0.00000000000E+00 0.  1.
         11    1    3    3    0    0  0.69716704434E+01  0.48571178095E+01  0.63952946942E+01  0.10634640411E+02  0.51100000000E-03 0. -1.
        -11    1    3    3    0    0  0.21213133679E+02  0.12310317067E+02  0.12884373562E+02  0.27704657174E+02  0.51100000000E-03 0.  1.
        -12    1    3    3    0    0  0.33346590126E+01  0.66468549601E+01 -0.96584060179E+01  0.12189562683E+02  0.00000000000E+00 0.  1.
</event>
<event>
 7    1  0.2937071E-011  0.5052886E+02  0.7816164E-02  0.1300439E+00
        -11   -1    0    0    0    0  0.00000000000E+00  0.00000000000E+00  0.45593999997E+02  0.45594000000E+02  0.51100000000E-03 0.  1.
         11   -1    0    0    0    0 -0.00000000000E+00 -0.00000000000E+00 -0.45593999997E+02  0.45594000000E+02  0.51100000000E-03 0. -1.
    9900012    2    1    2    0    0  0.87808128538E+01 -0.30732854200E+02 -0.25130751310E+02  0.50528860030E+02  0.30000000548E+02 0.  0.
        -12    1    1    2    0    0 -0.87808128538E+01  0.30732854200E+02  0.25130751310E+02  0.40659139970E+02  0.00000000000E+00 0.  1.
         11    1    3    3    0    0 -0.41719035315E+01  0.21412921495E+01 -0.18519788255E+01  0.50417989822E+01  0.51100000000E-03 0. -1.
        -11    1    3    3    0    0  0.28479120163E+01 -0.82884002635E+01 -0.15474210458E+02  0.17783682727E+02  0.51100000000E-03 0.  1.
         12    1    3    3    0    0  0.10104804369E+02 -0.24585746086E+02 -0.78045620264E+01  0.27703378321E+02  0.00000000000E+00 0. -1.
</event>
<event>
 7    1  0.2937071E-011  0.5052886E+02  0.7816164E-02  0.1300439E+00
        -11   -1    0    0    0    0  0.00000000000E+00  0.00000000000E+00  0.45593999997E+02  0.45594000000E+02  0.51100000000E-03 0. -1.
         11   -1    0    0    0    0 -0.00000000000E+00 -0.00000000000E+00 -0.45593999997E+02  0.45594000000E+02  0.51100000000E-03 0.  1.
    9900012    2    1    2    0    0  0.29011710938E+02  0.21890561392E+02  0.18228813346E+02  0.50528859754E+02  0.29999999707E+02 0.  0.
        -12    1    1    2    0    0 -0.29011710938E+02 -0.21890561392E+02 -0.18228813346E+02  0.40659140246E+02  0.00000000000E+00 0.  1.
         11    1    3    3    0    0  0.68858658815E+01  0.46170942099E+01  0.17072454647E+02  0.18978972992E+02  0.51100000000E-03 0. -1.
        -11    1    3    3    0    0  0.91393234049E+01  0.76149460971E+01  0.76147351504E+01  0.14124405405E+02  0.51100000000E-03 0.  1.
        -12    1    3    3    0    0  0.12986521651E+02  0.96585210848E+01 -0.64583764516E+01  0.17425481357E+02  0.00000000000E+00 0.  1.
</event>
<event>
 7    1  0.2937071E-011  0.5052886E+02  0.7816164E-02  0.1300439E+00
        -11   -1    0    0    0    0  0.00000000000E+00  0.00000000000E+00  0.45593999997E+02  0.45594000000E+02  0.51100000000E-03 0.  1.
         11   -1    0    0    0    0 -0.00000000000E+00 -0.00000000000E+00 -0.45593999997E+02  0.45594000000E+02  0.51100000000E-03 0. -1.
    9900012    2    1    2    0    0 -0.28057804134E+02 -0.50513785165E+01 -0.28989807449E+02  0.50528859162E+02  0.29999997909E+02 0.  0.
        -12    1    1    2    0    0  0.28057804134E+02  0.50513785165E+01  0.28989807449E+02  0.40659140838E+02  0.00000000000E+00 0.  1.
         11    1    3    3    0    0 -0.16664244204E+02  0.26916670040E+01 -0.12970298167E+02  0.21287807331E+02  0.51100000000E-03 0. -1.
        -11    1    3    3    0    0 -0.29492098568E+01 -0.58439911383E+01 -0.18992895495E+02  0.20089304387E+02  0.51100000000E-03 0.  1.
         12    1    3    3    0    0 -0.84443500726E+01 -0.18990543822E+01  0.29733862136E+01  0.91517474435E+01  0.00000000000E+00 0. -1.
</event>
<event>
 7    1  0.2937071E-011  0.5052887E+02  0.7816164E-02  0.1300439E+00
        -11   -1    0    0    0    0  0.00000000000E+00  0.00000000000E+00  0.45593999997E+02  0.45594000000E+02  0.51100000000E-03 0.  1.
         11   -1    0    0    0    0 -0.00000000000E+00 -0.00000000000E+00 -0.45593999997E+02  0.45594000000E+02  0.51100000000E-03 0. -1.
    9900012    2    1    2    0    0 -0.39347082438E+02  0.99854097490E+01 -0.22942442178E+01  0.50528869896E+02  0.30000030537E+02 0.  0.
        -12    1    1    2    0    0  0.39347082438E+02 -0.99854097490E+01  0.22942442178E+01  0.40659130104E+02  0.00000000000E+00 0.  1.
         11    1    3    3    0    0 -0.80400027519E+01  0.70599984567E+01 -0.12146712880E+01  0.10768502638E+02  0.51100000000E-03 0. -1.
        -11    1    3    3    0    0 -0.13486146669E+02  0.11852621180E+02  0.54878484545E+01  0.18774377799E+02  0.51100000000E-03 0.  1.
         12    1    3    3    0    0 -0.17820933017E+02 -0.89272098873E+01 -0.65674213843E+01  0.20985989460E+02  0.00000000000E+00 0. -1.
</event>
<event>
 7    1  0.2937071E-011  0.5052885E+02  0.7816164E-02  0.1300439E+00
        -11   -1    0    0    0    0  0.00000000000E+00  0.00000000000E+00  0.45593999997E+02  0.45594000000E+02  0.51100000000E-03 0.  1.
         11   -1    0    0    0    0 -0.00000000000E+00 -0.00000000000E+00 -0.45593999997E+02  0.45594000000E+02  0.51100000000E-03 0. -1.
    9900012    2    1    2    0    0 -0.34773844440E+02 -0.14940167057E+02 -0.14857246340E+02  0.50528848292E+02  0.29999964869E+02 0.  0.
        -12    1    1    2    0    0  0.34773844440E+02  0.14940167057E+02  0.14857246340E+02  0.40659151708E+02  0.00000000000E+00 0.  1.
         11    1    3    3    0    0 -0.40106992430E+01 -0.78382697095E+01 -0.61715592559E+01  0.10752317163E+02  0.51100000000E-03 0. -1.
        -11    1    3    3    0    0 -0.11973455516E+02 -0.14333499925E+02 -0.38069335317E+01  0.19060577123E+02  0.51100000000E-03 0.  1.
         12    1    3    3    0    0 -0.18789689681E+02  0.72316025783E+01 -0.48787535528E+01  0.20715954006E+02  0.00000000000E+00 0. -1.
</event>
<event>
 7    1  0.2937071E-011  0.5052886E+02  0.7816164E-02  0.1300439E+00
        -11   -1    0    0    0    0  0.00000000000E+00  0.00000000000E+00  0.45593999997E+02  0.45594000000E+02  0.51100000000E-03 0.  1.
         11   -1    0    0    0    0 -0.00000000000E+00 -0.00000000000E+00 -0.45593999997E+02  0.45594000000E+02  0.51100000000E-03 0. -1.
    9900012    2    1    2    0    0 -0.25579664077E+02  0.21361473382E+02 -0.23292355240E+02  0.50528861150E+02  0.30000003952E+02 0.  0.
        -12    1    1    2    0    0  0.25579664077E+02 -0.21361473382E+02  0.23292355240E+02  0.40659138850E+02  0.00000000000E+00 0.  1.
         11    1    3    3    0    0 -0.54695417109E+01  0.53146236098E+01 -0.10465405322E+02  0.12949355948E+02  0.51100000000E-03 0. -1.
        -11    1    3    3    0    0 -0.14377554373E+02 -0.11283821565E+01 -0.13081847724E+02  0.19471056884E+02  0.51100000000E-03 0.  1.
         12    1    3    3    0    0 -0.57325679933E+01  0.17175231929E+02  0.25489780574E+00  0.18108448318E+02  0.00000000000E+00 0. -1.
</event>
<event>
 7    1  0.2937071E-011  0.5052886E+02  0.7816164E-02  0.1300439E+00
        -11   -1    0    0    0    0  0.00000000000E+00  0.00000000000E+00  0.45593999997E+02  0.45594000000E+02  0.51100000000E-03 0.  1.
         11   -1    0    0    0    0 -0.00000000000E+00 -0.00000000000E+00 -0.45593999997E+02  0.45594000000E+02  0.51100000000E-03 0. -1.
    9900012    2    1    2    0    0  0.21019427988E+02 -0.27357215940E+02 -0.21515859442E+02  0.50528858046E+02  0.29999994517E+02 0.  0.
        -12    1    1    2    0    0 -0.21019427988E+02  0.27357215940E+02  0.21515859442E+02  0.40659141954E+02  0.00000000000E+00 0.  1.
         11    1    3    3    0    0  0.30654532236E+01 -0.95475107962E+01  0.10617673334E+01  0.10083616216E+02  0.51100000000E-03 0. -1.
        -11    1    3    3    0    0 -0.38395912826E+01 -0.37239066975E+01  0.93261332583E+00  0.54295220955E+01  0.51100000000E-03 0.  1.
         12    1    3    3    0    0  0.21793566047E+02 -0.14085798446E+02 -0.23510240101E+02  0.35015719734E+02  0.00000000000E+00 0. -1.
</event>
<event>
 7    1  0.2937071E-011  0.5052883E+02  0.7816164E-02  0.1300439E+00
        -11   -1    0    0    0    0  0.00000000000E+00  0.00000000000E+00  0.45593999997E+02  0.45594000000E+02  0.51100000000E-03 0.  1.
         11   -1    0    0    0    0 -0.00000000000E+00 -0.00000000000E+00 -0.45593999997E+02  0.45594000000E+02  0.51100000000E-03 0. -1.
    9900012    2    1    2    0    0  0.18248159811E+02  0.28433997967E+02 -0.22620360431E+02  0.50528827813E+02  0.29999902621E+02 0.  0.
        -12    1    1    2    0    0 -0.18248159811E+02 -0.28433997967E+02  0.22620360431E+02  0.40659172187E+02  0.00000000000E+00 0.  1.
         11    1    3    3    0    0  0.37636349859E+01  0.58531779783E+01  0.95455646723E+00  0.70239461176E+01  0.51100000000E-03 0.  1.
        -11    1    3    3    0    0  0.13103139285E+02  0.59940893903E+01 -0.22637608777E+02  0.26834356675E+02  0.51100000000E-03 0. -1.
         12    1    3    3    0    0  0.13813855401E+01  0.16586730599E+02 -0.93730812097E+00  0.16670525021E+02  0.00000000000E+00 0. -1.
</event>
<event>
 7    1  0.2937071E-011  0.5052887E+02  0.7816164E-02  0.1300439E+00
        -11   -1    0    0    0    0  0.00000000000E+00  0.00000000000E+00  0.45593999997E+02  0.45594000000E+02  0.51100000000E-03 0.  1.
         11   -1    0    0    0    0 -0.00000000000E+00 -0.00000000000E+00 -0.45593999997E+02  0.45594000000E+02  0.51100000000E-03 0. -1.
    9900012    2    1    2    0    0 -0.31828235742E+01  0.12994899912E+02 -0.38394885739E+02  0.50528867686E+02  0.30000023819E+02 0.  0.
        -12    1    1    2    0    0  0.31828235742E+01 -0.12994899912E+02  0.38394885739E+02  0.40659132314E+02  0.00000000000E+00 0.  1.
         11    1    3    3    0    0  0.85859087378E+00  0.11195977672E+02 -0.13312812557E+02  0.17416029190E+02  0.51100000000E-03 0. -1.
        -11    1    3    3    0    0  0.38350197026E+00 -0.33848060813E+01 -0.26012085246E+02  0.26234186952E+02  0.51100000000E-03 0.  1.
         12    1    3    3    0    0 -0.44249164183E+01  0.51837283216E+01  0.93001206364E+00  0.68786515437E+01  0.00000000000E+00 0. -1.
</event>
<event>
 7    1  0.2937071E-011  0.5052886E+02  0.7816164E-02  0.1300439E+00
        -11   -1    0    0    0    0  0.00000000000E+00  0.00000000000E+00  0.45593999997E+02  0.45594000000E+02  0.51100000000E-03 0. -1.
         11   -1    0    0    0    0 -0.00000000000E+00 -0.00000000000E+00 -0.45593999997E+02  0.45594000000E+02  0.51100000000E-03 0.  1.
    9900012    2    1    2    0    0  0.38233587009E+02  0.10148794234E+02  0.94000380726E+01  0.50528856924E+02  0.29999991105E+02 0.  0.
        -12    1    1    2    0    0 -0.38233587009E+02 -0.10148794234E+02 -0.94000380726E+01  0.40659143076E+02  0.00000000000E+00 0.  1.
         11    1    3    3    0    0  0.24966137986E+02 -0.77189915680E+00 -0.11823725246E+01  0.25006036857E+02  0.51100000000E-03 0. -1.
        -11    1    3    3    0    0  0.37403199415E+01 -0.15692311873E+01  0.88294647465E+01  0.97165800442E+01  0.51100000000E-03 0.  1.
        -12    1    3    3    0    0  0.95271290812E+01  0.12489924578E+02  0.17529458508E+01  0.15806240023E+02  0.00000000000E+00 0.  1.
</event>
<event>
 7    1  0.2937071E-011  0.5052887E+02  0.7816164E-02  0.1300439E+00
        -11   -1    0    0    0    0  0.00000000000E+00  0.00000000000E+00  0.45593999997E+02  0.45594000000E+02  0.51100000000E-03 0.  1.
         11   -1    0    0    0    0 -0.00000000000E+00 -0.00000000000E+00 -0.45593999997E+02  0.45594000000E+02  0.51100000000E-03 0. -1.
    9900012    2    1    2    0    0 -0.14248160946E+02 -0.56590525905E+01 -0.37658060455E+02  0.50528874533E+02  0.30000044629E+02 0.  0.
        -12    1    1    2    0    0  0.14248160946E+02  0.56590525905E+01  0.37658060455E+02  0.40659125467E+02  0.00000000000E+00 0.  1.
         11    1    3    3    0    0 -0.35228248227E+01  0.88452346575E+01 -0.19809236648E+02  0.21978496940E+02  0.51100000000E-03 0. -1.
        -11    1    3    3    0    0 -0.25289098703E+01  0.17868533298E+01 -0.93661139829E-01  0.30979029399E+01  0.51100000000E-03 0.  1.
         12    1    3    3    0    0 -0.81964262530E+01 -0.16291140578E+02 -0.17755162667E+02  0.25452474653E+02  0.00000000000E+00 0. -1.
</event>
<event>
 7    1  0.2937071E-011  0.5052886E+02  0.7816164E-02  0.1300439E+00
        -11   -1    0    0    0    0  0.00000000000E+00  0.00000000000E+00  0.45593999997E+02  0.45594000000E+02  0.51100000000E-03 0.  1.
         11   -1    0    0    0    0 -0.00000000000E+00 -0.00000000000E+00 -0.45593999997E+02  0.45594000000E+02  0.51100000000E-03 0. -1.
    9900012    2    1    2    0    0 -0.28033803155E+02  0.29437695598E+02 -0.83298176324E+00  0.50528857116E+02  0.29999991689E+02 0.  0.
        -12    1    1    2    0    0  0.28033803155E+02 -0.29437695598E+02  0.83298176324E+00  0.40659142884E+02  0.00000000000E+00 0.  1.
         11    1    3    3    0    0 -0.16511875023E+01  0.42322726316E+01  0.11617434715E+01  0.46891577016E+01  0.51100000000E-03 0. -1.
        -11    1    3    3    0    0 -0.20039325683E+02  0.31077677578E+00  0.33176358322E+00  0.20044481120E+02  0.51100000000E-03 0.  1.
        -12    1    3    3    0    0 -0.63432899691E+01  0.24894646191E+02 -0.23264888180E+01  0.25795218294E+02  0.00000000000E+00 0.  1.
</event>
<event>
 7    1  0.2937071E-011  0.5052886E+02  0.7816164E-02  0.1300439E+00
        -11   -1    0    0    0    0  0.00000000000E+00  0.00000000000E+00  0.45593999997E+02  0.45594000000E+02  0.51100000000E-03 0.  1.
         11   -1    0    0    0    0 -0.00000000000E+00 -0.00000000000E+00 -0.45593999997E+02  0.45594000000E+02  0.51100000000E-03 0. -1.
    9900012    2    1    2    0    0  0.28559303347E+02  0.28480019077E+02  0.51400755851E+01  0.50528859929E+02  0.30000000241E+02 0.  0.
        -12    1    1    2    0    0 -0.28559303347E+02 -0.28480019077E+02 -0.51400755851E+01  0.40659140071E+02  0.00000000000E+00 0.  1.
         11    1    3    3    0    0  0.13092169646E+02  0.23312812988E+02 -0.52866195459E+01  0.27255100476E+02  0.51100000000E-03 0. -1.
        -11    1    3    3    0    0  0.66417549198E+01  0.83830517493E+00 -0.24017162046E+01  0.71122362847E+01  0.51100000000E-03 0.  1.
        -12    1    3    3    0    0  0.88253787809E+01  0.43289009139E+01  0.12828411336E+02  0.16161523169E+02  0.00000000000E+00 0.  1.
</event>
<event>
 7    1  0.2937071E-011  0.5052886E+02  0.7816164E-02  0.1300439E+00
        -11   -1    0    0    0    0  0.00000000000E+00  0.00000000000E+00  0.45593999997E+02  0.45594000000E+02  0.51100000000E-03 0.  1.
         11   -1    0    0    0    0 -0.00000000000E+00 -0.00000000000E+00 -0.45593999997E+02  0.45594000000E+02  0.51100000000E-03 0. -1.
    9900012    2    1    2    0    0  0.38974083528E+02  0.11432964586E+02 -0.18638532422E+01  0.50528858162E+02  0.29999994868E+02 0.  0.
        -12    1    1    2    0    0 -0.38974083528E+02 -0.11432964586E+02  0.18638532422E+01  0.40659141838E+02  0.00000000000E+00 0.  1.
         11    1    3    3    0    0  0.15207314465E+02  0.49472046675E+01 -0.18502122828E+01  0.16098463685E+02  0.51100000000E-03 0. -1.
        -11    1    3    3    0    0  0.98367278126E+01 -0.56425466871E+01  0.84216836129E+01  0.14125307158E+02  0.51100000000E-03 0.  1.
         12    1    3    3    0    0  0.13930041251E+02  0.12128306606E+02 -0.84353245723E+01  0.20305087319E+02  0.00000000000E+00 0. -1.
</event>
<event>
 7    1  0.2937071E-011  0.5052887E+02  0.7816164E-02  0.1300439E+00
        -11   -1    0    0    0    0  0.00000000000E+00  0.00000000000E+00  0.45593999997E+02  0.45594000000E+02  0.51100000000E-03 0.  1.
         11   -1    0    0    0    0 -0.00000000000E+00 -0.00000000000E+00 -0.45593999997E+02  0.45594000000E+02  0.51100000000E-03 0. -1.
    9900012    2    1    2    0    0  0.97672390385E+01  0.14806777273E+02 -0.36585865912E+02  0.50528865772E+02  0.30000018002E+02 0.  0.
        -12    1    1    2    0    0 -0.97672390385E+01 -0.14806777273E+02  0.36585865912E+02  0.40659134228E+02  0.00000000000E+00 0.  1.
         11    1    3    3    0    0  0.30600926702E+01 -0.42329243812E+01 -0.72213302888E+01  0.89123188547E+01  0.51100000000E-03 0.  1.
        -11    1    3    3    0    0  0.11674211641E+02  0.25151064971E+01 -0.14941360448E+02  0.19127394763E+02  0.51100000000E-03 0. -1.
        -12    1    3    3    0    0 -0.49670652724E+01  0.16524595157E+02 -0.14423175175E+02  0.22489152155E+02  0.00000000000E+00 0.  1.
</event>
<event>
 7    1  0.2937071E-011  0.5052886E+02  0.7816164E-02  0.1300439E+00
        -11   -1    0    0    0    0  0.00000000000E+00  0.00000000000E+00  0.45593999997E+02  0.45594000000E+02  0.51100000000E-03 0. -1.
         11   -1    0    0    0    0 -0.00000000000E+00 -0.00000000000E+00 -0.45593999997E+02  0.45594000000E+02  0.51100000000E-03 0.  1.
    9900012    2    1    2    0    0  0.16767648404E+02  0.36026590267E+02  0.86079428623E+01  0.50528856876E+02  0.29999990960E+02 0.  0.
        -12    1    1    2    0    0 -0.16767648404E+02 -0.36026590267E+02 -0.86079428623E+01  0.40659143124E+02  0.00000000000E+00 0.  1.
         11    1    3    3    0    0 -0.17413435853E+01  0.17451034565E+02  0.76417834791E+01  0.19130283320E+02  0.51100000000E-03 0. -1.
        -11    1    3    3    0    0  0.19095062693E+01  0.83450732892E+00 -0.58125387537E+01  0.61748055596E+01  0.51100000000E-03 0.  1.
        -12    1    3    3    0    0  0.16599485720E+02  0.17741048372E+02  0.67786981369E+01  0.25223767997E+02  0.00000000000E+00 0.  1.
</event>
<event>
 7    1  0.2937071E-011  0.5052885E+02  0.7816164E-02  0.1300439E+00
        -11   -1    0    0    0    0  0.00000000000E+00  0.00000000000E+00  0.45593999997E+02  0.45594000000E+02  0.51100000000E-03 0.  1.
         11   -1    0    0    0    0 -0.00000000000E+00 -0.00000000000E+00 -0.45593999997E+02  0.45594000000E+02  0.51100000000E-03 0. -1.
    9900012    2    1    2    0    0 -0.16667270491E+02 -0.37082367209E+02  0.51599899637E+00  0.50528854431E+02  0.29999983529E+02 0.  0.
        -12    1    1    2    0    0  0.16667270491E+02  0.37082367209E+02 -0.51599899637E+00  0.40659145569E+02  0.00000000000E+00 0.  1.
         11    1    3    3    0    0  0.26836560562E+01 -0.71096067738E+01  0.27330951505E+01  0.80757865047E+01  0.51100000000E-03 0. -1.
        -11    1    3    3    0    0  0.89326091924E+00 -0.19024714570E+02 -0.36552173204E+01  0.19393253813E+02  0.51100000000E-03 0.  1.
        -12    1    3    3    0    0 -0.20244187467E+02 -0.10948045865E+02  0.14381211662E+01  0.23059814113E+02  0.00000000000E+00 0.  1.
</event>
<event>
 7    1  0.2937071E-011  0.5052886E+02  0.7816164E-02  0.1300439E+00
        -11   -1    0    0    0    0  0.00000000000E+00  0.00000000000E+00  0.45593999997E+02  0.45594000000E+02  0.51100000000E-03 0. -1.
         11   -1    0    0    0    0 -0.00000000000E+00 -0.00000000000E+00 -0.45593999997E+02  0.45594000000E+02  0.51100000000E-03 0.  1.
    9900012    2    1    2    0    0 -0.28680103046E+02 -0.28706484698E+02 -0.25602976181E+01  0.50528859597E+02  0.29999999231E+02 0.  0.
        -12    1    1    2    0    0  0.28680103046E+02  0.28706484698E+02  0.25602976181E+01  0.40659140403E+02  0.00000000000E+00 0.  1.
         11    1    3    3    0    0  0.89825182817E+00 -0.12305955934E+01 -0.26891505751E+01  0.30907528109E+01  0.51100000000E-03 0. -1.
        -11    1    3    3    0    0 -0.45302896578E+01 -0.17117400466E+02 -0.75752173549E+01  0.19259097625E+02  0.51100000000E-03 0.  1.
         12    1    3    3    0    0 -0.25048065216E+02 -0.10358488639E+02  0.77040703119E+01  0.28179009161E+02  0.00000000000E+00 0. -1.
</event>
<event>
 7    1  0.2937071E-011  0.5052886E+02  0.7816164E-02  0.1300439E+00
        -11   -1    0    0    0    0  0.00000000000E+00  0.00000000000E+00  0.45593999997E+02  0.45594000000E+02  0.51100000000E-03 0.  1.
         11   -1    0    0    0    0 -0.00000000000E+00 -0.00000000000E+00 -0.45593999997E+02  0.45594000000E+02  0.51100000000E-03 0. -1.
    9900012    2    1    2    0    0 -0.28858220311E+02  0.25235353798E+02 -0.13547906751E+02  0.50528859107E+02  0.29999997741E+02 0.  0.
        -12    1    1    2    0    0  0.28858220311E+02 -0.25235353798E+02  0.13547906751E+02  0.40659140893E+02  0.00000000000E+00 0.  1.
         11    1    3    3    0    0  0.17476605897E+01  0.13541025972E+02 -0.82833295260E+01  0.15969572637E+02  0.51100000000E-03 0. -1.
        -11    1    3    3    0    0 -0.63684566028E+00 -0.11907851991E+01 -0.95565242357E+00  0.16543317688E+01  0.51100000000E-03 0.  1.
         12    1    3    3    0    0 -0.29969035240E+02  0.12885113025E+02 -0.43089248013E+01  0.32904954701E+02  0.00000000000E+00 0. -1.
</event>
<event>
 7    1  0.2937071E-011  0.5052886E+02  0.7816164E-02  0.1300439E+00
        -11   -1    0    0    0    0  0.00000000000E+00  0.00000000000E+00  0.45593999997E+02  0.45594000000E+02  0.51100000000E-03 0.  1.
         11   -1    0    0    0    0 -0.00000000000E+00 -0.00000000000E+00 -0.45593999997E+02  0.45594000000E+02  0.51100000000E-03 0. -1.
    9900012    2    1    2    0    0 -0.23500421939E+02  0.23058872521E+02 -0.23857583323E+02  0.50528859389E+02  0.29999998599E+02 0.  0.
        -12    1    1    2    0    0  0.23500421939E+02 -0.23058872521E+02  0.23857583323E+02  0.40659140611E+02  0.00000000000E+00 0.  1.
         11    1    3    3    0    0 -0.33829109674E+01  0.15097934367E+01 -0.12648467115E+02  0.13179805896E+02  0.51100000000E-03 0. -1.
        -11    1    3    3    0    0 -0.18157777524E+02  0.56209849028E+01 -0.27435096053E+01  0.19204874410E+02  0.51100000000E-03 0.  1.
         12    1    3    3    0    0 -0.19597334468E+01  0.15928094181E+02 -0.84656066019E+01  0.18144179082E+02  0.00000000000E+00 0. -1.
</event>
<event>
 7    1  0.2937071E-011  0.5052884E+02  0.7816164E-02  0.1300439E+00
        -11   -1    0    0    0    0  0.00000000000E+00  0.00000000000E+00  0.45593999997E+02  0.45594000000E+02  0.51100000000E-03 0. -1.
         11   -1    0    0    0    0 -0.00000000000E+00 -0.00000000000E+00 -0.45593999997E+02  0.45594000000E+02  0.51100000000E-03 0.  1.
    9900012    2    1    2    0    0  0.76666992845E+01 -0.15581101859E+02  0.36764356138E+02  0.50528844877E+02  0.29999954489E+02 0.  0.
        -12    1    1    2    0    0 -0.76666992845E+01  0.15581101859E+02 -0.36764356138E+02  0.40659155123E+02  0.00000000000E+00 0.  1.
         11    1    3    3    0    0 -0.60922483534E+00  0.50125414225E+01  0.16544174202E+02  0.17297584418E+02  0.51100000000E-03 0. -1.
        -11    1    3    3    0    0  0.62646577272E+01 -0.13136509999E+01  0.82751695438E+01  0.10461837631E+02  0.51100000000E-03 0.  1.
         12    1    3    3    0    0  0.20112663926E+01 -0.19279992281E+02  0.11945012392E+02  0.22769422828E+02  0.00000000000E+00 0. -1.
</event>
<event>
 7    1  0.2937071E-011  0.5052883E+02  0.7816164E-02  0.1300439E+00
        -11   -1    0    0    0    0  0.00000000000E+00  0.00000000000E+00  0.45593999997E+02  0.45594000000E+02  0.51100000000E-03 0.  1.
         11   -1    0    0    0    0 -0.00000000000E+00 -0.00000000000E+00 -0.45593999997E+02  0.45594000000E+02  0.51100000000E-03 0. -1.
    9900012    2    1    2    0    0 -0.32964125589E+01  0.33467062007E+02 -0.22852948584E+02  0.50528833332E+02  0.29999919397E+02 0.  0.
        -12    1    1    2    0    0  0.32964125589E+01 -0.33467062007E+02  0.22852948584E+02  0.40659166668E+02  0.00000000000E+00 0.  1.
         11    1    3    3    0    0 -0.85208067471E+00  0.30654004963E+02 -0.14594354271E+02  0.33961584748E+02  0.51100000000E-03 0. -1.
        -11    1    3    3    0    0 -0.67580518799E+01  0.47680208692E+01 -0.16449667526E+01  0.84327459406E+01  0.51100000000E-03 0.  1.
        -12    1    3    3    0    0  0.43137199957E+01 -0.19549638252E+01 -0.66136275604E+01  0.81345026441E+01  0.00000000000E+00 0.  1.
</event>
<event>
 7    1  0.2937071E-011  0.5052886E+02  0.7816164E-02  0.1300439E+00
        -11   -1    0    0    0    0  0.00000000000E+00  0.00000000000E+00  0.45593999997E+02  0.45594000000E+02  0.51100000000E-03 0. -1.
         11   -1    0    0    0    0 -0.00000000000E+00 -0.00000000000E+00 -0.45593999997E+02  0.45594000000E+02  0.51100000000E-03 0.  1.
    9900012    2    1    2    0    0  0.33220424574E+02  0.17779194997E+02 -0.15279705724E+02  0.50528858461E+02  0.29999995779E+02 0.  0.
        -12    1    1    2    0    0 -0.33220424574E+02 -0.17779194997E+02  0.15279705724E+02  0.40659141539E+02  0.00000000000E+00 0.  1.
         11    1    3    3    0    0  0.10271343915E+02  0.88753051758E+01  0.54855755389E+01  0.14641143639E+02  0.51100000000E-03 0. -1.
        -11    1    3    3    0    0  0.23515690059E+02  0.10288083769E+02 -0.14570520329E+02  0.29514952304E+02  0.51100000000E-03 0.  1.
         12    1    3    3    0    0 -0.56660939954E+00 -0.13841939483E+01 -0.61947609338E+01  0.63727625191E+01  0.00000000000E+00 0. -1.
</event>
<event>
 7    1  0.2937071E-011  0.5052887E+02  0.7816164E-02  0.1300439E+00
        -11   -1    0    0    0    0  0.00000000000E+00  0.00000000000E+00  0.45593999997E+02  0.45594000000E+02  0.51100000000E-03 0.  1.
         11   -1    0    0    0    0 -0.00000000000E+00 -0.00000000000E+00 -0.45593999997E+02  0.45594000000E+02  0.51100000000E-03 0. -1.
    9900012    2    1    2    0    0  0.21800087930E+02  0.26448068554E+02 -0.21872838092E+02  0.50528865600E+02  0.30000017478E+02 0.  0.
        -12    1    1    2    0    0 -0.21800087930E+02 -0.26448068554E+02  0.21872838092E+02  0.40659134400E+02  0.00000000000E+00 0.  1.
         11    1    3    3    0    0 -0.54486605520E+00 -0.19716645996E+01  0.54957534236E+00  0.21181061422E+01  0.51100000000E-03 0. -1.
        -11    1    3    3    0    0 -0.45490191074E+01  0.20187651795E+01 -0.43710089334E+01  0.66237985360E+01  0.51100000000E-03 0.  1.
         12    1    3    3    0    0  0.26893973092E+02  0.26400967974E+02 -0.18051404501E+02  0.41786960922E+02  0.00000000000E+00 0. -1.
</event>
<event>
 7    1  0.2937071E-011  0.5052889E+02  0.7816164E-02  0.1300439E+00
        -11   -1    0    0    0    0  0.00000000000E+00  0.00000000000E+00  0.45593999997E+02  0.45594000000E+02  0.51100000000E-03 0.  1.
         11   -1    0    0    0    0 -0.00000000000E+00 -0.00000000000E+00 -0.45593999997E+02  0.45594000000E+02  0.51100000000E-03 0. -1.
    9900012    2    1    2    0    0  0.32338314924E+02  0.76209119283E+01 -0.23437542142E+02  0.50528889184E+02  0.30000089162E+02 0.  0.
        -12    1    1    2    0    0 -0.32338314924E+02 -0.76209119283E+01  0.23437542142E+02  0.40659110816E+02  0.00000000000E+00 0.  1.
         11    1    3    3    0    0  0.78005412841E+01 -0.83487958134E+01 -0.20581684263E+01  0.11609775768E+02  0.51100000000E-03 0. -1.
        -11    1    3    3    0    0  0.11414450999E+01  0.72314206519E+01 -0.68469987493E+01  0.10023858224E+02  0.51100000000E-03 0.  1.
        -12    1    3    3    0    0  0.23396328540E+02  0.87382870899E+01 -0.14532374967E+02  0.28895255191E+02  0.00000000000E+00 0.  1.
</event>
<event>
 7    1  0.2937071E-011  0.5052885E+02  0.7816164E-02  0.1300439E+00
        -11   -1    0    0    0    0  0.00000000000E+00  0.00000000000E+00  0.45593999997E+02  0.45594000000E+02  0.51100000000E-03 0.  1.
         11   -1    0    0    0    0 -0.00000000000E+00 -0.00000000000E+00 -0.45593999997E+02  0.45594000000E+02  0.51100000000E-03 0. -1.
    9900012    2    1    2    0    0  0.28422461513E+02 -0.12202108328E+02 -0.26390126318E+02  0.50528849330E+02  0.29999968025E+02 0.  0.
        -12    1    1    2    0    0 -0.28422461513E+02  0.12202108328E+02  0.26390126318E+02  0.40659150670E+02  0.00000000000E+00 0.  1.
         11    1    3    3    0    0  0.20475688855E+02  0.22841487051E+01 -0.19415737791E+02  0.28309751741E+02  0.51100000000E-03 0. -1.
        -11    1    3    3    0    0  0.27583772444E+01  0.17829001938E+00  0.27298911497E+01  0.38849373616E+01  0.51100000000E-03 0.  1.
         12    1    3    3    0    0  0.51883954135E+01 -0.14664547052E+02 -0.97042796765E+01  0.18334160228E+02  0.00000000000E+00 0. -1.
</event>
<event>
 7    1  0.2937071E-011  0.5052881E+02  0.7816164E-02  0.1300439E+00
        -11   -1    0    0    0    0  0.00000000000E+00  0.00000000000E+00  0.45593999997E+02  0.45594000000E+02  0.51100000000E-03 0.  1.
         11   -1    0    0    0    0 -0.00000000000E+00 -0.00000000000E+00 -0.45593999997E+02  0.45594000000E+02  0.51100000000E-03 0. -1.
    9900012    2    1    2    0    0  0.10447423796E+02 -0.13982659904E+02 -0.36722013944E+02  0.50528809771E+02  0.29999847779E+02 0.  0.
        -12    1    1    2    0    0 -0.10447423796E+02  0.13982659904E+02  0.36722013944E+02  0.40659190229E+02  0.00000000000E+00 0.  1.
         11    1    3    3    0    0 -0.51123855686E+01 -0.11855774572E+02 -0.18536590619E+02  0.22589844376E+02  0.51100000000E-03 0.  1.
        -11    1    3    3    0    0  0.27604473174E+01 -0.65293504078E+01 -0.95123807961E+01  0.11863299491E+02  0.51100000000E-03 0. -1.
        -12    1    3    3    0    0  0.12799362047E+02  0.44024650751E+01 -0.86730425296E+01  0.16075665904E+02  0.00000000000E+00 0.  1.
</event>
<event>
 7    1  0.2937071E-011  0.5052883E+02  0.7816164E-02  0.1300439E+00
        -11   -1    0    0    0    0  0.00000000000E+00  0.00000000000E+00  0.45593999997E+02  0.45594000000E+02  0.51100000000E-03 0.  1.
         11   -1    0    0    0    0 -0.00000000000E+00 -0.00000000000E+00 -0.45593999997E+02  0.45594000000E+02  0.51100000000E-03 0. -1.
    9900012    2    1    2    0    0  0.89419199384E+01 -0.26249971623E+02 -0.29734649495E+02  0.50528827320E+02  0.29999901122E+02 0.  0.
        -12    1    1    2    0    0 -0.89419199384E+01  0.26249971623E+02  0.29734649495E+02  0.40659172680E+02  0.00000000000E+00 0.  1.
         11    1    3    3    0    0 -0.40931813006E+01  0.99733243934E+00 -0.18656783206E+01  0.46075547757E+01  0.51100000000E-03 0. -1.
        -11    1    3    3    0    0  0.14718120561E+02 -0.72417669350E+01 -0.11810040714E+02  0.20212454654E+02  0.51100000000E-03 0.  1.
         12    1    3    3    0    0 -0.16830193225E+01 -0.20005537128E+02 -0.16058930460E+02  0.25708817891E+02  0.00000000000E+00 0. -1.
</event>
<event>
 7    1  0.2937071E-011  0.5052888E+02  0.7816164E-02  0.1300439E+00
        -11   -1    0    0    0    0  0.00000000000E+00  0.00000000000E+00  0.45593999997E+02  0.45594000000E+02  0.51100000000E-03 0. -1.
         11   -1    0    0    0    0 -0.00000000000E+00 -0.00000000000E+00 -0.45593999997E+02  0.45594000000E+02  0.51100000000E-03 0.  1.
    9900012    2    1    2    0    0 -0.74403082817E-01 -0.36291402558E+02  0.18332820038E+02  0.50528883851E+02  0.30000072953E+02 0.  0.
        -12    1    1    2    0    0  0.74403082817E-01  0.36291402558E+02 -0.18332820038E+02  0.40659116149E+02  0.00000000000E+00 0.  1.
         11    1    3    3    0    0 -0.21666717700E+01 -0.19109914964E+02  0.12379232765E+02  0.22872007359E+02  0.51100000000E-03 0. -1.
        -11    1    3    3    0    0 -0.86262949456E+01 -0.31816616672E+01  0.35766532165E+01  0.98655148850E+01  0.51100000000E-03 0.  1.
         12    1    3    3    0    0  0.10718563633E+02 -0.13999825927E+02  0.23769340565E+01  0.17791361607E+02  0.00000000000E+00 0. -1.
</event>
<event>
 7    1  0.2937071E-011  0.5052886E+02  0.7816164E-02  0.1300439E+00
        -11   -1    0    0    0    0  0.00000000000E+00  0.00000000000E+00  0.45593999997E+02  0.45594000000E+02  0.51100000000E-03 0. -1.
         11   -1    0    0    0    0 -0.00000000000E+00 -0.00000000000E+00 -0.45593999997E+02  0.45594000000E+02  0.51100000000E-03 0.  1.
    9900012    2    1    2    0    0 -0.36164659814E+02 -0.64065893750E+01  0.17442444767E+02  0.50528857285E+02  0.29999992203E+02 0.  0.
        -12    1    1    2    0    0  0.36164659814E+02  0.64065893750E+01 -0.17442444767E+02  0.40659142715E+02  0.00000000000E+00 0.  1.
         11    1    3    3    0    0 -0.21487882016E+02 -0.45991615897E+01  0.59457941655E+01  0.22764749711E+02  0.51100000000E-03 0. -1.
        -11    1    3    3    0    0 -0.11756726435E+02 -0.31007797221E+01 -0.33226533358E+01  0.12604581580E+02  0.51100000000E-03 0.  1.
        -12    1    3    3    0    0 -0.29200513628E+01  0.12933519368E+01  0.14819303937E+02  0.15159525995E+02  0.00000000000E+00 0.  1.
</event>
<event>
 7    1  0.2937071E-011  0.5052887E+02  0.7816164E-02  0.1300439E+00
        -11   -1    0    0    0    0  0.00000000000E+00  0.00000000000E+00  0.45593999997E+02  0.45594000000E+02  0.51100000000E-03 0.  1.
         11   -1    0    0    0    0 -0.00000000000E+00 -0.00000000000E+00 -0.45593999997E+02  0.45594000000E+02  0.51100000000E-03 0. -1.
    9900012    2    1    2    0    0 -0.24558144212E+02 -0.29226570996E+02 -0.13995344217E+02  0.50528873606E+02  0.30000041813E+02 0.  0.
        -12    1    1    2    0    0  0.24558144212E+02  0.29226570996E+02  0.13995344217E+02  0.40659126394E+02  0.00000000000E+00 0.  1.
         11    1    3    3    0    0 -0.70665176612E+01 -0.15237413410E+02 -0.19192172855E+01  0.16905556322E+02  0.51100000000E-03 0. -1.
        -11    1    3    3    0    0 -0.21836929090E+01  0.49255925458E+01  0.17143193135E+01  0.56541018401E+01  0.51100000000E-03 0.  1.
         12    1    3    3    0    0 -0.15307933642E+02 -0.18914750132E+02 -0.13790446245E+02  0.27969215444E+02  0.00000000000E+00 0. -1.
</event>
<event>
 7    1  0.2937071E-011  0.5052874E+02  0.7816164E-02  0.1300439E+00
        -11   -1    0    0    0    0  0.00000000000E+00  0.00000000000E+00  0.45593999997E+02  0.45594000000E+02  0.51100000000E-03 0. -1.
         11   -1    0    0    0    0 -0.00000000000E+00 -0.00000000000E+00 -0.45593999997E+02  0.45594000000E+02  0.51100000000E-03 0.  1.
    9900012    2    1    2    0    0 -0.38964342666E+02 -0.10048258487E+02  0.58299232246E+01  0.50528739027E+02  0.29999632745E+02 0.  0.
        -12    1    1    2    0    0  0.38964342666E+02  0.10048258487E+02 -0.58299232246E+01  0.40659260973E+02  0.00000000000E+00 0.  1.
         11    1    3    3    0    0 -0.14927571714E+02  0.55405162750E+00  0.83902323948E+01  0.17132873967E+02  0.51100000000E-03 0. -1.
        -11    1    3    3    0    0  0.55376001300E-01  0.19768755114E+01  0.48395692774E+01  0.52280526337E+01  0.51100000000E-03 0.  1.
        -12    1    3    3    0    0 -0.24092146954E+02 -0.12579185625E+02 -0.73998784475E+01  0.28167812426E+02  0.00000000000E+00 0.  1.
</event>
<event>
 7    1  0.2937071E-011  0.5052879E+02  0.7816164E-02  0.1300439E+00
        -11   -1    0    0    0    0  0.00000000000E+00  0.00000000000E+00  0.45593999997E+02  0.45594000000E+02  0.51100000000E-03 0.  1.
         11   -1    0    0    0    0 -0.00000000000E+00 -0.00000000000E+00 -0.45593999997E+02  0.45594000000E+02  0.51100000000E-03 0. -1.
    9900012    2    1    2    0    0  0.30018934793E+02 -0.20710133182E+02 -0.17975690725E+02  0.50528788011E+02  0.29999781639E+02 0.  0.
        -12    1    1    2    0    0 -0.30018934793E+02  0.20710133182E+02  0.17975690725E+02  0.40659211989E+02  0.00000000000E+00 0.  1.
         11    1    3    3    0    0  0.19293295120E+01 -0.89132880195E+01 -0.11314278577E+02  0.14532099492E+02  0.51100000000E-03 0. -1.
        -11    1    3    3    0    0 -0.89611161135E+00  0.14875806695E+01 -0.35603677620E+01  0.39613294650E+01  0.51100000000E-03 0.  1.
        -12    1    3    3    0    0  0.28985716892E+02 -0.13284425832E+02 -0.31010443860E+01  0.32035359054E+02  0.00000000000E+00 0.  1.
</event>
<event>
 7    1  0.2937071E-011  0.5052886E+02  0.7816164E-02  0.1300439E+00
        -11   -1    0    0    0    0  0.00000000000E+00  0.00000000000E+00  0.45593999997E+02  0.45594000000E+02  0.51100000000E-03 0.  1.
         11   -1    0    0    0    0 -0.00000000000E+00 -0.00000000000E+00 -0.45593999997E+02  0.45594000000E+02  0.51100000000E-03 0. -1.
    9900012    2    1    2    0    0 -0.33765557504E+02  0.44204936333E+01 -0.22215127492E+02  0.50528861703E+02  0.30000005634E+02 0.  0.
        -12    1    1    2    0    0  0.33765557504E+02 -0.44204936333E+01  0.22215127492E+02  0.40659138297E+02  0.00000000000E+00 0.  1.
         11    1    3    3    0    0  0.14218582430E+01 -0.24442631253E+01 -0.18706130551E+01  0.33904714350E+01  0.51100000000E-03 0. -1.
        -11    1    3    3    0    0 -0.34786405994E+01  0.56805038760E+01  0.34268891567E+01  0.74908366861E+01  0.51100000000E-03 0.  1.
         12    1    3    3    0    0 -0.31708775148E+02  0.11842528825E+01 -0.23771403593E+02  0.39647553582E+02  0.00000000000E+00 0. -1.
</event>
<event>
 7    1  0.2937071E-011  0.5052886E+02  0.7816164E-02  0.1300439E+00
        -11   -1    0    0    0    0  0.00000000000E+00  0.00000000000E+00  0.45593999997E+02  0.45594000000E+02  0.51100000000E-03 0.  1.
         11   -1    0    0    0    0 -0.00000000000E+00 -0.00000000000E+00 -0.45593999997E+02  0.45594000000E+02  0.51100000000E-03 0. -1.
    9900012    2    1    2    0    0 -0.42689990776E+01 -0.38615276120E+02 -0.11991745509E+02  0.50528857568E+02  0.29999993065E+02 0.  0.
        -12    1    1    2    0    0  0.42689990776E+01  0.38615276120E+02  0.11991745509E+02  0.40659142432E+02  0.00000000000E+00 0.  1.
         11    1    3    3    0    0 -0.14890726464E+00 -0.40207518948E+02 -0.11981211387E+02  0.41954930341E+02  0.51100000000E-03 0. -1.
        -11    1    3    3    0    0 -0.26788104071E+01 -0.28322864326E+01  0.30172063920E+00  0.39101032261E+01  0.51100000000E-03 0.  1.
         12    1    3    3    0    0 -0.14412814059E+01  0.44245292616E+01 -0.31225476129E+00  0.46638240011E+01  0.00000000000E+00 0. -1.
</event>
<event>
 7    1  0.2937071E-011  0.5052887E+02  0.7816164E-02  0.1300439E+00
        -11   -1    0    0    0    0  0.00000000000E+00  0.00000000000E+00  0.45593999997E+02  0.45594000000E+02  0.51100000000E-03 0.  1.
         11   -1    0    0    0    0 -0.00000000000E+00 -0.00000000000E+00 -0.45593999997E+02  0.45594000000E+02  0.51100000000E-03 0. -1.
    9900012    2    1    2    0    0  0.24507696421E+02 -0.15121254811E+02 -0.28703400011E+02  0.50528871835E+02  0.30000036430E+02 0.  0.
        -12    1    1    2    0    0 -0.24507696421E+02  0.15121254811E+02  0.28703400011E+02  0.40659128165E+02  0.00000000000E+00 0.  1.
         11    1    3    3    0    0  0.42566618821E+01 -0.11899128859E+02 -0.13080521392E+02  0.18188141140E+02  0.51100000000E-03 0.  1.
        -11    1    3    3    0    0  0.10767444265E+02 -0.10218038778E+01 -0.19143985778E+02  0.21988045181E+02  0.51100000000E-03 0. -1.
        -12    1    3    3    0    0  0.94835902739E+01 -0.22003220746E+01  0.35211071591E+01  0.10352685513E+02  0.00000000000E+00 0.  1.
</event>
<event>
 7    1  0.2937071E-011  0.5052886E+02  0.7816164E-02  0.1300439E+00
        -11   -1    0    0    0    0  0.00000000000E+00  0.00000000000E+00  0.45593999997E+02  0.45594000000E+02  0.51100000000E-03 0. -1.
         11   -1    0    0    0    0 -0.00000000000E+00 -0.00000000000E+00 -0.45593999997E+02  0.45594000000E+02  0.51100000000E-03 0.  1.
    9900012    2    1    2    0    0  0.30548695605E+02 -0.23353229001E+02  0.13212484984E+02  0.50528857518E+02  0.29999992911E+02 0.  0.
        -12    1    1    2    0    0 -0.30548695605E+02  0.23353229001E+02 -0.13212484984E+02  0.40659142482E+02  0.00000000000E+00 0.  1.
         11    1    3    3    0    0 -0.36483268491E+01 -0.54215991841E+01  0.59546384739E+01  0.88409131953E+01  0.51100000000E-03 0. -1.
        -11    1    3    3    0    0  0.12193280261E+02  0.26947278516E+00  0.44965467556E+01  0.12998755021E+02  0.51100000000E-03 0.  1.
         12    1    3    3    0    0  0.22003742193E+02 -0.18201102602E+02  0.27612997545E+01  0.28689189301E+02  0.00000000000E+00 0. -1.
</event>
<event>
 7    1  0.2937071E-011  0.5052885E+02  0.7816164E-02  0.1300439E+00
        -11   -1    0    0    0    0  0.00000000000E+00  0.00000000000E+00  0.45593999997E+02  0.45594000000E+02  0.51100000000E-03 0.  1.
         11   -1    0    0    0    0 -0.00000000000E+00 -0.00000000000E+00 -0.45593999997E+02  0.45594000000E+02  0.51100000000E-03 0. -1.
    9900012    2    1    2    0    0 -0.35936040719E+02 -0.13476458276E+01 -0.18972381054E+02  0.50528850788E+02  0.29999972455E+02 0.  0.
        -12    1    1    2    0    0  0.35936040719E+02  0.13476458276E+01  0.18972381054E+02  0.40659149212E+02  0.00000000000E+00 0.  1.
         11    1    3    3    0    0 -0.11099448425E+02 -0.12052218198E+01 -0.89122952702E+01  0.14285633420E+02  0.51100000000E-03 0. -1.
        -11    1    3    3    0    0 -0.79767507749E+01 -0.10503260867E+02 -0.98364324091E+01  0.16453037548E+02  0.51100000000E-03 0.  1.
         12    1    3    3    0    0 -0.16859841519E+02  0.10360836859E+02 -0.22365337437E+00  0.19790179819E+02  0.00000000000E+00 0. -1.
</event>
<event>
 7    1  0.2937071E-011  0.5052887E+02  0.7816164E-02  0.1300439E+00
        -11   -1    0    0    0    0  0.00000000000E+00  0.00000000000E+00  0.45593999997E+02  0.45594000000E+02  0.51100000000E-03 0. -1.
         11   -1    0    0    0    0 -0.00000000000E+00 -0.00000000000E+00 -0.45593999997E+02  0.45594000000E+02  0.51100000000E-03 0.  1.
    9900012    2    1    2    0    0  0.96402528250E+01  0.33239005427E+02  0.21340086004E+02  0.50528865393E+02  0.30000016849E+02 0.  0.
        -12    1    1    2    0    0 -0.96402528250E+01 -0.33239005427E+02 -0.21340086004E+02  0.40659134607E+02  0.00000000000E+00 0.  1.
         11    1    3    3    0    0  0.13918692976E+02  0.34915008297E+02  0.22247320585E+02  0.43677581114E+02  0.51100000000E-03 0. -1.
        -11    1    3    3    0    0 -0.42676483237E+00  0.14996687951E+01 -0.10108037229E+01  0.18581870585E+01  0.51100000000E-03 0.  1.
         12    1    3    3    0    0 -0.38516753188E+01 -0.31756716649E+01  0.10356914173E+00  0.49930972203E+01  0.00000000000E+00 0. -1.
</event>
<event>
 7    1  0.2937071E-011  0.5052889E+02  0.7816164E-02  0.1300439E+00
        -11   -1    0    0    0    0  0.00000000000E+00  0.00000000000E+00  0.45593999997E+02  0.45594000000E+02  0.51100000000E-03 0.  1.
         11   -1    0    0    0    0 -0.00000000000E+00 -0.00000000000E+00 -0.45593999997E+02  0.45594000000E+02  0.51100000000E-03 0. -1.
    9900012    2    1    2    0    0 -0.94711946539E+01  0.38160476834E+02  0.10355576059E+02  0.50528886927E+02  0.30000082303E+02 0.  0.
        -12    1    1    2    0    0  0.94711946539E+01 -0.38160476834E+02 -0.10355576059E+02  0.40659113073E+02  0.00000000000E+00 0.  1.
         11    1    3    3    0    0 -0.95074216987E-01  0.89375990281E+01  0.50796325518E+01  0.10280680066E+02  0.51100000000E-03 0. -1.
        -11    1    3    3    0    0 -0.65313005493E+01  0.32841185916E+02  0.32177787614E+00  0.33485891365E+02  0.51100000000E-03 0.  1.
        -12    1    3    3    0    0 -0.28448198876E+01 -0.36183081099E+01  0.49541656315E+01  0.67623154966E+01  0.00000000000E+00 0.  1.
</event>
<event>
 7    1  0.2937071E-011  0.5052887E+02  0.7816164E-02  0.1300439E+00
        -11   -1    0    0    0    0  0.00000000000E+00  0.00000000000E+00  0.45593999997E+02  0.45594000000E+02  0.51100000000E-03 0. -1.
         11   -1    0    0    0    0 -0.00000000000E+00 -0.00000000000E+00 -0.45593999997E+02  0.45594000000E+02  0.51100000000E-03 0.  1.
    9900012    2    1    2    0    0 -0.24619873048E+02 -0.32162379380E+02  0.35507772818E+01  0.50528870452E+02  0.30000032226E+02 0.  0.
        -12    1    1    2    0    0  0.24619873048E+02  0.32162379380E+02 -0.35507772818E+01  0.40659129548E+02  0.00000000000E+00 0.  1.
         11    1    3    3    0    0  0.63762092412E+00 -0.88928520985E+00  0.63066222538E+01  0.64008494078E+01  0.51100000000E-03 0. -1.
        -11    1    3    3    0    0 -0.48679363295E+01 -0.10928161598E+01 -0.57142775876E+01  0.75857774734E+01  0.51100000000E-03 0.  1.
         12    1    3    3    0    0 -0.20389557643E+02 -0.30180278010E+02  0.29584326156E+01  0.36542243571E+02  0.00000000000E+00 0. -1.
</event>
<event>
 7    1  0.2937071E-011  0.5052886E+02  0.7816164E-02  0.1300439E+00
        -11   -1    0    0    0    0  0.00000000000E+00  0.00000000000E+00  0.45593999997E+02  0.45594000000E+02  0.51100000000E-03 0.  1.
         11   -1    0    0    0    0 -0.00000000000E+00 -0.00000000000E+00 -0.45593999997E+02  0.45594000000E+02  0.51100000000E-03 0. -1.
    9900012    2    1    2    0    0 -0.14811365362E+02  0.13973059588E+02 -0.35192940266E+02  0.50528856100E+02  0.29999988600E+02 0.  0.
        -12    1    1    2    0    0  0.14811365362E+02 -0.13973059588E+02  0.35192940266E+02  0.40659143900E+02  0.00000000000E+00 0.  1.
         11    1    3    3    0    0 -0.82879079959E+01  0.11543243849E+02 -0.31212894167E+02  0.34295490374E+02  0.51100000000E-03 0. -1.
        -11    1    3    3    0    0 -0.92673604270E+01  0.10289243362E+01 -0.71972622035E+01  0.11778931958E+02  0.51100000000E-03 0.  1.
        -12    1    3    3    0    0  0.27439030608E+01  0.14008914035E+01  0.32172161041E+01  0.44544337678E+01  0.00000000000E+00 0.  1.
</event>
<event>
 7    1  0.2937071E-011  0.5052887E+02  0.7816164E-02  0.1300439E+00
        -11   -1    0    0    0    0  0.00000000000E+00  0.00000000000E+00  0.45593999997E+02  0.45594000000E+02  0.51100000000E-03 0. -1.
         11   -1    0    0    0    0 -0.00000000000E+00 -0.00000000000E+00 -0.45593999997E+02  0.45594000000E+02  0.51100000000E-03 0.  1.
    9900012    2    1    2    0    0  0.28427036831E+02 -0.18180341478E+02 -0.22683562675E+02  0.50528865050E+02  0.30000015806E+02 0.  0.
        -12    1    1    2    0    0 -0.28427036831E+02  0.18180341478E+02  0.22683562675E+02  0.40659134950E+02  0.00000000000E+00 0.  1.
         11    1    3    3    0    0 -0.25948182747E+00 -0.68106471011E+01 -0.18982117312E+01  0.70749878299E+01  0.51100000000E-03 0. -1.
        -11    1    3    3    0    0  0.18677699927E+02 -0.15068487185E+02 -0.51827163024E+01  0.24551503602E+02  0.51100000000E-03 0.  1.
        -12    1    3    3    0    0  0.10008818732E+02  0.36987928082E+01 -0.15602634641E+02  0.18902373618E+02  0.00000000000E+00 0.  1.
</event>
<event>
 7    1  0.2937071E-011  0.5052886E+02  0.7816164E-02  0.1300439E+00
        -11   -1    0    0    0    0  0.00000000000E+00  0.00000000000E+00  0.45593999997E+02  0.45594000000E+02  0.51100000000E-03 0. -1.
         11   -1    0    0    0    0 -0.00000000000E+00 -0.00000000000E+00 -0.45593999997E+02  0.45594000000E+02  0.51100000000E-03 0.  1.
    9900012    2    1    2    0    0  0.35261559666E+02 -0.18302132191E+01 -0.20160323989E+02  0.50528856701E+02  0.29999990427E+02 0.  0.
        -12    1    1    2    0    0 -0.35261559666E+02  0.18302132191E+01  0.20160323989E+02  0.40659143299E+02  0.00000000000E+00 0.  1.
         11    1    3    3    0    0  0.24762448024E+02 -0.80867350421E+00 -0.20314203784E+02  0.32039033391E+02  0.51100000000E-03 0. -1.
        -11    1    3    3    0    0  0.62659134934E+01  0.60444455818E+01 -0.36208754932E+01  0.94290897703E+01  0.51100000000E-03 0.  1.
         12    1    3    3    0    0  0.42331981487E+01 -0.70659852967E+01  0.37747552887E+01  0.90607335392E+01  0.00000000000E+00 0. -1.
</event>
<event>
 7    1  0.2937071E-011  0.5052885E+02  0.7816164E-02  0.1300439E+00
        -11   -1    0    0    0    0  0.00000000000E+00  0.00000000000E+00  0.45593999997E+02  0.45594000000E+02  0.51100000000E-03 0.  1.
         11   -1    0    0    0    0 -0.00000000000E+00 -0.00000000000E+00 -0.45593999997E+02  0.45594000000E+02  0.51100000000E-03 0. -1.
    9900012    2    1    2    0    0 -0.25275902965E+02 -0.27254065969E+02 -0.16477594470E+02  0.50528849713E+02  0.29999969188E+02 0.  0.
        -12    1    1    2    0    0  0.25275902965E+02  0.27254065969E+02  0.16477594470E+02  0.40659150287E+02  0.00000000000E+00 0.  1.
         11    1    3    3    0    0 -0.50073129782E+01 -0.52067609744E+00 -0.83534121225E+01  0.97531421198E+01  0.51100000000E-03 0. -1.
        -11    1    3    3    0    0 -0.46434937265E+01  0.30553977919E+01 -0.40805421975E+01  0.68955285905E+01  0.51100000000E-03 0.  1.
         12    1    3    3    0    0 -0.15625096260E+02 -0.29788787664E+02 -0.40436401503E+01  0.33880179003E+02  0.00000000000E+00 0. -1.
</event>
<event>
 7    1  0.2937071E-011  0.5052883E+02  0.7816164E-02  0.1300439E+00
        -11   -1    0    0    0    0  0.00000000000E+00  0.00000000000E+00  0.45593999997E+02  0.45594000000E+02  0.51100000000E-03 0.  1.
         11   -1    0    0    0    0 -0.00000000000E+00 -0.00000000000E+00 -0.45593999997E+02  0.45594000000E+02  0.51100000000E-03 0. -1.
    9900012    2    1    2    0    0 -0.23805304812E+02 -0.87026787594E+01 -0.31792121970E+02  0.50528829151E+02  0.29999906687E+02 0.  0.
        -12    1    1    2    0    0  0.23805304812E+02  0.87026787594E+01  0.31792121970E+02  0.40659170849E+02  0.00000000000E+00 0.  1.
         11    1    3    3    0    0 -0.40688233756E+01 -0.27186404448E+01  0.23955342334E+01  0.54483863717E+01  0.51100000000E-03 0. -1.
        -11    1    3    3    0    0 -0.63135540829E+01 -0.67432911782E+01 -0.10226640131E+01  0.92940186689E+01  0.51100000000E-03 0.  1.
         12    1    3    3    0    0 -0.13422927354E+02  0.75925286370E+00 -0.33164992190E+02  0.35786424110E+02  0.00000000000E+00 0. -1.
</event>
<event>
 7    1  0.2937071E-011  0.5052887E+02  0.7816164E-02  0.1300439E+00
        -11   -1    0    0    0    0  0.00000000000E+00  0.00000000000E+00  0.45593999997E+02  0.45594000000E+02  0.51100000000E-03 0. -1.
         11   -1    0    0    0    0 -0.00000000000E+00 -0.00000000000E+00 -0.45593999997E+02  0.45594000000E+02  0.51100000000E-03 0.  1.
    9900012    2    1    2    0    0  0.34414008895E+02 -0.11489889157E+02  0.18352756618E+02  0.50528865276E+02  0.30000016492E+02 0.  0.
        -12    1    1    2    0    0 -0.34414008895E+02  0.11489889157E+02 -0.18352756618E+02  0.40659134724E+02  0.00000000000E+00 0.  1.
         11    1    3    3    0    0  0.85298108001E+01 -0.11679965831E+02  0.14083296367E+01  0.14531437187E+02  0.51100000000E-03 0. -1.
        -11    1    3    3    0    0 -0.10909279760E+01 -0.40955596056E+01  0.94320661983E+00  0.43420469045E+01  0.51100000000E-03 0.  1.
        -12    1    3    3    0    0  0.26975126071E+02  0.42856362798E+01  0.16001220361E+02  0.31655381184E+02  0.00000000000E+00 0.  1.
</event>
<event>
 7    1  0.2937071E-011  0.5052886E+02  0.7816164E-02  0.1300439E+00
        -11   -1    0    0    0    0  0.00000000000E+00  0.00000000000E+00  0.45593999997E+02  0.45594000000E+02  0.51100000000E-03 0.  1.
         11   -1    0    0    0    0 -0.00000000000E+00 -0.00000000000E+00 -0.45593999997E+02  0.45594000000E+02  0.51100000000E-03 0. -1.
    9900012    2    1    2    0    0 -0.10385543679E+02 -0.25054393466E+01 -0.39230453946E+02  0.50528864979E+02  0.30000015591E+02 0.  0.
        -12    1    1    2    0    0  0.10385543679E+02  0.25054393466E+01  0.39230453946E+02  0.40659135021E+02  0.00000000000E+00 0.  1.
         11    1    3    3    0    0 -0.13706365963E+02 -0.54562874576E+01 -0.18545925102E+02  0.23697824349E+02  0.51100000000E-03 0. -1.
        -11    1    3    3    0    0  0.36064529842E+01 -0.46131076024E+01 -0.12679924536E+01  0.59912494525E+01  0.51100000000E-03 0.  1.
        -12    1    3    3    0    0 -0.28563070054E+00  0.75639557134E+01 -0.19416536391E+02  0.20839791178E+02  0.00000000000E+00 0.  1.
</event>
<event>
 7    1  0.2937071E-011  0.5052887E+02  0.7816164E-02  0.1300439E+00
        -11   -1    0    0    0    0  0.00000000000E+00  0.00000000000E+00  0.45593999997E+02  0.45594000000E+02  0.51100000000E-03 0.  1.
         11   -1    0    0    0    0 -0.00000000000E+00 -0.00000000000E+00 -0.45593999997E+02  0.45594000000E+02  0.51100000000E-03 0. -1.
    9900012    2    1    2    0    0 -0.19602703057E+01 -0.12186156866E+01 -0.40593559545E+02  0.50528871131E+02  0.30000034290E+02 0.  0.
        -12    1    1    2    0    0  0.19602703057E+01  0.12186156866E+01  0.40593559545E+02  0.40659128869E+02  0.00000000000E+00 0.  1.
         11    1    3    3    0    0  0.40003341011E+01 -0.17086580096E+01 -0.80354734366E+01  0.91373419946E+01  0.51100000000E-03 0. -1.
        -11    1    3    3    0    0 -0.28898699814E+01 -0.24081610731E+00 -0.36345616283E+02  0.36461118526E+02  0.51100000000E-03 0.  1.
        -12    1    3    3    0    0 -0.30707344254E+01  0.73085843029E+00  0.37875301754E+01  0.49304106103E+01  0.00000000000E+00 0.  1.
</event>
<event>
 7    1  0.2937071E-011  0.5052886E+02  0.7816164E-02  0.1300439E+00
        -11   -1    0    0    0    0  0.00000000000E+00  0.00000000000E+00  0.45593999997E+02  0.45594000000E+02  0.51100000000E-03 0.  1.
         11   -1    0    0    0    0 -0.00000000000E+00 -0.00000000000E+00 -0.45593999997E+02  0.45594000000E+02  0.51100000000E-03 0. -1.
    9900012    2    1    2    0    0 -0.27601504488E+02 -0.12845964490E+02 -0.26950026436E+02  0.50528858610E+02  0.29999996231E+02 0.  0.
        -12    1    1    2    0    0  0.27601504488E+02  0.12845964490E+02  0.26950026436E+02  0.40659141390E+02  0.00000000000E+00 0.  1.
         11    1    3    3    0    0 -0.20107502352E+02 -0.34622242429E+01 -0.11324329789E+02  0.23335361428E+02  0.51100000000E-03 0. -1.
        -11    1    3    3    0    0 -0.26464980528E+01  0.57686993775E+01 -0.44150834587E+01  0.77314168598E+01  0.51100000000E-03 0.  1.
         12    1    3    3    0    0 -0.48475040835E+01 -0.15152439625E+02 -0.11210613188E+02  0.19462080323E+02  0.00000000000E+00 0. -1.
</event>
<event>
 7    1  0.2937071E-011  0.5052887E+02  0.7816164E-02  0.1300439E+00
        -11   -1    0    0    0    0  0.00000000000E+00  0.00000000000E+00  0.45593999997E+02  0.45594000000E+02  0.51100000000E-03 0.  1.
         11   -1    0    0    0    0 -0.00000000000E+00 -0.00000000000E+00 -0.45593999997E+02  0.45594000000E+02  0.51100000000E-03 0. -1.
    9900012    2    1    2    0    0  0.59814842389E+01 -0.25963307625E+02 -0.30713085611E+02  0.50528866657E+02  0.30000020689E+02 0.  0.
        -12    1    1    2    0    0 -0.59814842389E+01  0.25963307625E+02  0.30713085611E+02  0.40659133343E+02  0.00000000000E+00 0.  1.
         11    1    3    3    0    0  0.14384472286E+01 -0.16089084950E+02 -0.65570577551E+01  0.17433381531E+02  0.51100000000E-03 0. -1.
        -11    1    3    3    0    0  0.81365300489E+01 -0.12965970779E+02 -0.10297970932E+02  0.18449057566E+02  0.51100000000E-03 0.  1.
         12    1    3    3    0    0 -0.35934930387E+01  0.30917481043E+01 -0.13858056924E+02  0.14646427560E+02  0.00000000000E+00 0. -1.
</event>
<event>
 7    1  0.2937071E-011  0.5052886E+02  0.7816164E-02  0.1300439E+00
        -11   -1    0    0    0    0  0.00000000000E+00  0.00000000000E+00  0.45593999997E+02  0.45594000000E+02  0.51100000000E-03 0. -1.
         11   -1    0    0    0    0 -0.00000000000E+00 -0.00000000000E+00 -0.45593999997E+02  0.45594000000E+02  0.51100000000E-03 0.  1.
    9900012    2    1    2    0    0  0.33458827367E+02  0.21556119563E+02  0.83070168290E+01  0.50528856527E+02  0.29999989899E+02 0.  0.
        -12    1    1    2    0    0 -0.33458827367E+02 -0.21556119563E+02 -0.83070168290E+01  0.40659143473E+02  0.00000000000E+00 0.  1.
         11    1    3    3    0    0  0.25978894554E+02  0.11727435074E+02  0.12678920492E+02  0.31196004884E+02  0.51100000000E-03 0. -1.
        -11    1    3    3    0    0  0.11260825966E+02  0.79912995986E+01 -0.82525268507E+00  0.13832863513E+02  0.51100000000E-03 0.  1.
        -12    1    3    3    0    0 -0.37808931529E+01  0.18373848907E+01 -0.35466509777E+01  0.54999881298E+01  0.00000000000E+00 0.  1.
</event>
<event>
 7    1  0.2937071E-011  0.5052886E+02  0.7816164E-02  0.1300439E+00
        -11   -1    0    0    0    0  0.00000000000E+00  0.00000000000E+00  0.45593999997E+02  0.45594000000E+02  0.51100000000E-03 0.  1.
         11   -1    0    0    0    0 -0.00000000000E+00 -0.00000000000E+00 -0.45593999997E+02  0.45594000000E+02  0.51100000000E-03 0. -1.
    9900012    2    1    2    0    0 -0.38700083716E+02 -0.68096928338E+01  0.10444955956E+02  0.50528862023E+02  0.30000006604E+02 0.  0.
        -12    1    1    2    0    0  0.38700083716E+02  0.68096928338E+01 -0.10444955956E+02  0.40659137977E+02  0.00000000000E+00 0.  1.
         11    1    3    3    0    0 -0.34781077593E+01 -0.15829977704E+01 -0.40609008110E+01  0.55762022188E+01  0.51100000000E-03 0. -1.
        -11    1    3    3    0    0 -0.85924788958E+01  0.89236192495E+01  0.39344788289E+01  0.12997761269E+02  0.51100000000E-03 0.  1.
         12    1    3    3    0    0 -0.26629497061E+02 -0.14150314313E+02  0.10571377938E+02  0.31954898535E+02  0.00000000000E+00 0. -1.
</event>
<event>
 7    1  0.2937071E-011  0.5052888E+02  0.7816164E-02  0.1300439E+00
        -11   -1    0    0    0    0  0.00000000000E+00  0.00000000000E+00  0.45593999997E+02  0.45594000000E+02  0.51100000000E-03 0.  1.
         11   -1    0    0    0    0 -0.00000000000E+00 -0.00000000000E+00 -0.45593999997E+02  0.45594000000E+02  0.51100000000E-03 0. -1.
    9900012    2    1    2    0    0  0.15778252264E+02  0.66601865139E+01 -0.36876178818E+02  0.50528881796E+02  0.30000066707E+02 0.  0.
        -12    1    1    2    0    0 -0.15778252264E+02 -0.66601865139E+01  0.36876178818E+02  0.40659118204E+02  0.00000000000E+00 0.  1.
         11    1    3    3    0    0  0.23367339945E+01 -0.30670604550E+01 -0.72591349661E+01  0.82196244630E+01  0.51100000000E-03 0. -1.
        -11    1    3    3    0    0  0.56883010867E+01 -0.60301045152E+01 -0.21342739921E+02  0.22896101793E+02  0.51100000000E-03 0.  1.
        -12    1    3    3    0    0  0.77532171828E+01  0.15757351484E+02 -0.82743039307E+01  0.19413155540E+02  0.00000000000E+00 0.  1.
</event>
<event>
 7    1  0.2937071E-011  0.5052885E+02  0.7816164E-02  0.1300439E+00
        -11   -1    0    0    0    0  0.00000000000E+00  0.00000000000E+00  0.45593999997E+02  0.45594000000E+02  0.51100000000E-03 0.  1.
         11   -1    0    0    0    0 -0.00000000000E+00 -0.00000000000E+00 -0.45593999997E+02  0.45594000000E+02  0.51100000000E-03 0. -1.
    9900012    2    1    2    0    0 -0.25335454996E+02  0.14435825308E+02 -0.28335278113E+02  0.50528851978E+02  0.29999976071E+02 0.  0.
        -12    1    1    2    0    0  0.25335454996E+02 -0.14435825308E+02  0.28335278113E+02  0.40659148022E+02  0.00000000000E+00 0.  1.
         11    1    3    3    0    0 -0.21875442872E+02  0.60382282328E+01 -0.91838125227E+01  0.24481372792E+02  0.51100000000E-03 0.  1.
        -11    1    3    3    0    0 -0.91883995813E+01  0.43201062321E+01 -0.82855566739E+01  0.13104978229E+02  0.51100000000E-03 0. -1.
        -12    1    3    3    0    0  0.57283874579E+01  0.40774908433E+01 -0.10865908916E+02  0.12942500957E+02  0.00000000000E+00 0.  1.
</event>
<event>
 7    1  0.2937071E-011  0.5052886E+02  0.7816164E-02  0.1300439E+00
        -11   -1    0    0    0    0  0.00000000000E+00  0.00000000000E+00  0.45593999997E+02  0.45594000000E+02  0.51100000000E-03 0.  1.
         11   -1    0    0    0    0 -0.00000000000E+00 -0.00000000000E+00 -0.45593999997E+02  0.45594000000E+02  0.51100000000E-03 0. -1.
    9900012    2    1    2    0    0 -0.22984770960E+02 -0.20464526951E+02 -0.26571959786E+02  0.50528860729E+02  0.30000002671E+02 0.  0.
        -12    1    1    2    0    0  0.22984770960E+02  0.20464526951E+02  0.26571959786E+02  0.40659139271E+02  0.00000000000E+00 0.  1.
         11    1    3    3    0    0 -0.21873512379E+02 -0.15023936285E+02 -0.22625013210E+02  0.34872057988E+02  0.51100000000E-03 0. -1.
        -11    1    3    3    0    0 -0.50469586789E+01  0.53616372752E+00 -0.63307142943E+01  0.81140130137E+01  0.51100000000E-03 0.  1.
        -12    1    3    3    0    0  0.39357000982E+01 -0.59767543931E+01  0.23837677178E+01  0.75427897273E+01  0.00000000000E+00 0.  1.
</event>
<event>
 7    1  0.2937071E-011  0.5052886E+02  0.7816164E-02  0.1300439E+00
        -11   -1    0    0    0    0  0.00000000000E+00  0.00000000000E+00  0.45593999997E+02  0.45594000000E+02  0.51100000000E-03 0.  1.
         11   -1    0    0    0    0 -0.00000000000E+00 -0.00000000000E+00 -0.45593999997E+02  0.45594000000E+02  0.51100000000E-03 0. -1.
    9900012    2    1    2    0    0  0.13340808814E+02 -0.28085621125E+02 -0.26198971659E+02  0.50528863145E+02  0.30000010016E+02 0.  0.
        -12    1    1    2    0    0 -0.13340808814E+02  0.28085621125E+02  0.26198971659E+02  0.40659136855E+02  0.00000000000E+00 0.  1.
         11    1    3    3    0    0  0.44364769450E+01 -0.65168808227E+01 -0.18282582631E+02  0.19909919418E+02  0.51100000000E-03 0. -1.
        -11    1    3    3    0    0 -0.20055003270E+01 -0.34765091980E+01 -0.85897551984E+01  0.94811414078E+01  0.51100000000E-03 0.  1.
        -12    1    3    3    0    0  0.10909832196E+02 -0.18092231104E+02  0.67336617035E+00  0.21137802319E+02  0.00000000000E+00 0.  1.
</event>
<event>
 7    1  0.2937071E-011  0.5052886E+02  0.7816164E-02  0.1300439E+00
        -11   -1    0    0    0    0  0.00000000000E+00  0.00000000000E+00  0.45593999997E+02  0.45594000000E+02  0.51100000000E-03 0.  1.
         11   -1    0    0    0    0 -0.00000000000E+00 -0.00000000000E+00 -0.45593999997E+02  0.45594000000E+02  0.51100000000E-03 0. -1.
    9900012    2    1    2    0    0  0.20648815617E+02  0.33899013684E+02 -0.88118701277E+01  0.50528858712E+02  0.29999996540E+02 0.  0.
        -12    1    1    2    0    0 -0.20648815617E+02 -0.33899013684E+02  0.88118701277E+01  0.40659141288E+02  0.00000000000E+00 0.  1.
         11    1    3    3    0    0  0.14380278542E+02  0.13048047439E+02 -0.37246784421E+01  0.19771625696E+02  0.51100000000E-03 0. -1.
        -11    1    3    3    0    0  0.30999194096E+01 -0.32671385054E+01  0.26567744340E+01  0.52289716975E+01  0.51100000000E-03 0.  1.
         12    1    3    3    0    0  0.31686176659E+01  0.24118104750E+02 -0.77439661196E+01  0.25528261318E+02  0.00000000000E+00 0. -1.
</event>
<event>
 7    1  0.2937071E-011  0.5052890E+02  0.7816164E-02  0.1300439E+00
        -11   -1    0    0    0    0  0.00000000000E+00  0.00000000000E+00  0.45593999997E+02  0.45594000000E+02  0.51100000000E-03 0. -1.
         11   -1    0    0    0    0 -0.00000000000E+00 -0.00000000000E+00 -0.45593999997E+02  0.45594000000E+02  0.51100000000E-03 0.  1.
    9900012    2    1    2    0    0  0.29297955479E+02 -0.15550080544E+02  0.23515680124E+02  0.50528900011E+02  0.30000122075E+02 0.  0.
        -12    1    1    2    0    0 -0.29297955479E+02  0.15550080544E+02 -0.23515680124E+02  0.40659099989E+02  0.00000000000E+00 0.  1.
         11    1    3    3    0    0  0.59011409031E+01 -0.80156378874E+01  0.64812556640E+01  0.11877735051E+02  0.51100000000E-03 0. -1.
        -11    1    3    3    0    0  0.68939733818E+01 -0.13398632255E+02  0.14578134541E+02  0.20965977732E+02  0.51100000000E-03 0.  1.
        -12    1    3    3    0    0  0.16502841195E+02  0.58641895986E+01  0.24562899187E+01  0.17685187228E+02  0.00000000000E+00 0.  1.
</event>
<event>
 7    1  0.2937071E-011  0.5052886E+02  0.7816164E-02  0.1300439E+00
        -11   -1    0    0    0    0  0.00000000000E+00  0.00000000000E+00  0.45593999997E+02  0.45594000000E+02  0.51100000000E-03 0.  1.
         11   -1    0    0    0    0 -0.00000000000E+00 -0.00000000000E+00 -0.45593999997E+02  0.45594000000E+02  0.51100000000E-03 0. -1.
    9900012    2    1    2    0    0 -0.35261089058E+02  0.94325392601E+01 -0.17912248877E+02  0.50528857630E+02  0.29999993252E+02 0.  0.
        -12    1    1    2    0    0  0.35261089058E+02 -0.94325392601E+01  0.17912248877E+02  0.40659142370E+02  0.00000000000E+00 0.  1.
         11    1    3    3    0    0 -0.99877931402E+00 -0.14367536012E+01  0.24476905885E+01  0.30088221129E+01  0.51100000000E-03 0. -1.
        -11    1    3    3    0    0 -0.13403109903E+01 -0.30487237555E+01 -0.96475170633E+01  0.10206161660E+02  0.51100000000E-03 0.  1.
         12    1    3    3    0    0 -0.32921998754E+02  0.13918016617E+02 -0.10712422402E+02  0.37313873857E+02  0.00000000000E+00 0. -1.
</event>
<event>
 7    1  0.2937071E-011  0.5052886E+02  0.7816164E-02  0.1300439E+00
        -11   -1    0    0    0    0  0.00000000000E+00  0.00000000000E+00  0.45593999997E+02  0.45594000000E+02  0.51100000000E-03 0.  1.
         11   -1    0    0    0    0 -0.00000000000E+00 -0.00000000000E+00 -0.45593999997E+02  0.45594000000E+02  0.51100000000E-03 0. -1.
    9900012    2    1    2    0    0 -0.21258731572E+02 -0.17090891968E+02 -0.30151837407E+02  0.50528861355E+02  0.30000004576E+02 0.  0.
        -12    1    1    2    0    0  0.21258731572E+02  0.17090891968E+02  0.30151837407E+02  0.40659138645E+02  0.00000000000E+00 0.  1.
         11    1    3    3    0    0 -0.61344559526E+01  0.44659132451E+01 -0.32421268538E+00  0.75948038206E+01  0.51100000000E-03 0. -1.
        -11    1    3    3    0    0 -0.71329379071E+01  0.75351809817E+00 -0.64699097928E+01  0.96595199518E+01  0.51100000000E-03 0.  1.
        -12    1    3    3    0    0 -0.79913377125E+01 -0.22310323311E+02 -0.23357714929E+02  0.33274537583E+02  0.00000000000E+00 0.  1.
</event>
<event>
 7    1  0.2937071E-011  0.5052884E+02  0.7816164E-02  0.1300439E+00
        -11   -1    0    0    0    0  0.00000000000E+00  0.00000000000E+00  0.45593999997E+02  0.45594000000E+02  0.51100000000E-03 0. -1.
         11   -1    0    0    0    0 -0.00000000000E+00 -0.00000000000E+00 -0.45593999997E+02  0.45594000000E+02  0.51100000000E-03 0.  1.
    9900012    2    1    2    0    0 -0.29652626397E+02 -0.21410637750E+02  0.17761579429E+02  0.50528839101E+02  0.29999936933E+02 0.  0.
        -12    1    1    2    0    0  0.29652626397E+02  0.21410637750E+02 -0.17761579429E+02  0.40659160899E+02  0.00000000000E+00 0.  1.
         11    1    3    3    0    0 -0.16542214782E+02 -0.20006684914E+02  0.10655834775E+02  0.28061702126E+02  0.51100000000E-03 0. -1.
        -11    1    3    3    0    0 -0.36916637938E+01 -0.86577453069E+01  0.35397614971E+01  0.10055587854E+02  0.51100000000E-03 0.  1.
        -12    1    3    3    0    0 -0.94187478214E+01  0.72537924709E+01  0.35659831569E+01  0.12411549122E+02  0.00000000000E+00 0.  1.
</event>
<event>
 7    1  0.2937071E-011  0.5052886E+02  0.7816164E-02  0.1300439E+00
        -11   -1    0    0    0    0  0.00000000000E+00  0.00000000000E+00  0.45593999997E+02  0.45594000000E+02  0.51100000000E-03 0.  1.
         11   -1    0    0    0    0 -0.00000000000E+00 -0.00000000000E+00 -0.45593999997E+02  0.45594000000E+02  0.51100000000E-03 0. -1.
    9900012    2    1    2    0    0 -0.30150822251E+02  0.21877585544E+01  0.27190211478E+02  0.50528856254E+02  0.29999989070E+02 0.  0.
        -12    1    1    2    0    0  0.30150822251E+02 -0.21877585544E+01 -0.27190211478E+02  0.40659143746E+02  0.00000000000E+00 0.  1.
         11    1    3    3    0    0 -0.19977816401E+02  0.84062938407E+01  0.99512273167E+01  0.23849650934E+02  0.51100000000E-03 0. -1.
        -11    1    3    3    0    0  0.17400691992E+01  0.91566478934E+00  0.11478778449E+02  0.11645970882E+02  0.51100000000E-03 0.  1.
         12    1    3    3    0    0 -0.11913075049E+02 -0.71342000757E+01  0.57602057121E+01  0.15033234439E+02  0.00000000000E+00 0. -1.
</event>
<event>
 7    1  0.2937071E-011  0.5052888E+02  0.7816164E-02  0.1300439E+00
        -11   -1    0    0    0    0  0.00000000000E+00  0.00000000000E+00  0.45593999997E+02  0.45594000000E+02  0.51100000000E-03 0. -1.
         11   -1    0    0    0    0 -0.00000000000E+00 -0.00000000000E+00 -0.45593999997E+02  0.45594000000E+02  0.51100000000E-03 0.  1.
    9900012    2    1    2    0    0  0.21684163959E+02 -0.18268220555E+02  0.29141609848E+02  0.50528877119E+02  0.30000052492E+02 0.  0.
        -12    1    1    2    0    0 -0.21684163959E+02  0.18268220555E+02 -0.29141609848E+02  0.40659122881E+02  0.00000000000E+00 0.  1.
         11    1    3    3    0    0  0.10039804704E+02  0.14141050117E+01  0.11077490389E+02  0.15016929281E+02  0.51100000000E-03 0. -1.
        -11    1    3    3    0    0  0.13945354709E+02 -0.67626436765E+01  0.34640677024E+01  0.15880995962E+02  0.51100000000E-03 0.  1.
        -12    1    3    3    0    0 -0.23009954533E+01 -0.12919681891E+02  0.14600051757E+02  0.19630951876E+02  0.00000000000E+00 0.  1.
</event>
<event>
 7    1  0.2937071E-011  0.5052887E+02  0.7816164E-02  0.1300439E+00
        -11   -1    0    0    0    0  0.00000000000E+00  0.00000000000E+00  0.45593999997E+02  0.45594000000E+02  0.51100000000E-03 0.  1.
         11   -1    0    0    0    0 -0.00000000000E+00 -0.00000000000E+00 -0.45593999997E+02  0.45594000000E+02  0.51100000000E-03 0. -1.
    9900012    2    1    2    0    0 -0.36037933772E+00  0.45385072739E+01 -0.40403427972E+02  0.50528869249E+02  0.30000028568E+02 0.  0.
        -12    1    1    2    0    0  0.36037933772E+00 -0.45385072739E+01  0.40403427972E+02  0.40659130751E+02  0.00000000000E+00 0.  1.
         11    1    3    3    0    0  0.46787426643E+01  0.67270969683E+01 -0.18611799537E+02  0.20335770180E+02  0.51100000000E-03 0.  1.
        -11    1    3    3    0    0 -0.82081768632E+01 -0.47445582018E+00 -0.24398107160E+02  0.25746201836E+02  0.51100000000E-03 0. -1.
        -12    1    3    3    0    0  0.31690548613E+01 -0.17141338742E+01  0.26064787249E+01  0.44468972324E+01  0.00000000000E+00 0.  1.
</event>
<event>
 7    1  0.2937071E-011  0.5052884E+02  0.7816164E-02  0.1300439E+00
        -11   -1    0    0    0    0  0.00000000000E+00  0.00000000000E+00  0.45593999997E+02  0.45594000000E+02  0.51100000000E-03 0.  1.
         11   -1    0    0    0    0 -0.00000000000E+00 -0.00000000000E+00 -0.45593999997E+02  0.45594000000E+02  0.51100000000E-03 0. -1.
    9900012    2    1    2    0    0  0.14626454017E+02  0.37786892461E+02 -0.33741907465E+01  0.50528836676E+02  0.29999929561E+02 0.  0.
        -12    1    1    2    0    0 -0.14626454017E+02 -0.37786892461E+02  0.33741907465E+01  0.40659163324E+02  0.00000000000E+00 0.  1.
         11    1    3    3    0    0 -0.19683035579E+00 -0.10230103534E+01 -0.34400101955E+01  0.35942958668E+01  0.51100000000E-03 0. -1.
        -11    1    3    3    0    0  0.42738194639E+01 -0.13345608450E+00 -0.46450954239E+01  0.63134978494E+01  0.51100000000E-03 0.  1.
        -12    1    3    3    0    0  0.10549464909E+02  0.38943358899E+02  0.47109148729E+01  0.40621042960E+02  0.00000000000E+00 0.  1.
</event>
<event>
 7    1  0.2937071E-011  0.5052884E+02  0.7816164E-02  0.1300439E+00
        -11   -1    0    0    0    0  0.00000000000E+00  0.00000000000E+00  0.45593999997E+02  0.45594000000E+02  0.51100000000E-03 0.  1.
         11   -1    0    0    0    0 -0.00000000000E+00 -0.00000000000E+00 -0.45593999997E+02  0.45594000000E+02  0.51100000000E-03 0. -1.
    9900012    2    1    2    0    0  0.33064731534E+01 -0.40485812511E+02 -0.17702119682E+01  0.50528838305E+02  0.29999934511E+02 0.  0.
        -12    1    1    2    0    0 -0.33064731534E+01  0.40485812511E+02  0.17702119682E+01  0.40659161695E+02  0.00000000000E+00 0.  1.
         11    1    3    3    0    0  0.32245966423E+01 -0.72712986851E+01  0.15089315222E+01  0.80960905796E+01  0.51100000000E-03 0. -1.
        -11    1    3    3    0    0  0.77718780957E+01 -0.23433126814E+02 -0.11789001258E+02  0.27358619708E+02  0.51100000000E-03 0.  1.
        -12    1    3    3    0    0 -0.76900015847E+01 -0.97813870118E+01  0.85098577678E+01  0.15074128017E+02  0.00000000000E+00 0.  1.
</event>
<event>
 7    1  0.2937071E-011  0.5052886E+02  0.7816164E-02  0.1300439E+00
        -11   -1    0    0    0    0  0.00000000000E+00  0.00000000000E+00  0.45593999997E+02  0.45594000000E+02  0.51100000000E-03 0.  1.
         11   -1    0    0    0    0 -0.00000000000E+00 -0.00000000000E+00 -0.45593999997E+02  0.45594000000E+02  0.51100000000E-03 0. -1.
    9900012    2    1    2    0    0 -0.27477968378E+02 -0.20678432525E+02 -0.21691696141E+02  0.50528855895E+02  0.29999987978E+02 0.  0.
        -12    1    1    2    0    0  0.27477968378E+02  0.20678432525E+02  0.21691696141E+02  0.40659144105E+02  0.00000000000E+00 0.  1.
         11    1    3    3    0    0 -0.54604986807E+01 -0.26277761428E+01  0.49678140534E+01  0.78359064586E+01  0.51100000000E-03 0. -1.
        -11    1    3    3    0    0 -0.20175287177E+01  0.26979026213E+01 -0.71147008591E+01  0.78719800086E+01  0.51100000000E-03 0.  1.
         12    1    3    3    0    0 -0.19999940980E+02 -0.20748559004E+02 -0.19544809335E+02  0.34820969428E+02  0.00000000000E+00 0. -1.
</event>
<event>
 7    1  0.2937071E-011  0.5052886E+02  0.7816164E-02  0.1300439E+00
        -11   -1    0    0    0    0  0.00000000000E+00  0.00000000000E+00  0.45593999997E+02  0.45594000000E+02  0.51100000000E-03 0. -1.
         11   -1    0    0    0    0 -0.00000000000E+00 -0.00000000000E+00 -0.45593999997E+02  0.45594000000E+02  0.51100000000E-03 0.  1.
    9900012    2    1    2    0    0  0.30340800335E+02 -0.78463224748E+01  0.25904381723E+02  0.50528856702E+02  0.29999990430E+02 0.  0.
        -12    1    1    2    0    0 -0.30340800335E+02  0.78463224748E+01 -0.25904381723E+02  0.40659143298E+02  0.00000000000E+00 0.  1.
         11    1    3    3    0    0  0.32701113725E+02 -0.61086216432E+01  0.12331101819E+02  0.35478643852E+02  0.51100000000E-03 0. -1.
        -11    1    3    3    0    0  0.95847753356E-01  0.19010063298E+01  0.25279882280E+01  0.31644488620E+01  0.51100000000E-03 0.  1.
         12    1    3    3    0    0 -0.24561611437E+01 -0.36387071614E+01  0.11045291676E+02  0.11885763988E+02  0.00000000000E+00 0. -1.
</event>
<event>
 7    1  0.2937071E-011  0.5052886E+02  0.7816164E-02  0.1300439E+00
        -11   -1    0    0    0    0  0.00000000000E+00  0.00000000000E+00  0.45593999997E+02  0.45594000000E+02  0.51100000000E-03 0.  1.
         11   -1    0    0    0    0 -0.00000000000E+00 -0.00000000000E+00 -0.45593999997E+02  0.45594000000E+02  0.51100000000E-03 0. -1.
    9900012    2    1    2    0    0 -0.57487602634E+01 -0.19812119640E+02 -0.35037080175E+02  0.50528864293E+02  0.30000013506E+02 0.  0.
        -12    1    1    2    0    0  0.57487602634E+01  0.19812119640E+02  0.35037080175E+02  0.40659135707E+02  0.00000000000E+00 0.  1.
         11    1    3    3    0    0  0.59587357051E+01 -0.20216972566E+01 -0.16296424576E+01  0.64999635230E+01  0.51100000000E-03 0. -1.
        -11    1    3    3    0    0 -0.34026780669E+01 -0.10518247212E+01  0.19332971272E+01  0.40524302972E+01  0.51100000000E-03 0.  1.
         12    1    3    3    0    0 -0.83048179016E+01 -0.16738597663E+02 -0.35340734845E+02  0.39976470473E+02  0.00000000000E+00 0. -1.
</event>
<event>
 7    1  0.2937071E-011  0.5052886E+02  0.7816164E-02  0.1300439E+00
        -11   -1    0    0    0    0  0.00000000000E+00  0.00000000000E+00  0.45593999997E+02  0.45594000000E+02  0.51100000000E-03 0.  1.
         11   -1    0    0    0    0 -0.00000000000E+00 -0.00000000000E+00 -0.45593999997E+02  0.45594000000E+02  0.51100000000E-03 0. -1.
    9900012    2    1    2    0    0  0.14479091937E+02 -0.23701595248E+02 -0.29694374321E+02  0.50528860967E+02  0.30000003394E+02 0.  0.
        -12    1    1    2    0    0 -0.14479091937E+02  0.23701595248E+02  0.29694374321E+02  0.40659139033E+02  0.00000000000E+00 0.  1.
         11    1    3    3    0    0  0.81483976447E+01 -0.13980699099E+01 -0.35856657544E+01  0.90115471930E+01  0.51100000000E-03 0. -1.
        -11    1    3    3    0    0  0.12371318865E+02 -0.14498034645E+02 -0.75549903996E+01  0.20501717470E+02  0.51100000000E-03 0.  1.
        -12    1    3    3    0    0 -0.60406245721E+01 -0.78054906928E+01 -0.18553718167E+02  0.21015596304E+02  0.00000000000E+00 0.  1.
</event>
<event>
 7    1  0.2937071E-011  0.5052887E+02  0.7816164E-02  0.1300439E+00
        -11   -1    0    0    0    0  0.00000000000E+00  0.00000000000E+00  0.45593999997E+02  0.45594000000E+02  0.51100000000E-03 0. -1.
         11   -1    0    0    0    0 -0.00000000000E+00 -0.00000000000E+00 -0.45593999997E+02  0.45594000000E+02  0.51100000000E-03 0.  1.
    9900012    2    1    2    0    0 -0.35078259624E+02 -0.42273796847E+01  0.20119882506E+02  0.50528871759E+02  0.30000036198E+02 0.  0.
        -12    1    1    2    0    0  0.35078259624E+02  0.42273796847E+01 -0.20119882506E+02  0.40659128241E+02  0.00000000000E+00 0.  1.
         11    1    3    3    0    0 -0.26332613671E+02  0.52137865467E+01  0.42943118911E+01  0.27185128798E+02  0.51100000000E-03 0. -1.
        -11    1    3    3    0    0 -0.84690313732E+01 -0.84080546755E+01  0.58134113897E+01  0.13274623463E+02  0.51100000000E-03 0.  1.
        -12    1    3    3    0    0 -0.27661458033E+00 -0.10331115559E+01  0.10012159225E+02  0.10069119498E+02  0.00000000000E+00 0.  1.
</event>
<event>
 7    1  0.2937071E-011  0.5052887E+02  0.7816164E-02  0.1300439E+00
        -11   -1    0    0    0    0  0.00000000000E+00  0.00000000000E+00  0.45593999997E+02  0.45594000000E+02  0.51100000000E-03 0. -1.
         11   -1    0    0    0    0 -0.00000000000E+00 -0.00000000000E+00 -0.45593999997E+02  0.45594000000E+02  0.51100000000E-03 0.  1.
    9900012    2    1    2    0    0  0.11605474098E+02  0.38715991073E+02 -0.44215155244E+01  0.50528870725E+02  0.30000033057E+02 0.  0.
        -12    1    1    2    0    0 -0.11605474098E+02 -0.38715991073E+02  0.44215155244E+01  0.40659129275E+02  0.00000000000E+00 0.  1.
         11    1    3    3    0    0  0.98885717228E+01  0.23357940241E+02  0.27567516485E+01  0.25514249017E+02  0.51100000000E-03 0. -1.
        -11    1    3    3    0    0  0.33591686889E+01  0.65855444443E+01  0.57076779671E+01  0.93397536341E+01  0.51100000000E-03 0.  1.
        -12    1    3    3    0    0 -0.16422663136E+01  0.87725063883E+01 -0.12885945140E+02  0.15674868074E+02  0.00000000000E+00 0.  1.
</event>
<event>
 7    1  0.2937071E-011  0.5052885E+02  0.7816164E-02  0.1300439E+00
        -11   -1    0    0    0    0  0.00000000000E+00  0.00000000000E+00  0.45593999997E+02  0.45594000000E+02  0.51100000000E-03 0.  1.
         11   -1    0    0    0    0 -0.00000000000E+00 -0.00000000000E+00 -0.45593999997E+02  0.45594000000E+02  0.51100000000E-03 0. -1.
    9900012    2    1    2    0    0  0.27898277471E+02 -0.21110459473E+02  0.20717164528E+02  0.50528852308E+02  0.29999977074E+02 0.  0.
        -12    1    1    2    0    0 -0.27898277471E+02  0.21110459473E+02 -0.20717164528E+02  0.40659147692E+02  0.00000000000E+00 0.  1.
         11    1    3    3    0    0  0.25934325343E+02 -0.93655084301E+01  0.88868435722E+01  0.28970294580E+02  0.51100000000E-03 0. -1.
        -11    1    3    3    0    0 -0.31678041864E+00  0.23626530329E+01  0.53701257378E+01  0.58754344425E+01  0.51100000000E-03 0.  1.
        -12    1    3    3    0    0  0.22807325466E+01 -0.14107604076E+02  0.64601952182E+01  0.15683123285E+02  0.00000000000E+00 0.  1.
</event>
<event>
 7    1  0.3264863E-011  0.5052886E+02  0.7816164E-02  0.1300439E+00
        -11   -1    0    0    0    0  0.00000000000E+00  0.00000000000E+00  0.45593999997E+02  0.45594000000E+02  0.51100000000E-03 0.  1.
         11   -1    0    0    0    0 -0.00000000000E+00 -0.00000000000E+00 -0.45593999997E+02  0.45594000000E+02  0.51100000000E-03 0. -1.
    9900012    2    1    2    0    0 -0.14970904603E+02 -0.14449228246E+02 -0.34932182822E+02  0.50528861073E+02  0.30000003719E+02 0.  0.
        -12    1    1    2    0    0  0.14970904603E+02  0.14449228246E+02  0.34932182822E+02  0.40659138927E+02  0.00000000000E+00 0.  1.
         11    1    3    3    0    0 -0.90997134596E+01 -0.10589989615E+02 -0.20923019784E+02  0.25154033916E+02  0.51100000000E-03 0.  1.
        -11    1    3    3    0    0 -0.10333567119E+02 -0.45753498637E+00 -0.16307470350E+02  0.19311280049E+02  0.51100000000E-03 0. -1.
        -12    1    3    3    0    0  0.44623759755E+01 -0.34017036446E+01  0.22983073119E+01  0.60635471082E+01  0.00000000000E+00 0.  1.
</event>
<event>
 7    1  0.2937071E-011  0.5052887E+02  0.7816164E-02  0.1300439E+00
        -11   -1    0    0    0    0  0.00000000000E+00  0.00000000000E+00  0.45593999997E+02  0.45594000000E+02  0.51100000000E-03 0.  1.
         11   -1    0    0    0    0 -0.00000000000E+00 -0.00000000000E+00 -0.45593999997E+02  0.45594000000E+02  0.51100000000E-03 0. -1.
    9900012    2    1    2    0    0 -0.36996602208E+01 -0.38217396067E+02  0.13375650624E+02  0.50528869691E+02  0.30000029911E+02 0.  0.
        -12    1    1    2    0    0  0.36996602208E+01  0.38217396067E+02 -0.13375650624E+02  0.40659130309E+02  0.00000000000E+00 0.  1.
         11    1    3    3    0    0  0.39574043208E+01 -0.27143506089E+01  0.19052750861E+01  0.51632181439E+01  0.51100000000E-03 0. -1.
        -11    1    3    3    0    0  0.63879173115E+00 -0.31458724356E+01  0.11523127518E+02  0.11961899361E+02  0.51100000000E-03 0.  1.
         12    1    3    3    0    0 -0.82958562728E+01 -0.32357173023E+02 -0.52751980555E-01  0.33403752186E+02  0.00000000000E+00 0. -1.
</event>
<event>
 7    1  0.2937071E-011  0.5052886E+02  0.7816164E-02  0.1300439E+00
        -11   -1    0    0    0    0  0.00000000000E+00  0.00000000000E+00  0.45593999997E+02  0.45594000000E+02  0.51100000000E-03 0.  1.
         11   -1    0    0    0    0 -0.00000000000E+00 -0.00000000000E+00 -0.45593999997E+02  0.45594000000E+02  0.51100000000E-03 0. -1.
    9900012    2    1    2    0    0 -0.46412847872E+01  0.22175604794E+02 -0.33761909751E+02  0.50528861759E+02  0.30000005804E+02 0.  0.
        -12    1    1    2    0    0  0.46412847872E+01 -0.22175604794E+02  0.33761909751E+02  0.40659138241E+02  0.00000000000E+00 0.  1.
         11    1    3    3    0    0 -0.54018193412E+01  0.99227612197E+01 -0.21047185019E+02  0.23887755021E+02  0.51100000000E-03 0. -1.
        -11    1    3    3    0    0 -0.16344375068E+01 -0.63512927179E+00 -0.13400335845E+02  0.13514576433E+02  0.51100000000E-03 0.  1.
         12    1    3    3    0    0  0.23949720609E+01  0.12887972846E+02  0.68561111374E+00  0.13126530305E+02  0.00000000000E+00 0. -1.
</event>
<event>
 7    1  0.2937071E-011  0.5052886E+02  0.7816164E-02  0.1300439E+00
        -11   -1    0    0    0    0  0.00000000000E+00  0.00000000000E+00  0.45593999997E+02  0.45594000000E+02  0.51100000000E-03 0.  1.
         11   -1    0    0    0    0 -0.00000000000E+00 -0.00000000000E+00 -0.45593999997E+02  0.45594000000E+02  0.51100000000E-03 0. -1.
    9900012    2    1    2    0    0  0.24535702503E+02 -0.31676206906E+02 -0.69125068971E+01  0.50528861631E+02  0.30000005414E+02 0.  0.
        -12    1    1    2    0    0 -0.24535702503E+02  0.31676206906E+02  0.69125068971E+01  0.40659138369E+02  0.00000000000E+00 0.  1.
         11    1    3    3    0    0  0.22860462368E+02 -0.10150712427E+02 -0.34580520907E+00  0.25015141095E+02  0.51100000000E-03 0. -1.
        -11    1    3    3    0    0  0.29097333704E+01 -0.13788830151E+01 -0.40485137498E+01  0.51728454935E+01  0.51100000000E-03 0.  1.
         12    1    3    3    0    0 -0.12344932355E+01 -0.20146611464E+02 -0.25181879382E+01  0.20340875043E+02  0.00000000000E+00 0. -1.
</event>
<event>
 7    1  0.2937071E-011  0.5052885E+02  0.7816164E-02  0.1300439E+00
        -11   -1    0    0    0    0  0.00000000000E+00  0.00000000000E+00  0.45593999997E+02  0.45594000000E+02  0.51100000000E-03 0.  1.
         11   -1    0    0    0    0 -0.00000000000E+00 -0.00000000000E+00 -0.45593999997E+02  0.45594000000E+02  0.51100000000E-03 0. -1.
    9900012    2    1    2    0    0 -0.34422872865E+02  0.16121400096E+02 -0.14433729030E+02  0.50528852800E+02  0.29999978570E+02 0.  0.
        -12    1    1    2    0    0  0.34422872865E+02 -0.16121400096E+02  0.14433729030E+02  0.40659147200E+02  0.00000000000E+00 0.  1.
         11    1    3    3    0    0 -0.46113166668E+01 -0.13670062482E+01 -0.69865711982E+01  0.84820472089E+01  0.51100000000E-03 0. -1.
        -11    1    3    3    0    0 -0.52073748841E+01 -0.47753313901E+01  0.23546094259E+01  0.74474645940E+01  0.51100000000E-03 0.  1.
         12    1    3    3    0    0 -0.24604181314E+02  0.22263737735E+02 -0.98017672574E+01  0.34599340997E+02  0.00000000000E+00 0. -1.
</event>
<event>
 7    1  0.2937071E-011  0.5052885E+02  0.7816164E-02  0.1300439E+00
        -11   -1    0    0    0    0  0.00000000000E+00  0.00000000000E+00  0.45593999997E+02  0.45594000000E+02  0.51100000000E-03 0.  1.
         11   -1    0    0    0    0 -0.00000000000E+00 -0.00000000000E+00 -0.45593999997E+02  0.45594000000E+02  0.51100000000E-03 0. -1.
    9900012    2    1    2    0    0 -0.28989381533E+02  0.70718110988E+01 -0.27618322510E+02  0.50528849835E+02  0.29999969557E+02 0.  0.
        -12    1    1    2    0    0  0.28989381533E+02 -0.70718110988E+01  0.27618322510E+02  0.40659150165E+02  0.00000000000E+00 0.  1.
         11    1    3    3    0    0 -0.15484205703E+02 -0.46041706682E+01 -0.15584035562E+02  0.22445961295E+02  0.51100000000E-03 0. -1.
        -11    1    3    3    0    0 -0.17215862721E+02  0.99085329880E+01 -0.59411846505E+01  0.20733128816E+02  0.51100000000E-03 0.  1.
        -12    1    3    3    0    0  0.37106868905E+01  0.17674487791E+01 -0.60931022976E+01  0.73497597236E+01  0.00000000000E+00 0.  1.
</event>
<event>
 7    1  0.2937071E-011  0.5052886E+02  0.7816164E-02  0.1300439E+00
        -11   -1    0    0    0    0  0.00000000000E+00  0.00000000000E+00  0.45593999997E+02  0.45594000000E+02  0.51100000000E-03 0.  1.
         11   -1    0    0    0    0 -0.00000000000E+00 -0.00000000000E+00 -0.45593999997E+02  0.45594000000E+02  0.51100000000E-03 0. -1.
    9900012    2    1    2    0    0 -0.87089410019E+01 -0.39483436508E+02 -0.42869930830E+01  0.50528859311E+02  0.29999998363E+02 0.  0.
        -12    1    1    2    0    0  0.87089410019E+01  0.39483436508E+02  0.42869930830E+01  0.40659140689E+02  0.00000000000E+00 0.  1.
         11    1    3    3    0    0  0.31496671762E+01 -0.29939518151E+02 -0.89692520151E+01  0.31412459827E+02  0.51100000000E-03 0. -1.
        -11    1    3    3    0    0 -0.60295690759E+01 -0.45395948031E+01 -0.31198186629E+01  0.81668165749E+01  0.51100000000E-03 0.  1.
         12    1    3    3    0    0 -0.58290391022E+01 -0.50043235536E+01  0.78020775950E+01  0.10949582909E+02  0.00000000000E+00 0. -1.
</event>
<event>
 7    1  0.2937071E-011  0.5052885E+02  0.7816164E-02  0.1300439E+00
        -11   -1    0    0    0    0  0.00000000000E+00  0.00000000000E+00  0.45593999997E+02  0.45594000000E+02  0.51100000000E-03 0.  1.
         11   -1    0    0    0    0 -0.00000000000E+00 -0.00000000000E+00 -0.45593999997E+02  0.45594000000E+02  0.51100000000E-03 0. -1.
    9900012    2    1    2    0    0  0.48808316194E+01 -0.27160707700E+02 -0.29860339747E+02  0.50528850355E+02  0.29999971138E+02 0.  0.
        -12    1    1    2    0    0 -0.48808316194E+01  0.27160707700E+02  0.29860339747E+02  0.40659149645E+02  0.00000000000E+00 0.  1.
         11    1    3    3    0    0 -0.42841298230E+01 -0.38814532186E+01 -0.80629742602E+01  0.99212399230E+01  0.51100000000E-03 0. -1.
        -11    1    3    3    0    0 -0.49156844809E+01 -0.52540606518E+00  0.14599544776E+01  0.51547524467E+01  0.51100000000E-03 0.  1.
         12    1    3    3    0    0  0.14080645923E+02 -0.22753848416E+02 -0.23257319965E+02  0.35452857985E+02  0.00000000000E+00 0. -1.
</event>
<event>
 7    1  0.2937071E-011  0.5052886E+02  0.7816164E-02  0.1300439E+00
        -11   -1    0    0    0    0  0.00000000000E+00  0.00000000000E+00  0.45593999997E+02  0.45594000000E+02  0.51100000000E-03 0.  1.
         11   -1    0    0    0    0 -0.00000000000E+00 -0.00000000000E+00 -0.45593999997E+02  0.45594000000E+02  0.51100000000E-03 0. -1.
    9900012    2    1    2    0    0  0.15268126079E+02  0.80226159026E+01 -0.36819666369E+02  0.50528857468E+02  0.29999992759E+02 0.  0.
        -12    1    1    2    0    0 -0.15268126079E+02 -0.80226159026E+01  0.36819666369E+02  0.40659142532E+02  0.00000000000E+00 0.  1.
         11    1    3    3    0    0  0.74477865736E+01 -0.58616279348E+00 -0.11659720457E+02  0.13847822683E+02  0.51100000000E-03 0. -1.
        -11    1    3    3    0    0  0.13268706889E+02  0.13063838134E+02 -0.22381575043E+02  0.29114555655E+02  0.51100000000E-03 0.  1.
        -12    1    3    3    0    0 -0.54483673832E+01 -0.44550594379E+01 -0.27783708695E+01  0.75664791301E+01  0.00000000000E+00 0.  1.
</event>
<event>
 7    1  0.2937071E-011  0.5052886E+02  0.7816164E-02  0.1300439E+00
        -11   -1    0    0    0    0  0.00000000000E+00  0.00000000000E+00  0.45593999997E+02  0.45594000000E+02  0.51100000000E-03 0.  1.
         11   -1    0    0    0    0 -0.00000000000E+00 -0.00000000000E+00 -0.45593999997E+02  0.45594000000E+02  0.51100000000E-03 0. -1.
    9900012    2    1    2    0    0  0.11325336420E+01  0.83590094303E+01 -0.39774493850E+02  0.50528855492E+02  0.29999986754E+02 0.  0.
        -12    1    1    2    0    0 -0.11325336420E+01 -0.83590094303E+01  0.39774493850E+02  0.40659144508E+02  0.00000000000E+00 0.  1.
         11    1    3    3    0    0 -0.81998897359E+00 -0.36381306649E+00 -0.30151259116E+02  0.30164601247E+02  0.51100000000E-03 0. -1.
        -11    1    3    3    0    0 -0.64717182109E+01  0.25701872368E+01 -0.63685750282E+01  0.94365113885E+01  0.51100000000E-03 0.  1.
         12    1    3    3    0    0  0.84242408265E+01  0.61526352600E+01 -0.32546597058E+01  0.10927742857E+02  0.00000000000E+00 0. -1.
</event>
<event>
 7    1  0.2937071E-011  0.5052888E+02  0.7816164E-02  0.1300439E+00
        -11   -1    0    0    0    0  0.00000000000E+00  0.00000000000E+00  0.45593999997E+02  0.45594000000E+02  0.51100000000E-03 0.  1.
         11   -1    0    0    0    0 -0.00000000000E+00 -0.00000000000E+00 -0.45593999997E+02  0.45594000000E+02  0.51100000000E-03 0. -1.
    9900012    2    1    2    0    0 -0.14067575873E+02  0.35988764978E+02 -0.12652131960E+02  0.50528876316E+02  0.30000050051E+02 0.  0.
        -12    1    1    2    0    0  0.14067575873E+02 -0.35988764978E+02  0.12652131960E+02  0.40659123684E+02  0.00000000000E+00 0.  1.
         11    1    3    3    0    0  0.67169679227E+00  0.10058462160E+02 -0.87773172449E+01  0.13366567842E+02  0.51100000000E-03 0. -1.
        -11    1    3    3    0    0  0.60108957830E+00  0.14208808629E+02 -0.94409796861E+01  0.17069963358E+02  0.51100000000E-03 0.  1.
         12    1    3    3    0    0 -0.15340362244E+02  0.11721494189E+02  0.55661649709E+01  0.20092345116E+02  0.00000000000E+00 0. -1.
</event>
<event>
 7    1  0.2937071E-011  0.5052886E+02  0.7816164E-02  0.1300439E+00
        -11   -1    0    0    0    0  0.00000000000E+00  0.00000000000E+00  0.45593999997E+02  0.45594000000E+02  0.51100000000E-03 0.  1.
         11   -1    0    0    0    0 -0.00000000000E+00 -0.00000000000E+00 -0.45593999997E+02  0.45594000000E+02  0.51100000000E-03 0. -1.
    9900012    2    1    2    0    0 -0.34265865842E+02  0.21003240214E+02  0.61546775809E+01  0.50528859361E+02  0.29999998513E+02 0.  0.
        -12    1    1    2    0    0  0.34265865842E+02 -0.21003240214E+02 -0.61546775809E+01  0.40659140639E+02  0.00000000000E+00 0.  1.
         11    1    3    3    0    0  0.16131824536E+01  0.14863432942E+01  0.49257269861E+01  0.53920645971E+01  0.51100000000E-03 0. -1.
        -11    1    3    3    0    0 -0.26474964220E+01 -0.34141400827E+01 -0.17284292547E+01  0.46532846204E+01  0.51100000000E-03 0.  1.
         12    1    3    3    0    0 -0.33231551874E+02  0.22931037002E+02  0.29573798495E+01  0.40483510143E+02  0.00000000000E+00 0. -1.
</event>
<event>
 7    1  0.2937071E-011  0.5052886E+02  0.7816164E-02  0.1300439E+00
        -11   -1    0    0    0    0  0.00000000000E+00  0.00000000000E+00  0.45593999997E+02  0.45594000000E+02  0.51100000000E-03 0. -1.
         11   -1    0    0    0    0 -0.00000000000E+00 -0.00000000000E+00 -0.45593999997E+02  0.45594000000E+02  0.51100000000E-03 0.  1.
    9900012    2    1    2    0    0  0.47782308870E+01  0.40206247093E+02 -0.37137240792E+01  0.50528861516E+02  0.30000005063E+02 0.  0.
        -12    1    1    2    0    0 -0.47782308870E+01 -0.40206247093E+02  0.37137240792E+01  0.40659138484E+02  0.00000000000E+00 0.  1.
         11    1    3    3    0    0  0.77142917282E+01  0.26119934584E+02 -0.43932196731E+01  0.27587345992E+02  0.51100000000E-03 0. -1.
        -11    1    3    3    0    0  0.61312729662E+01  0.14062346060E+01  0.33485149368E+01  0.71261880761E+01  0.51100000000E-03 0.  1.
        -12    1    3    3    0    0 -0.90673338073E+01  0.12680077903E+02 -0.26690193429E+01  0.15815327447E+02  0.00000000000E+00 0.  1.
</event>
<event>
 7    1  0.2937071E-011  0.5052886E+02  0.7816164E-02  0.1300439E+00
        -11   -1    0    0    0    0  0.00000000000E+00  0.00000000000E+00  0.45593999997E+02  0.45594000000E+02  0.51100000000E-03 0. -1.
         11   -1    0    0    0    0 -0.00000000000E+00 -0.00000000000E+00 -0.45593999997E+02  0.45594000000E+02  0.51100000000E-03 0.  1.
    9900012    2    1    2    0    0 -0.95588731161E+01 -0.23684787580E+02  0.31635806132E+02  0.50528862680E+02  0.30000008602E+02 0.  0.
        -12    1    1    2    0    0  0.95588731161E+01  0.23684787580E+02 -0.31635806132E+02  0.40659137320E+02  0.00000000000E+00 0.  1.
         11    1    3    3    0    0 -0.27785438819E+01 -0.57457413642E+00  0.47948960599E+01  0.55714872367E+01  0.51100000000E-03 0.  1.
        -11    1    3    3    0    0  0.71045132666E+01  0.19926251744E+01  0.54667312081E+01  0.91831266029E+01  0.51100000000E-03 0. -1.
         12    1    3    3    0    0 -0.13884842501E+02 -0.25102838618E+02  0.21374178864E+02  0.35774248840E+02  0.00000000000E+00 0. -1.
</event>
<event>
 7    1  0.2937071E-011  0.5052886E+02  0.7816164E-02  0.1300439E+00
        -11   -1    0    0    0    0  0.00000000000E+00  0.00000000000E+00  0.45593999997E+02  0.45594000000E+02  0.51100000000E-03 0. -1.
         11   -1    0    0    0    0 -0.00000000000E+00 -0.00000000000E+00 -0.45593999997E+02  0.45594000000E+02  0.51100000000E-03 0.  1.
    9900012    2    1    2    0    0 -0.26337541529E+02  0.30900158469E+02 -0.21633351434E+01  0.50528857041E+02  0.29999991463E+02 0.  0.
        -12    1    1    2    0    0  0.26337541529E+02 -0.30900158469E+02  0.21633351434E+01  0.40659142959E+02  0.00000000000E+00 0.  1.
         11    1    3    3    0    0 -0.10643908214E+02  0.14274970473E+02 -0.45151236578E+01  0.18369918508E+02  0.51100000000E-03 0. -1.
        -11    1    3    3    0    0 -0.51774720570E+01  0.71670928468E+01 -0.10023310172E+02  0.13365634435E+02  0.51100000000E-03 0.  1.
        -12    1    3    3    0    0 -0.10516161257E+02  0.94580951499E+01  0.12375098687E+02  0.18793304099E+02  0.00000000000E+00 0.  1.
</event>
<event>
 7    1  0.2937071E-011  0.5052886E+02  0.7816164E-02  0.1300439E+00
        -11   -1    0    0    0    0  0.00000000000E+00  0.00000000000E+00  0.45593999997E+02  0.45594000000E+02  0.51100000000E-03 0.  1.
         11   -1    0    0    0    0 -0.00000000000E+00 -0.00000000000E+00 -0.45593999997E+02  0.45594000000E+02  0.51100000000E-03 0. -1.
    9900012    2    1    2    0    0  0.55069756167E+01  0.38193115445E+02  0.12811125837E+02  0.50528858431E+02  0.29999995688E+02 0.  0.
        -12    1    1    2    0    0 -0.55069756167E+01 -0.38193115445E+02 -0.12811125837E+02  0.40659141569E+02  0.00000000000E+00 0.  1.
         11    1    3    3    0    0  0.19532271464E+01  0.55281537919E+00  0.34644396137E+01  0.40153509469E+01  0.51100000000E-03 0. -1.
        -11    1    3    3    0    0  0.82948331284E+01  0.72804571267E+01  0.11207377130E+02  0.15729418775E+02  0.51100000000E-03 0.  1.
         12    1    3    3    0    0 -0.47410846582E+01  0.30359842940E+02 -0.18606909060E+01  0.30784088710E+02  0.00000000000E+00 0. -1.
</event>
<event>
 7    1  0.2937071E-011  0.5052886E+02  0.7816164E-02  0.1300439E+00
        -11   -1    0    0    0    0  0.00000000000E+00  0.00000000000E+00  0.45593999997E+02  0.45594000000E+02  0.51100000000E-03 0. -1.
         11   -1    0    0    0    0 -0.00000000000E+00 -0.00000000000E+00 -0.45593999997E+02  0.45594000000E+02  0.51100000000E-03 0.  1.
    9900012    2    1    2    0    0 -0.27639852390E+02  0.27070142334E+02 -0.12506468122E+02  0.50528858457E+02  0.29999995767E+02 0.  0.
        -12    1    1    2    0    0  0.27639852390E+02 -0.27070142334E+02  0.12506468122E+02  0.40659141543E+02  0.00000000000E+00 0.  1.
         11    1    3    3    0    0 -0.91633340500E+01  0.69440605029E+01  0.13648219889E+01  0.11577970742E+02  0.51100000000E-03 0. -1.
        -11    1    3    3    0    0 -0.46076903751E+01  0.19152948612E+02 -0.56659511842E+00  0.19707543769E+02  0.51100000000E-03 0.  1.
        -12    1    3    3    0    0 -0.13868827965E+02  0.97313321883E+00 -0.13304694992E+02  0.19243343946E+02  0.00000000000E+00 0.  1.
</event>
<event>
 7    1  0.2937071E-011  0.5052886E+02  0.7816164E-02  0.1300439E+00
        -11   -1    0    0    0    0  0.00000000000E+00  0.00000000000E+00  0.45593999997E+02  0.45594000000E+02  0.51100000000E-03 0.  1.
         11   -1    0    0    0    0 -0.00000000000E+00 -0.00000000000E+00 -0.45593999997E+02  0.45594000000E+02  0.51100000000E-03 0. -1.
    9900012    2    1    2    0    0  0.35238519509E+02  0.18222235175E+02 -0.89085805074E+01  0.50528856888E+02  0.29999990997E+02 0.  0.
        -12    1    1    2    0    0 -0.35238519509E+02 -0.18222235175E+02  0.89085805074E+01  0.40659143112E+02  0.00000000000E+00 0.  1.
         11    1    3    3    0    0  0.81231264794E+01  0.85582777397E+01 -0.11143246637E+02  0.16229641017E+02  0.51100000000E-03 0. -1.
        -11    1    3    3    0    0  0.60443020358E+01  0.93473515613E+01 -0.47442687169E+01  0.12100192322E+02  0.51100000000E-03 0.  1.
        -12    1    3    3    0    0  0.21071090993E+02  0.31660587415E+00  0.69789348467E+01  0.22199023549E+02  0.00000000000E+00 0.  1.
</event>
<event>
 7    1  0.2937071E-011  0.5052890E+02  0.7816164E-02  0.1300439E+00
        -11   -1    0    0    0    0  0.00000000000E+00  0.00000000000E+00  0.45593999997E+02  0.45594000000E+02  0.51100000000E-03 0. -1.
         11   -1    0    0    0    0 -0.00000000000E+00 -0.00000000000E+00 -0.45593999997E+02  0.45594000000E+02  0.51100000000E-03 0.  1.
    9900012    2    1    2    0    0  0.19133712529E+02  0.19575779468E+02  0.30064138212E+02  0.50528898886E+02  0.30000118655E+02 0.  0.
        -12    1    1    2    0    0 -0.19133712529E+02 -0.19575779468E+02 -0.30064138212E+02  0.40659101114E+02  0.00000000000E+00 0.  1.
         11    1    3    3    0    0  0.44161980394E+01  0.13412938426E+02  0.54793897949E+01  0.15147060280E+02  0.51100000000E-03 0. -1.
        -11    1    3    3    0    0  0.25587042986E+01 -0.70235420957E+01  0.64150196794E+01  0.98503598414E+01  0.51100000000E-03 0.  1.
         12    1    3    3    0    0  0.12158810192E+02  0.13186383138E+02  0.18169728738E+02  0.25531478765E+02  0.00000000000E+00 0. -1.
</event>
<event>
 7    1  0.2937071E-011  0.5052887E+02  0.7816164E-02  0.1300439E+00
        -11   -1    0    0    0    0  0.00000000000E+00  0.00000000000E+00  0.45593999997E+02  0.45594000000E+02  0.51100000000E-03 0.  1.
         11   -1    0    0    0    0 -0.00000000000E+00 -0.00000000000E+00 -0.45593999997E+02  0.45594000000E+02  0.51100000000E-03 0. -1.
    9900012    2    1    2    0    0  0.19967873869E+02  0.34421193841E+02 -0.83444923973E+01  0.50528866639E+02  0.30000020636E+02 0.  0.
        -12    1    1    2    0    0 -0.19967873869E+02 -0.34421193841E+02  0.83444923973E+01  0.40659133361E+02  0.00000000000E+00 0.  1.
         11    1    3    3    0    0  0.11362671976E+02  0.34341686146E+01  0.14626150797E+00  0.11871192913E+02  0.51100000000E-03 0. -1.
        -11    1    3    3    0    0  0.22287181045E+01 -0.13903881539E+01  0.27436422690E+01  0.37984124011E+01  0.51100000000E-03 0.  1.
         12    1    3    3    0    0  0.63764837890E+01  0.32377413380E+02 -0.11234396174E+02  0.34859261325E+02  0.00000000000E+00 0. -1.
</event>
<event>
 7    1  0.2937071E-011  0.5052885E+02  0.7816164E-02  0.1300439E+00
        -11   -1    0    0    0    0  0.00000000000E+00  0.00000000000E+00  0.45593999997E+02  0.45594000000E+02  0.51100000000E-03 0.  1.
         11   -1    0    0    0    0 -0.00000000000E+00 -0.00000000000E+00 -0.45593999997E+02  0.45594000000E+02  0.51100000000E-03 0. -1.
    9900012    2    1    2    0    0  0.17770609290E+02 -0.21742003497E+02 -0.29405056956E+02  0.50528847954E+02  0.29999963840E+02 0.  0.
        -12    1    1    2    0    0 -0.17770609290E+02  0.21742003497E+02  0.29405056956E+02  0.40659152046E+02  0.00000000000E+00 0.  1.
         11    1    3    3    0    0  0.34496704808E+01 -0.91836416692E+01 -0.85622461069E+01  0.13021196542E+02  0.51100000000E-03 0.  1.
        -11    1    3    3    0    0  0.46711577449E+01 -0.15442866430E+02 -0.22094863251E+02  0.27358450625E+02  0.51100000000E-03 0. -1.
        -12    1    3    3    0    0  0.96497810641E+01  0.28845046026E+01  0.12520524024E+01  0.10149200787E+02  0.00000000000E+00 0.  1.
</event>
<event>
 7    1  0.2937071E-011  0.5052891E+02  0.7816164E-02  0.1300439E+00
        -11   -1    0    0    0    0  0.00000000000E+00  0.00000000000E+00  0.45593999997E+02  0.45594000000E+02  0.51100000000E-03 0.  1.
         11   -1    0    0    0    0 -0.00000000000E+00 -0.00000000000E+00 -0.45593999997E+02  0.45594000000E+02  0.51100000000E-03 0. -1.
    9900012    2    1    2    0    0 -0.11062647280E+02 -0.28346134910E+02 -0.26968058480E+02  0.50528908675E+02  0.30000148409E+02 0.  0.
        -12    1    1    2    0    0  0.11062647280E+02  0.28346134910E+02  0.26968058480E+02  0.40659091325E+02  0.00000000000E+00 0.  1.
         11    1    3    3    0    0 -0.12251999931E+02 -0.52854815212E+01 -0.10977995786E+02  0.17279010648E+02  0.51100000000E-03 0. -1.
        -11    1    3    3    0    0 -0.40781155757E+01 -0.20071421676E+02 -0.56164021728E+01  0.21237630950E+02  0.51100000000E-03 0.  1.
         12    1    3    3    0    0  0.52674682258E+01 -0.29892317127E+01 -0.10373660521E+02  0.12012267077E+02  0.00000000000E+00 0. -1.
</event>
<event>
 7    1  0.2937071E-011  0.5052886E+02  0.7816164E-02  0.1300439E+00
        -11   -1    0    0    0    0  0.00000000000E+00  0.00000000000E+00  0.45593999997E+02  0.45594000000E+02  0.51100000000E-03 0. -1.
         11   -1    0    0    0    0 -0.00000000000E+00 -0.00000000000E+00 -0.45593999997E+02  0.45594000000E+02  0.51100000000E-03 0.  1.
    9900012    2    1    2    0    0 -0.40429496460E+02  0.13005534074E+01  0.41145909005E+01  0.50528862264E+02  0.30000007338E+02 0.  0.
        -12    1    1    2    0    0  0.40429496460E+02 -0.13005534074E+01 -0.41145909005E+01  0.40659137736E+02  0.00000000000E+00 0.  1.
         11    1    3    3    0    0  0.23111539051E+01 -0.86574471941E-01  0.58379342742E+01  0.62793633725E+01  0.51100000000E-03 0.  1.
        -11    1    3    3    0    0 -0.21808923405E+01  0.28968287806E+01 -0.25911710486E+00  0.36352510670E+01  0.51100000000E-03 0. -1.
        -12    1    3    3    0    0 -0.40559758024E+02 -0.15097009013E+01 -0.14642262689E+01  0.40614247825E+02  0.00000000000E+00 0.  1.
</event>
<event>
 7    1  0.2937071E-011  0.5052886E+02  0.7816164E-02  0.1300439E+00
        -11   -1    0    0    0    0  0.00000000000E+00  0.00000000000E+00  0.45593999997E+02  0.45594000000E+02  0.51100000000E-03 0. -1.
         11   -1    0    0    0    0 -0.00000000000E+00 -0.00000000000E+00 -0.45593999997E+02  0.45594000000E+02  0.51100000000E-03 0.  1.
    9900012    2    1    2    0    0  0.11938506212E+02 -0.38802676763E+02  0.22338745352E+01  0.50528857732E+02  0.29999993562E+02 0.  0.
        -12    1    1    2    0    0 -0.11938506212E+02  0.38802676763E+02 -0.22338745352E+01  0.40659142268E+02  0.00000000000E+00 0.  1.
         11    1    3    3    0    0  0.40971888812E+01 -0.99767285742E+01 -0.16586936632E+01  0.10912072887E+02  0.51100000000E-03 0. -1.
        -11    1    3    3    0    0  0.16263651260E+00 -0.12740190181E+02 -0.10655002552E+02  0.16609273799E+02  0.51100000000E-03 0.  1.
         12    1    3    3    0    0  0.76786808180E+01 -0.16085758008E+02  0.14547570750E+02  0.23007511046E+02  0.00000000000E+00 0. -1.
</event>
<event>
 7    1  0.2937071E-011  0.5052887E+02  0.7816164E-02  0.1300439E+00
        -11   -1    0    0    0    0  0.00000000000E+00  0.00000000000E+00  0.45593999997E+02  0.45594000000E+02  0.51100000000E-03 0.  1.
         11   -1    0    0    0    0 -0.00000000000E+00 -0.00000000000E+00 -0.45593999997E+02  0.45594000000E+02  0.51100000000E-03 0. -1.
    9900012    2    1    2    0    0  0.20625324504E+02  0.76421882472E+01 -0.34195875920E+02  0.50528868405E+02  0.30000026004E+02 0.  0.
        -12    1    1    2    0    0 -0.20625324504E+02 -0.76421882472E+01  0.34195875920E+02  0.40659131595E+02  0.00000000000E+00 0.  1.
         11    1    3    3    0    0  0.13488723477E+02 -0.39547526263E+01 -0.19095656291E+02  0.23711385848E+02  0.51100000000E-03 0. -1.
        -11    1    3    3    0    0  0.34380818821E+01  0.53021114548E+01  0.32226968845E+01  0.70935582310E+01  0.51100000000E-03 0.  1.
         12    1    3    3    0    0  0.36985191454E+01  0.62948294187E+01 -0.18322916513E+02  0.19723924326E+02  0.00000000000E+00 0. -1.
</event>
<event>
 7    1  0.2937071E-011  0.5052886E+02  0.7816164E-02  0.1300439E+00
        -11   -1    0    0    0    0  0.00000000000E+00  0.00000000000E+00  0.45593999997E+02  0.45594000000E+02  0.51100000000E-03 0.  1.
         11   -1    0    0    0    0 -0.00000000000E+00 -0.00000000000E+00 -0.45593999997E+02  0.45594000000E+02  0.51100000000E-03 0. -1.
    9900012    2    1    2    0    0  0.39483860686E+01 -0.35779153944E+02 -0.18905772884E+02  0.50528857635E+02  0.29999993269E+02 0.  0.
        -12    1    1    2    0    0 -0.39483860686E+01  0.35779153944E+02  0.18905772884E+02  0.40659142365E+02  0.00000000000E+00 0.  1.
         11    1    3    3    0    0  0.18035868785E+01 -0.37363401166E+01 -0.43059662637E+01  0.59795074062E+01  0.51100000000E-03 0. -1.
        -11    1    3    3    0    0  0.72408005012E+01 -0.33876030117E+02 -0.72034910083E+01  0.35382268035E+02  0.51100000000E-03 0.  1.
        -12    1    3    3    0    0 -0.50960013111E+01  0.18332162892E+01 -0.73963156115E+01  0.91670821940E+01  0.00000000000E+00 0.  1.
</event>
<event>
 7    1  0.2937071E-011  0.5052876E+02  0.7816164E-02  0.1300439E+00
        -11   -1    0    0    0    0  0.00000000000E+00  0.00000000000E+00  0.45593999997E+02  0.45594000000E+02  0.51100000000E-03 0.  1.
         11   -1    0    0    0    0 -0.00000000000E+00 -0.00000000000E+00 -0.45593999997E+02  0.45594000000E+02  0.51100000000E-03 0. -1.
    9900012    2    1    2    0    0  0.32074897533E+02  0.24543738333E+02  0.46882126152E+01  0.50528763895E+02  0.29999708334E+02 0.  0.
        -12    1    1    2    0    0 -0.32074897533E+02 -0.24543738333E+02 -0.46882126152E+01  0.40659236105E+02  0.00000000000E+00 0.  1.
         11    1    3    3    0    0 -0.17853174138E+01  0.47865155040E+01 -0.49388469633E+01  0.71056525757E+01  0.51100000000E-03 0. -1.
        -11    1    3    3    0    0 -0.59026551772E+00 -0.61171860005E+00 -0.16387433370E+01  0.18461021133E+01  0.51100000000E-03 0.  1.
         12    1    3    3    0    0  0.34450480465E+02  0.20368941429E+02  0.11265802916E+02  0.41577009206E+02  0.00000000000E+00 0. -1.
</event>
<event>
 7    1  0.2937071E-011  0.5052886E+02  0.7816164E-02  0.1300439E+00
        -11   -1    0    0    0    0  0.00000000000E+00  0.00000000000E+00  0.45593999997E+02  0.45594000000E+02  0.51100000000E-03 0. -1.
         11   -1    0    0    0    0 -0.00000000000E+00 -0.00000000000E+00 -0.45593999997E+02  0.45594000000E+02  0.51100000000E-03 0.  1.
    9900012    2    1    2    0    0  0.38790834945E+02  0.92415328140E+00  0.12148372568E+02  0.50528857227E+02  0.29999992027E+02 0.  0.
        -12    1    1    2    0    0 -0.38790834945E+02 -0.92415328140E+00 -0.12148372568E+02  0.40659142773E+02  0.00000000000E+00 0.  1.
         11    1    3    3    0    0  0.61646854905E+01  0.41141557726E+00  0.15636114063E+02  0.16812515374E+02  0.51100000000E-03 0. -1.
        -11    1    3    3    0    0  0.28390510455E+01  0.23265714032E+01  0.31889715853E-02  0.36705797586E+01  0.51100000000E-03 0.  1.
         12    1    3    3    0    0  0.29787098409E+02 -0.18138336991E+01 -0.34909304663E+01  0.30045762094E+02  0.00000000000E+00 0. -1.
</event>
<event>
 7    1  0.2937071E-011  0.5052886E+02  0.7816164E-02  0.1300439E+00
        -11   -1    0    0    0    0  0.00000000000E+00  0.00000000000E+00  0.45593999997E+02  0.45594000000E+02  0.51100000000E-03 0.  1.
         11   -1    0    0    0    0 -0.00000000000E+00 -0.00000000000E+00 -0.45593999997E+02  0.45594000000E+02  0.51100000000E-03 0. -1.
    9900012    2    1    2    0    0 -0.12648409178E+02  0.15767703399E+02 -0.35278365646E+02  0.50528858250E+02  0.29999995137E+02 0.  0.
        -12    1    1    2    0    0  0.12648409178E+02 -0.15767703399E+02  0.35278365646E+02  0.40659141750E+02  0.00000000000E+00 0.  1.
         11    1    3    3    0    0 -0.42177454572E+01  0.17071781357E+02 -0.80827908253E+01  0.19353723239E+02  0.51100000000E-03 0. -1.
        -11    1    3    3    0    0 -0.42391242367E+01  0.37929439160E+01 -0.37369551553E+01  0.68059850086E+01  0.51100000000E-03 0.  1.
        -12    1    3    3    0    0 -0.41915394838E+01 -0.50970218742E+01 -0.23458619665E+02  0.24369150002E+02  0.00000000000E+00 0.  1.
</event>
<event>
 7    1  0.2937071E-011  0.5052886E+02  0.7816164E-02  0.1300439E+00
        -11   -1    0    0    0    0  0.00000000000E+00  0.00000000000E+00  0.45593999997E+02  0.45594000000E+02  0.51100000000E-03 0. -1.
         11   -1    0    0    0    0 -0.00000000000E+00 -0.00000000000E+00 -0.45593999997E+02  0.45594000000E+02  0.51100000000E-03 0.  1.
    9900012    2    1    2    0    0 -0.25439617484E+00  0.33476554066E+02  0.23074249637E+02  0.50528863440E+02  0.30000010911E+02 0.  0.
        -12    1    1    2    0    0  0.25439617484E+00 -0.33476554066E+02 -0.23074249637E+02  0.40659136560E+02  0.00000000000E+00 0.  1.
         11    1    3    3    0    0  0.79859162498E+01  0.44698056256E+01 -0.47227495354E+00  0.91639000743E+01  0.51100000000E-03 0. -1.
        -11    1    3    3    0    0  0.38291034609E+01  0.12393457465E+02  0.57386129576E+01  0.14184198962E+02  0.51100000000E-03 0.  1.
         12    1    3    3    0    0 -0.12069415885E+02  0.16613290975E+02  0.17807911632E+02  0.27180764403E+02  0.00000000000E+00 0. -1.
</event>
<event>
 7    1  0.2937071E-011  0.5052887E+02  0.7816164E-02  0.1300439E+00
        -11   -1    0    0    0    0  0.00000000000E+00  0.00000000000E+00  0.45593999997E+02  0.45594000000E+02  0.51100000000E-03 0.  1.
         11   -1    0    0    0    0 -0.00000000000E+00 -0.00000000000E+00 -0.45593999997E+02  0.45594000000E+02  0.51100000000E-03 0. -1.
    9900012    2    1    2    0    0 -0.14603330622E+02 -0.32783464010E+02 -0.19108958929E+02  0.50528867089E+02  0.30000022004E+02 0.  0.
        -12    1    1    2    0    0  0.14603330622E+02  0.32783464010E+02  0.19108958929E+02  0.40659132911E+02  0.00000000000E+00 0.  1.
         11    1    3    3    0    0  0.34775315235E+01 -0.11613283864E+01 -0.58652632333E+01  0.69168795114E+01  0.51100000000E-03 0. -1.
        -11    1    3    3    0    0 -0.75330457242E+01 -0.22286011784E+01  0.30025572888E+01  0.84100411193E+01  0.51100000000E-03 0.  1.
         12    1    3    3    0    0 -0.10547816422E+02 -0.29393534445E+02 -0.16246252985E+02  0.35201946458E+02  0.00000000000E+00 0. -1.
</event>
<event>
 7    1  0.2937071E-011  0.5052886E+02  0.7816164E-02  0.1300439E+00
        -11   -1    0    0    0    0  0.00000000000E+00  0.00000000000E+00  0.45593999997E+02  0.45594000000E+02  0.51100000000E-03 0. -1.
         11   -1    0    0    0    0 -0.00000000000E+00 -0.00000000000E+00 -0.45593999997E+02  0.45594000000E+02  0.51100000000E-03 0.  1.
    9900012    2    1    2    0    0 -0.29520840364E+02 -0.20438461745E+02 -0.19077600112E+02  0.50528861294E+02  0.30000004388E+02 0.  0.
        -12    1    1    2    0    0  0.29520840364E+02  0.20438461745E+02  0.19077600112E+02  0.40659138706E+02  0.00000000000E+00 0.  1.
         11    1    3    3    0    0 -0.14259237828E+02 -0.69329519090E+01 -0.11482879811E+02  0.19576726351E+02  0.51100000000E-03 0. -1.
        -11    1    3    3    0    0 -0.16281136205E+02 -0.25265295740E+00 -0.67704880369E+01  0.17634589255E+02  0.51100000000E-03 0.  1.
        -12    1    3    3    0    0  0.10195336685E+01 -0.13252856878E+02 -0.82423226404E+00  0.13317545688E+02  0.00000000000E+00 0.  1.
</event>
<event>
 7    1  0.2937071E-011  0.5052885E+02  0.7816164E-02  0.1300439E+00
        -11   -1    0    0    0    0  0.00000000000E+00  0.00000000000E+00  0.45593999997E+02  0.45594000000E+02  0.51100000000E-03 0.  1.
         11   -1    0    0    0    0 -0.00000000000E+00 -0.00000000000E+00 -0.45593999997E+02  0.45594000000E+02  0.51100000000E-03 0. -1.
    9900012    2    1    2    0    0  0.18533466776E+02  0.51736755737E+01 -0.35817739441E+02  0.50528846439E+02  0.29999959235E+02 0.  0.
        -12    1    1    2    0    0 -0.18533466776E+02 -0.51736755737E+01  0.35817739441E+02  0.40659153561E+02  0.00000000000E+00 0.  1.
         11    1    3    3    0    0  0.82762311619E+01 -0.44156477332E+00 -0.82297593409E+01  0.11679893868E+02  0.51100000000E-03 0. -1.
        -11    1    3    3    0    0  0.14833219690E+02 -0.43678861275E+01 -0.11084230094E+02  0.19025325034E+02  0.51100000000E-03 0.  1.
         12    1    3    3    0    0 -0.45759840760E+01  0.99831264746E+01 -0.16503750006E+02  0.19823627537E+02  0.00000000000E+00 0. -1.
</event>
<event>
 7    1  0.2937071E-011  0.5052886E+02  0.7816164E-02  0.1300439E+00
        -11   -1    0    0    0    0  0.00000000000E+00  0.00000000000E+00  0.45593999997E+02  0.45594000000E+02  0.51100000000E-03 0. -1.
         11   -1    0    0    0    0 -0.00000000000E+00 -0.00000000000E+00 -0.45593999997E+02  0.45594000000E+02  0.51100000000E-03 0.  1.
    9900012    2    1    2    0    0  0.34962581759E+02  0.20455333987E+02  0.35160887221E+01  0.50528859679E+02  0.29999999480E+02 0.  0.
        -12    1    1    2    0    0 -0.34962581759E+02 -0.20455333987E+02 -0.35160887221E+01  0.40659140321E+02  0.00000000000E+00 0.  1.
         11    1    3    3    0    0  0.27927581518E+02  0.53922811666E+01 -0.11690794468E+01  0.28467406848E+02  0.51100000000E-03 0. -1.
        -11    1    3    3    0    0  0.86816034128E+01  0.27510613637E+01  0.25533751206E+01  0.94582398580E+01  0.51100000000E-03 0.  1.
        -12    1    3    3    0    0 -0.16466031724E+01  0.12311991457E+02  0.21317930483E+01  0.12603212973E+02  0.00000000000E+00 0.  1.
</event>
<event>
 7    1  0.2937071E-011  0.5052884E+02  0.7816164E-02  0.1300439E+00
        -11   -1    0    0    0    0  0.00000000000E+00  0.00000000000E+00  0.45593999997E+02  0.45594000000E+02  0.51100000000E-03 0. -1.
         11   -1    0    0    0    0 -0.00000000000E+00 -0.00000000000E+00 -0.45593999997E+02  0.45594000000E+02  0.51100000000E-03 0.  1.
    9900012    2    1    2    0    0 -0.16515962777E+02 -0.33368789882E+02  0.16337510363E+02  0.50528838553E+02  0.29999935267E+02 0.  0.
        -12    1    1    2    0    0  0.16515962777E+02  0.33368789882E+02 -0.16337510363E+02  0.40659161447E+02  0.00000000000E+00 0.  1.
         11    1    3    3    0    0  0.22819273012E+01 -0.13039268799E+01  0.82146386114E+01  0.86248307399E+01  0.51100000000E-03 0. -1.
        -11    1    3    3    0    0 -0.51042193535E+01  0.87999549971E+00  0.26206886086E+01  0.58047787496E+01  0.51100000000E-03 0.  1.
        -12    1    3    3    0    0 -0.13693670725E+02 -0.32944858502E+02  0.55021831431E+01  0.36099229064E+02  0.00000000000E+00 0.  1.
</event>
<event>
 7    1  0.2937071E-011  0.5052886E+02  0.7816164E-02  0.1300439E+00
        -11   -1    0    0    0    0  0.00000000000E+00  0.00000000000E+00  0.45593999997E+02  0.45594000000E+02  0.51100000000E-03 0.  1.
         11   -1    0    0    0    0 -0.00000000000E+00 -0.00000000000E+00 -0.45593999997E+02  0.45594000000E+02  0.51100000000E-03 0. -1.
    9900012    2    1    2    0    0 -0.38572965568E+01  0.66998099256E+01 -0.39917405722E+02  0.50528862412E+02  0.30000007788E+02 0.  0.
        -12    1    1    2    0    0  0.38572965568E+01 -0.66998099256E+01  0.39917405722E+02  0.40659137588E+02  0.00000000000E+00 0.  1.
         11    1    3    3    0    0  0.37486753855E+00  0.57104029276E+01 -0.68404430775E+01  0.89185698979E+01  0.51100000000E-03 0. -1.
        -11    1    3    3    0    0 -0.12883607924E+02  0.94702869004E+00 -0.82719028427E+01  0.15339771621E+02  0.51100000000E-03 0.  1.
         12    1    3    3    0    0  0.86514438283E+01  0.42378307976E-01 -0.24805059802E+02  0.26270520894E+02  0.00000000000E+00 0. -1.
</event>
<event>
 7    1  0.2937071E-011  0.5052887E+02  0.7816164E-02  0.1300439E+00
        -11   -1    0    0    0    0  0.00000000000E+00  0.00000000000E+00  0.45593999997E+02  0.45594000000E+02  0.51100000000E-03 0.  1.
         11   -1    0    0    0    0 -0.00000000000E+00 -0.00000000000E+00 -0.45593999997E+02  0.45594000000E+02  0.51100000000E-03 0. -1.
    9900012    2    1    2    0    0  0.34614581031E+01 -0.29772882372E+02 -0.27472875073E+02  0.50528867180E+02  0.30000022279E+02 0.  0.
        -12    1    1    2    0    0 -0.34614581031E+01  0.29772882372E+02  0.27472875073E+02  0.40659132820E+02  0.00000000000E+00 0.  1.
         11    1    3    3    0    0  0.48524323851E+01 -0.18451811837E+02 -0.10670007082E+02  0.21860112340E+02  0.51100000000E-03 0.  1.
        -11    1    3    3    0    0  0.55634781342E+01 -0.14147000517E+02 -0.82761630078E+01  0.17308517758E+02  0.51100000000E-03 0. -1.
        -12    1    3    3    0    0 -0.69544524163E+01  0.28259299829E+01 -0.85267049834E+01  0.11360237082E+02  0.00000000000E+00 0.  1.
</event>
<event>
 7    1  0.2937071E-011  0.5052886E+02  0.7816164E-02  0.1300439E+00
        -11   -1    0    0    0    0  0.00000000000E+00  0.00000000000E+00  0.45593999997E+02  0.45594000000E+02  0.51100000000E-03 0.  1.
         11   -1    0    0    0    0 -0.00000000000E+00 -0.00000000000E+00 -0.45593999997E+02  0.45594000000E+02  0.51100000000E-03 0. -1.
    9900012    2    1    2    0    0  0.10271133270E+02 -0.38992107553E+02 -0.52235170829E+01  0.50528858829E+02  0.29999996896E+02 0.  0.
        -12    1    1    2    0    0 -0.10271133270E+02  0.38992107553E+02  0.52235170829E+01  0.40659141171E+02  0.00000000000E+00 0.  1.
         11    1    3    3    0    0  0.84498213310E+01 -0.12802992413E+02 -0.11216012903E+02  0.19003027152E+02  0.51100000000E-03 0. -1.
        -11    1    3    3    0    0  0.53319812835E+01 -0.10861341344E+01 -0.15515012828E+00  0.54436920916E+01  0.51100000000E-03 0.  1.
         12    1    3    3    0    0 -0.35106693448E+01 -0.25102981005E+02  0.61476459484E+01  0.26082139585E+02  0.00000000000E+00 0. -1.
</event>
<event>
 7    1  0.2937071E-011  0.5052886E+02  0.7816164E-02  0.1300439E+00
        -11   -1    0    0    0    0  0.00000000000E+00  0.00000000000E+00  0.45593999997E+02  0.45594000000E+02  0.51100000000E-03 0. -1.
         11   -1    0    0    0    0 -0.00000000000E+00 -0.00000000000E+00 -0.45593999997E+02  0.45594000000E+02  0.51100000000E-03 0.  1.
    9900012    2    1    2    0    0 -0.36472131361E+02  0.79655978627E+01  0.16108965242E+02  0.50528857406E+02  0.29999992570E+02 0.  0.
        -12    1    1    2    0    0  0.36472131361E+02 -0.79655978627E+01 -0.16108965242E+02  0.40659142594E+02  0.00000000000E+00 0.  1.
         11    1    3    3    0    0 -0.14713607914E+02  0.95269381929E+01 -0.35772485999E+01  0.17889927809E+02  0.51100000000E-03 0.  1.
        -11    1    3    3    0    0 -0.80426472972E-01  0.55611022256E+00 -0.18950903307E+01  0.19766371999E+01  0.51100000000E-03 0. -1.
         12    1    3    3    0    0 -0.21678096974E+02 -0.21174505529E+01  0.21581304172E+02  0.30662292397E+02  0.00000000000E+00 0. -1.
</event>
<event>
 7    1  0.2937071E-011  0.5052885E+02  0.7816164E-02  0.1300439E+00
        -11   -1    0    0    0    0  0.00000000000E+00  0.00000000000E+00  0.45593999997E+02  0.45594000000E+02  0.51100000000E-03 0.  1.
         11   -1    0    0    0    0 -0.00000000000E+00 -0.00000000000E+00 -0.45593999997E+02  0.45594000000E+02  0.51100000000E-03 0. -1.
    9900012    2    1    2    0    0  0.35232141194E+02 -0.10441929298E+02 -0.17401979434E+02  0.50528849138E+02  0.29999967439E+02 0.  0.
        -12    1    1    2    0    0 -0.35232141194E+02  0.10441929298E+02  0.17401979434E+02  0.40659150862E+02  0.00000000000E+00 0.  1.
         11    1    3    3    0    0  0.86732431871E+01 -0.16218492798E+01 -0.34470126855E+01  0.94729847031E+01  0.51100000000E-03 0. -1.
        -11    1    3    3    0    0  0.11949727298E+02  0.85635468868E+01 -0.10549215073E+02  0.18094647184E+02  0.51100000000E-03 0.  1.
         12    1    3    3    0    0  0.14609170709E+02 -0.17383626905E+02 -0.34057516758E+01  0.22961217251E+02  0.00000000000E+00 0. -1.
</event>
<event>
 7    1  0.2937071E-011  0.5052886E+02  0.7816164E-02  0.1300439E+00
        -11   -1    0    0    0    0  0.00000000000E+00  0.00000000000E+00  0.45593999997E+02  0.45594000000E+02  0.51100000000E-03 0.  1.
         11   -1    0    0    0    0 -0.00000000000E+00 -0.00000000000E+00 -0.45593999997E+02  0.45594000000E+02  0.51100000000E-03 0. -1.
    9900012    2    1    2    0    0 -0.18582078291E+02 -0.28674754087E+01 -0.36050650743E+02  0.50528862431E+02  0.30000007846E+02 0.  0.
        -12    1    1    2    0    0  0.18582078291E+02  0.28674754087E+01  0.36050650743E+02  0.40659137569E+02  0.00000000000E+00 0.  1.
         11    1    3    3    0    0 -0.18702386893E+01  0.38148749939E+00  0.17910071900E+01  0.26174477040E+01  0.51100000000E-03 0. -1.
        -11    1    3    3    0    0 -0.10471364293E+02  0.63908119959E+01 -0.52278805700E+01  0.13335017197E+02  0.51100000000E-03 0.  1.
         12    1    3    3    0    0 -0.62404753088E+01 -0.96397749040E+01 -0.32613777363E+02  0.34576397530E+02  0.00000000000E+00 0. -1.
</event>
<event>
 7    1  0.2937071E-011  0.5052872E+02  0.7816164E-02  0.1300439E+00
        -11   -1    0    0    0    0  0.00000000000E+00  0.00000000000E+00  0.45593999997E+02  0.45594000000E+02  0.51100000000E-03 0. -1.
         11   -1    0    0    0    0 -0.00000000000E+00 -0.00000000000E+00 -0.45593999997E+02  0.45594000000E+02  0.51100000000E-03 0.  1.
    9900012    2    1    2    0    0 -0.29492530545E+02  0.94512011363E+01  0.26344679004E+02  0.50528724641E+02  0.29999589016E+02 0.  0.
        -12    1    1    2    0    0  0.29492530545E+02 -0.94512011363E+01 -0.26344679004E+02  0.40659275359E+02  0.00000000000E+00 0.  1.
         11    1    3    3    0    0 -0.13714628005E+01  0.28077648522E+00  0.11017817314E+02  0.11106396548E+02  0.51100000000E-03 0. -1.
        -11    1    3    3    0    0 -0.97886462913E-01  0.78073010353E+01  0.60316312265E+01  0.98663117085E+01  0.51100000000E-03 0.  1.
        -12    1    3    3    0    0 -0.28023181282E+02  0.13631236157E+01  0.92952304637E+01  0.29556016385E+02  0.00000000000E+00 0.  1.
</event>
<event>
 7    1  0.2937071E-011  0.5052886E+02  0.7816164E-02  0.1300439E+00
        -11   -1    0    0    0    0  0.00000000000E+00  0.00000000000E+00  0.45593999997E+02  0.45594000000E+02  0.51100000000E-03 0.  1.
         11   -1    0    0    0    0 -0.00000000000E+00 -0.00000000000E+00 -0.45593999997E+02  0.45594000000E+02  0.51100000000E-03 0. -1.
    9900012    2    1    2    0    0 -0.10512671908E+02  0.23117982078E+02 -0.31752294094E+02  0.50528861467E+02  0.30000004915E+02 0.  0.
        -12    1    1    2    0    0  0.10512671908E+02 -0.23117982078E+02  0.31752294094E+02  0.40659138533E+02  0.00000000000E+00 0.  1.
         11    1    3    3    0    0 -0.54677403000E+00 -0.46375808685E+01 -0.48705397304E+01  0.67474643888E+01  0.51100000000E-03 0. -1.
        -11    1    3    3    0    0 -0.81253463522E-01  0.70457415990E+00  0.25236776517E+01  0.26214454072E+01  0.51100000000E-03 0.  1.
         12    1    3    3    0    0 -0.98846444143E+01  0.27050988786E+02 -0.29405432016E+02  0.41159951671E+02  0.00000000000E+00 0. -1.
</event>
<event>
 7    1  0.2937071E-011  0.5052885E+02  0.7816164E-02  0.1300439E+00
        -11   -1    0    0    0    0  0.00000000000E+00  0.00000000000E+00  0.45593999997E+02  0.45594000000E+02  0.51100000000E-03 0.  1.
         11   -1    0    0    0    0 -0.00000000000E+00 -0.00000000000E+00 -0.45593999997E+02  0.45594000000E+02  0.51100000000E-03 0. -1.
    9900012    2    1    2    0    0 -0.52658991096E+01  0.23096443630E+02 -0.33045284015E+02  0.50528853459E+02  0.29999980574E+02 0.  0.
        -12    1    1    2    0    0  0.52658991096E+01 -0.23096443630E+02  0.33045284015E+02  0.40659146541E+02  0.00000000000E+00 0.  1.
         11    1    3    3    0    0 -0.51285098544E+00  0.28479016503E+01 -0.12544566639E+02  0.12873993645E+02  0.51100000000E-03 0.  1.
        -11    1    3    3    0    0 -0.85796049364E+01  0.16664699334E+02 -0.24651413551E+02  0.30967951419E+02  0.51100000000E-03 0. -1.
        -12    1    3    3    0    0  0.38265568123E+01  0.35838426463E+01  0.41506961748E+01  0.66869083953E+01  0.00000000000E+00 0.  1.
</event>
<event>
 7    1  0.2937071E-011  0.5052885E+02  0.7816164E-02  0.1300439E+00
        -11   -1    0    0    0    0  0.00000000000E+00  0.00000000000E+00  0.45593999997E+02  0.45594000000E+02  0.51100000000E-03 0.  1.
         11   -1    0    0    0    0 -0.00000000000E+00 -0.00000000000E+00 -0.45593999997E+02  0.45594000000E+02  0.51100000000E-03 0. -1.
    9900012    2    1    2    0    0 -0.29097697995E+02 -0.45810872003E+01 -0.28026847061E+02  0.50528849188E+02  0.29999967593E+02 0.  0.
        -12    1    1    2    0    0  0.29097697995E+02  0.45810872003E+01  0.28026847061E+02  0.40659150812E+02  0.00000000000E+00 0.  1.
         11    1    3    3    0    0 -0.82514108342E+01 -0.13880277200E+01 -0.40187178463E+01  0.92823755093E+01  0.51100000000E-03 0. -1.
        -11    1    3    3    0    0 -0.76347550633E+01  0.62603192474E+01 -0.22930124272E+02  0.24965409697E+02  0.51100000000E-03 0.  1.
        -12    1    3    3    0    0 -0.13211532098E+02 -0.94533787277E+01 -0.10780049429E+01  0.16281063982E+02  0.00000000000E+00 0.  1.
</event>
<event>
 7    1  0.2937071E-011  0.5052877E+02  0.7816164E-02  0.1300439E+00
        -11   -1    0    0    0    0  0.00000000000E+00  0.00000000000E+00  0.45593999997E+02  0.45594000000E+02  0.51100000000E-03 0. -1.
         11   -1    0    0    0    0 -0.00000000000E+00 -0.00000000000E+00 -0.45593999997E+02  0.45594000000E+02  0.51100000000E-03 0.  1.
    9900012    2    1    2    0    0 -0.37025466897E+02  0.13981114424E+02  0.93175359524E+01  0.50528766907E+02  0.29999717489E+02 0.  0.
        -12    1    1    2    0    0  0.37025466897E+02 -0.13981114424E+02 -0.93175359524E+01  0.40659233093E+02  0.00000000000E+00 0.  1.
         11    1    3    3    0    0 -0.10588544564E+02  0.60877943065E+01 -0.27533329043E+01  0.12520357736E+02  0.51100000000E-03 0. -1.
        -11    1    3    3    0    0 -0.65380625088E+01  0.10629575900E+02  0.12843020495E+02  0.17907465507E+02  0.51100000000E-03 0.  1.
         12    1    3    3    0    0 -0.19898859825E+02 -0.27362557826E+01 -0.77215163850E+00  0.20100943664E+02  0.00000000000E+00 0. -1.
</event>
<event>
 7    1  0.2937071E-011  0.5052887E+02  0.7816164E-02  0.1300439E+00
        -11   -1    0    0    0    0  0.00000000000E+00  0.00000000000E+00  0.45593999997E+02  0.45594000000E+02  0.51100000000E-03 0.  1.
         11   -1    0    0    0    0 -0.00000000000E+00 -0.00000000000E+00 -0.45593999997E+02  0.45594000000E+02  0.51100000000E-03 0. -1.
    9900012    2    1    2    0    0 -0.11365718813E+02 -0.14828864080E+02 -0.36112191939E+02  0.50528865963E+02  0.30000018580E+02 0.  0.
        -12    1    1    2    0    0  0.11365718813E+02  0.14828864080E+02  0.36112191939E+02  0.40659134037E+02  0.00000000000E+00 0.  1.
         11    1    3    3    0    0 -0.11067921517E+02 -0.40192277414E+01 -0.23333901553E+01  0.12004073818E+02  0.51100000000E-03 0. -1.
        -11    1    3    3    0    0 -0.15516560547E+01  0.33812394716E+01 -0.37207048920E+01  0.52615645991E+01  0.51100000000E-03 0.  1.
         12    1    3    3    0    0  0.12538587584E+01 -0.14190875810E+02 -0.30058096891E+02  0.33263227546E+02  0.00000000000E+00 0. -1.
</event>
<event>
 7    1  0.2937071E-011  0.5052890E+02  0.7816164E-02  0.1300439E+00
        -11   -1    0    0    0    0  0.00000000000E+00  0.00000000000E+00  0.45593999997E+02  0.45594000000E+02  0.51100000000E-03 0.  1.
         11   -1    0    0    0    0 -0.00000000000E+00 -0.00000000000E+00 -0.45593999997E+02  0.45594000000E+02  0.51100000000E-03 0. -1.
    9900012    2    1    2    0    0 -0.28417465516E+02  0.23552540138E+02 -0.17055432041E+02  0.50528901935E+02  0.30000127923E+02 0.  0.
        -12    1    1    2    0    0  0.28417465516E+02 -0.23552540138E+02  0.17055432041E+02  0.40659098065E+02  0.00000000000E+00 0.  1.
         11    1    3    3    0    0  0.27949828567E+01  0.69519487074E+01  0.20909683425E+01  0.77790532117E+01  0.51100000000E-03 0.  1.
        -11    1    3    3    0    0 -0.11302739532E+01  0.20394190187E+01  0.21076153559E+01  0.31430545482E+01  0.51100000000E-03 0. -1.
         12    1    3    3    0    0 -0.30082174420E+02  0.14561172412E+02 -0.21254015739E+02  0.39606794176E+02  0.00000000000E+00 0. -1.
</event>
<event>
 7    1  0.2937071E-011  0.5052881E+02  0.7816164E-02  0.1300439E+00
        -11   -1    0    0    0    0  0.00000000000E+00  0.00000000000E+00  0.45593999997E+02  0.45594000000E+02  0.51100000000E-03 0. -1.
         11   -1    0    0    0    0 -0.00000000000E+00 -0.00000000000E+00 -0.45593999997E+02  0.45594000000E+02  0.51100000000E-03 0.  1.
    9900012    2    1    2    0    0  0.83146935964E+01 -0.13450213616E+02  0.37458337561E+02  0.50528813722E+02  0.29999859790E+02 0.  0.
        -12    1    1    2    0    0 -0.83146935964E+01  0.13450213616E+02 -0.37458337561E+02  0.40659186278E+02  0.00000000000E+00 0.  1.
         11    1    3    3    0    0  0.12416489825E+02 -0.13687757282E+02  0.26817004695E+02  0.32568015906E+02  0.51100000000E-03 0. -1.
        -11    1    3    3    0    0  0.45968232895E+00 -0.51398545665E+01  0.95089782453E+01  0.10818968543E+02  0.51100000000E-03 0.  1.
        -12    1    3    3    0    0 -0.45614785572E+01  0.53773982327E+01  0.11323546212E+01  0.71418292733E+01  0.00000000000E+00 0.  1.
</event>
<event>
 7    1  0.2937071E-011  0.5052886E+02  0.7816164E-02  0.1300439E+00
        -11   -1    0    0    0    0  0.00000000000E+00  0.00000000000E+00  0.45593999997E+02  0.45594000000E+02  0.51100000000E-03 0. -1.
         11   -1    0    0    0    0 -0.00000000000E+00 -0.00000000000E+00 -0.45593999997E+02  0.45594000000E+02  0.51100000000E-03 0.  1.
    9900012    2    1    2    0    0  0.21406693875E+02  0.19016903706E+02  0.28866522692E+02  0.50528864476E+02  0.30000014062E+02 0.  0.
        -12    1    1    2    0    0 -0.21406693875E+02 -0.19016903706E+02 -0.28866522692E+02  0.40659135524E+02  0.00000000000E+00 0.  1.
         11    1    3    3    0    0  0.20097260426E+02  0.12051501248E+02  0.10874328462E+02  0.25833884313E+02  0.51100000000E-03 0. -1.
        -11    1    3    3    0    0 -0.60259579311E+00  0.96594703111E+01  0.42658327937E+01  0.10576663844E+02  0.51100000000E-03 0.  1.
        -12    1    3    3    0    0  0.19120292429E+01 -0.26940678524E+01  0.13726361436E+02  0.14118316319E+02  0.00000000000E+00 0.  1.
</event>
<event>
 7    1  0.2937071E-011  0.5052889E+02  0.7816164E-02  0.1300439E+00
        -11   -1    0    0    0    0  0.00000000000E+00  0.00000000000E+00  0.45593999997E+02  0.45594000000E+02  0.51100000000E-03 0.  1.
         11   -1    0    0    0    0 -0.00000000000E+00 -0.00000000000E+00 -0.45593999997E+02  0.45594000000E+02  0.51100000000E-03 0. -1.
    9900012    2    1    2    0    0  0.10247238049E+02 -0.14070729126E+02 -0.36744686123E+02  0.50528889532E+02  0.30000090220E+02 0.  0.
        -12    1    1    2    0    0 -0.10247238049E+02  0.14070729126E+02  0.36744686123E+02  0.40659110468E+02  0.00000000000E+00 0.  1.
         11    1    3    3    0    0 -0.19872117379E+01 -0.77539720441E+00 -0.13331543799E+02  0.13501122606E+02  0.51100000000E-03 0. -1.
        -11    1    3    3    0    0  0.19439893521E+01 -0.79110509182E+01 -0.24054101445E+02  0.25396133915E+02  0.51100000000E-03 0.  1.
        -12    1    3    3    0    0  0.10290460435E+02 -0.53842810035E+01  0.64095912053E+00  0.11631633010E+02  0.00000000000E+00 0.  1.
</event>
<event>
 7    1  0.2937071E-011  0.5052887E+02  0.7816164E-02  0.1300439E+00
        -11   -1    0    0    0    0  0.00000000000E+00  0.00000000000E+00  0.45593999997E+02  0.45594000000E+02  0.51100000000E-03 0.  1.
         11   -1    0    0    0    0 -0.00000000000E+00 -0.00000000000E+00 -0.45593999997E+02  0.45594000000E+02  0.51100000000E-03 0. -1.
    9900012    2    1    2    0    0  0.37774670567E+02  0.11339983964E+02 -0.98814953177E+01  0.50528869138E+02  0.30000028232E+02 0.  0.
        -12    1    1    2    0    0 -0.37774670567E+02 -0.11339983964E+02  0.98814953177E+01  0.40659130862E+02  0.00000000000E+00 0.  1.
         11    1    3    3    0    0  0.78580095462E+01  0.33988407779E+01 -0.14172432823E+02  0.16557725842E+02  0.51100000000E-03 0. -1.
        -11    1    3    3    0    0  0.37601980516E+01 -0.27678580204E+01 -0.18938849069E+01  0.50385442055E+01  0.51100000000E-03 0.  1.
        -12    1    3    3    0    0  0.26156462969E+02  0.10709001207E+02  0.61848224122E+01  0.28932599091E+02  0.00000000000E+00 0.  1.
</event>
<event>
 7    1  0.2937071E-011  0.5052886E+02  0.7816164E-02  0.1300439E+00
        -11   -1    0    0    0    0  0.00000000000E+00  0.00000000000E+00  0.45593999997E+02  0.45594000000E+02  0.51100000000E-03 0.  1.
         11   -1    0    0    0    0 -0.00000000000E+00 -0.00000000000E+00 -0.45593999997E+02  0.45594000000E+02  0.51100000000E-03 0. -1.
    9900012    2    1    2    0    0  0.27083167856E+02 -0.25478317204E+02  0.16447580981E+02  0.50528861436E+02  0.30000004821E+02 0.  0.
        -12    1    1    2    0    0 -0.27083167856E+02  0.25478317204E+02 -0.16447580981E+02  0.40659138564E+02  0.00000000000E+00 0.  1.
         11    1    3    3    0    0  0.42493660256E+01 -0.57452342541E+01  0.55669838808E+01  0.90584843128E+01  0.51100000000E-03 0. -1.
        -11    1    3    3    0    0  0.60497919012E+01  0.74647356131E+00  0.13549600988E+02  0.14857620672E+02  0.51100000000E-03 0.  1.
         12    1    3    3    0    0  0.16784009929E+02 -0.20479556511E+02 -0.26690038880E+01  0.26612756451E+02  0.00000000000E+00 0. -1.
</event>
<event>
 7    1  0.2937071E-011  0.5052886E+02  0.7816164E-02  0.1300439E+00
        -11   -1    0    0    0    0  0.00000000000E+00  0.00000000000E+00  0.45593999997E+02  0.45594000000E+02  0.51100000000E-03 0.  1.
         11   -1    0    0    0    0 -0.00000000000E+00 -0.00000000000E+00 -0.45593999997E+02  0.45594000000E+02  0.51100000000E-03 0. -1.
    9900012    2    1    2    0    0  0.40316274110E+02 -0.27906831253E+01  0.44694263438E+01  0.50528860286E+02  0.30000001326E+02 0.  0.
        -12    1    1    2    0    0 -0.40316274110E+02  0.27906831253E+01 -0.44694263438E+01  0.40659139714E+02  0.00000000000E+00 0.  1.
         11    1    3    3    0    0  0.12617774410E+02 -0.17557035267E+01  0.21990584030E+01  0.12927744739E+02  0.51100000000E-03 0. -1.
        -11    1    3    3    0    0  0.64767763359E+01  0.10292030432E+01  0.12375587677E+02  0.14005822405E+02  0.51100000000E-03 0.  1.
         12    1    3    3    0    0  0.21221723364E+02 -0.20641826418E+01 -0.10105219737E+02  0.23595293142E+02  0.00000000000E+00 0. -1.
</event>
<event>
 7    1  0.2937071E-011  0.5052885E+02  0.7816164E-02  0.1300439E+00
        -11   -1    0    0    0    0  0.00000000000E+00  0.00000000000E+00  0.45593999997E+02  0.45594000000E+02  0.51100000000E-03 0.  1.
         11   -1    0    0    0    0 -0.00000000000E+00 -0.00000000000E+00 -0.45593999997E+02  0.45594000000E+02  0.51100000000E-03 0. -1.
    9900012    2    1    2    0    0 -0.51957170841E+01 -0.24113615495E+02 -0.32321884160E+02  0.50528854363E+02  0.29999983322E+02 0.  0.
        -12    1    1    2    0    0  0.51957170841E+01  0.24113615495E+02  0.32321884160E+02  0.40659145637E+02  0.00000000000E+00 0.  1.
         11    1    3    3    0    0 -0.59947776652E+01 -0.12119241078E+02 -0.27972335119E+02  0.31068712491E+02  0.51100000000E-03 0. -1.
        -11    1    3    3    0    0 -0.66666206618E+01 -0.33367518418E+01 -0.84367657788E+00  0.75026351592E+01  0.51100000000E-03 0.  1.
        -12    1    3    3    0    0  0.74656812429E+01 -0.86576225743E+01 -0.35058724631E+01  0.11957506713E+02  0.00000000000E+00 0.  1.
</event>
<event>
 7    1  0.2937071E-011  0.5052882E+02  0.7816164E-02  0.1300439E+00
        -11   -1    0    0    0    0  0.00000000000E+00  0.00000000000E+00  0.45593999997E+02  0.45594000000E+02  0.51100000000E-03 0. -1.
         11   -1    0    0    0    0 -0.00000000000E+00 -0.00000000000E+00 -0.45593999997E+02  0.45594000000E+02  0.51100000000E-03 0.  1.
    9900012    2    1    2    0    0 -0.74128652413E+01 -0.36062979264E+02  0.17253410801E+02  0.50528816182E+02  0.29999867265E+02 0.  0.
        -12    1    1    2    0    0  0.74128652413E+01  0.36062979264E+02 -0.17253410801E+02  0.40659183818E+02  0.00000000000E+00 0.  1.
         11    1    3    3    0    0 -0.37015068224E+01  0.59238015675E+00 -0.45265284895E+01  0.58772040490E+01  0.51100000000E-03 0.  1.
        -11    1    3    3    0    0  0.41282820421E+01 -0.82906324232E+01  0.29727242560E+01  0.97269927706E+01  0.51100000000E-03 0. -1.
         12    1    3    3    0    0 -0.78396404610E+01 -0.28364726998E+02  0.18807215035E+02  0.34924619362E+02  0.00000000000E+00 0. -1.
</event>
<event>
 7    1  0.2937071E-011  0.5052886E+02  0.7816164E-02  0.1300439E+00
        -11   -1    0    0    0    0  0.00000000000E+00  0.00000000000E+00  0.45593999997E+02  0.45594000000E+02  0.51100000000E-03 0. -1.
         11   -1    0    0    0    0 -0.00000000000E+00 -0.00000000000E+00 -0.45593999997E+02  0.45594000000E+02  0.51100000000E-03 0.  1.
    9900012    2    1    2    0    0 -0.38594578755E+02 -0.82545642425E+01  0.97717054903E+01  0.50528861196E+02  0.30000004092E+02 0.  0.
        -12    1    1    2    0    0  0.38594578755E+02  0.82545642425E+01 -0.97717054903E+01  0.40659138804E+02  0.00000000000E+00 0.  1.
         11    1    3    3    0    0 -0.76213113688E+01  0.55896303801E+01  0.37553419426E+01  0.10170100694E+02  0.51100000000E-03 0. -1.
        -11    1    3    3    0    0 -0.13834803200E+02 -0.58548411864E+00  0.11508351473E+02  0.18005186062E+02  0.51100000000E-03 0.  1.
         12    1    3    3    0    0 -0.17138464186E+02 -0.13258710504E+02 -0.54919879252E+01  0.22353574440E+02  0.00000000000E+00 0. -1.
</event>
<event>
 7    1  0.2937071E-011  0.5052885E+02  0.7816164E-02  0.1300439E+00
        -11   -1    0    0    0    0  0.00000000000E+00  0.00000000000E+00  0.45593999997E+02  0.45594000000E+02  0.51100000000E-03 0.  1.
         11   -1    0    0    0    0 -0.00000000000E+00 -0.00000000000E+00 -0.45593999997E+02  0.45594000000E+02  0.51100000000E-03 0. -1.
    9900012    2    1    2    0    0 -0.22503043042E+02  0.26526345771E+02  0.21050708549E+02  0.50528852240E+02  0.29999976870E+02 0.  0.
        -12    1    1    2    0    0  0.22503043042E+02 -0.26526345771E+02 -0.21050708549E+02  0.40659147760E+02  0.00000000000E+00 0.  1.
         11    1    3    3    0    0 -0.38996689374E+01  0.40796440954E+01  0.36194599814E+01  0.67045808657E+01  0.51100000000E-03 0. -1.
        -11    1    3    3    0    0 -0.18631809387E+02  0.28541357151E+02  0.14178778083E+02  0.36916001101E+02  0.51100000000E-03 0.  1.
         12    1    3    3    0    0  0.28435282535E-01 -0.60946554754E+01  0.32524704843E+01  0.69082702741E+01  0.00000000000E+00 0. -1.
</event>
<event>
 7    1  0.2937071E-011  0.5052886E+02  0.7816164E-02  0.1300439E+00
        -11   -1    0    0    0    0  0.00000000000E+00  0.00000000000E+00  0.45593999997E+02  0.45594000000E+02  0.51100000000E-03 0.  1.
         11   -1    0    0    0    0 -0.00000000000E+00 -0.00000000000E+00 -0.45593999997E+02  0.45594000000E+02  0.51100000000E-03 0. -1.
    9900012    2    1    2    0    0 -0.29817170276E+02 -0.25279526431E+02 -0.11182457855E+02  0.50528862484E+02  0.30000008007E+02 0.  0.
        -12    1    1    2    0    0  0.29817170276E+02  0.25279526431E+02  0.11182457855E+02  0.40659137516E+02  0.00000000000E+00 0.  1.
         11    1    3    3    0    0 -0.60985052722E+00  0.17155025517E+01 -0.16237368083E-01  0.18207500058E+01  0.51100000000E-03 0. -1.
        -11    1    3    3    0    0  0.84785121383E+00 -0.26889494585E+01  0.58353022514E+01  0.64807448258E+01  0.51100000000E-03 0.  1.
         12    1    3    3    0    0 -0.30055170963E+02 -0.24306079524E+02 -0.17001522738E+02  0.42227367653E+02  0.00000000000E+00 0. -1.
</event>
<event>
 7    1  0.2937071E-011  0.5052887E+02  0.7816164E-02  0.1300439E+00
        -11   -1    0    0    0    0  0.00000000000E+00  0.00000000000E+00  0.45593999997E+02  0.45594000000E+02  0.51100000000E-03 0.  1.
         11   -1    0    0    0    0 -0.00000000000E+00 -0.00000000000E+00 -0.45593999997E+02  0.45594000000E+02  0.51100000000E-03 0. -1.
    9900012    2    1    2    0    0 -0.75565098028E+01  0.24744284419E+02 -0.31365331126E+02  0.50528874967E+02  0.30000045950E+02 0.  0.
        -12    1    1    2    0    0  0.75565098028E+01 -0.24744284419E+02  0.31365331126E+02  0.40659125033E+02  0.00000000000E+00 0.  1.
         11    1    3    3    0    0  0.18518318610E+00 -0.32753945399E+01 -0.96685208045E+01  0.10209936190E+02  0.51100000000E-03 0.  1.
        -11    1    3    3    0    0  0.27319652249E+01  0.82825751913E+00 -0.72573800855E+01  0.77986672242E+01  0.51100000000E-03 0. -1.
         12    1    3    3    0    0 -0.10473658214E+02  0.27191421440E+02 -0.14439430236E+02  0.32520271552E+02  0.00000000000E+00 0. -1.
</event>
<event>
 7    1  0.2937071E-011  0.5052890E+02  0.7816164E-02  0.1300439E+00
        -11   -1    0    0    0    0  0.00000000000E+00  0.00000000000E+00  0.45593999997E+02  0.45594000000E+02  0.51100000000E-03 0. -1.
         11   -1    0    0    0    0 -0.00000000000E+00 -0.00000000000E+00 -0.45593999997E+02  0.45594000000E+02  0.51100000000E-03 0.  1.
    9900012    2    1    2    0    0  0.17838868468E+02  0.36497887481E+02 -0.16855918885E+01  0.50528902140E+02  0.30000128544E+02 0.  0.
        -12    1    1    2    0    0 -0.17838868468E+02 -0.36497887481E+02  0.16855918885E+01  0.40659097860E+02  0.00000000000E+00 0.  1.
         11    1    3    3    0    0  0.73967836700E+01  0.16014924499E+02 -0.57990064085E+01  0.18569294304E+02  0.51100000000E-03 0. -1.
        -11    1    3    3    0    0  0.63169582386E+01 -0.35570873168E+01  0.17215107789E+01  0.74512033384E+01  0.51100000000E-03 0.  1.
         12    1    3    3    0    0  0.41251265592E+01  0.24040050299E+02  0.23919037412E+01  0.24508404497E+02  0.00000000000E+00 0. -1.
</event>
<event>
 7    1  0.2937071E-011  0.5052886E+02  0.7816164E-02  0.1300439E+00
        -11   -1    0    0    0    0  0.00000000000E+00  0.00000000000E+00  0.45593999997E+02  0.45594000000E+02  0.51100000000E-03 0. -1.
         11   -1    0    0    0    0 -0.00000000000E+00 -0.00000000000E+00 -0.45593999997E+02  0.45594000000E+02  0.51100000000E-03 0.  1.
    9900012    2    1    2    0    0  0.16969823206E+02  0.32952952810E+02 -0.16712070972E+02  0.50528864314E+02  0.30000013570E+02 0.  0.
        -12    1    1    2    0    0 -0.16969823206E+02 -0.32952952810E+02  0.16712070972E+02  0.40659135686E+02  0.00000000000E+00 0.  1.
         11    1    3    3    0    0  0.19538874814E+01  0.20441418783E+02 -0.13708687238E+02  0.24690026006E+02  0.51100000000E-03 0. -1.
        -11    1    3    3    0    0  0.72083774752E+00  0.10791305402E+02 -0.36811778818E+01  0.11424664117E+02  0.51100000000E-03 0.  1.
         12    1    3    3    0    0  0.14295097977E+02  0.17202286251E+01  0.67779414773E+00  0.14414174191E+02  0.00000000000E+00 0. -1.
</event>
<event>
 7    1  0.2937071E-011  0.5052884E+02  0.7816164E-02  0.1300439E+00
        -11   -1    0    0    0    0  0.00000000000E+00  0.00000000000E+00  0.45593999997E+02  0.45594000000E+02  0.51100000000E-03 0.  1.
         11   -1    0    0    0    0 -0.00000000000E+00 -0.00000000000E+00 -0.45593999997E+02  0.45594000000E+02  0.51100000000E-03 0. -1.
    9900012    2    1    2    0    0 -0.19293646101E+02 -0.29413427309E+02 -0.20390513833E+02  0.50528836945E+02  0.29999930378E+02 0.  0.
        -12    1    1    2    0    0  0.19293646101E+02  0.29413427309E+02  0.20390513833E+02  0.40659163055E+02  0.00000000000E+00 0.  1.
         11    1    3    3    0    0 -0.22442551409E+02 -0.21818092561E+02 -0.15033652388E+02  0.34723306023E+02  0.51100000000E-03 0. -1.
        -11    1    3    3    0    0 -0.35462877103E+01 -0.33359969939E+01  0.17293931886E+01  0.51668010925E+01  0.51100000000E-03 0.  1.
         12    1    3    3    0    0  0.66951930185E+01 -0.42593377542E+01 -0.70862546332E+01  0.10638729830E+02  0.00000000000E+00 0. -1.
</event>
<event>
 7    1  0.2937071E-011  0.5052887E+02  0.7816164E-02  0.1300439E+00
        -11   -1    0    0    0    0  0.00000000000E+00  0.00000000000E+00  0.45593999997E+02  0.45594000000E+02  0.51100000000E-03 0.  1.
         11   -1    0    0    0    0 -0.00000000000E+00 -0.00000000000E+00 -0.45593999997E+02  0.45594000000E+02  0.51100000000E-03 0. -1.
    9900012    2    1    2    0    0  0.17362273855E+02  0.36703849160E+02 -0.21316879607E+01  0.50528865846E+02  0.30000018226E+02 0.  0.
        -12    1    1    2    0    0 -0.17362273855E+02 -0.36703849160E+02  0.21316879607E+01  0.40659134154E+02  0.00000000000E+00 0.  1.
         11    1    3    3    0    0  0.55529807825E+01  0.18209268028E+02  0.64335867773E+01  0.20094876879E+02  0.51100000000E-03 0. -1.
        -11    1    3    3    0    0  0.12036702097E+02  0.22296148312E+02 -0.67873779052E+01  0.26231067955E+02  0.51100000000E-03 0.  1.
        -12    1    3    3    0    0 -0.22740902486E+00 -0.38015671804E+01 -0.17778968328E+01  0.42029210128E+01  0.00000000000E+00 0.  1.
</event>
<event>
 7    1  0.2937071E-011  0.5052885E+02  0.7816164E-02  0.1300439E+00
        -11   -1    0    0    0    0  0.00000000000E+00  0.00000000000E+00  0.45593999997E+02  0.45594000000E+02  0.51100000000E-03 0.  1.
         11   -1    0    0    0    0 -0.00000000000E+00 -0.00000000000E+00 -0.45593999997E+02  0.45594000000E+02  0.51100000000E-03 0. -1.
    9900012    2    1    2    0    0  0.25511444164E+02 -0.21273036789E+02 -0.23447611571E+02  0.50528851387E+02  0.29999974276E+02 0.  0.
        -12    1    1    2    0    0 -0.25511444164E+02  0.21273036789E+02  0.23447611571E+02  0.40659148613E+02  0.00000000000E+00 0.  1.
         11    1    3    3    0    0  0.64627551757E+01 -0.11531760210E+01 -0.11525619940E+02  0.13264122084E+02  0.51100000000E-03 0.  1.
        -11    1    3    3    0    0  0.13317949894E+01 -0.94977101229E+01 -0.13485951714E+02  0.16548446132E+02  0.51100000000E-03 0. -1.
         12    1    3    3    0    0  0.17716893999E+02 -0.10622150645E+02  0.15639600830E+01  0.20716283171E+02  0.00000000000E+00 0. -1.
</event>
<event>
 7    1  0.2937071E-011  0.5052886E+02  0.7816164E-02  0.1300439E+00
        -11   -1    0    0    0    0  0.00000000000E+00  0.00000000000E+00  0.45593999997E+02  0.45594000000E+02  0.51100000000E-03 0. -1.
         11   -1    0    0    0    0 -0.00000000000E+00 -0.00000000000E+00 -0.45593999997E+02  0.45594000000E+02  0.51100000000E-03 0.  1.
    9900012    2    1    2    0    0 -0.38782219915E+02 -0.13962804531E+01  0.12130751031E+02  0.50528864480E+02  0.30000014074E+02 0.  0.
        -12    1    1    2    0    0  0.38782219915E+02  0.13962804531E+01 -0.12130751031E+02  0.40659135520E+02  0.00000000000E+00 0.  1.
         11    1    3    3    0    0 -0.17128416297E+02 -0.15744843876E+01  0.18193668909E+02  0.25037396721E+02  0.51100000000E-03 0. -1.
        -11    1    3    3    0    0 -0.13112680853E+01 -0.58886039968E+00  0.29092350674E+01  0.32449698766E+01  0.51100000000E-03 0.  1.
         12    1    3    3    0    0 -0.20342535532E+02  0.76706433416E+00 -0.89721529447E+01  0.22246497883E+02  0.00000000000E+00 0. -1.
</event>
<event>
 7    1  0.2937071E-011  0.5052886E+02  0.7816164E-02  0.1300439E+00
        -11   -1    0    0    0    0  0.00000000000E+00  0.00000000000E+00  0.45593999997E+02  0.45594000000E+02  0.51100000000E-03 0. -1.
         11   -1    0    0    0    0 -0.00000000000E+00 -0.00000000000E+00 -0.45593999997E+02  0.45594000000E+02  0.51100000000E-03 0.  1.
    9900012    2    1    2    0    0 -0.21886628099E+02 -0.33320537607E+02 -0.79926867278E+01  0.50528858875E+02  0.29999997035E+02 0.  0.
        -12    1    1    2    0    0  0.21886628099E+02  0.33320537607E+02  0.79926867278E+01  0.40659141125E+02  0.00000000000E+00 0.  1.
         11    1    3    3    0    0  0.47623248002E+00 -0.16031628454E+02 -0.29227264482E+01  0.16302829154E+02  0.51100000000E-03 0. -1.
        -11    1    3    3    0    0  0.15734777868E+01 -0.61854061898E+01 -0.45435910979E+01  0.78344943937E+01  0.51100000000E-03 0.  1.
        -12    1    3    3    0    0 -0.23936338366E+02 -0.11103502963E+02 -0.52636918168E+00  0.26391535327E+02  0.00000000000E+00 0.  1.
</event>
<event>
 7    1  0.2937071E-011  0.5052886E+02  0.7816164E-02  0.1300439E+00
        -11   -1    0    0    0    0  0.00000000000E+00  0.00000000000E+00  0.45593999997E+02  0.45594000000E+02  0.51100000000E-03 0.  1.
         11   -1    0    0    0    0 -0.00000000000E+00 -0.00000000000E+00 -0.45593999997E+02  0.45594000000E+02  0.51100000000E-03 0. -1.
    9900012    2    1    2    0    0  0.16274322025E+02 -0.22019624530E+01 -0.37194937999E+02  0.50528860698E+02  0.30000002578E+02 0.  0.
        -12    1    1    2    0    0 -0.16274322025E+02  0.22019624530E+01  0.37194937999E+02  0.40659139302E+02  0.00000000000E+00 0.  1.
         11    1    3    3    0    0 -0.45319772098E+00  0.60657487997E+01 -0.33043206436E+01  0.69222273765E+01  0.51100000000E-03 0. -1.
        -11    1    3    3    0    0  0.39103503770E+01  0.66786891191E+01 -0.90003147788E+01  0.11870189333E+02  0.51100000000E-03 0.  1.
         12    1    3    3    0    0  0.12817169369E+02 -0.14946400372E+02 -0.24890302577E+02  0.31736443989E+02  0.00000000000E+00 0. -1.
</event>
<event>
 7    1  0.2937071E-011  0.5052885E+02  0.7816164E-02  0.1300439E+00
        -11   -1    0    0    0    0  0.00000000000E+00  0.00000000000E+00  0.45593999997E+02  0.45594000000E+02  0.51100000000E-03 0. -1.
         11   -1    0    0    0    0 -0.00000000000E+00 -0.00000000000E+00 -0.45593999997E+02  0.45594000000E+02  0.51100000000E-03 0.  1.
    9900012    2    1    2    0    0 -0.40376114828E+02 -0.38330996477E+01  0.28710465782E+01  0.50528853305E+02  0.29999980105E+02 0.  0.
        -12    1    1    2    0    0  0.40376114828E+02  0.38330996477E+01 -0.28710465782E+01  0.40659146695E+02  0.00000000000E+00 0.  1.
         11    1    3    3    0    0 -0.10516341780E+02  0.72891391526E+01  0.82956528818E+01  0.15249355757E+02  0.51100000000E-03 0. -1.
        -11    1    3    3    0    0 -0.11773857454E+02 -0.11295388112E+01  0.41116636692E+01  0.12522194523E+02  0.51100000000E-03 0.  1.
        -12    1    3    3    0    0 -0.18085915595E+02 -0.99926999892E+01 -0.95362699728E+01  0.22757303025E+02  0.00000000000E+00 0.  1.
</event>
<event>
 7    1  0.2937071E-011  0.5052887E+02  0.7816164E-02  0.1300439E+00
        -11   -1    0    0    0    0  0.00000000000E+00  0.00000000000E+00  0.45593999997E+02  0.45594000000E+02  0.51100000000E-03 0. -1.
         11   -1    0    0    0    0 -0.00000000000E+00 -0.00000000000E+00 -0.45593999997E+02  0.45594000000E+02  0.51100000000E-03 0.  1.
    9900012    2    1    2    0    0  0.35158776747E+02  0.70780678911E+01  0.19155322280E+02  0.50528868196E+02  0.30000025369E+02 0.  0.
        -12    1    1    2    0    0 -0.35158776747E+02 -0.70780678911E+01 -0.19155322280E+02  0.40659131804E+02  0.00000000000E+00 0.  1.
         11    1    3    3    0    0  0.52835029309E+01  0.90014035484E+01  0.12176883157E+02  0.16037990920E+02  0.51100000000E-03 0. -1.
        -11    1    3    3    0    0  0.12568936423E+02  0.26046492209E+01 -0.40692731217E+01  0.13465561420E+02  0.51100000000E-03 0.  1.
        -12    1    3    3    0    0  0.17306337393E+02 -0.45279848783E+01  0.11047712245E+02  0.21025315856E+02  0.00000000000E+00 0.  1.
</event>
<event>
 7    1  0.2937071E-011  0.5052886E+02  0.7816164E-02  0.1300439E+00
        -11   -1    0    0    0    0  0.00000000000E+00  0.00000000000E+00  0.45593999997E+02  0.45594000000E+02  0.51100000000E-03 0.  1.
         11   -1    0    0    0    0 -0.00000000000E+00 -0.00000000000E+00 -0.45593999997E+02  0.45594000000E+02  0.51100000000E-03 0. -1.
    9900012    2    1    2    0    0 -0.12068843121E+02  0.30735804002E+02 -0.23723809632E+02  0.50528858772E+02  0.29999996724E+02 0.  0.
        -12    1    1    2    0    0  0.12068843121E+02 -0.30735804002E+02  0.23723809632E+02  0.40659141228E+02  0.00000000000E+00 0.  1.
         11    1    3    3    0    0  0.31726699317E+01  0.20565983448E+02 -0.81097921535E+01  0.22333701858E+02  0.51100000000E-03 0. -1.
        -11    1    3    3    0    0 -0.42129746609E+01 -0.99626643422E+00  0.18565475461E+01  0.47104640274E+01  0.51100000000E-03 0.  1.
         12    1    3    3    0    0 -0.11028538392E+02  0.11166086988E+02 -0.17470565025E+02  0.23484692886E+02  0.00000000000E+00 0. -1.
</event>
<event>
 7    1  0.2937071E-011  0.5052886E+02  0.7816164E-02  0.1300439E+00
        -11   -1    0    0    0    0  0.00000000000E+00  0.00000000000E+00  0.45593999997E+02  0.45594000000E+02  0.51100000000E-03 0.  1.
         11   -1    0    0    0    0 -0.00000000000E+00 -0.00000000000E+00 -0.45593999997E+02  0.45594000000E+02  0.51100000000E-03 0. -1.
    9900012    2    1    2    0    0  0.15607399450E+01 -0.36918069005E+02 -0.16964257256E+02  0.50528858931E+02  0.29999997208E+02 0.  0.
        -12    1    1    2    0    0 -0.15607399450E+01  0.36918069005E+02  0.16964257256E+02  0.40659141069E+02  0.00000000000E+00 0.  1.
         11    1    3    3    0    0  0.15544751723E+01 -0.27886367014E+02 -0.14869824140E+02  0.31641389484E+02  0.51100000000E-03 0. -1.
        -11    1    3    3    0    0 -0.39846602525E+00 -0.13843913214E+02 -0.72842942718E+00  0.13868789347E+02  0.51100000000E-03 0.  1.
        -12    1    3    3    0    0  0.40473079788E+00  0.48122112231E+01 -0.13660036883E+01  0.50186801004E+01  0.00000000000E+00 0.  1.
</event>
<event>
 7    1  0.2937071E-011  0.5052886E+02  0.7816164E-02  0.1300439E+00
        -11   -1    0    0    0    0  0.00000000000E+00  0.00000000000E+00  0.45593999997E+02  0.45594000000E+02  0.51100000000E-03 0. -1.
         11   -1    0    0    0    0 -0.00000000000E+00 -0.00000000000E+00 -0.45593999997E+02  0.45594000000E+02  0.51100000000E-03 0.  1.
    9900012    2    1    2    0    0 -0.28825347485E+02  0.16585084306E+02  0.23392306729E+02  0.50528859660E+02  0.29999999422E+02 0.  0.
        -12    1    1    2    0    0  0.28825347485E+02 -0.16585084306E+02 -0.23392306729E+02  0.40659140340E+02  0.00000000000E+00 0.  1.
         11    1    3    3    0    0 -0.16742344193E+02  0.67447714492E+01  0.21100281614E+02  0.27767245369E+02  0.51100000000E-03 0. -1.
        -11    1    3    3    0    0 -0.14572525806E+02  0.31147249969E+01  0.39177928230E+01  0.15408086223E+02  0.51100000000E-03 0.  1.
        -12    1    3    3    0    0  0.24895225138E+01  0.67255878599E+01 -0.16257677073E+01  0.73535280680E+01  0.00000000000E+00 0.  1.
</event>
<event>
 7    1  0.2937071E-011  0.5052887E+02  0.7816164E-02  0.1300439E+00
        -11   -1    0    0    0    0  0.00000000000E+00  0.00000000000E+00  0.45593999997E+02  0.45594000000E+02  0.51100000000E-03 0. -1.
         11   -1    0    0    0    0 -0.00000000000E+00 -0.00000000000E+00 -0.45593999997E+02  0.45594000000E+02  0.51100000000E-03 0.  1.
    9900012    2    1    2    0    0 -0.27205425997E+02  0.15145543993E+02  0.26146544809E+02  0.50528874186E+02  0.30000043576E+02 0.  0.
        -12    1    1    2    0    0  0.27205425997E+02 -0.15145543993E+02 -0.26146544809E+02  0.40659125814E+02  0.00000000000E+00 0.  1.
         11    1    3    3    0    0 -0.13284879706E+02 -0.12737022970E+01  0.20348547952E+01  0.13500036320E+02  0.51100000000E-03 0. -1.
        -11    1    3    3    0    0 -0.12917399971E+02  0.79809624495E+01  0.24155008554E+02  0.28531025606E+02  0.51100000000E-03 0.  1.
        -12    1    3    3    0    0 -0.10031463194E+01  0.84382838401E+01 -0.43318539766E-01  0.84978122597E+01  0.00000000000E+00 0.  1.
</event>
<event>
 7    1  0.2937071E-011  0.5052886E+02  0.7816164E-02  0.1300439E+00
        -11   -1    0    0    0    0  0.00000000000E+00  0.00000000000E+00  0.45593999997E+02  0.45594000000E+02  0.51100000000E-03 0.  1.
         11   -1    0    0    0    0 -0.00000000000E+00 -0.00000000000E+00 -0.45593999997E+02  0.45594000000E+02  0.51100000000E-03 0. -1.
    9900012    2    1    2    0    0  0.12613709030E+02  0.38129092928E+02 -0.63428699074E+01  0.50528863491E+02  0.30000011068E+02 0.  0.
        -12    1    1    2    0    0 -0.12613709030E+02 -0.38129092928E+02  0.63428699074E+01  0.40659136509E+02  0.00000000000E+00 0.  1.
         11    1    3    3    0    0  0.57839976329E+01  0.10733475381E+02  0.25883265978E+01  0.12464411627E+02  0.51100000000E-03 0. -1.
        -11    1    3    3    0    0 -0.11913045170E+01  0.79435652465E+01  0.77892787612E+01  0.11188936462E+02  0.51100000000E-03 0.  1.
         12    1    3    3    0    0  0.80210159140E+01  0.19452052300E+02 -0.16720475266E+02  0.26875515401E+02  0.00000000000E+00 0. -1.
</event>
<event>
 7    1  0.2937071E-011  0.5052887E+02  0.7816164E-02  0.1300439E+00
        -11   -1    0    0    0    0  0.00000000000E+00  0.00000000000E+00  0.45593999997E+02  0.45594000000E+02  0.51100000000E-03 0.  1.
         11   -1    0    0    0    0 -0.00000000000E+00 -0.00000000000E+00 -0.45593999997E+02  0.45594000000E+02  0.51100000000E-03 0. -1.
    9900012    2    1    2    0    0  0.46327558278E+01  0.32744069301E+02 -0.23654358763E+02  0.50528865855E+02  0.30000018253E+02 0.  0.
        -12    1    1    2    0    0 -0.46327558278E+01 -0.32744069301E+02  0.23654358763E+02  0.40659134145E+02  0.00000000000E+00 0.  1.
         11    1    3    3    0    0 -0.14720383167E+01 -0.48078093623E+00 -0.22414770131E+00  0.15647011113E+01  0.51100000000E-03 0. -1.
        -11    1    3    3    0    0  0.17925581920E+01 -0.36939995610E+01  0.13143165850E+01  0.43111861448E+01  0.51100000000E-03 0.  1.
         12    1    3    3    0    0  0.43122359525E+01  0.36918849798E+02 -0.24744527647E+02  0.44652978599E+02  0.00000000000E+00 0. -1.
</event>
<event>
 7    1  0.2937071E-011  0.5052884E+02  0.7816164E-02  0.1300439E+00
        -11   -1    0    0    0    0  0.00000000000E+00  0.00000000000E+00  0.45593999997E+02  0.45594000000E+02  0.51100000000E-03 0. -1.
         11   -1    0    0    0    0 -0.00000000000E+00 -0.00000000000E+00 -0.45593999997E+02  0.45594000000E+02  0.51100000000E-03 0.  1.
    9900012    2    1    2    0    0 -0.23627097648E+02 -0.26068276564E+02  0.20380694335E+02  0.50528837590E+02  0.29999932339E+02 0.  0.
        -12    1    1    2    0    0  0.23627097648E+02  0.26068276564E+02 -0.20380694335E+02  0.40659162410E+02  0.00000000000E+00 0.  1.
         11    1    3    3    0    0 -0.91085265466E+01 -0.39419363727E+01 -0.60636783278E+01  0.11630662635E+02  0.51100000000E-03 0. -1.
        -11    1    3    3    0    0  0.51652180520E+00  0.78169562645E+00  0.18695727193E+01  0.20912066472E+01  0.51100000000E-03 0.  1.
         12    1    3    3    0    0 -0.15035092907E+02 -0.22908035818E+02  0.24574799943E+02  0.36806968308E+02  0.00000000000E+00 0. -1.
</event>
<event>
 7    1  0.2937071E-011  0.5052883E+02  0.7816164E-02  0.1300439E+00
        -11   -1    0    0    0    0  0.00000000000E+00  0.00000000000E+00  0.45593999997E+02  0.45594000000E+02  0.51100000000E-03 0.  1.
         11   -1    0    0    0    0 -0.00000000000E+00 -0.00000000000E+00 -0.45593999997E+02  0.45594000000E+02  0.51100000000E-03 0. -1.
    9900012    2    1    2    0    0  0.15165893545E+02  0.22238951581E+02 -0.30472823482E+02  0.50528828028E+02  0.29999903274E+02 0.  0.
        -12    1    1    2    0    0 -0.15165893545E+02 -0.22238951581E+02  0.30472823482E+02  0.40659171972E+02  0.00000000000E+00 0.  1.
         11    1    3    3    0    0  0.10616953601E+02  0.13323371744E+02 -0.80186503531E+01  0.18828985425E+02  0.51100000000E-03 0. -1.
        -11    1    3    3    0    0  0.11064780872E+02  0.12898454491E+01 -0.16880715864E+02  0.20225025225E+02  0.51100000000E-03 0.  1.
        -12    1    3    3    0    0 -0.65158409281E+01  0.76257343886E+01 -0.55734572655E+01  0.11474817378E+02  0.00000000000E+00 0.  1.
</event>
<event>
 7    1  0.2937071E-011  0.5052887E+02  0.7816164E-02  0.1300439E+00
        -11   -1    0    0    0    0  0.00000000000E+00  0.00000000000E+00  0.45593999997E+02  0.45594000000E+02  0.51100000000E-03 0.  1.
         11   -1    0    0    0    0 -0.00000000000E+00 -0.00000000000E+00 -0.45593999997E+02  0.45594000000E+02  0.51100000000E-03 0. -1.
    9900012    2    1    2    0    0  0.15667436275E+02  0.54776707835E+01 -0.37117261800E+02  0.50528873593E+02  0.30000041774E+02 0.  0.
        -12    1    1    2    0    0 -0.15667436275E+02 -0.54776707835E+01  0.37117261800E+02  0.40659126407E+02  0.00000000000E+00 0.  1.
         11    1    3    3    0    0  0.13756286265E+01  0.11126675802E+02 -0.10427907950E+02  0.15311320420E+02  0.51100000000E-03 0. -1.
        -11    1    3    3    0    0  0.85373628556E+01 -0.46617474063E+01 -0.21088682387E+01  0.99531793371E+01  0.51100000000E-03 0.  1.
         12    1    3    3    0    0  0.57544447925E+01 -0.98725761269E+00 -0.24580485611E+02  0.25264373836E+02  0.00000000000E+00 0. -1.
</event>
<event>
 7    1  0.2937071E-011  0.5052887E+02  0.7816164E-02  0.1300439E+00
        -11   -1    0    0    0    0  0.00000000000E+00  0.00000000000E+00  0.45593999997E+02  0.45594000000E+02  0.51100000000E-03 0.  1.
         11   -1    0    0    0    0 -0.00000000000E+00 -0.00000000000E+00 -0.45593999997E+02  0.45594000000E+02  0.51100000000E-03 0. -1.
    9900012    2    1    2    0    0  0.19937778100E+02 -0.34367867367E+02 -0.86313246187E+01  0.50528867353E+02  0.30000022806E+02 0.  0.
        -12    1    1    2    0    0 -0.19937778100E+02  0.34367867367E+02  0.86313246187E+01  0.40659132647E+02  0.00000000000E+00 0.  1.
         11    1    3    3    0    0  0.10624283222E+02 -0.11943010445E+02  0.46212611779E+01  0.16639319325E+02  0.51100000000E-03 0. -1.
        -11    1    3    3    0    0  0.23747162393E+01 -0.14997001206E+02  0.22521369535E+01  0.15349965586E+02  0.51100000000E-03 0.  1.
        -12    1    3    3    0    0  0.69387786379E+01 -0.74278557169E+01 -0.15504722750E+02  0.18539582441E+02  0.00000000000E+00 0.  1.
</event>
<event>
 7    1  0.2937071E-011  0.5052885E+02  0.7816164E-02  0.1300439E+00
        -11   -1    0    0    0    0  0.00000000000E+00  0.00000000000E+00  0.45593999997E+02  0.45594000000E+02  0.51100000000E-03 0.  1.
         11   -1    0    0    0    0 -0.00000000000E+00 -0.00000000000E+00 -0.45593999997E+02  0.45594000000E+02  0.51100000000E-03 0. -1.
    9900012    2    1    2    0    0  0.97703209077E+01  0.10388624511E+02 -0.38076023384E+02  0.50528852854E+02  0.29999978736E+02 0.  0.
        -12    1    1    2    0    0 -0.97703209077E+01 -0.10388624511E+02  0.38076023384E+02  0.40659147146E+02  0.00000000000E+00 0.  1.
         11    1    3    3    0    0  0.20960333332E+01  0.14945618084E+01 -0.78905592515E+01  0.82998792940E+01  0.51100000000E-03 0. -1.
        -11    1    3    3    0    0  0.11795724358E+02 -0.47346014252E+01 -0.23004605352E+02  0.26282454821E+02  0.51100000000E-03 0.  1.
        -12    1    3    3    0    0 -0.41214367831E+01  0.13628664128E+02 -0.71808587805E+01  0.15946518739E+02  0.00000000000E+00 0.  1.
</event>
<event>
 7    1  0.2937071E-011  0.5052886E+02  0.7816164E-02  0.1300439E+00
        -11   -1    0    0    0    0  0.00000000000E+00  0.00000000000E+00  0.45593999997E+02  0.45594000000E+02  0.51100000000E-03 0. -1.
         11   -1    0    0    0    0 -0.00000000000E+00 -0.00000000000E+00 -0.45593999997E+02  0.45594000000E+02  0.51100000000E-03 0.  1.
    9900012    2    1    2    0    0 -0.26253109426E+02  0.27155303013E+02  0.15050903527E+02  0.50528856708E+02  0.29999990449E+02 0.  0.
        -12    1    1    2    0    0  0.26253109426E+02 -0.27155303013E+02 -0.15050903527E+02  0.40659143292E+02  0.00000000000E+00 0.  1.
         11    1    3    3    0    0 -0.20207607404E+01  0.13812090479E+02  0.67341727045E+01  0.15498593474E+02  0.51100000000E-03 0. -1.
        -11    1    3    3    0    0 -0.75114268798E+01  0.14367698512E+02 -0.24998417869E+00  0.16214647287E+02  0.51100000000E-03 0.  1.
        -12    1    3    3    0    0 -0.16720921806E+02 -0.10244859781E+01  0.85667150010E+01  0.18815615947E+02  0.00000000000E+00 0.  1.
</event>
<event>
 7    1  0.2937071E-011  0.5052886E+02  0.7816164E-02  0.1300439E+00
        -11   -1    0    0    0    0  0.00000000000E+00  0.00000000000E+00  0.45593999997E+02  0.45594000000E+02  0.51100000000E-03 0. -1.
         11   -1    0    0    0    0 -0.00000000000E+00 -0.00000000000E+00 -0.45593999997E+02  0.45594000000E+02  0.51100000000E-03 0.  1.
    9900012    2    1    2    0    0  0.33716095910E+02  0.18497311214E+02 -0.13199995648E+02  0.50528861659E+02  0.30000005498E+02 0.  0.
        -12    1    1    2    0    0 -0.33716095910E+02 -0.18497311214E+02  0.13199995648E+02  0.40659138341E+02  0.00000000000E+00 0.  1.
         11    1    3    3    0    0  0.51025200523E+01  0.13275847510E+02 -0.52815246660E+01  0.15171629479E+02  0.51100000000E-03 0. -1.
        -11    1    3    3    0    0  0.55883620615E+01  0.82744094495E+01 -0.68448842513E+01  0.12105704562E+02  0.51100000000E-03 0.  1.
         12    1    3    3    0    0  0.23025213796E+02 -0.30529457456E+01 -0.10735867310E+01  0.23251527618E+02  0.00000000000E+00 0. -1.
</event>
<event>
 7    1  0.2937071E-011  0.5052886E+02  0.7816164E-02  0.1300439E+00
        -11   -1    0    0    0    0  0.00000000000E+00  0.00000000000E+00  0.45593999997E+02  0.45594000000E+02  0.51100000000E-03 0.  1.
         11   -1    0    0    0    0 -0.00000000000E+00 -0.00000000000E+00 -0.45593999997E+02  0.45594000000E+02  0.51100000000E-03 0. -1.
    9900012    2    1    2    0    0  0.44258588374E+01  0.27696843014E+01 -0.40322526931E+02  0.50528861351E+02  0.30000004562E+02 0.  0.
        -12    1    1    2    0    0 -0.44258588374E+01 -0.27696843014E+01  0.40322526931E+02  0.40659138649E+02  0.00000000000E+00 0.  1.
         11    1    3    3    0    0 -0.41416853920E+01  0.82966795971E+01 -0.16846185496E+02  0.19229727409E+02  0.51100000000E-03 0. -1.
        -11    1    3    3    0    0  0.19619806080E+01  0.35369634901E+01 -0.18659704398E+02  0.19093036613E+02  0.51100000000E-03 0.  1.
        -12    1    3    3    0    0  0.66055636214E+01 -0.90639587858E+01 -0.48166370374E+01  0.12206097328E+02  0.00000000000E+00 0.  1.
</event>
<event>
 7    1  0.2937071E-011  0.5052886E+02  0.7816164E-02  0.1300439E+00
        -11   -1    0    0    0    0  0.00000000000E+00  0.00000000000E+00  0.45593999997E+02  0.45594000000E+02  0.51100000000E-03 0.  1.
         11   -1    0    0    0    0 -0.00000000000E+00 -0.00000000000E+00 -0.45593999997E+02  0.45594000000E+02  0.51100000000E-03 0. -1.
    9900012    2    1    2    0    0 -0.99297962629E+01  0.32995691048E+02 -0.21583538831E+02  0.50528860437E+02  0.30000001784E+02 0.  0.
        -12    1    1    2    0    0  0.99297962629E+01 -0.32995691048E+02  0.21583538831E+02  0.40659139563E+02  0.00000000000E+00 0.  1.
         11    1    3    3    0    0 -0.11830701578E+00  0.37598011213E+00 -0.19821363359E+01  0.20209458949E+01  0.51100000000E-03 0. -1.
        -11    1    3    3    0    0  0.18849638512E+01 -0.46256859249E+01 -0.42529536332E+01  0.65603105005E+01  0.51100000000E-03 0.  1.
         12    1    3    3    0    0 -0.11696453098E+02  0.37245396860E+02 -0.15348448862E+02  0.41947604042E+02  0.00000000000E+00 0. -1.
</event>
<event>
 7    1  0.2937071E-011  0.5052886E+02  0.7816164E-02  0.1300439E+00
        -11   -1    0    0    0    0  0.00000000000E+00  0.00000000000E+00  0.45593999997E+02  0.45594000000E+02  0.51100000000E-03 0.  1.
         11   -1    0    0    0    0 -0.00000000000E+00 -0.00000000000E+00 -0.45593999997E+02  0.45594000000E+02  0.51100000000E-03 0. -1.
    9900012    2    1    2    0    0  0.12709985530E+02 -0.22562130144E+02 -0.31346005500E+02  0.50528861917E+02  0.30000006284E+02 0.  0.
        -12    1    1    2    0    0 -0.12709985530E+02  0.22562130144E+02  0.31346005500E+02  0.40659138083E+02  0.00000000000E+00 0.  1.
         11    1    3    3    0    0 -0.35490953873E+01  0.20387426497E+01 -0.48434100223E+01  0.63412278436E+01  0.51100000000E-03 0. -1.
        -11    1    3    3    0    0 -0.22971863584E+00 -0.50651654591E+01  0.23930927572E+01  0.56067428143E+01  0.51100000000E-03 0.  1.
         12    1    3    3    0    0  0.16488799553E+02 -0.19535707335E+02 -0.28895688235E+02  0.38580891259E+02  0.00000000000E+00 0. -1.
</event>
<event>
 7    1  0.2937071E-011  0.5052885E+02  0.7816164E-02  0.1300439E+00
        -11   -1    0    0    0    0  0.00000000000E+00  0.00000000000E+00  0.45593999997E+02  0.45594000000E+02  0.51100000000E-03 0.  1.
         11   -1    0    0    0    0 -0.00000000000E+00 -0.00000000000E+00 -0.45593999997E+02  0.45594000000E+02  0.51100000000E-03 0. -1.
    9900012    2    1    2    0    0 -0.69510865213E+01  0.27946201076E+02 -0.28702933926E+02  0.50528853743E+02  0.29999981436E+02 0.  0.
        -12    1    1    2    0    0  0.69510865213E+01 -0.27946201076E+02  0.28702933926E+02  0.40659146257E+02  0.00000000000E+00 0.  1.
         11    1    3    3    0    0 -0.91988151337E+01  0.46368492719E+01 -0.19076491595E+02  0.21680200711E+02  0.51100000000E-03 0. -1.
        -11    1    3    3    0    0  0.28296770760E+01 -0.90697658436E+00 -0.10980187305E+01  0.31678579944E+01  0.51100000000E-03 0.  1.
        -12    1    3    3    0    0 -0.58194846368E+00  0.24216328389E+02 -0.85284236008E+01  0.25680795037E+02  0.00000000000E+00 0.  1.
</event>
<event>
 7    1  0.2937071E-011  0.5052886E+02  0.7816164E-02  0.1300439E+00
        -11   -1    0    0    0    0  0.00000000000E+00  0.00000000000E+00  0.45593999997E+02  0.45594000000E+02  0.51100000000E-03 0. -1.
         11   -1    0    0    0    0 -0.00000000000E+00 -0.00000000000E+00 -0.45593999997E+02  0.45594000000E+02  0.51100000000E-03 0.  1.
    9900012    2    1    2    0    0  0.30253953620E+02  0.26497823625E+02 -0.59773835502E+01  0.50528862274E+02  0.30000007368E+02 0.  0.
        -12    1    1    2    0    0 -0.30253953620E+02 -0.26497823625E+02  0.59773835502E+01  0.40659137726E+02  0.00000000000E+00 0.  1.
         11    1    3    3    0    0  0.13356265909E+02  0.53270983461E+01  0.43983085045E+01  0.15037052031E+02  0.51100000000E-03 0.  1.
        -11    1    3    3    0    0 -0.16502887417E+01  0.85600195825E+01  0.31859694839E+01  0.92815833777E+01  0.51100000000E-03 0. -1.
         12    1    3    3    0    0  0.18547976453E+02  0.12610705696E+02 -0.13561661539E+02  0.26210226866E+02  0.00000000000E+00 0. -1.
</event>
<event>
 7    1  0.2937071E-011  0.5052886E+02  0.7816164E-02  0.1300439E+00
        -11   -1    0    0    0    0  0.00000000000E+00  0.00000000000E+00  0.45593999997E+02  0.45594000000E+02  0.51100000000E-03 0. -1.
         11   -1    0    0    0    0 -0.00000000000E+00 -0.00000000000E+00 -0.45593999997E+02  0.45594000000E+02  0.51100000000E-03 0.  1.
    9900012    2    1    2    0    0 -0.11939117620E+02 -0.16980689953E+02 -0.34961107455E+02  0.50528863324E+02  0.30000010558E+02 0.  0.
        -12    1    1    2    0    0  0.11939117620E+02  0.16980689953E+02  0.34961107455E+02  0.40659136676E+02  0.00000000000E+00 0.  1.
         11    1    3    3    0    0 -0.63740098582E+01 -0.61837515561E+01  0.17468454448E+01  0.90508703587E+01  0.51100000000E-03 0. -1.
        -11    1    3    3    0    0 -0.74240717348E+01 -0.98074525518E+01 -0.13851650996E+02  0.18524880627E+02  0.51100000000E-03 0.  1.
        -12    1    3    3    0    0  0.18589639729E+01 -0.98948584487E+00 -0.22856301903E+02  0.22953112338E+02  0.00000000000E+00 0.  1.
</event>
<event>
 7    1  0.2937071E-011  0.5052883E+02  0.7816164E-02  0.1300439E+00
        -11   -1    0    0    0    0  0.00000000000E+00  0.00000000000E+00  0.45593999997E+02  0.45594000000E+02  0.51100000000E-03 0.  1.
         11   -1    0    0    0    0 -0.00000000000E+00 -0.00000000000E+00 -0.45593999997E+02  0.45594000000E+02  0.51100000000E-03 0. -1.
    9900012    2    1    2    0    0  0.35645928593E+02  0.19230000299E+02  0.35697133308E+01  0.50528831415E+02  0.29999913569E+02 0.  0.
        -12    1    1    2    0    0 -0.35645928593E+02 -0.19230000299E+02 -0.35697133308E+01  0.40659168585E+02  0.00000000000E+00 0.  1.
         11    1    3    3    0    0  0.26191704584E+00  0.91474163374E+00  0.20479286500E+01  0.22581773208E+01  0.51100000000E-03 0. -1.
        -11    1    3    3    0    0  0.11800199762E+02  0.21390998492E+02 -0.12458305992E+00  0.24430207779E+02  0.51100000000E-03 0.  1.
         12    1    3    3    0    0  0.23583811785E+02 -0.30757398267E+01  0.16463677407E+01  0.23840446316E+02  0.00000000000E+00 0. -1.
</event>
<event>
 7    1  0.2937071E-011  0.5052885E+02  0.7816164E-02  0.1300439E+00
        -11   -1    0    0    0    0  0.00000000000E+00  0.00000000000E+00  0.45593999997E+02  0.45594000000E+02  0.51100000000E-03 0. -1.
         11   -1    0    0    0    0 -0.00000000000E+00 -0.00000000000E+00 -0.45593999997E+02  0.45594000000E+02  0.51100000000E-03 0.  1.
    9900012    2    1    2    0    0 -0.21447662351E+02  0.12612196236E+02  0.32157375241E+02  0.50528849780E+02  0.29999969392E+02 0.  0.
        -12    1    1    2    0    0  0.21447662351E+02 -0.12612196236E+02 -0.32157375241E+02  0.40659150220E+02  0.00000000000E+00 0.  1.
         11    1    3    3    0    0 -0.96936001810E+01  0.73924173124E+01  0.51759232503E+01  0.13244013740E+02  0.51100000000E-03 0. -1.
        -11    1    3    3    0    0 -0.70565163642E+01  0.83541429768E+01  0.13265095257E+01  0.11015704964E+02  0.51100000000E-03 0.  1.
        -12    1    3    3    0    0 -0.46975458055E+01 -0.31343640528E+01  0.25654942465E+02  0.26269131076E+02  0.00000000000E+00 0.  1.
</event>
<event>
 7    1  0.2937071E-011  0.5052885E+02  0.7816164E-02  0.1300439E+00
        -11   -1    0    0    0    0  0.00000000000E+00  0.00000000000E+00  0.45593999997E+02  0.45594000000E+02  0.51100000000E-03 0.  1.
         11   -1    0    0    0    0 -0.00000000000E+00 -0.00000000000E+00 -0.45593999997E+02  0.45594000000E+02  0.51100000000E-03 0. -1.
    9900012    2    1    2    0    0  0.16376570643E+02 -0.33877667879E+01 -0.37060724132E+02  0.50528852160E+02  0.29999976626E+02 0.  0.
        -12    1    1    2    0    0 -0.16376570643E+02  0.33877667879E+01  0.37060724132E+02  0.40659147840E+02  0.00000000000E+00 0.  1.
         11    1    3    3    0    0  0.53452455972E+01  0.18748428021E+01 -0.37659308724E+01  0.68021262575E+01  0.51100000000E-03 0. -1.
        -11    1    3    3    0    0  0.25958099097E+01  0.10084855906E+02 -0.89125350844E+01  0.13706780425E+02  0.51100000000E-03 0.  1.
         12    1    3    3    0    0  0.84355151360E+01 -0.15347465496E+02 -0.24382258176E+02  0.30019945478E+02  0.00000000000E+00 0. -1.
</event>
<event>
 7    1  0.2937071E-011  0.5052887E+02  0.7816164E-02  0.1300439E+00
        -11   -1    0    0    0    0  0.00000000000E+00  0.00000000000E+00  0.45593999997E+02  0.45594000000E+02  0.51100000000E-03 0.  1.
         11   -1    0    0    0    0 -0.00000000000E+00 -0.00000000000E+00 -0.45593999997E+02  0.45594000000E+02  0.51100000000E-03 0. -1.
    9900012    2    1    2    0    0  0.14156003760E+02 -0.21102971553E+02 -0.31740150953E+02  0.50528867774E+02  0.30000024086E+02 0.  0.
        -12    1    1    2    0    0 -0.14156003760E+02  0.21102971553E+02  0.31740150953E+02  0.40659132226E+02  0.00000000000E+00 0.  1.
         11    1    3    3    0    0 -0.18393080086E+00  0.41137230511E+01 -0.13930437871E+01  0.43470816802E+01  0.51100000000E-03 0. -1.
        -11    1    3    3    0    0  0.33979053884E+01  0.27441031507E+01 -0.17131111813E+01  0.46915470061E+01  0.51100000000E-03 0.  1.
         12    1    3    3    0    0  0.10942029173E+02 -0.27960797755E+02 -0.28633995985E+02  0.41490239088E+02  0.00000000000E+00 0. -1.
</event>
<event>
 7    1  0.2937071E-011  0.5052885E+02  0.7816164E-02  0.1300439E+00
        -11   -1    0    0    0    0  0.00000000000E+00  0.00000000000E+00  0.45593999997E+02  0.45594000000E+02  0.51100000000E-03 0.  1.
         11   -1    0    0    0    0 -0.00000000000E+00 -0.00000000000E+00 -0.45593999997E+02  0.45594000000E+02  0.51100000000E-03 0. -1.
    9900012    2    1    2    0    0  0.22319760859E+01 -0.16095137112E+02 -0.37271052098E+02  0.50528849979E+02  0.29999969997E+02 0.  0.
        -12    1    1    2    0    0 -0.22319760859E+01  0.16095137112E+02  0.37271052098E+02  0.40659150021E+02  0.00000000000E+00 0.  1.
         11    1    3    3    0    0  0.36405322498E+01  0.31586656141E-01 -0.22166635734E+02  0.22463619762E+02  0.51100000000E-03 0. -1.
        -11    1    3    3    0    0 -0.81796422344E+01 -0.96486757706E+01 -0.13602092345E+02  0.18574724968E+02  0.51100000000E-03 0.  1.
        -12    1    3    3    0    0  0.67710860705E+01 -0.64780479976E+01 -0.15023240188E+01  0.94905052495E+01  0.00000000000E+00 0.  1.
</event>
<event>
 7    1  0.2937071E-011  0.5052887E+02  0.7816164E-02  0.1300439E+00
        -11   -1    0    0    0    0  0.00000000000E+00  0.00000000000E+00  0.45593999997E+02  0.45594000000E+02  0.51100000000E-03 0.  1.
         11   -1    0    0    0    0 -0.00000000000E+00 -0.00000000000E+00 -0.45593999997E+02  0.45594000000E+02  0.51100000000E-03 0. -1.
    9900012    2    1    2    0    0 -0.84115665121E+01  0.20567590644E+02 -0.34049732953E+02  0.50528873715E+02  0.30000042143E+02 0.  0.
        -12    1    1    2    0    0  0.84115665121E+01 -0.20567590644E+02  0.34049732953E+02  0.40659126285E+02  0.00000000000E+00 0.  1.
         11    1    3    3    0    0 -0.11603720093E+02  0.11620244342E+02 -0.30484559926E+02  0.34626359796E+02  0.51100000000E-03 0. -1.
        -11    1    3    3    0    0  0.32798544369E+01  0.44492397069E+00 -0.61766915205E+01  0.70076330432E+01  0.51100000000E-03 0.  1.
        -12    1    3    3    0    0 -0.87700855518E-01  0.85024223319E+01  0.26115184932E+01  0.88948808756E+01  0.00000000000E+00 0.  1.
</event>
<event>
 7    1  0.2937071E-011  0.5052887E+02  0.7816164E-02  0.1300439E+00
        -11   -1    0    0    0    0  0.00000000000E+00  0.00000000000E+00  0.45593999997E+02  0.45594000000E+02  0.51100000000E-03 0.  1.
         11   -1    0    0    0    0 -0.00000000000E+00 -0.00000000000E+00 -0.45593999997E+02  0.45594000000E+02  0.51100000000E-03 0. -1.
    9900012    2    1    2    0    0  0.24106770988E+01  0.66036417807E+01 -0.40046793317E+02  0.50528866907E+02  0.30000021451E+02 0.  0.
        -12    1    1    2    0    0 -0.24106770988E+01 -0.66036417807E+01  0.40046793317E+02  0.40659133093E+02  0.00000000000E+00 0.  1.
         11    1    3    3    0    0  0.21687738254E+01 -0.20234017220E+01 -0.48721687120E+01  0.57040128553E+01  0.51100000000E-03 0. -1.
        -11    1    3    3    0    0  0.13193618518E+02  0.24656912515E+01 -0.17865813587E+02  0.22345883252E+02  0.51100000000E-03 0.  1.
         12    1    3    3    0    0 -0.12951715244E+02  0.61613522512E+01 -0.17308811019E+02  0.22478970800E+02  0.00000000000E+00 0. -1.
</event>
<event>
 7    1  0.3997682E-011  0.5052886E+02  0.7816164E-02  0.1300439E+00
        -11   -1    0    0    0    0  0.00000000000E+00  0.00000000000E+00  0.45593999997E+02  0.45594000000E+02  0.51100000000E-03 0. -1.
         11   -1    0    0    0    0 -0.00000000000E+00 -0.00000000000E+00 -0.45593999997E+02  0.45594000000E+02  0.51100000000E-03 0.  1.
    9900012    2    1    2    0    0 -0.15506773854E+02 -0.14704627466E+02  0.34590167615E+02  0.50528858348E+02  0.29999995434E+02 0.  0.
        -12    1    1    2    0    0  0.15506773854E+02  0.14704627466E+02 -0.34590167615E+02  0.40659141652E+02  0.00000000000E+00 0.  1.
         11    1    3    3    0    0 -0.17663922160E+02 -0.17963560836E+02  0.26442792076E+02  0.36522936862E+02  0.51100000000E-03 0.  1.
        -11    1    3    3    0    0 -0.32990985774E+01  0.43212298943E+01  0.58641335090E+01  0.79965705959E+01  0.51100000000E-03 0. -1.
        -12    1    3    3    0    0  0.54562468829E+01 -0.10622965238E+01  0.22832420301E+01  0.60093508900E+01  0.00000000000E+00 0.  1.
</event>
<event>
 7    1  0.2937071E-011  0.5052886E+02  0.7816164E-02  0.1300439E+00
        -11   -1    0    0    0    0  0.00000000000E+00  0.00000000000E+00  0.45593999997E+02  0.45594000000E+02  0.51100000000E-03 0. -1.
         11   -1    0    0    0    0 -0.00000000000E+00 -0.00000000000E+00 -0.45593999997E+02  0.45594000000E+02  0.51100000000E-03 0.  1.
    9900012    2    1    2    0    0 -0.53793216526E+01  0.36344273221E+02  0.17416141655E+02  0.50528864649E+02  0.30000014586E+02 0.  0.
        -12    1    1    2    0    0  0.53793216526E+01 -0.36344273221E+02 -0.17416141655E+02  0.40659135351E+02  0.00000000000E+00 0.  1.
         11    1    3    3    0    0  0.63128907091E+01  0.13532114381E+02 -0.15640947762E+01  0.15013896945E+02  0.51100000000E-03 0.  1.
        -11    1    3    3    0    0  0.21530120535E+01 -0.10652155709E+01  0.12270609514E+01  0.26973735289E+01  0.51100000000E-03 0. -1.
         12    1    3    3    0    0 -0.13845224415E+02  0.23877374410E+02  0.17753175480E+02  0.32817594175E+02  0.00000000000E+00 0. -1.
</event>
<event>
 7    1  0.2937071E-011  0.5052886E+02  0.7816164E-02  0.1300439E+00
        -11   -1    0    0    0    0  0.00000000000E+00  0.00000000000E+00  0.45593999997E+02  0.45594000000E+02  0.51100000000E-03 0.  1.
         11   -1    0    0    0    0 -0.00000000000E+00 -0.00000000000E+00 -0.45593999997E+02  0.45594000000E+02  0.51100000000E-03 0. -1.
    9900012    2    1    2    0    0  0.13311286917E+02  0.35771129790E+02 -0.14014346298E+02  0.50528856035E+02  0.29999988403E+02 0.  0.
        -12    1    1    2    0    0 -0.13311286917E+02 -0.35771129790E+02  0.14014346298E+02  0.40659143965E+02  0.00000000000E+00 0.  1.
         11    1    3    3    0    0  0.43732374072E+01  0.14258563399E+01 -0.23264168743E+01  0.51546568708E+01  0.51100000000E-03 0. -1.
        -11    1    3    3    0    0  0.67630188115E+01 -0.49867998472E+00 -0.76605605547E+01  0.10230898956E+02  0.51100000000E-03 0.  1.
         12    1    3    3    0    0  0.21750306985E+01  0.34843953435E+02 -0.40273688688E+01  0.35143300208E+02  0.00000000000E+00 0. -1.
</event>
<event>
 7    1  0.2937071E-011  0.5052886E+02  0.7816164E-02  0.1300439E+00
        -11   -1    0    0    0    0  0.00000000000E+00  0.00000000000E+00  0.45593999997E+02  0.45594000000E+02  0.51100000000E-03 0.  1.
         11   -1    0    0    0    0 -0.00000000000E+00 -0.00000000000E+00 -0.45593999997E+02  0.45594000000E+02  0.51100000000E-03 0. -1.
    9900012    2    1    2    0    0 -0.35982003726E+02 -0.11489304896E+02 -0.15048475070E+02  0.50528864236E+02  0.30000013333E+02 0.  0.
        -12    1    1    2    0    0  0.35982003726E+02  0.11489304896E+02  0.15048475070E+02  0.40659135764E+02  0.00000000000E+00 0.  1.
         11    1    3    3    0    0  0.50511287044E+00  0.11478890087E+01 -0.39975719006E+01  0.41896741579E+01  0.51100000000E-03 0. -1.
        -11    1    3    3    0    0 -0.35241770054E+01  0.44681114047E+01 -0.69409999779E+01  0.89755960272E+01  0.51100000000E-03 0.  1.
         12    1    3    3    0    0 -0.32962939591E+02 -0.17105305309E+02 -0.41099031918E+01  0.37363594051E+02  0.00000000000E+00 0. -1.
</event>
<event>
 7    1  0.2937071E-011  0.5052886E+02  0.7816164E-02  0.1300439E+00
        -11   -1    0    0    0    0  0.00000000000E+00  0.00000000000E+00  0.45593999997E+02  0.45594000000E+02  0.51100000000E-03 0. -1.
         11   -1    0    0    0    0 -0.00000000000E+00 -0.00000000000E+00 -0.45593999997E+02  0.45594000000E+02  0.51100000000E-03 0.  1.
    9900012    2    1    2    0    0  0.95001938690E+01  0.21267374277E+02  0.33325828825E+02  0.50528858850E+02  0.29999996960E+02 0.  0.
        -12    1    1    2    0    0 -0.95001938690E+01 -0.21267374277E+02 -0.33325828825E+02  0.40659141150E+02  0.00000000000E+00 0.  1.
         11    1    3    3    0    0  0.13223127176E+02  0.87052802189E+01  0.16138110512E+02  0.22606892913E+02  0.51100000000E-03 0. -1.
        -11    1    3    3    0    0  0.46926522975E+01  0.15537744091E+01  0.12253608041E+02  0.13213103753E+02  0.51100000000E-03 0.  1.
         12    1    3    3    0    0 -0.84155856049E+01  0.11008319649E+02  0.49341102721E+01  0.14708862184E+02  0.00000000000E+00 0. -1.
</event>
<event>
 7    1  0.2937071E-011  0.5052879E+02  0.7816164E-02  0.1300439E+00
        -11   -1    0    0    0    0  0.00000000000E+00  0.00000000000E+00  0.45593999997E+02  0.45594000000E+02  0.51100000000E-03 0.  1.
         11   -1    0    0    0    0 -0.00000000000E+00 -0.00000000000E+00 -0.45593999997E+02  0.45594000000E+02  0.51100000000E-03 0. -1.
    9900012    2    1    2    0    0  0.84312255483E+01  0.26068774372E+01 -0.39689920555E+02  0.50528792336E+02  0.29999794783E+02 0.  0.
        -12    1    1    2    0    0 -0.84312255483E+01 -0.26068774372E+01  0.39689920555E+02  0.40659207664E+02  0.00000000000E+00 0.  1.
         11    1    3    3    0    0 -0.68854836906E+00 -0.60342192305E+01 -0.13081879305E+00  0.60747851317E+01  0.51100000000E-03 0. -1.
        -11    1    3    3    0    0  0.21055066393E+01  0.94472030686E+01 -0.94465165571E+01  0.13524772802E+02  0.51100000000E-03 0.  1.
         12    1    3    3    0    0  0.70142672780E+01 -0.80610640093E+00 -0.30112585205E+02  0.30929234402E+02  0.00000000000E+00 0. -1.
</event>
<event>
 7    1  0.2937071E-011  0.5052886E+02  0.7816164E-02  0.1300439E+00
        -11   -1    0    0    0    0  0.00000000000E+00  0.00000000000E+00  0.45593999997E+02  0.45594000000E+02  0.51100000000E-03 0.  1.
         11   -1    0    0    0    0 -0.00000000000E+00 -0.00000000000E+00 -0.45593999997E+02  0.45594000000E+02  0.51100000000E-03 0. -1.
    9900012    2    1    2    0    0  0.24544026815E+02  0.31983018002E+02 -0.52766548130E+01  0.50528858607E+02  0.29999996221E+02 0.  0.
        -12    1    1    2    0    0 -0.24544026815E+02 -0.31983018002E+02  0.52766548130E+01  0.40659141393E+02  0.00000000000E+00 0.  1.
         11    1    3    3    0    0  0.92992686460E+01  0.87308327606E+01  0.70283382383E+01  0.14563700653E+02  0.51100000000E-03 0. -1.
        -11    1    3    3    0    0 -0.10235515638E+01  0.11908862599E+01  0.38429525506E+01  0.41514036729E+01  0.51100000000E-03 0.  1.
         12    1    3    3    0    0  0.16268309733E+02  0.22061298982E+02 -0.16147945602E+02  0.31813754281E+02  0.00000000000E+00 0. -1.
</event>
<event>
 7    1  0.2937071E-011  0.5052886E+02  0.7816164E-02  0.1300439E+00
        -11   -1    0    0    0    0  0.00000000000E+00  0.00000000000E+00  0.45593999997E+02  0.45594000000E+02  0.51100000000E-03 0. -1.
         11   -1    0    0    0    0 -0.00000000000E+00 -0.00000000000E+00 -0.45593999997E+02  0.45594000000E+02  0.51100000000E-03 0.  1.
    9900012    2    1    2    0    0 -0.32020279026E+02  0.20676287591E+02 -0.14154794446E+02  0.50528863963E+02  0.30000012502E+02 0.  0.
        -12    1    1    2    0    0  0.32020279026E+02 -0.20676287591E+02  0.14154794446E+02  0.40659136037E+02  0.00000000000E+00 0.  1.
         11    1    3    3    0    0 -0.39541181431E+01 -0.42730866912E+01 -0.77195721337E+01  0.96688217663E+01  0.51100000000E-03 0. -1.
        -11    1    3    3    0    0  0.67721567454E+00  0.45794416869E+01  0.12647532211E+01  0.47989069803E+01  0.51100000000E-03 0.  1.
         12    1    3    3    0    0 -0.28743376558E+02  0.20369932595E+02 -0.76999755339E+01  0.36061135216E+02  0.00000000000E+00 0. -1.
</event>
<event>
 7    1  0.2937071E-011  0.5052886E+02  0.7816164E-02  0.1300439E+00
        -11   -1    0    0    0    0  0.00000000000E+00  0.00000000000E+00  0.45593999997E+02  0.45594000000E+02  0.51100000000E-03 0.  1.
         11   -1    0    0    0    0 -0.00000000000E+00 -0.00000000000E+00 -0.45593999997E+02  0.45594000000E+02  0.51100000000E-03 0. -1.
    9900012    2    1    2    0    0  0.23227676771E+02  0.25931772212E+02 -0.21004381111E+02  0.50528858296E+02  0.29999995278E+02 0.  0.
        -12    1    1    2    0    0 -0.23227676771E+02 -0.25931772212E+02  0.21004381111E+02  0.40659141704E+02  0.00000000000E+00 0.  1.
         11    1    3    3    0    0  0.24167343174E+01  0.59554832745E+01 -0.20116550426E+00  0.64303074277E+01  0.51100000000E-03 0. -1.
        -11    1    3    3    0    0  0.46236580135E+01  0.38611538957E+01  0.62580251320E+01  0.86861730150E+01  0.51100000000E-03 0.  1.
        -12    1    3    3    0    0  0.16187284440E+02  0.16115135042E+02 -0.27061240738E+02  0.35412377854E+02  0.00000000000E+00 0.  1.
</event>
<event>
 7    1  0.2937071E-011  0.5052887E+02  0.7816164E-02  0.1300439E+00
        -11   -1    0    0    0    0  0.00000000000E+00  0.00000000000E+00  0.45593999997E+02  0.45594000000E+02  0.51100000000E-03 0.  1.
         11   -1    0    0    0    0 -0.00000000000E+00 -0.00000000000E+00 -0.45593999997E+02  0.45594000000E+02  0.51100000000E-03 0. -1.
    9900012    2    1    2    0    0  0.17126359838E+02 -0.22949031118E+02 -0.28865109248E+02  0.50528871106E+02  0.30000034213E+02 0.  0.
        -12    1    1    2    0    0 -0.17126359838E+02  0.22949031118E+02  0.28865109248E+02  0.40659128894E+02  0.00000000000E+00 0.  1.
         11    1    3    3    0    0  0.85952018000E+01 -0.30019937076E+00 -0.92494020951E+01  0.12630085234E+02  0.51100000000E-03 0. -1.
        -11    1    3    3    0    0  0.10184802127E+02 -0.25472236732E+02 -0.20791755909E+02  0.34421826688E+02  0.51100000000E-03 0.  1.
         12    1    3    3    0    0 -0.16536440896E+01  0.28234049848E+01  0.11760487566E+01  0.34769591831E+01  0.00000000000E+00 0. -1.
</event>
<event>
 7    1  0.2937071E-011  0.5052886E+02  0.7816164E-02  0.1300439E+00
        -11   -1    0    0    0    0  0.00000000000E+00  0.00000000000E+00  0.45593999997E+02  0.45594000000E+02  0.51100000000E-03 0. -1.
         11   -1    0    0    0    0 -0.00000000000E+00 -0.00000000000E+00 -0.45593999997E+02  0.45594000000E+02  0.51100000000E-03 0.  1.
    9900012    2    1    2    0    0  0.40049885529E+02  0.60975766381E+01 -0.34629126881E+01  0.50528861593E+02  0.30000005298E+02 0.  0.
        -12    1    1    2    0    0 -0.40049885529E+02 -0.60975766381E+01  0.34629126881E+01  0.40659138407E+02  0.00000000000E+00 0.  1.
         11    1    3    3    0    0  0.21019099981E+02 -0.19077690975E+01 -0.33699844265E+01  0.21372855266E+02  0.51100000000E-03 0. -1.
        -11    1    3    3    0    0  0.20583076683E+02  0.22814370148E+01 -0.51747948132E+01  0.21345877874E+02  0.51100000000E-03 0.  1.
        -12    1    3    3    0    0 -0.15522911343E+01  0.57239087207E+01  0.50818665516E+01  0.78101284533E+01  0.00000000000E+00 0.  1.
</event>
<event>
 7    1  0.2937071E-011  0.5052883E+02  0.7816164E-02  0.1300439E+00
        -11   -1    0    0    0    0  0.00000000000E+00  0.00000000000E+00  0.45593999997E+02  0.45594000000E+02  0.51100000000E-03 0. -1.
         11   -1    0    0    0    0 -0.00000000000E+00 -0.00000000000E+00 -0.45593999997E+02  0.45594000000E+02  0.51100000000E-03 0.  1.
    9900012    2    1    2    0    0 -0.14897596203E+02  0.27365424097E+02  0.26122090692E+02  0.50528825996E+02  0.29999897096E+02 0.  0.
        -12    1    1    2    0    0  0.14897596203E+02 -0.27365424097E+02 -0.26122090692E+02  0.40659174004E+02  0.00000000000E+00 0.  1.
         11    1    3    3    0    0 -0.56626776885E+00  0.10305932331E+02  0.24107985182E+01  0.10599285360E+02  0.51100000000E-03 0. -1.
        -11    1    3    3    0    0  0.24962071252E+01  0.35176062608E+01  0.16657983627E+02  0.17207353736E+02  0.51100000000E-03 0.  1.
         12    1    3    3    0    0 -0.16827535559E+02  0.13541885505E+02  0.70533085470E+01  0.22722186899E+02  0.00000000000E+00 0. -1.
</event>
<event>
 7    1  0.2937071E-011  0.5052886E+02  0.7816164E-02  0.1300439E+00
        -11   -1    0    0    0    0  0.00000000000E+00  0.00000000000E+00  0.45593999997E+02  0.45594000000E+02  0.51100000000E-03 0.  1.
         11   -1    0    0    0    0 -0.00000000000E+00 -0.00000000000E+00 -0.45593999997E+02  0.45594000000E+02  0.51100000000E-03 0. -1.
    9900012    2    1    2    0    0 -0.39548124418E+01 -0.40157336025E+02  0.49913585556E+01  0.50528857875E+02  0.29999993998E+02 0.  0.
        -12    1    1    2    0    0  0.39548124418E+01  0.40157336025E+02 -0.49913585556E+01  0.40659142125E+02  0.00000000000E+00 0.  1.
         11    1    3    3    0    0  0.42253465501E+01 -0.27316183231E+01 -0.14435420172E+01  0.52344155307E+01  0.51100000000E-03 0. -1.
        -11    1    3    3    0    0 -0.36698174261E+00 -0.63925815868E+01 -0.79504218893E+01  0.10208280140E+02  0.51100000000E-03 0.  1.
        -12    1    3    3    0    0 -0.78131772493E+01 -0.31033136115E+02  0.14385322462E+02  0.35086162204E+02  0.00000000000E+00 0.  1.
</event>
<event>
 7    1  0.2937071E-011  0.5052886E+02  0.7816164E-02  0.1300439E+00
        -11   -1    0    0    0    0  0.00000000000E+00  0.00000000000E+00  0.45593999997E+02  0.45594000000E+02  0.51100000000E-03 0. -1.
         11   -1    0    0    0    0 -0.00000000000E+00 -0.00000000000E+00 -0.45593999997E+02  0.45594000000E+02  0.51100000000E-03 0.  1.
    9900012    2    1    2    0    0  0.12491065758E+02  0.37040063956E+02  0.11188057259E+02  0.50528859738E+02  0.29999999660E+02 0.  0.
        -12    1    1    2    0    0 -0.12491065758E+02 -0.37040063956E+02 -0.11188057259E+02  0.40659140262E+02  0.00000000000E+00 0.  1.
         11    1    3    3    0    0  0.72134228168E+01  0.15759746272E+02  0.12109504169E+02  0.21143395251E+02  0.51100000000E-03 0. -1.
        -11    1    3    3    0    0 -0.46777468413E+00  0.12957641650E+02  0.85486065387E+01  0.15530549388E+02  0.51100000000E-03 0.  1.
         12    1    3    3    0    0  0.57454176256E+01  0.83226760337E+01 -0.94700534488E+01  0.13854915098E+02  0.00000000000E+00 0. -1.
</event>
<event>
 7    1  0.2937071E-011  0.5052891E+02  0.7816164E-02  0.1300439E+00
        -11   -1    0    0    0    0  0.00000000000E+00  0.00000000000E+00  0.45593999997E+02  0.45594000000E+02  0.51100000000E-03 0.  1.
         11   -1    0    0    0    0 -0.00000000000E+00 -0.00000000000E+00 -0.45593999997E+02  0.45594000000E+02  0.51100000000E-03 0. -1.
    9900012    2    1    2    0    0 -0.89910410113E+01  0.46146541834E+01 -0.39383086288E+02  0.50528913227E+02  0.30000162243E+02 0.  0.
        -12    1    1    2    0    0  0.89910410113E+01 -0.46146541834E+01  0.39383086288E+02  0.40659086773E+02  0.00000000000E+00 0.  1.
         11    1    3    3    0    0  0.83220767782E-01 -0.21225466178E+01 -0.43084007222E+01  0.48035868770E+01  0.51100000000E-03 0. -1.
        -11    1    3    3    0    0  0.27127672275E+01  0.68418770645E+01 -0.32932293414E+02  0.33744723107E+02  0.51100000000E-03 0.  1.
        -12    1    3    3    0    0 -0.11787029007E+02 -0.10467626323E+00 -0.21423921510E+01  0.11980603242E+02  0.00000000000E+00 0.  1.
</event>
<event>
 7    1  0.2937071E-011  0.5052886E+02  0.7816164E-02  0.1300439E+00
        -11   -1    0    0    0    0  0.00000000000E+00  0.00000000000E+00  0.45593999997E+02  0.45594000000E+02  0.51100000000E-03 0. -1.
         11   -1    0    0    0    0 -0.00000000000E+00 -0.00000000000E+00 -0.45593999997E+02  0.45594000000E+02  0.51100000000E-03 0.  1.
    9900012    2    1    2    0    0  0.25540460523E+02 -0.31015436684E+02  0.62364408975E+01  0.50528860418E+02  0.30000001727E+02 0.  0.
        -12    1    1    2    0    0 -0.25540460523E+02  0.31015436684E+02 -0.62364408975E+01  0.40659139582E+02  0.00000000000E+00 0.  1.
         11    1    3    3    0    0  0.10779722180E+02 -0.47652169308E+01 -0.53361151045E+00  0.11798069511E+02  0.51100000000E-03 0. -1.
        -11    1    3    3    0    0  0.13837342190E+02 -0.12786426491E+02 -0.63766415702E+01  0.19890356942E+02  0.51100000000E-03 0.  1.
        -12    1    3    3    0    0  0.92339615331E+00 -0.13463793262E+02  0.13146693978E+02  0.18840433966E+02  0.00000000000E+00 0.  1.
</event>
<event>
 7    1  0.2937071E-011  0.5052886E+02  0.7816164E-02  0.1300439E+00
        -11   -1    0    0    0    0  0.00000000000E+00  0.00000000000E+00  0.45593999997E+02  0.45594000000E+02  0.51100000000E-03 0.  1.
         11   -1    0    0    0    0 -0.00000000000E+00 -0.00000000000E+00 -0.45593999997E+02  0.45594000000E+02  0.51100000000E-03 0. -1.
    9900012    2    1    2    0    0  0.21024710196E+02  0.27273076125E+02  0.21617270245E+02  0.50528862122E+02  0.30000006905E+02 0.  0.
        -12    1    1    2    0    0 -0.21024710196E+02 -0.27273076125E+02 -0.21617270245E+02  0.40659137878E+02  0.00000000000E+00 0.  1.
         11    1    3    3    0    0 -0.17127547240E+01 -0.65390514296E+00 -0.37403944366E+01  0.41655337573E+01  0.51100000000E-03 0. -1.
        -11    1    3    3    0    0  0.32793991596E+01  0.40720976901E+00 -0.11344821871E+01  0.34938987876E+01  0.51100000000E-03 0.  1.
        -12    1    3    3    0    0  0.19458065761E+02  0.27519771499E+02  0.26492146869E+02  0.42869429577E+02  0.00000000000E+00 0.  1.
</event>
<event>
 7    1  0.2937071E-011  0.5052886E+02  0.7816164E-02  0.1300439E+00
        -11   -1    0    0    0    0  0.00000000000E+00  0.00000000000E+00  0.45593999997E+02  0.45594000000E+02  0.51100000000E-03 0. -1.
         11   -1    0    0    0    0 -0.00000000000E+00 -0.00000000000E+00 -0.45593999997E+02  0.45594000000E+02  0.51100000000E-03 0.  1.
    9900012    2    1    2    0    0 -0.13886560187E+02  0.15480371366E+02  0.34938334320E+02  0.50528860111E+02  0.30000000793E+02 0.  0.
        -12    1    1    2    0    0  0.13886560187E+02 -0.15480371366E+02 -0.34938334320E+02  0.40659139889E+02  0.00000000000E+00 0.  1.
         11    1    3    3    0    0  0.45264601284E+01  0.19280293661E+01  0.16814593520E+02  0.17519608844E+02  0.51100000000E-03 0. -1.
        -11    1    3    3    0    0  0.10759316436E+01 -0.11794488880E+01 -0.10861211215E+01  0.19309033981E+01  0.51100000000E-03 0.  1.
         12    1    3    3    0    0 -0.19488951958E+02  0.14731790888E+02  0.19209861921E+02  0.31078347869E+02  0.00000000000E+00 0. -1.
</event>
<event>
 7    1  0.2937071E-011  0.5052885E+02  0.7816164E-02  0.1300439E+00
        -11   -1    0    0    0    0  0.00000000000E+00  0.00000000000E+00  0.45593999997E+02  0.45594000000E+02  0.51100000000E-03 0.  1.
         11   -1    0    0    0    0 -0.00000000000E+00 -0.00000000000E+00 -0.45593999997E+02  0.45594000000E+02  0.51100000000E-03 0. -1.
    9900012    2    1    2    0    0 -0.28880851633E+02 -0.28444872065E+02  0.31546660665E+01  0.50528852741E+02  0.29999978391E+02 0.  0.
        -12    1    1    2    0    0  0.28880851633E+02  0.28444872065E+02 -0.31546660665E+01  0.40659147259E+02  0.00000000000E+00 0.  1.
         11    1    3    3    0    0 -0.62640141130E+01 -0.61151777671E+01 -0.32396636952E+00  0.87600357534E+01  0.51100000000E-03 0. -1.
        -11    1    3    3    0    0 -0.29110586080E+01 -0.39023200328E+00  0.10958306836E+02  0.11345088461E+02  0.51100000000E-03 0.  1.
         12    1    3    3    0    0 -0.19705778912E+02 -0.21939462295E+02 -0.74796743995E+01  0.30423728526E+02  0.00000000000E+00 0. -1.
</event>
<event>
 7    1  0.2937071E-011  0.5052886E+02  0.7816164E-02  0.1300439E+00
        -11   -1    0    0    0    0  0.00000000000E+00  0.00000000000E+00  0.45593999997E+02  0.45594000000E+02  0.51100000000E-03 0.  1.
         11   -1    0    0    0    0 -0.00000000000E+00 -0.00000000000E+00 -0.45593999997E+02  0.45594000000E+02  0.51100000000E-03 0. -1.
    9900012    2    1    2    0    0 -0.99624430230E+01 -0.81027908348E+01 -0.38577976781E+02  0.50528858558E+02  0.29999996072E+02 0.  0.
        -12    1    1    2    0    0  0.99624430230E+01  0.81027908348E+01  0.38577976781E+02  0.40659141442E+02  0.00000000000E+00 0.  1.
         11    1    3    3    0    0 -0.15087287842E+01  0.34306520017E+01 -0.68738406417E+00  0.38102667641E+01  0.51100000000E-03 0. -1.
        -11    1    3    3    0    0 -0.16053273729E+02 -0.66853546940E+01 -0.30293546278E+02  0.34929937176E+02  0.51100000000E-03 0.  1.
         12    1    3    3    0    0  0.75995594904E+01 -0.48480881425E+01 -0.75970464393E+01  0.11788654617E+02  0.00000000000E+00 0. -1.
</event>
<event>
 7    1  0.2937071E-011  0.5052886E+02  0.7816164E-02  0.1300439E+00
        -11   -1    0    0    0    0  0.00000000000E+00  0.00000000000E+00  0.45593999997E+02  0.45594000000E+02  0.51100000000E-03 0. -1.
         11   -1    0    0    0    0 -0.00000000000E+00 -0.00000000000E+00 -0.45593999997E+02  0.45594000000E+02  0.51100000000E-03 0.  1.
    9900012    2    1    2    0    0  0.33491606324E+02 -0.22873565074E+02 -0.28771172974E+01  0.50528862315E+02  0.30000007493E+02 0.  0.
        -12    1    1    2    0    0 -0.33491606324E+02  0.22873565074E+02  0.28771172974E+01  0.40659137685E+02  0.00000000000E+00 0.  1.
         11    1    3    3    0    0  0.11152406246E+02 -0.78526307906E+01  0.66498385723E+01  0.15174331244E+02  0.51100000000E-03 0. -1.
        -11    1    3    3    0    0  0.10268805755E+02  0.43560517284E+01 -0.21215945896E+01  0.11354502285E+02  0.51100000000E-03 0.  1.
         12    1    3    3    0    0  0.12070394323E+02 -0.19376986012E+02 -0.74053612802E+01  0.24000028785E+02  0.00000000000E+00 0. -1.
</event>
<event>
 7    1  0.2937071E-011  0.5052886E+02  0.7816164E-02  0.1300439E+00
        -11   -1    0    0    0    0  0.00000000000E+00  0.00000000000E+00  0.45593999997E+02  0.45594000000E+02  0.51100000000E-03 0.  1.
         11   -1    0    0    0    0 -0.00000000000E+00 -0.00000000000E+00 -0.45593999997E+02  0.45594000000E+02  0.51100000000E-03 0. -1.
    9900012    2    1    2    0    0  0.22295996964E+02 -0.90946974701E+01 -0.32761880689E+02  0.50528857990E+02  0.29999994348E+02 0.  0.
        -12    1    1    2    0    0 -0.22295996964E+02  0.90946974701E+01  0.32761880689E+02  0.40659142010E+02  0.00000000000E+00 0.  1.
         11    1    3    3    0    0 -0.20290385890E+01 -0.95968514630E+01 -0.72585952470E+00  0.98358237026E+01  0.51100000000E-03 0. -1.
        -11    1    3    3    0    0  0.24208308255E+01  0.10675476182E+01 -0.13043097940E+01  0.29497972985E+01  0.51100000000E-03 0.  1.
         12    1    3    3    0    0  0.21904204727E+02 -0.56539362531E+00 -0.30731711370E+02  0.37743236989E+02  0.00000000000E+00 0. -1.
</event>
<event>
 7    1  0.2937071E-011  0.5052887E+02  0.7816164E-02  0.1300439E+00
        -11   -1    0    0    0    0  0.00000000000E+00  0.00000000000E+00  0.45593999997E+02  0.45594000000E+02  0.51100000000E-03 0.  1.
         11   -1    0    0    0    0 -0.00000000000E+00 -0.00000000000E+00 -0.45593999997E+02  0.45594000000E+02  0.51100000000E-03 0. -1.
    9900012    2    1    2    0    0  0.73614998839E+01  0.27657139807E+02 -0.28880027826E+02  0.50528867323E+02  0.30000022714E+02 0.  0.
        -12    1    1    2    0    0 -0.73614998839E+01 -0.27657139807E+02  0.28880027826E+02  0.40659132677E+02  0.00000000000E+00 0.  1.
         11    1    3    3    0    0  0.21435908450E+01  0.13848202959E+02 -0.18981181984E+02  0.23593494372E+02  0.51100000000E-03 0.  1.
        -11    1    3    3    0    0 -0.14414790686E+01  0.48934003540E+01 -0.14135699750E+02  0.15028015059E+02  0.51100000000E-03 0. -1.
        -12    1    3    3    0    0  0.66593881075E+01  0.89155364931E+01  0.42368539078E+01  0.11907357892E+02  0.00000000000E+00 0.  1.
</event>
<event>
 7    1  0.2937071E-011  0.5052886E+02  0.7816164E-02  0.1300439E+00
        -11   -1    0    0    0    0  0.00000000000E+00  0.00000000000E+00  0.45593999997E+02  0.45594000000E+02  0.51100000000E-03 0.  1.
         11   -1    0    0    0    0 -0.00000000000E+00 -0.00000000000E+00 -0.45593999997E+02  0.45594000000E+02  0.51100000000E-03 0. -1.
    9900012    2    1    2    0    0 -0.22007896328E+02  0.15155364703E+02 -0.30645281953E+02  0.50528857288E+02  0.29999992214E+02 0.  0.
        -12    1    1    2    0    0  0.22007896328E+02 -0.15155364703E+02  0.30645281953E+02  0.40659142712E+02  0.00000000000E+00 0.  1.
         11    1    3    3    0    0 -0.52243498977E+00 -0.16815070483E+01  0.76228544778E-01  0.17624458358E+01  0.51100000000E-03 0. -1.
        -11    1    3    3    0    0  0.51360157228E+01 -0.11129497011E+01 -0.74287550842E+01  0.90996547684E+01  0.51100000000E-03 0.  1.
         12    1    3    3    0    0 -0.26621477061E+02  0.17949821452E+02 -0.23292755413E+02  0.39666756684E+02  0.00000000000E+00 0. -1.
</event>
<event>
 7    1  0.2937071E-011  0.5052887E+02  0.7816164E-02  0.1300439E+00
        -11   -1    0    0    0    0  0.00000000000E+00  0.00000000000E+00  0.45593999997E+02  0.45594000000E+02  0.51100000000E-03 0.  1.
         11   -1    0    0    0    0 -0.00000000000E+00 -0.00000000000E+00 -0.45593999997E+02  0.45594000000E+02  0.51100000000E-03 0. -1.
    9900012    2    1    2    0    0 -0.34697532294E+02 -0.68801601137E+01 -0.20047684059E+02  0.50528868349E+02  0.30000025835E+02 0.  0.
        -12    1    1    2    0    0  0.34697532294E+02  0.68801601137E+01  0.20047684059E+02  0.40659131651E+02  0.00000000000E+00 0.  1.
         11    1    3    3    0    0 -0.70715988026E+01 -0.24943724914E+00  0.47563074242E+01  0.85259714485E+01  0.51100000000E-03 0. -1.
        -11    1    3    3    0    0  0.11819490320E+01 -0.44032737885E+01 -0.12567144524E+01  0.47291812237E+01  0.51100000000E-03 0.  1.
        -12    1    3    3    0    0 -0.28807882523E+02 -0.22274490761E+01 -0.23547277030E+02  0.37273715677E+02  0.00000000000E+00 0.  1.
</event>
<event>
 7    1  0.2937071E-011  0.5052885E+02  0.7816164E-02  0.1300439E+00
        -11   -1    0    0    0    0  0.00000000000E+00  0.00000000000E+00  0.45593999997E+02  0.45594000000E+02  0.51100000000E-03 0. -1.
         11   -1    0    0    0    0 -0.00000000000E+00 -0.00000000000E+00 -0.45593999997E+02  0.45594000000E+02  0.51100000000E-03 0.  1.
    9900012    2    1    2    0    0  0.28976790479E+02  0.28356443649E+02 -0.30699032988E+01  0.50528848642E+02  0.29999965931E+02 0.  0.
        -12    1    1    2    0    0 -0.28976790479E+02 -0.28356443649E+02  0.30699032988E+01  0.40659151358E+02  0.00000000000E+00 0.  1.
         11    1    3    3    0    0  0.32457620022E+01  0.90264416359E+01 -0.24942750710E+01  0.99112576383E+01  0.51100000000E-03 0. -1.
        -11    1    3    3    0    0  0.43334587650E+01  0.68302578331E+01 -0.11066326528E+02  0.13707474969E+02  0.51100000000E-03 0.  1.
        -12    1    3    3    0    0  0.21397569712E+02  0.12499744180E+02  0.10490698300E+02  0.26910116034E+02  0.00000000000E+00 0.  1.
</event>
<event>
 7    1  0.2937071E-011  0.5052887E+02  0.7816164E-02  0.1300439E+00
        -11   -1    0    0    0    0  0.00000000000E+00  0.00000000000E+00  0.45593999997E+02  0.45594000000E+02  0.51100000000E-03 0.  1.
         11   -1    0    0    0    0 -0.00000000000E+00 -0.00000000000E+00 -0.45593999997E+02  0.45594000000E+02  0.51100000000E-03 0. -1.
    9900012    2    1    2    0    0 -0.27251528762E+02 -0.22577163590E+02 -0.20019758927E+02  0.50528869622E+02  0.30000029702E+02 0.  0.
        -12    1    1    2    0    0  0.27251528762E+02  0.22577163590E+02  0.20019758927E+02  0.40659130378E+02  0.00000000000E+00 0.  1.
         11    1    3    3    0    0 -0.29278719289E+02 -0.13386005735E+02 -0.12398205566E+02  0.34498464520E+02  0.51100000000E-03 0. -1.
        -11    1    3    3    0    0  0.10876933518E+01 -0.39564520437E+01  0.23504965057E+01  0.47287867034E+01  0.51100000000E-03 0.  1.
        -12    1    3    3    0    0  0.93949717548E+00 -0.52347058111E+01 -0.99720498668E+01  0.11301618398E+02  0.00000000000E+00 0.  1.
</event>
<event>
 7    1  0.2937071E-011  0.5052887E+02  0.7816164E-02  0.1300439E+00
        -11   -1    0    0    0    0  0.00000000000E+00  0.00000000000E+00  0.45593999997E+02  0.45594000000E+02  0.51100000000E-03 0. -1.
         11   -1    0    0    0    0 -0.00000000000E+00 -0.00000000000E+00 -0.45593999997E+02  0.45594000000E+02  0.51100000000E-03 0.  1.
    9900012    2    1    2    0    0 -0.39907352018E+02  0.60808351607E+01 -0.48570852879E+01  0.50528873363E+02  0.30000041075E+02 0.  0.
        -12    1    1    2    0    0  0.39907352018E+02 -0.60808351607E+01  0.48570852879E+01  0.40659126637E+02  0.00000000000E+00 0.  1.
         11    1    3    3    0    0 -0.17476524931E+02 -0.35159308418E+01 -0.84952974550E+01  0.19747424452E+02  0.51100000000E-03 0.  1.
        -11    1    3    3    0    0 -0.98738304796E+01 -0.64125415222E+00 -0.63418880475E+01  0.11752586077E+02  0.51100000000E-03 0. -1.
        -12    1    3    3    0    0 -0.12556996607E+02  0.10238020155E+02  0.99801002146E+01  0.19028862835E+02  0.00000000000E+00 0.  1.
</event>
<event>
 7    1  0.2937071E-011  0.5052881E+02  0.7816164E-02  0.1300439E+00
        -11   -1    0    0    0    0  0.00000000000E+00  0.00000000000E+00  0.45593999997E+02  0.45594000000E+02  0.51100000000E-03 0.  1.
         11   -1    0    0    0    0 -0.00000000000E+00 -0.00000000000E+00 -0.45593999997E+02  0.45594000000E+02  0.51100000000E-03 0. -1.
    9900012    2    1    2    0    0  0.21137524090E+02  0.24885930927E+02 -0.24229423753E+02  0.50528813361E+02  0.29999858691E+02 0.  0.
        -12    1    1    2    0    0 -0.21137524090E+02 -0.24885930927E+02  0.24229423753E+02  0.40659186639E+02  0.00000000000E+00 0.  1.
         11    1    3    3    0    0  0.13817924263E+02  0.10492262973E+02 -0.77308078628E+01  0.18994420331E+02  0.51100000000E-03 0. -1.
        -11    1    3    3    0    0  0.66898423873E+01  0.13364220074E+02 -0.21614452362E+02  0.26278145302E+02  0.51100000000E-03 0.  1.
        -12    1    3    3    0    0  0.62975743951E+00  0.10294478792E+01  0.51158364713E+01  0.52562477272E+01  0.00000000000E+00 0.  1.
</event>
<event>
 7    1  0.2937071E-011  0.5052886E+02  0.7816164E-02  0.1300439E+00
        -11   -1    0    0    0    0  0.00000000000E+00  0.00000000000E+00  0.45593999997E+02  0.45594000000E+02  0.51100000000E-03 0. -1.
         11   -1    0    0    0    0 -0.00000000000E+00 -0.00000000000E+00 -0.45593999997E+02  0.45594000000E+02  0.51100000000E-03 0.  1.
    9900012    2    1    2    0    0 -0.24189675204E+02 -0.23164668495E+02  0.23052624284E+02  0.50528859093E+02  0.29999997698E+02 0.  0.
        -12    1    1    2    0    0  0.24189675204E+02  0.23164668495E+02 -0.23052624284E+02  0.40659140907E+02  0.00000000000E+00 0.  1.
         11    1    3    3    0    0  0.26961212620E+01  0.14849262323E+01 -0.13996312239E+01  0.33812783971E+01  0.51100000000E-03 0. -1.
        -11    1    3    3    0    0  0.24457935693E+01 -0.13999660967E+01  0.24292586198E+01  0.37206328707E+01  0.51100000000E-03 0.  1.
         12    1    3    3    0    0 -0.29331590035E+02 -0.23249628630E+02  0.22022996888E+02  0.43426947825E+02  0.00000000000E+00 0. -1.
</event>
<event>
 7    1  0.2937071E-011  0.5052885E+02  0.7816164E-02  0.1300439E+00
        -11   -1    0    0    0    0  0.00000000000E+00  0.00000000000E+00  0.45593999997E+02  0.45594000000E+02  0.51100000000E-03 0.  1.
         11   -1    0    0    0    0 -0.00000000000E+00 -0.00000000000E+00 -0.45593999997E+02  0.45594000000E+02  0.51100000000E-03 0. -1.
    9900012    2    1    2    0    0  0.30398178297E+02  0.21317620555E+02 -0.16573361823E+02  0.50528849590E+02  0.29999968815E+02 0.  0.
        -12    1    1    2    0    0 -0.30398178297E+02 -0.21317620555E+02  0.16573361823E+02  0.40659150410E+02  0.00000000000E+00 0.  1.
         11    1    3    3    0    0  0.42348826251E+01  0.63063005925E+01 -0.11722225008E+02  0.13968329084E+02  0.51100000000E-03 0. -1.
        -11    1    3    3    0    0  0.99200154195E+01  0.11066810798E+01 -0.10456868462E+02  0.14456055728E+02  0.51100000000E-03 0.  1.
        -12    1    3    3    0    0  0.16243280253E+02  0.13904638883E+02  0.56057316466E+01  0.22104464778E+02  0.00000000000E+00 0.  1.
</event>
<event>
 7    1  0.2937071E-011  0.5052886E+02  0.7816164E-02  0.1300439E+00
        -11   -1    0    0    0    0  0.00000000000E+00  0.00000000000E+00  0.45593999997E+02  0.45594000000E+02  0.51100000000E-03 0.  1.
         11   -1    0    0    0    0 -0.00000000000E+00 -0.00000000000E+00 -0.45593999997E+02  0.45594000000E+02  0.51100000000E-03 0. -1.
    9900012    2    1    2    0    0  0.14237191621E+02  0.37852267468E+02 -0.42040390323E+01  0.50528859307E+02  0.29999998349E+02 0.  0.
        -12    1    1    2    0    0 -0.14237191621E+02 -0.37852267468E+02  0.42040390323E+01  0.40659140693E+02  0.00000000000E+00 0.  1.
         11    1    3    3    0    0 -0.34978506250E+01  0.12167444868E+02  0.54107363959E+01  0.13767997030E+02  0.51100000000E-03 0. -1.
        -11    1    3    3    0    0 -0.24041040494E+00 -0.30479325569E+00  0.27871607410E+01  0.28140649156E+01  0.51100000000E-03 0.  1.
         12    1    3    3    0    0  0.17975452651E+02  0.25989615856E+02 -0.12401936169E+02  0.33946797361E+02  0.00000000000E+00 0. -1.
</event>
<event>
 7    1  0.2937071E-011  0.5052886E+02  0.7816164E-02  0.1300439E+00
        -11   -1    0    0    0    0  0.00000000000E+00  0.00000000000E+00  0.45593999997E+02  0.45594000000E+02  0.51100000000E-03 0. -1.
         11   -1    0    0    0    0 -0.00000000000E+00 -0.00000000000E+00 -0.45593999997E+02  0.45594000000E+02  0.51100000000E-03 0.  1.
    9900012    2    1    2    0    0 -0.20311188697E+02 -0.10731057259E+02  0.33547963244E+02  0.50528858174E+02  0.29999994906E+02 0.  0.
        -12    1    1    2    0    0  0.20311188697E+02  0.10731057259E+02 -0.33547963244E+02  0.40659141826E+02  0.00000000000E+00 0.  1.
         11    1    3    3    0    0  0.14818100899E+01 -0.99039992823E+01  0.54533556303E+01  0.11402808900E+02  0.51100000000E-03 0. -1.
        -11    1    3    3    0    0  0.50370161647E+00  0.25133806945E+01 -0.60117462694E+00  0.26329088528E+01  0.51100000000E-03 0.  1.
         12    1    3    3    0    0 -0.22296700404E+02 -0.33404386717E+01  0.28695782240E+02  0.36493140421E+02  0.00000000000E+00 0. -1.
</event>
<event>
 7    1  0.2937071E-011  0.5052884E+02  0.7816164E-02  0.1300439E+00
        -11   -1    0    0    0    0  0.00000000000E+00  0.00000000000E+00  0.45593999997E+02  0.45594000000E+02  0.51100000000E-03 0.  1.
         11   -1    0    0    0    0 -0.00000000000E+00 -0.00000000000E+00 -0.45593999997E+02  0.45594000000E+02  0.51100000000E-03 0. -1.
    9900012    2    1    2    0    0 -0.18116722114E+02 -0.31555361079E+02 -0.18144161036E+02  0.50528843433E+02  0.29999950099E+02 0.  0.
        -12    1    1    2    0    0  0.18116722114E+02  0.31555361079E+02  0.18144161036E+02  0.40659156567E+02  0.00000000000E+00 0.  1.
         11    1    3    3    0    0 -0.24282548894E+01 -0.23239746998E+01  0.38201558636E+01  0.50883073115E+01  0.51100000000E-03 0.  1.
        -11    1    3    3    0    0  0.21695118535E+01  0.22584928787E+01 -0.67852721632E-01  0.31324393081E+01  0.51100000000E-03 0. -1.
         12    1    3    3    0    0 -0.17857979078E+02 -0.31489879258E+02 -0.21896464178E+02  0.42308096814E+02  0.00000000000E+00 0. -1.
</event>
<event>
 7    1  0.2937071E-011  0.5052886E+02  0.7816164E-02  0.1300439E+00
        -11   -1    0    0    0    0  0.00000000000E+00  0.00000000000E+00  0.45593999997E+02  0.45594000000E+02  0.51100000000E-03 0.  1.
         11   -1    0    0    0    0 -0.00000000000E+00 -0.00000000000E+00 -0.45593999997E+02  0.45594000000E+02  0.51100000000E-03 0. -1.
    9900012    2    1    2    0    0  0.32586344353E+02  0.20266535675E+02 -0.13437391806E+02  0.50528858284E+02  0.29999995239E+02 0.  0.
        -12    1    1    2    0    0 -0.32586344353E+02 -0.20266535675E+02  0.13437391806E+02  0.40659141716E+02  0.00000000000E+00 0.  1.
         11    1    3    3    0    0 -0.14825718187E+01  0.23552128644E+01 -0.62888110928E+01  0.68770772903E+01  0.51100000000E-03 0. -1.
        -11    1    3    3    0    0  0.46553112604E+01  0.77963287788E+01 -0.86096901985E+01  0.12513250215E+02  0.51100000000E-03 0.  1.
         12    1    3    3    0    0  0.29413604911E+02  0.10114994032E+02  0.14611094849E+01  0.31138530779E+02  0.00000000000E+00 0. -1.
</event>
<event>
 7    1  0.2937071E-011  0.5052887E+02  0.7816164E-02  0.1300439E+00
        -11   -1    0    0    0    0  0.00000000000E+00  0.00000000000E+00  0.45593999997E+02  0.45594000000E+02  0.51100000000E-03 0. -1.
         11   -1    0    0    0    0 -0.00000000000E+00 -0.00000000000E+00 -0.45593999997E+02  0.45594000000E+02  0.51100000000E-03 0.  1.
    9900012    2    1    2    0    0  0.20927444509E+01  0.13032047823E+02  0.38457135169E+02  0.50528867013E+02  0.30000021774E+02 0.  0.
        -12    1    1    2    0    0 -0.20927444509E+01 -0.13032047823E+02 -0.38457135169E+02  0.40659132987E+02  0.00000000000E+00 0.  1.
         11    1    3    3    0    0 -0.13326810940E+02  0.44858748551E+01  0.20150692315E+02  0.24571881573E+02  0.51100000000E-03 0. -1.
        -11    1    3    3    0    0 -0.25640648794E+00  0.57947098420E+00  0.93234372363E-01  0.64048717231E+00  0.51100000000E-03 0.  1.
        -12    1    3    3    0    0  0.15675961879E+02  0.79667019832E+01  0.18213208482E+02  0.25316498268E+02  0.00000000000E+00 0.  1.
</event>
<event>
 7    1  0.2937071E-011  0.5052886E+02  0.7816164E-02  0.1300439E+00
        -11   -1    0    0    0    0  0.00000000000E+00  0.00000000000E+00  0.45593999997E+02  0.45594000000E+02  0.51100000000E-03 0.  1.
         11   -1    0    0    0    0 -0.00000000000E+00 -0.00000000000E+00 -0.45593999997E+02  0.45594000000E+02  0.51100000000E-03 0. -1.
    9900012    2    1    2    0    0  0.37508382492E+02 -0.10633769017E+02  0.11541671634E+02  0.50528856075E+02  0.29999988524E+02 0.  0.
        -12    1    1    2    0    0 -0.37508382492E+02  0.10633769017E+02 -0.11541671634E+02  0.40659143925E+02  0.00000000000E+00 0.  1.
         11    1    3    3    0    0  0.92313520661E+01  0.81507430093E-02  0.17082857015E+01  0.93880864772E+01  0.51100000000E-03 0.  1.
        -11    1    3    3    0    0  0.29113583512E+02 -0.14581574665E+02  0.13912183308E+02  0.35408641732E+02  0.51100000000E-03 0. -1.
        -12    1    3    3    0    0 -0.83655308655E+00  0.39396549049E+01 -0.40787973757E+01  0.57321278657E+01  0.00000000000E+00 0.  1.
</event>
<event>
 7    1  0.2937071E-011  0.5052886E+02  0.7816164E-02  0.1300439E+00
        -11   -1    0    0    0    0  0.00000000000E+00  0.00000000000E+00  0.45593999997E+02  0.45594000000E+02  0.51100000000E-03 0. -1.
         11   -1    0    0    0    0 -0.00000000000E+00 -0.00000000000E+00 -0.45593999997E+02  0.45594000000E+02  0.51100000000E-03 0.  1.
    9900012    2    1    2    0    0  0.18152620285E+02  0.23131476315E+02  0.28081720048E+02  0.50528858094E+02  0.29999994661E+02 0.  0.
        -12    1    1    2    0    0 -0.18152620285E+02 -0.23131476315E+02 -0.28081720048E+02  0.40659141906E+02  0.00000000000E+00 0.  1.
         11    1    3    3    0    0  0.11158033861E+02  0.22179976686E+00  0.36079476896E+01  0.11728947163E+02  0.51100000000E-03 0. -1.
        -11    1    3    3    0    0  0.18005074136E+01 -0.29504751361E+01  0.13113260032E+01  0.36968509063E+01  0.51100000000E-03 0.  1.
         12    1    3    3    0    0  0.51940790108E+01  0.25860151684E+02  0.23162446355E+02  0.35103060024E+02  0.00000000000E+00 0. -1.
</event>
<event>
 7    1  0.2937071E-011  0.5052880E+02  0.7816164E-02  0.1300439E+00
        -11   -1    0    0    0    0  0.00000000000E+00  0.00000000000E+00  0.45593999997E+02  0.45594000000E+02  0.51100000000E-03 0.  1.
         11   -1    0    0    0    0 -0.00000000000E+00 -0.00000000000E+00 -0.45593999997E+02  0.45594000000E+02  0.51100000000E-03 0. -1.
    9900012    2    1    2    0    0 -0.13070427092E+02 -0.36384173061E+02 -0.12590717298E+02  0.50528803306E+02  0.29999828129E+02 0.  0.
        -12    1    1    2    0    0  0.13070427092E+02  0.36384173061E+02  0.12590717298E+02  0.40659196694E+02  0.00000000000E+00 0.  1.
         11    1    3    3    0    0 -0.15247042230E+02 -0.11693889690E+02  0.32116371146E+01  0.19481631504E+02  0.51100000000E-03 0. -1.
        -11    1    3    3    0    0 -0.22851548523E+01 -0.34753060201E+01  0.10078773091E+00  0.41605099520E+01  0.51100000000E-03 0.  1.
        -12    1    3    3    0    0  0.44617699897E+01 -0.21214977350E+02 -0.15903142144E+02  0.26886661850E+02  0.00000000000E+00 0.  1.
</event>
<event>
 7    1  0.2937071E-011  0.5052886E+02  0.7816164E-02  0.1300439E+00
        -11   -1    0    0    0    0  0.00000000000E+00  0.00000000000E+00  0.45593999997E+02  0.45594000000E+02  0.51100000000E-03 0.  1.
         11   -1    0    0    0    0 -0.00000000000E+00 -0.00000000000E+00 -0.45593999997E+02  0.45594000000E+02  0.51100000000E-03 0. -1.
    9900012    2    1    2    0    0  0.37566633642E+01 -0.84273641314E+00 -0.40476450027E+02  0.50528859194E+02  0.29999998005E+02 0.  0.
        -12    1    1    2    0    0 -0.37566633642E+01  0.84273641314E+00  0.40476450027E+02  0.40659140806E+02  0.00000000000E+00 0.  1.
         11    1    3    3    0    0  0.84937732801E+01  0.40241919068E+01 -0.48269941771E+01  0.10565896937E+02  0.51100000000E-03 0. -1.
        -11    1    3    3    0    0 -0.64261958995E+01  0.15197962063E+01 -0.41973651428E+01  0.78245542142E+01  0.51100000000E-03 0.  1.
        -12    1    3    3    0    0  0.16890859836E+01 -0.63867245262E+01 -0.31452090707E+02  0.32138408042E+02  0.00000000000E+00 0.  1.
</event>
<event>
 7    1  0.2937071E-011  0.5052886E+02  0.7816164E-02  0.1300439E+00
        -11   -1    0    0    0    0  0.00000000000E+00  0.00000000000E+00  0.45593999997E+02  0.45594000000E+02  0.51100000000E-03 0. -1.
         11   -1    0    0    0    0 -0.00000000000E+00 -0.00000000000E+00 -0.45593999997E+02  0.45594000000E+02  0.51100000000E-03 0.  1.
    9900012    2    1    2    0    0  0.29174473045E+02  0.38310296613E+00  0.28317286087E+02  0.50528864044E+02  0.30000012748E+02 0.  0.
        -12    1    1    2    0    0 -0.29174473045E+02 -0.38310296613E+00 -0.28317286087E+02  0.40659135956E+02  0.00000000000E+00 0.  1.
         11    1    3    3    0    0  0.19372673993E+01 -0.52140321302E+01  0.24731616635E+01  0.60873364378E+01  0.51100000000E-03 0. -1.
        -11    1    3    3    0    0  0.13584463906E+02 -0.87982603270E+01  0.97508610612E+01  0.18895140542E+02  0.51100000000E-03 0.  1.
        -12    1    3    3    0    0  0.13652741740E+02  0.14395395423E+02  0.16093263362E+02  0.25546387065E+02  0.00000000000E+00 0.  1.
</event>
<event>
 7    1  0.2937071E-011  0.5052887E+02  0.7816164E-02  0.1300439E+00
        -11   -1    0    0    0    0  0.00000000000E+00  0.00000000000E+00  0.45593999997E+02  0.45594000000E+02  0.51100000000E-03 0. -1.
         11   -1    0    0    0    0 -0.00000000000E+00 -0.00000000000E+00 -0.45593999997E+02  0.45594000000E+02  0.51100000000E-03 0.  1.
    9900012    2    1    2    0    0 -0.33254095498E+02 -0.23284607436E+02 -0.22709417765E+01  0.50528868339E+02  0.30000025803E+02 0.  0.
        -12    1    1    2    0    0  0.33254095498E+02  0.23284607436E+02  0.22709417765E+01  0.40659131661E+02  0.00000000000E+00 0.  1.
         11    1    3    3    0    0 -0.32279333673E+02 -0.24082032579E+02 -0.66332464430E+01  0.40815433774E+02  0.51100000000E-03 0. -1.
        -11    1    3    3    0    0 -0.43400228398E+01  0.21915692587E+01  0.15228898027E+01  0.50948962382E+01  0.51100000000E-03 0.  1.
        -12    1    3    3    0    0  0.33652610143E+01 -0.13941441160E+01  0.28394148638E+01  0.46185383272E+01  0.00000000000E+00 0.  1.
</event>
<event>
 7    1  0.2937071E-011  0.5052886E+02  0.7816164E-02  0.1300439E+00
        -11   -1    0    0    0    0  0.00000000000E+00  0.00000000000E+00  0.45593999997E+02  0.45594000000E+02  0.51100000000E-03 0. -1.
         11   -1    0    0    0    0 -0.00000000000E+00 -0.00000000000E+00 -0.45593999997E+02  0.45594000000E+02  0.51100000000E-03 0.  1.
    9900012    2    1    2    0    0 -0.10421434573E+02  0.38777761835E+02  0.63909574794E+01  0.50528862663E+02  0.30000008549E+02 0.  0.
        -12    1    1    2    0    0  0.10421434573E+02 -0.38777761835E+02 -0.63909574794E+01  0.40659137337E+02  0.00000000000E+00 0.  1.
         11    1    3    3    0    0  0.30043291490E+01  0.19483531441E+02  0.14991216354E+02  0.24766319046E+02  0.51100000000E-03 0. -1.
        -11    1    3    3    0    0 -0.38610335399E+01  0.40987555099E+01 -0.48237111889E+01  0.74145510060E+01  0.51100000000E-03 0.  1.
        -12    1    3    3    0    0 -0.95647301822E+01  0.15195474884E+02 -0.37765476854E+01  0.18347992611E+02  0.00000000000E+00 0.  1.
</event>
<event>
 7    1  0.2937071E-011  0.5052886E+02  0.7816164E-02  0.1300439E+00
        -11   -1    0    0    0    0  0.00000000000E+00  0.00000000000E+00  0.45593999997E+02  0.45594000000E+02  0.51100000000E-03 0.  1.
         11   -1    0    0    0    0 -0.00000000000E+00 -0.00000000000E+00 -0.45593999997E+02  0.45594000000E+02  0.51100000000E-03 0. -1.
    9900012    2    1    2    0    0  0.68300667243E+01  0.11953735874E+02 -0.38257344055E+02  0.50528856047E+02  0.29999988442E+02 0.  0.
        -12    1    1    2    0    0 -0.68300667243E+01 -0.11953735874E+02  0.38257344055E+02  0.40659143953E+02  0.00000000000E+00 0.  1.
         11    1    3    3    0    0  0.91152716103E+00 -0.79427064398E+00 -0.22125395141E+01  0.25213248470E+01  0.51100000000E-03 0. -1.
        -11    1    3    3    0    0  0.58956609391E+01  0.80826204647E-01 -0.34781232910E+02  0.35277464673E+02  0.51100000000E-03 0.  1.
         12    1    3    3    0    0  0.22878624113E-01  0.12667180313E+02 -0.12635716313E+01  0.12730066527E+02  0.00000000000E+00 0. -1.
</event>
<event>
 7    1  0.2937071E-011  0.5052886E+02  0.7816164E-02  0.1300439E+00
        -11   -1    0    0    0    0  0.00000000000E+00  0.00000000000E+00  0.45593999997E+02  0.45594000000E+02  0.51100000000E-03 0. -1.
         11   -1    0    0    0    0 -0.00000000000E+00 -0.00000000000E+00 -0.45593999997E+02  0.45594000000E+02  0.51100000000E-03 0.  1.
    9900012    2    1    2    0    0 -0.14598227388E+02 -0.23858978022E+02  0.29509429054E+02  0.50528862304E+02  0.30000007459E+02 0.  0.
        -12    1    1    2    0    0  0.14598227388E+02  0.23858978022E+02 -0.29509429054E+02  0.40659137696E+02  0.00000000000E+00 0.  1.
         11    1    3    3    0    0 -0.16878064556E+02 -0.24547902670E+01  0.14213198061E+02  0.22201577822E+02  0.51100000000E-03 0. -1.
        -11    1    3    3    0    0 -0.36540149584E+01 -0.49044862801E+01  0.24397083427E+01  0.65846782796E+01  0.51100000000E-03 0.  1.
        -12    1    3    3    0    0  0.59338521264E+01 -0.16499701475E+02  0.12856522650E+02  0.21742606202E+02  0.00000000000E+00 0.  1.
</event>
<event>
 7    1  0.2937071E-011  0.5052885E+02  0.7816164E-02  0.1300439E+00
        -11   -1    0    0    0    0  0.00000000000E+00  0.00000000000E+00  0.45593999997E+02  0.45594000000E+02  0.51100000000E-03 0.  1.
         11   -1    0    0    0    0 -0.00000000000E+00 -0.00000000000E+00 -0.45593999997E+02  0.45594000000E+02  0.51100000000E-03 0. -1.
    9900012    2    1    2    0    0 -0.41090081303E+01  0.29569200999E+02 -0.27603343438E+02  0.50528853864E+02  0.29999981805E+02 0.  0.
        -12    1    1    2    0    0  0.41090081303E+01 -0.29569200999E+02  0.27603343438E+02  0.40659146136E+02  0.00000000000E+00 0.  1.
         11    1    3    3    0    0 -0.87108428679E+01  0.17987714765E+02 -0.21861554911E+01  0.20105122284E+02  0.51100000000E-03 0. -1.
        -11    1    3    3    0    0 -0.14449801118E+01  0.46380370739E+01 -0.17869762545E+02  0.18518309023E+02  0.51100000000E-03 0.  1.
        -12    1    3    3    0    0  0.60468148495E+01  0.69434491598E+01 -0.75474254026E+01  0.11905422557E+02  0.00000000000E+00 0.  1.
</event>
<event>
 7    1  0.2937071E-011  0.5052887E+02  0.7816164E-02  0.1300439E+00
        -11   -1    0    0    0    0  0.00000000000E+00  0.00000000000E+00  0.45593999997E+02  0.45594000000E+02  0.51100000000E-03 0.  1.
         11   -1    0    0    0    0 -0.00000000000E+00 -0.00000000000E+00 -0.45593999997E+02  0.45594000000E+02  0.51100000000E-03 0. -1.
    9900012    2    1    2    0    0 -0.35418933605E+02  0.45445274923E+01 -0.19442519009E+02  0.50528866546E+02  0.30000020352E+02 0.  0.
        -12    1    1    2    0    0  0.35418933605E+02 -0.45445274923E+01  0.19442519009E+02  0.40659133454E+02  0.00000000000E+00 0.  1.
         11    1    3    3    0    0 -0.67989349508E+01  0.34057719031E+01 -0.74299748718E+01  0.10631525082E+02  0.51100000000E-03 0. -1.
        -11    1    3    3    0    0 -0.13094163847E+01  0.53815465106E+01 -0.10912146504E+02  0.12237260956E+02  0.51100000000E-03 0.  1.
         12    1    3    3    0    0 -0.27310582269E+02 -0.42427909214E+01 -0.11003976331E+01  0.27660080507E+02  0.00000000000E+00 0. -1.
</event>
<event>
 7    1  0.2937071E-011  0.5052888E+02  0.7816164E-02  0.1300439E+00
        -11   -1    0    0    0    0  0.00000000000E+00  0.00000000000E+00  0.45593999997E+02  0.45594000000E+02  0.51100000000E-03 0. -1.
         11   -1    0    0    0    0 -0.00000000000E+00 -0.00000000000E+00 -0.45593999997E+02  0.45594000000E+02  0.51100000000E-03 0.  1.
    9900012    2    1    2    0    0 -0.31071115545E+02  0.26132324706E+01  0.26094464823E+02  0.50528876797E+02  0.30000051513E+02 0.  0.
        -12    1    1    2    0    0  0.31071115545E+02 -0.26132324706E+01 -0.26094464823E+02  0.40659123203E+02  0.00000000000E+00 0.  1.
         11    1    3    3    0    0 -0.64092953524E+01  0.60336605804E+01  0.35726236128E+00  0.88097538882E+01  0.51100000000E-03 0.  1.
        -11    1    3    3    0    0 -0.21989717125E+02 -0.24799955036E+01  0.29582219217E+02  0.36943277210E+02  0.51100000000E-03 0. -1.
         12    1    3    3    0    0 -0.26721030682E+01 -0.94043260617E+00 -0.38450167554E+01  0.47758456992E+01  0.00000000000E+00 0. -1.
</event>
<event>
 7    1  0.2937071E-011  0.5052886E+02  0.7816164E-02  0.1300439E+00
        -11   -1    0    0    0    0  0.00000000000E+00  0.00000000000E+00  0.45593999997E+02  0.45594000000E+02  0.51100000000E-03 0.  1.
         11   -1    0    0    0    0 -0.00000000000E+00 -0.00000000000E+00 -0.45593999997E+02  0.45594000000E+02  0.51100000000E-03 0. -1.
    9900012    2    1    2    0    0  0.29533954782E+01 -0.37766501916E+02 -0.14769373543E+02  0.50528860724E+02  0.30000002658E+02 0.  0.
        -12    1    1    2    0    0 -0.29533954782E+01  0.37766501916E+02  0.14769373543E+02  0.40659139276E+02  0.00000000000E+00 0.  1.
         11    1    3    3    0    0 -0.14179426848E+01 -0.63259801234E+01 -0.12925979815E+02  0.14460620333E+02  0.51100000000E-03 0. -1.
        -11    1    3    3    0    0 -0.25965077611E+01 -0.15314852676E+02 -0.79765037927E+01  0.17461706046E+02  0.51100000000E-03 0.  1.
        -12    1    3    3    0    0  0.69678459241E+01 -0.16125669116E+02  0.61331100645E+01  0.18606534345E+02  0.00000000000E+00 0.  1.
</event>
<event>
 7    1  0.2937071E-011  0.5052886E+02  0.7816164E-02  0.1300439E+00
        -11   -1    0    0    0    0  0.00000000000E+00  0.00000000000E+00  0.45593999997E+02  0.45594000000E+02  0.51100000000E-03 0. -1.
         11   -1    0    0    0    0 -0.00000000000E+00 -0.00000000000E+00 -0.45593999997E+02  0.45594000000E+02  0.51100000000E-03 0.  1.
    9900012    2    1    2    0    0  0.29959383103E+02 -0.24369253444E+02  0.12717724705E+02  0.50528859932E+02  0.30000000251E+02 0.  0.
        -12    1    1    2    0    0 -0.29959383103E+02  0.24369253444E+02 -0.12717724705E+02  0.40659140068E+02  0.00000000000E+00 0.  1.
         11    1    3    3    0    0  0.24308744317E+01  0.26738274212E+01  0.57361883942E+01  0.67795546414E+01  0.51100000000E-03 0. -1.
        -11    1    3    3    0    0  0.52172213139E+01 -0.43946045858E+01  0.96807587427E+01  0.11842678658E+02  0.51100000000E-03 0.  1.
        -12    1    3    3    0    0  0.22311287358E+02 -0.22648476280E+02 -0.26992224319E+01  0.31906626633E+02  0.00000000000E+00 0.  1.
</event>
<event>
 7    1  0.2937071E-011  0.5052886E+02  0.7816164E-02  0.1300439E+00
        -11   -1    0    0    0    0  0.00000000000E+00  0.00000000000E+00  0.45593999997E+02  0.45594000000E+02  0.51100000000E-03 0.  1.
         11   -1    0    0    0    0 -0.00000000000E+00 -0.00000000000E+00 -0.45593999997E+02  0.45594000000E+02  0.51100000000E-03 0. -1.
    9900012    2    1    2    0    0  0.13552904813E+02  0.24051652273E+02 -0.29849671004E+02  0.50528855088E+02  0.29999985526E+02 0.  0.
        -12    1    1    2    0    0 -0.13552904813E+02 -0.24051652273E+02  0.29849671004E+02  0.40659144912E+02  0.00000000000E+00 0.  1.
         11    1    3    3    0    0  0.13395209198E+01  0.31597200823E+01 -0.67258875204E+01  0.75508748163E+01  0.51100000000E-03 0. -1.
        -11    1    3    3    0    0 -0.63439336940E+01  0.14058473218E+02 -0.51663935378E+01  0.16265847238E+02  0.51100000000E-03 0.  1.
         12    1    3    3    0    0  0.18557317587E+02  0.68334589725E+01 -0.17957389945E+02  0.26712133034E+02  0.00000000000E+00 0. -1.
</event>
<event>
 7    1  0.2937071E-011  0.5052886E+02  0.7816164E-02  0.1300439E+00
        -11   -1    0    0    0    0  0.00000000000E+00  0.00000000000E+00  0.45593999997E+02  0.45594000000E+02  0.51100000000E-03 0.  1.
         11   -1    0    0    0    0 -0.00000000000E+00 -0.00000000000E+00 -0.45593999997E+02  0.45594000000E+02  0.51100000000E-03 0. -1.
    9900012    2    1    2    0    0 -0.34555304603E+02  0.78531925912E+01 -0.19935501032E+02  0.50528856976E+02  0.29999991264E+02 0.  0.
        -12    1    1    2    0    0  0.34555304603E+02 -0.78531925912E+01  0.19935501032E+02  0.40659143024E+02  0.00000000000E+00 0.  1.
         11    1    3    3    0    0 -0.66520068095E+01 -0.32581634309E+00 -0.10139425993E+02  0.12131088599E+02  0.51100000000E-03 0. -1.
        -11    1    3    3    0    0 -0.21762561461E+02  0.55147227242E+01 -0.17299542647E+02  0.28342466797E+02  0.51100000000E-03 0.  1.
        -12    1    3    3    0    0 -0.61407363317E+01  0.26642862101E+01  0.75034676079E+01  0.10055301579E+02  0.00000000000E+00 0.  1.
</event>
<event>
 7    1  0.2937071E-011  0.5052887E+02  0.7816164E-02  0.1300439E+00
        -11   -1    0    0    0    0  0.00000000000E+00  0.00000000000E+00  0.45593999997E+02  0.45594000000E+02  0.51100000000E-03 0.  1.
         11   -1    0    0    0    0 -0.00000000000E+00 -0.00000000000E+00 -0.45593999997E+02  0.45594000000E+02  0.51100000000E-03 0. -1.
    9900012    2    1    2    0    0 -0.12158263632E+02  0.19310485604E+02 -0.33651844827E+02  0.50528869548E+02  0.30000029479E+02 0.  0.
        -12    1    1    2    0    0  0.12158263632E+02 -0.19310485604E+02  0.33651844827E+02  0.40659130452E+02  0.00000000000E+00 0.  1.
         11    1    3    3    0    0 -0.28482484564E+01 -0.53683019509E+01 -0.39488945413E+01  0.72474101212E+01  0.51100000000E-03 0. -1.
        -11    1    3    3    0    0 -0.48270801624E+01 -0.20738341758E+00 -0.10405521932E+02  0.11472514882E+02  0.51100000000E-03 0.  1.
         12    1    3    3    0    0 -0.44829350132E+01  0.24886170972E+02 -0.19297428354E+02  0.31808944545E+02  0.00000000000E+00 0. -1.
</event>
<event>
 7    1  0.2937071E-011  0.5052886E+02  0.7816164E-02  0.1300439E+00
        -11   -1    0    0    0    0  0.00000000000E+00  0.00000000000E+00  0.45593999997E+02  0.45594000000E+02  0.51100000000E-03 0. -1.
         11   -1    0    0    0    0 -0.00000000000E+00 -0.00000000000E+00 -0.45593999997E+02  0.45594000000E+02  0.51100000000E-03 0.  1.
    9900012    2    1    2    0    0  0.33786009506E+01 -0.36324620097E+02  0.17951953069E+02  0.50528860946E+02  0.30000003333E+02 0.  0.
        -12    1    1    2    0    0 -0.33786009506E+01  0.36324620097E+02 -0.17951953069E+02  0.40659139054E+02  0.00000000000E+00 0.  1.
         11    1    3    3    0    0  0.10228156665E+02 -0.16672524917E+02  0.66579865848E+01  0.20661971385E+02  0.51100000000E-03 0. -1.
        -11    1    3    3    0    0  0.55002300192E+01 -0.76278845284E+01  0.27285797533E+00  0.94080606066E+01  0.51100000000E-03 0.  1.
         12    1    3    3    0    0 -0.12349785733E+02 -0.12024210651E+02  0.11021108509E+02  0.20458828955E+02  0.00000000000E+00 0. -1.
</event>
<event>
 7    1  0.2937071E-011  0.5052886E+02  0.7816164E-02  0.1300439E+00
        -11   -1    0    0    0    0  0.00000000000E+00  0.00000000000E+00  0.45593999997E+02  0.45594000000E+02  0.51100000000E-03 0.  1.
         11   -1    0    0    0    0 -0.00000000000E+00 -0.00000000000E+00 -0.45593999997E+02  0.45594000000E+02  0.51100000000E-03 0. -1.
    9900012    2    1    2    0    0  0.20209991595E+01 -0.10587074175E+02 -0.39204527175E+02  0.50528861689E+02  0.30000005589E+02 0.  0.
        -12    1    1    2    0    0 -0.20209991595E+01  0.10587074175E+02  0.39204527175E+02  0.40659138311E+02  0.00000000000E+00 0.  1.
         11    1    3    3    0    0  0.26161573760E+01 -0.80460834634E+01 -0.72764875025E+01  0.11159346269E+02  0.51100000000E-03 0. -1.
        -11    1    3    3    0    0  0.53375563278E+01 -0.94598833320E+01 -0.72419886077E+01  0.13054704112E+02  0.51100000000E-03 0.  1.
         12    1    3    3    0    0 -0.59327145443E+01  0.69188926200E+01 -0.24686051065E+02  0.26314811307E+02  0.00000000000E+00 0. -1.
</event>
<event>
 7    1  0.2937071E-011  0.5052889E+02  0.7816164E-02  0.1300439E+00
        -11   -1    0    0    0    0  0.00000000000E+00  0.00000000000E+00  0.45593999997E+02  0.45594000000E+02  0.51100000000E-03 0.  1.
         11   -1    0    0    0    0 -0.00000000000E+00 -0.00000000000E+00 -0.45593999997E+02  0.45594000000E+02  0.51100000000E-03 0. -1.
    9900012    2    1    2    0    0 -0.42353732343E+01  0.31365052870E+02 -0.25523675226E+02  0.50528893701E+02  0.30000102894E+02 0.  0.
        -12    1    1    2    0    0  0.42353732343E+01 -0.31365052870E+02  0.25523675226E+02  0.40659106299E+02  0.00000000000E+00 0.  1.
         11    1    3    3    0    0  0.79459173882E+01  0.17917970758E+02 -0.12611309793E+02  0.23307432595E+02  0.51100000000E-03 0. -1.
        -11    1    3    3    0    0  0.27176236537E+01  0.11079355789E+01  0.13069898071E+01  0.32126659003E+01  0.51100000000E-03 0.  1.
         12    1    3    3    0    0 -0.14898914276E+02  0.12339146533E+02 -0.14219355241E+02  0.24008795206E+02  0.00000000000E+00 0. -1.
</event>
<event>
 7    1  0.2967308E-011  0.5052886E+02  0.7816164E-02  0.1300439E+00
        -11   -1    0    0    0    0  0.00000000000E+00  0.00000000000E+00  0.45593999997E+02  0.45594000000E+02  0.51100000000E-03 0.  1.
         11   -1    0    0    0    0 -0.00000000000E+00 -0.00000000000E+00 -0.45593999997E+02  0.45594000000E+02  0.51100000000E-03 0. -1.
    9900012    2    1    2    0    0 -0.33526920553E+02 -0.22994557260E+02 -0.60120600993E+00  0.50528861864E+02  0.30000006121E+02 0.  0.
        -12    1    1    2    0    0  0.33526920553E+02  0.22994557260E+02  0.60120600993E+00  0.40659138136E+02  0.00000000000E+00 0.  1.
         11    1    3    3    0    0 -0.19649499893E+02 -0.11288999461E+02  0.99864048440E+01  0.24764342044E+02  0.51100000000E-03 0. -1.
        -11    1    3    3    0    0 -0.16625999269E+02 -0.11045624281E+02 -0.69031974005E+01  0.21120696060E+02  0.51100000000E-03 0.  1.
        -12    1    3    3    0    0  0.27485786095E+01 -0.65993351754E+00 -0.36844134534E+01  0.46438237602E+01  0.00000000000E+00 0.  1.
</event>
<event>
 7    1  0.2937071E-011  0.5052887E+02  0.7816164E-02  0.1300439E+00
        -11   -1    0    0    0    0  0.00000000000E+00  0.00000000000E+00  0.45593999997E+02  0.45594000000E+02  0.51100000000E-03 0. -1.
         11   -1    0    0    0    0 -0.00000000000E+00 -0.00000000000E+00 -0.45593999997E+02  0.45594000000E+02  0.51100000000E-03 0.  1.
    9900012    2    1    2    0    0  0.11666511087E+01 -0.23215326360E+02  0.33359446340E+02  0.50528866796E+02  0.30000021113E+02 0.  0.
        -12    1    1    2    0    0 -0.11666511087E+01  0.23215326360E+02 -0.33359446340E+02  0.40659133204E+02  0.00000000000E+00 0.  1.
         11    1    3    3    0    0  0.22268893362E+00 -0.21170436345E+02  0.14535826431E+02  0.25681261956E+02  0.51100000000E-03 0. -1.
        -11    1    3    3    0    0 -0.39894112197E+01 -0.46050137515E+01  0.99595564417E+00  0.61736117012E+01  0.51100000000E-03 0.  1.
         12    1    3    3    0    0  0.49333733948E+01  0.25601237358E+01  0.17827664265E+02  0.18673993138E+02  0.00000000000E+00 0. -1.
</event>
<event>
 7    1  0.2937071E-011  0.5052885E+02  0.7816164E-02  0.1300439E+00
        -11   -1    0    0    0    0  0.00000000000E+00  0.00000000000E+00  0.45593999997E+02  0.45594000000E+02  0.51100000000E-03 0. -1.
         11   -1    0    0    0    0 -0.00000000000E+00 -0.00000000000E+00 -0.45593999997E+02  0.45594000000E+02  0.51100000000E-03 0.  1.
    9900012    2    1    2    0    0  0.37672092114E+02  0.15221648247E+02 -0.15103860828E+01  0.50528851390E+02  0.29999974284E+02 0.  0.
        -12    1    1    2    0    0 -0.37672092114E+02 -0.15221648247E+02  0.15103860828E+01  0.40659148610E+02  0.00000000000E+00 0.  1.
         11    1    3    3    0    0  0.50691720740E+01 -0.33208566144E+01  0.82673954716E+01  0.10250581560E+02  0.51100000000E-03 0. -1.
        -11    1    3    3    0    0  0.56936331523E+01 -0.91506858444E+00 -0.24879251613E+01  0.62804920872E+01  0.51100000000E-03 0.  1.
        -12    1    3    3    0    0  0.26909286888E+02  0.19457573446E+02 -0.72898563931E+01  0.33997777743E+02  0.00000000000E+00 0.  1.
</event>
<event>
 7    1  0.2937071E-011  0.5052885E+02  0.7816164E-02  0.1300439E+00
        -11   -1    0    0    0    0  0.00000000000E+00  0.00000000000E+00  0.45593999997E+02  0.45594000000E+02  0.51100000000E-03 0.  1.
         11   -1    0    0    0    0 -0.00000000000E+00 -0.00000000000E+00 -0.45593999997E+02  0.45594000000E+02  0.51100000000E-03 0. -1.
    9900012    2    1    2    0    0  0.30087095337E+02  0.19387124502E+02 -0.19289188459E+02  0.50528847356E+02  0.29999962025E+02 0.  0.
        -12    1    1    2    0    0 -0.30087095337E+02 -0.19387124502E+02  0.19289188459E+02  0.40659152644E+02  0.00000000000E+00 0.  1.
         11    1    3    3    0    0  0.18126035023E+02  0.19644500835E+02 -0.99560535117E+01  0.28523368674E+02  0.51100000000E-03 0. -1.
        -11    1    3    3    0    0  0.13455202360E+02  0.25548762832E+01 -0.17829527210E+01  0.13811183296E+02  0.51100000000E-03 0.  1.
        -12    1    3    3    0    0 -0.14941420458E+01 -0.28122526163E+01 -0.75501822267E+01  0.81942953868E+01  0.00000000000E+00 0.  1.
</event>
<event>
 7    1  0.2937071E-011  0.5052886E+02  0.7816164E-02  0.1300439E+00
        -11   -1    0    0    0    0  0.00000000000E+00  0.00000000000E+00  0.45593999997E+02  0.45594000000E+02  0.51100000000E-03 0. -1.
         11   -1    0    0    0    0 -0.00000000000E+00 -0.00000000000E+00 -0.45593999997E+02  0.45594000000E+02  0.51100000000E-03 0.  1.
    9900012    2    1    2    0    0  0.28596305501E+02  0.28118789158E+02 -0.66895690066E+01  0.50528864182E+02  0.30000013167E+02 0.  0.
        -12    1    1    2    0    0 -0.28596305501E+02 -0.28118789158E+02  0.66895690066E+01  0.40659135818E+02  0.00000000000E+00 0.  1.
         11    1    3    3    0    0  0.97756747119E+01  0.97872753486E+00 -0.49353699747E+01  0.10994525943E+02  0.51100000000E-03 0. -1.
        -11    1    3    3    0    0  0.13180406911E+01 -0.19217447094E+01 -0.49376852917E+01  0.54599514917E+01  0.51100000000E-03 0.  1.
        -12    1    3    3    0    0  0.17502590098E+02  0.29061806333E+02  0.31834862597E+01  0.34074386747E+02  0.00000000000E+00 0.  1.
</event>
<event>
 7    1  0.2937071E-011  0.5052886E+02  0.7816164E-02  0.1300439E+00
        -11   -1    0    0    0    0  0.00000000000E+00  0.00000000000E+00  0.45593999997E+02  0.45594000000E+02  0.51100000000E-03 0.  1.
         11   -1    0    0    0    0 -0.00000000000E+00 -0.00000000000E+00 -0.45593999997E+02  0.45594000000E+02  0.51100000000E-03 0. -1.
    9900012    2    1    2    0    0  0.30736188240E+02  0.23476434540E+02 -0.12542303412E+02  0.50528860546E+02  0.30000002117E+02 0.  0.
        -12    1    1    2    0    0 -0.30736188240E+02 -0.23476434540E+02  0.12542303412E+02  0.40659139454E+02  0.00000000000E+00 0.  1.
         11    1    3    3    0    0  0.84186642839E+01  0.59267662167E+01 -0.54527759840E+01  0.11650460605E+02  0.51100000000E-03 0. -1.
        -11    1    3    3    0    0  0.25372988457E+02  0.67657505467E+01 -0.13706309091E+01  0.26295295265E+02  0.51100000000E-03 0.  1.
        -12    1    3    3    0    0 -0.30554645009E+01  0.10783917776E+02 -0.57188965192E+01  0.12583104677E+02  0.00000000000E+00 0.  1.
</event>
<event>
 7    1  0.2937071E-011  0.5052886E+02  0.7816164E-02  0.1300439E+00
        -11   -1    0    0    0    0  0.00000000000E+00  0.00000000000E+00  0.45593999997E+02  0.45594000000E+02  0.51100000000E-03 0.  1.
         11   -1    0    0    0    0 -0.00000000000E+00 -0.00000000000E+00 -0.45593999997E+02  0.45594000000E+02  0.51100000000E-03 0. -1.
    9900012    2    1    2    0    0 -0.76127564968E-01 -0.39171819284E+02 -0.10896260629E+02  0.50528859366E+02  0.29999998528E+02 0.  0.
        -12    1    1    2    0    0  0.76127564968E-01  0.39171819284E+02  0.10896260629E+02  0.40659140634E+02  0.00000000000E+00 0.  1.
         11    1    3    3    0    0  0.66113670469E+01 -0.17774058661E+02 -0.11228686356E+02  0.22038846001E+02  0.51100000000E-03 0.  1.
        -11    1    3    3    0    0  0.35359826542E+01 -0.11100469019E+02 -0.54600966893E+01  0.12866088834E+02  0.51100000000E-03 0. -1.
         12    1    3    3    0    0 -0.10223477266E+02 -0.10297291604E+02  0.57925224168E+01  0.15623924531E+02  0.00000000000E+00 0. -1.
</event>
<event>
 7    1  0.2937071E-011  0.5052886E+02  0.7816164E-02  0.1300439E+00
        -11   -1    0    0    0    0  0.00000000000E+00  0.00000000000E+00  0.45593999997E+02  0.45594000000E+02  0.51100000000E-03 0. -1.
         11   -1    0    0    0    0 -0.00000000000E+00 -0.00000000000E+00 -0.45593999997E+02  0.45594000000E+02  0.51100000000E-03 0.  1.
    9900012    2    1    2    0    0  0.37157279206E+01 -0.31313400500E+02 -0.25667681649E+02  0.50528861223E+02  0.30000004174E+02 0.  0.
        -12    1    1    2    0    0 -0.37157279206E+01  0.31313400500E+02  0.25667681649E+02  0.40659138777E+02  0.00000000000E+00 0.  1.
         11    1    3    3    0    0  0.56624390908E+01 -0.12130295073E+02 -0.34430760794E+01  0.13822519602E+02  0.51100000000E-03 0. -1.
        -11    1    3    3    0    0  0.59225800959E+01 -0.20352469015E+02 -0.15081796608E+02  0.26014621642E+02  0.51100000000E-03 0.  1.
        -12    1    3    3    0    0 -0.78692912662E+01  0.11693635884E+01 -0.71428089616E+01  0.10691719978E+02  0.00000000000E+00 0.  1.
</event>
<event>
 7    1  0.2937071E-011  0.5052881E+02  0.7816164E-02  0.1300439E+00
        -11   -1    0    0    0    0  0.00000000000E+00  0.00000000000E+00  0.45593999997E+02  0.45594000000E+02  0.51100000000E-03 0.  1.
         11   -1    0    0    0    0 -0.00000000000E+00 -0.00000000000E+00 -0.45593999997E+02  0.45594000000E+02  0.51100000000E-03 0. -1.
    9900012    2    1    2    0    0  0.33260873654E+02  0.47382768076E+01 -0.22900500582E+02  0.50528807801E+02  0.29999841793E+02 0.  0.
        -12    1    1    2    0    0 -0.33260873654E+02 -0.47382768076E+01  0.22900500582E+02  0.40659192199E+02  0.00000000000E+00 0.  1.
         11    1    3    3    0    0  0.10636564411E+02  0.30375774271E+01 -0.67339613924E+01  0.12950274723E+02  0.51100000000E-03 0. -1.
        -11    1    3    3    0    0  0.25753952403E+02 -0.45223068116E+01 -0.91794769099E+01  0.27712454238E+02  0.51100000000E-03 0.  1.
        -12    1    3    3    0    0 -0.31296431611E+01  0.62230061920E+01 -0.69870622801E+01  0.98660788406E+01  0.00000000000E+00 0.  1.
</event>
<event>
 7    1  0.2937071E-011  0.5052888E+02  0.7816164E-02  0.1300439E+00
        -11   -1    0    0    0    0  0.00000000000E+00  0.00000000000E+00  0.45593999997E+02  0.45594000000E+02  0.51100000000E-03 0. -1.
         11   -1    0    0    0    0 -0.00000000000E+00 -0.00000000000E+00 -0.45593999997E+02  0.45594000000E+02  0.51100000000E-03 0.  1.
    9900012    2    1    2    0    0 -0.80489655814E+01  0.12960479032E+00  0.39854247656E+02  0.50528884164E+02  0.30000073904E+02 0.  0.
        -12    1    1    2    0    0  0.80489655814E+01 -0.12960479032E+00 -0.39854247656E+02  0.40659115836E+02  0.00000000000E+00 0.  1.
         11    1    3    3    0    0 -0.42730618759E+01  0.20084783503E+01 -0.33733438350E+00  0.47335861486E+01  0.51100000000E-03 0. -1.
        -11    1    3    3    0    0 -0.41321958672E+01  0.74957193462E+01  0.62961200476E+01  0.10625534298E+02  0.51100000000E-03 0.  1.
         12    1    3    3    0    0  0.35629216174E+00 -0.93745929062E+01  0.33895461992E+02  0.35169763717E+02  0.00000000000E+00 0. -1.
</event>
<event>
 7    1  0.2937071E-011  0.5052886E+02  0.7816164E-02  0.1300439E+00
        -11   -1    0    0    0    0  0.00000000000E+00  0.00000000000E+00  0.45593999997E+02  0.45594000000E+02  0.51100000000E-03 0.  1.
         11   -1    0    0    0    0 -0.00000000000E+00 -0.00000000000E+00 -0.45593999997E+02  0.45594000000E+02  0.51100000000E-03 0. -1.
    9900012    2    1    2    0    0  0.30408439977E+02 -0.23273911828E+01 -0.26890061626E+02  0.50528863441E+02  0.30000010914E+02 0.  0.
        -12    1    1    2    0    0 -0.30408439977E+02  0.23273911828E+01  0.26890061626E+02  0.40659136559E+02  0.00000000000E+00 0.  1.
         11    1    3    3    0    0  0.31916190781E+01 -0.18832534525E+01 -0.14046778937E+02  0.14527390497E+02  0.51100000000E-03 0. -1.
        -11    1    3    3    0    0  0.25945745215E+02 -0.68260274443E+01 -0.12168723129E+02  0.29459364696E+02  0.51100000000E-03 0.  1.
         12    1    3    3    0    0  0.12710756833E+01  0.63818897140E+01 -0.67455955952E+00  0.65421082468E+01  0.00000000000E+00 0. -1.
</event>
<event>
 7    1  0.2937071E-011  0.5052886E+02  0.7816164E-02  0.1300439E+00
        -11   -1    0    0    0    0  0.00000000000E+00  0.00000000000E+00  0.45593999997E+02  0.45594000000E+02  0.51100000000E-03 0. -1.
         11   -1    0    0    0    0 -0.00000000000E+00 -0.00000000000E+00 -0.45593999997E+02  0.45594000000E+02  0.51100000000E-03 0.  1.
    9900012    2    1    2    0    0 -0.86533002655E+01 -0.77852505307E+01  0.38957363520E+02  0.50528857070E+02  0.29999991551E+02 0.  0.
        -12    1    1    2    0    0  0.86533002655E+01  0.77852505307E+01 -0.38957363520E+02  0.40659142930E+02  0.00000000000E+00 0.  1.
         11    1    3    3    0    0 -0.29784546286E+01  0.54122944636E+01  0.26019041427E+02  0.26742375369E+02  0.51100000000E-03 0. -1.
        -11    1    3    3    0    0  0.31309172669E+01 -0.16972720323E+01  0.75220420033E+01  0.83225291495E+01  0.51100000000E-03 0.  1.
        -12    1    3    3    0    0 -0.88057629038E+01 -0.11500272962E+02  0.54162800903E+01  0.15463952552E+02  0.00000000000E+00 0.  1.
</event>
<event>
 7    1  0.2937071E-011  0.5052886E+02  0.7816164E-02  0.1300439E+00
        -11   -1    0    0    0    0  0.00000000000E+00  0.00000000000E+00  0.45593999997E+02  0.45594000000E+02  0.51100000000E-03 0. -1.
         11   -1    0    0    0    0 -0.00000000000E+00 -0.00000000000E+00 -0.45593999997E+02  0.45594000000E+02  0.51100000000E-03 0.  1.
    9900012    2    1    2    0    0  0.51114867515E+01  0.12692491556E+02  0.38287584134E+02  0.50528859115E+02  0.29999997765E+02 0.  0.
        -12    1    1    2    0    0 -0.51114867515E+01 -0.12692491556E+02 -0.38287584134E+02  0.40659140885E+02  0.00000000000E+00 0.  1.
         11    1    3    3    0    0  0.28503116977E+01 -0.17746022043E+01  0.19777194758E+02  0.20060182514E+02  0.51100000000E-03 0. -1.
        -11    1    3    3    0    0 -0.28858159949E+00 -0.33024161490E+01  0.10127643537E+02  0.10656378167E+02  0.51100000000E-03 0.  1.
        -12    1    3    3    0    0  0.25497566533E+01  0.17769509910E+02  0.83827458387E+01  0.19812298433E+02  0.00000000000E+00 0.  1.
</event>
<event>
 7    1  0.2937071E-011  0.5052892E+02  0.7816164E-02  0.1300439E+00
        -11   -1    0    0    0    0  0.00000000000E+00  0.00000000000E+00  0.45593999997E+02  0.45594000000E+02  0.51100000000E-03 0.  1.
         11   -1    0    0    0    0 -0.00000000000E+00 -0.00000000000E+00 -0.45593999997E+02  0.45594000000E+02  0.51100000000E-03 0. -1.
    9900012    2    1    2    0    0 -0.13433310070E+02  0.34341435399E+02 -0.17128134346E+02  0.50528917486E+02  0.30000175190E+02 0.  0.
        -12    1    1    2    0    0  0.13433310070E+02 -0.34341435399E+02  0.17128134346E+02  0.40659082514E+02  0.00000000000E+00 0.  1.
         11    1    3    3    0    0  0.62426444278E+01  0.12737511423E+02 -0.31401392079E+01  0.14528430101E+02  0.51100000000E-03 0. -1.
        -11    1    3    3    0    0  0.10733495871E+01 -0.70671388454E-01  0.17985450064E+01  0.20956712964E+01  0.51100000000E-03 0.  1.
         12    1    3    3    0    0 -0.20749304085E+02  0.21674595364E+02 -0.15786540145E+02  0.33904816088E+02  0.00000000000E+00 0. -1.
</event>
<event>
 7    1  0.2937071E-011  0.5052887E+02  0.7816164E-02  0.1300439E+00
        -11   -1    0    0    0    0  0.00000000000E+00  0.00000000000E+00  0.45593999997E+02  0.45594000000E+02  0.51100000000E-03 0. -1.
         11   -1    0    0    0    0 -0.00000000000E+00 -0.00000000000E+00 -0.45593999997E+02  0.45594000000E+02  0.51100000000E-03 0.  1.
    9900012    2    1    2    0    0 -0.32558282851E+00 -0.21683618414E+02  0.34393020367E+02  0.50528866197E+02  0.30000019291E+02 0.  0.
        -12    1    1    2    0    0  0.32558282851E+00  0.21683618414E+02 -0.34393020367E+02  0.40659133803E+02  0.00000000000E+00 0.  1.
         11    1    3    3    0    0 -0.75279650810E+01  0.24016041343E+01  0.56363481261E+01  0.97059971738E+01  0.51100000000E-03 0. -1.
        -11    1    3    3    0    0 -0.48925788590E+00 -0.10779053168E+02  0.36599803832E+01  0.11393981620E+02  0.51100000000E-03 0.  1.
         12    1    3    3    0    0  0.76916401383E+01 -0.13306169380E+02  0.25096691857E+02  0.29428887403E+02  0.00000000000E+00 0. -1.
</event>
<event>
 7    1  0.2937071E-011  0.5052887E+02  0.7816164E-02  0.1300439E+00
        -11   -1    0    0    0    0  0.00000000000E+00  0.00000000000E+00  0.45593999997E+02  0.45594000000E+02  0.51100000000E-03 0.  1.
         11   -1    0    0    0    0 -0.00000000000E+00 -0.00000000000E+00 -0.45593999997E+02  0.45594000000E+02  0.51100000000E-03 0. -1.
    9900012    2    1    2    0    0  0.66352571552E+00 -0.28459508103E+02 -0.29030697000E+02  0.50528865281E+02  0.30000016507E+02 0.  0.
        -12    1    1    2    0    0 -0.66352571552E+00  0.28459508103E+02  0.29030697000E+02  0.40659134719E+02  0.00000000000E+00 0.  1.
         11    1    3    3    0    0 -0.58145900087E+01 -0.21023279824E+02 -0.85181356299E+01  0.23416797100E+02  0.51100000000E-03 0. -1.
        -11    1    3    3    0    0  0.22117768848E+01 -0.92216631050E+01 -0.45979665131E+01  0.10539085526E+02  0.51100000000E-03 0.  1.
        -12    1    3    3    0    0  0.42663388394E+01  0.17854348266E+01 -0.15914594857E+02  0.16572982655E+02  0.00000000000E+00 0.  1.
</event>
<event>
 7    1  0.2937071E-011  0.5052886E+02  0.7816164E-02  0.1300439E+00
        -11   -1    0    0    0    0  0.00000000000E+00  0.00000000000E+00  0.45593999997E+02  0.45594000000E+02  0.51100000000E-03 0. -1.
         11   -1    0    0    0    0 -0.00000000000E+00 -0.00000000000E+00 -0.45593999997E+02  0.45594000000E+02  0.51100000000E-03 0.  1.
    9900012    2    1    2    0    0  0.22090556706E+02 -0.34032137097E+02  0.26431577179E+01  0.50528864080E+02  0.30000012859E+02 0.  0.
        -12    1    1    2    0    0 -0.22090556706E+02  0.34032137097E+02 -0.26431577179E+01  0.40659135920E+02  0.00000000000E+00 0.  1.
         11    1    3    3    0    0  0.19104541721E+02 -0.13509655683E+02  0.77347999818E+01  0.24643892591E+02  0.51100000000E-03 0. -1.
        -11    1    3    3    0    0 -0.35691145313E+01 -0.72546834978E+01  0.34585116693E+01  0.87937656563E+01  0.51100000000E-03 0.  1.
        -12    1    3    3    0    0  0.65551295168E+01 -0.13267797917E+02 -0.85501539332E+01  0.17091205833E+02  0.00000000000E+00 0.  1.
</event>
<event>
 7    1  0.2937071E-011  0.5052886E+02  0.7816164E-02  0.1300439E+00
        -11   -1    0    0    0    0  0.00000000000E+00  0.00000000000E+00  0.45593999997E+02  0.45594000000E+02  0.51100000000E-03 0. -1.
         11   -1    0    0    0    0 -0.00000000000E+00 -0.00000000000E+00 -0.45593999997E+02  0.45594000000E+02  0.51100000000E-03 0.  1.
    9900012    2    1    2    0    0 -0.28994496214E+02 -0.21361328420E+02  0.18872696071E+02  0.50528858106E+02  0.29999994699E+02 0.  0.
        -12    1    1    2    0    0  0.28994496214E+02  0.21361328420E+02 -0.18872696071E+02  0.40659141894E+02  0.00000000000E+00 0.  1.
         11    1    3    3    0    0 -0.27497424283E+02 -0.13227291335E+02  0.14589037054E+02  0.33821732372E+02  0.51100000000E-03 0. -1.
        -11    1    3    3    0    0 -0.40967207003E+01 -0.46092965485E+00  0.70326451595E+01  0.81519123427E+01  0.51100000000E-03 0.  1.
         12    1    3    3    0    0  0.25996487692E+01 -0.76731074307E+01 -0.27489861420E+01  0.85552133915E+01  0.00000000000E+00 0. -1.
</event>
<event>
 7    1  0.2937071E-011  0.5052886E+02  0.7816164E-02  0.1300439E+00
        -11   -1    0    0    0    0  0.00000000000E+00  0.00000000000E+00  0.45593999997E+02  0.45594000000E+02  0.51100000000E-03 0.  1.
         11   -1    0    0    0    0 -0.00000000000E+00 -0.00000000000E+00 -0.45593999997E+02  0.45594000000E+02  0.51100000000E-03 0. -1.
    9900012    2    1    2    0    0 -0.32525096108E+02 -0.10753875948E+02 -0.21900646263E+02  0.50528855500E+02  0.29999986778E+02 0.  0.
        -12    1    1    2    0    0  0.32525096108E+02  0.10753875948E+02  0.21900646263E+02  0.40659144500E+02  0.00000000000E+00 0.  1.
         11    1    3    3    0    0 -0.26068607226E+01 -0.59566240735E+01 -0.60205633646E+01  0.88613924791E+01  0.51100000000E-03 0. -1.
        -11    1    3    3    0    0 -0.27486664990E+02 -0.23276335802E+01 -0.23323719412E+01  0.27683471413E+02  0.51100000000E-03 0.  1.
         12    1    3    3    0    0 -0.24315703951E+01 -0.24696182939E+01 -0.13547710957E+02  0.13983991608E+02  0.00000000000E+00 0. -1.
</event>
<event>
 7    1  0.2937071E-011  0.5052886E+02  0.7816164E-02  0.1300439E+00
        -11   -1    0    0    0    0  0.00000000000E+00  0.00000000000E+00  0.45593999997E+02  0.45594000000E+02  0.51100000000E-03 0.  1.
         11   -1    0    0    0    0 -0.00000000000E+00 -0.00000000000E+00 -0.45593999997E+02  0.45594000000E+02  0.51100000000E-03 0. -1.
    9900012    2    1    2    0    0 -0.28745920250E+01  0.21958211610E+02 -0.34098959091E+02  0.50528863912E+02  0.30000012346E+02 0.  0.
        -12    1    1    2    0    0  0.28745920250E+01 -0.21958211610E+02  0.34098959091E+02  0.40659136088E+02  0.00000000000E+00 0.  1.
         11    1    3    3    0    0  0.18500889430E+00  0.25544826189E+01 -0.63902796915E+01  0.68844233265E+01  0.51100000000E-03 0. -1.
        -11    1    3    3    0    0  0.96396978217E+01  0.59196775439E+01 -0.12988276150E+01  0.11386540728E+02  0.51100000000E-03 0.  1.
         12    1    3    3    0    0 -0.12699298741E+02  0.13484051447E+02 -0.26409851784E+02  0.32257899857E+02  0.00000000000E+00 0. -1.
</event>
<event>
 7    1  0.2937071E-011  0.5052885E+02  0.7816164E-02  0.1300439E+00
        -11   -1    0    0    0    0  0.00000000000E+00  0.00000000000E+00  0.45593999997E+02  0.45594000000E+02  0.51100000000E-03 0.  1.
         11   -1    0    0    0    0 -0.00000000000E+00 -0.00000000000E+00 -0.45593999997E+02  0.45594000000E+02  0.51100000000E-03 0. -1.
    9900012    2    1    2    0    0  0.63504130998E+01 -0.13740752358E+02 -0.37736330507E+02  0.50528847746E+02  0.29999963208E+02 0.  0.
        -12    1    1    2    0    0 -0.63504130998E+01  0.13740752358E+02  0.37736330507E+02  0.40659152254E+02  0.00000000000E+00 0.  1.
         11    1    3    3    0    0  0.33925056478E+01 -0.53238779405E+01 -0.83592535973E+01  0.10475203667E+02  0.51100000000E-03 0. -1.
        -11    1    3    3    0    0  0.14018163297E+02 -0.30553391443E+01 -0.11646120325E+02  0.18479072444E+02  0.51100000000E-03 0.  1.
        -12    1    3    3    0    0 -0.11060255845E+02 -0.53615352730E+01 -0.17730956584E+02  0.21574571635E+02  0.00000000000E+00 0.  1.
</event>
<event>
 7    1  0.2937071E-011  0.5052889E+02  0.7816164E-02  0.1300439E+00
        -11   -1    0    0    0    0  0.00000000000E+00  0.00000000000E+00  0.45593999997E+02  0.45594000000E+02  0.51100000000E-03 0.  1.
         11   -1    0    0    0    0 -0.00000000000E+00 -0.00000000000E+00 -0.45593999997E+02  0.45594000000E+02  0.51100000000E-03 0. -1.
    9900012    2    1    2    0    0  0.40068297686E+02  0.68851580608E+01 -0.53766501096E+00  0.50528893214E+02  0.30000101412E+02 0.  0.
        -12    1    1    2    0    0 -0.40068297686E+02 -0.68851580608E+01  0.53766501096E+00  0.40659106786E+02  0.00000000000E+00 0.  1.
         11    1    3    3    0    0  0.41657517906E+02  0.51771159385E+01 -0.13222110484E+01  0.41998804386E+02  0.51100000000E-03 0.  1.
        -11    1    3    3    0    0  0.28406622205E+01  0.39303564327E+00 -0.16484725038E+01  0.33077637045E+01  0.51100000000E-03 0. -1.
        -12    1    3    3    0    0 -0.44298824401E+01  0.13150064791E+01  0.24330185413E+01  0.52223251234E+01  0.00000000000E+00 0.  1.
</event>
<event>
 7    1  0.2937071E-011  0.5052887E+02  0.7816164E-02  0.1300439E+00
        -11   -1    0    0    0    0  0.00000000000E+00  0.00000000000E+00  0.45593999997E+02  0.45594000000E+02  0.51100000000E-03 0.  1.
         11   -1    0    0    0    0 -0.00000000000E+00 -0.00000000000E+00 -0.45593999997E+02  0.45594000000E+02  0.51100000000E-03 0. -1.
    9900012    2    1    2    0    0 -0.15542599122E+02 -0.32408741941E+02 -0.19007001546E+02  0.50528867576E+02  0.30000023485E+02 0.  0.
        -12    1    1    2    0    0  0.15542599122E+02  0.32408741941E+02  0.19007001546E+02  0.40659132424E+02  0.00000000000E+00 0.  1.
         11    1    3    3    0    0 -0.40759925790E+01 -0.58339128138E+01 -0.39912975877E+01  0.81595778640E+01  0.51100000000E-03 0. -1.
        -11    1    3    3    0    0 -0.18480328184E+02 -0.19515964297E+02 -0.17551206469E+02  0.32100471040E+02  0.51100000000E-03 0.  1.
        -12    1    3    3    0    0  0.70137216406E+01 -0.70588648309E+01  0.25355025107E+01  0.10268818673E+02  0.00000000000E+00 0.  1.
</event>
<event>
 7    1  0.2937071E-011  0.5052887E+02  0.7816164E-02  0.1300439E+00
        -11   -1    0    0    0    0  0.00000000000E+00  0.00000000000E+00  0.45593999997E+02  0.45594000000E+02  0.51100000000E-03 0.  1.
         11   -1    0    0    0    0 -0.00000000000E+00 -0.00000000000E+00 -0.45593999997E+02  0.45594000000E+02  0.51100000000E-03 0. -1.
    9900012    2    1    2    0    0  0.38307539484E+02  0.19378008503E+01 -0.13488600014E+02  0.50528868383E+02  0.30000025938E+02 0.  0.
        -12    1    1    2    0    0 -0.38307539484E+02 -0.19378008503E+01  0.13488600014E+02  0.40659131617E+02  0.00000000000E+00 0.  1.
         11    1    3    3    0    0  0.61425149716E+01  0.22261172907E+01 -0.32220592577E+01  0.72847618004E+01  0.51100000000E-03 0. -1.
        -11    1    3    3    0    0  0.22558081617E+02  0.11583360381E+02 -0.99416103421E+00  0.25377739072E+02  0.51100000000E-03 0.  1.
        -12    1    3    3    0    0  0.96069428952E+01 -0.11871676821E+02 -0.92723797223E+01  0.17866367511E+02  0.00000000000E+00 0.  1.
</event>
<event>
 7    1  0.2937071E-011  0.5052885E+02  0.7816164E-02  0.1300439E+00
        -11   -1    0    0    0    0  0.00000000000E+00  0.00000000000E+00  0.45593999997E+02  0.45594000000E+02  0.51100000000E-03 0.  1.
         11   -1    0    0    0    0 -0.00000000000E+00 -0.00000000000E+00 -0.45593999997E+02  0.45594000000E+02  0.51100000000E-03 0. -1.
    9900012    2    1    2    0    0  0.13263681024E+02  0.38379965647E+02  0.20541136967E+01  0.50528851208E+02  0.29999973733E+02 0.  0.
        -12    1    1    2    0    0 -0.13263681024E+02 -0.38379965647E+02 -0.20541136967E+01  0.40659148792E+02  0.00000000000E+00 0.  1.
         11    1    3    3    0    0 -0.31977036785E+01  0.60489847921E+01  0.63903171632E+01  0.93622475687E+01  0.51100000000E-03 0. -1.
        -11    1    3    3    0    0  0.43825327972E+01 -0.85918897853E+00  0.26065096307E+01  0.51709469283E+01  0.51100000000E-03 0.  1.
         12    1    3    3    0    0  0.12078851905E+02  0.33190169834E+02 -0.69427130971E+01  0.35995656711E+02  0.00000000000E+00 0. -1.
</event>
<event>
 7    1  0.2937071E-011  0.5052885E+02  0.7816164E-02  0.1300439E+00
        -11   -1    0    0    0    0  0.00000000000E+00  0.00000000000E+00  0.45593999997E+02  0.45594000000E+02  0.51100000000E-03 0.  1.
         11   -1    0    0    0    0 -0.00000000000E+00 -0.00000000000E+00 -0.45593999997E+02  0.45594000000E+02  0.51100000000E-03 0. -1.
    9900012    2    1    2    0    0  0.44414582300E+01 -0.29894303041E+02 -0.27198717614E+02  0.50528854099E+02  0.29999982521E+02 0.  0.
        -12    1    1    2    0    0 -0.44414582300E+01  0.29894303041E+02  0.27198717614E+02  0.40659145901E+02  0.00000000000E+00 0.  1.
         11    1    3    3    0    0 -0.43302473690E+01 -0.19434093490E+02 -0.97711198855E+01  0.22179040019E+02  0.51100000000E-03 0. -1.
        -11    1    3    3    0    0  0.80456902942E+00 -0.65526453550E+01  0.20775021917E+01  0.69210192955E+01  0.51100000000E-03 0.  1.
         12    1    3    3    0    0  0.79671365695E+01 -0.39075641959E+01 -0.19505099920E+02  0.21428794785E+02  0.00000000000E+00 0. -1.
</event>
<event>
 7    1  0.2937071E-011  0.5052885E+02  0.7816164E-02  0.1300439E+00
        -11   -1    0    0    0    0  0.00000000000E+00  0.00000000000E+00  0.45593999997E+02  0.45594000000E+02  0.51100000000E-03 0.  1.
         11   -1    0    0    0    0 -0.00000000000E+00 -0.00000000000E+00 -0.45593999997E+02  0.45594000000E+02  0.51100000000E-03 0. -1.
    9900012    2    1    2    0    0  0.29029696889E+02 -0.19198960675E+02 -0.21020068342E+02  0.50528847702E+02  0.29999963076E+02 0.  0.
        -12    1    1    2    0    0 -0.29029696889E+02  0.19198960675E+02  0.21020068342E+02  0.40659152298E+02  0.00000000000E+00 0.  1.
         11    1    3    3    0    0 -0.11777717158E+01 -0.16526681236E+01  0.14662420199E+01  0.25036621304E+01  0.51100000000E-03 0. -1.
        -11    1    3    3    0    0 -0.26535317724E+00  0.38455878135E+01  0.10282504330E+01  0.39895184113E+01  0.51100000000E-03 0.  1.
         12    1    3    3    0    0  0.30472821782E+02 -0.21391880365E+02 -0.23514560795E+02  0.44035667161E+02  0.00000000000E+00 0. -1.
</event>
<event>
 7    1  0.2937071E-011  0.5052885E+02  0.7816164E-02  0.1300439E+00
        -11   -1    0    0    0    0  0.00000000000E+00  0.00000000000E+00  0.45593999997E+02  0.45594000000E+02  0.51100000000E-03 0.  1.
         11   -1    0    0    0    0 -0.00000000000E+00 -0.00000000000E+00 -0.45593999997E+02  0.45594000000E+02  0.51100000000E-03 0. -1.
    9900012    2    1    2    0    0 -0.11099963335E+02  0.32769073855E+02 -0.21357562578E+02  0.50528845230E+02  0.29999955562E+02 0.  0.
        -12    1    1    2    0    0  0.11099963335E+02 -0.32769073855E+02  0.21357562578E+02  0.40659154770E+02  0.00000000000E+00 0.  1.
         11    1    3    3    0    0  0.16471361726E+01  0.10903208210E+02 -0.14930021995E+01  0.11127536236E+02  0.51100000000E-03 0. -1.
        -11    1    3    3    0    0  0.54453723424E+01  0.25196265434E+01  0.37453795943E+00  0.60117282714E+01  0.51100000000E-03 0.  1.
        -12    1    3    3    0    0 -0.18192471850E+02  0.19346239101E+02 -0.20239098337E+02  0.33389580723E+02  0.00000000000E+00 0.  1.
</event>
<event>
 7    1  0.2937071E-011  0.5052886E+02  0.7816164E-02  0.1300439E+00
        -11   -1    0    0    0    0  0.00000000000E+00  0.00000000000E+00  0.45593999997E+02  0.45594000000E+02  0.51100000000E-03 0.  1.
         11   -1    0    0    0    0 -0.00000000000E+00 -0.00000000000E+00 -0.45593999997E+02  0.45594000000E+02  0.51100000000E-03 0. -1.
    9900012    2    1    2    0    0  0.99561140115E+01  0.38561180889E+02 -0.81900502604E+01  0.50528858334E+02  0.29999995391E+02 0.  0.
        -12    1    1    2    0    0 -0.99561140115E+01 -0.38561180889E+02  0.81900502604E+01  0.40659141666E+02  0.00000000000E+00 0.  1.
         11    1    3    3    0    0  0.41162445953E+01  0.25252764751E+02  0.58024947124E+01  0.26235749318E+02  0.51100000000E-03 0. -1.
        -11    1    3    3    0    0 -0.28549508885E+01  0.51042633263E+01  0.53408202920E-01  0.58486837303E+01  0.51100000000E-03 0.  1.
         12    1    3    3    0    0  0.86948203047E+01  0.82041528117E+01 -0.14045953176E+02  0.18444425285E+02  0.00000000000E+00 0. -1.
</event>
<event>
 7    1  0.2937071E-011  0.5052886E+02  0.7816164E-02  0.1300439E+00
        -11   -1    0    0    0    0  0.00000000000E+00  0.00000000000E+00  0.45593999997E+02  0.45594000000E+02  0.51100000000E-03 0. -1.
         11   -1    0    0    0    0 -0.00000000000E+00 -0.00000000000E+00 -0.45593999997E+02  0.45594000000E+02  0.51100000000E-03 0.  1.
    9900012    2    1    2    0    0 -0.32844657120E+02 -0.22219538027E+02  0.89825476889E+01  0.50528861612E+02  0.30000005356E+02 0.  0.
        -12    1    1    2    0    0  0.32844657120E+02  0.22219538027E+02 -0.89825476889E+01  0.40659138388E+02  0.00000000000E+00 0.  1.
         11    1    3    3    0    0 -0.12634133963E+02  0.10948910861E+01 -0.37105302669E+00  0.12686914838E+02  0.51100000000E-03 0.  1.
        -11    1    3    3    0    0  0.16628325269E+00 -0.10763315072E+01  0.75477481622E+01  0.76259191062E+01  0.51100000000E-03 0. -1.
         12    1    3    3    0    0 -0.20376806409E+02 -0.22238097606E+02  0.18058525535E+01  0.30216027668E+02  0.00000000000E+00 0. -1.
</event>
<event>
 7    1  0.2937071E-011  0.5052886E+02  0.7816164E-02  0.1300439E+00
        -11   -1    0    0    0    0  0.00000000000E+00  0.00000000000E+00  0.45593999997E+02  0.45594000000E+02  0.51100000000E-03 0.  1.
         11   -1    0    0    0    0 -0.00000000000E+00 -0.00000000000E+00 -0.45593999997E+02  0.45594000000E+02  0.51100000000E-03 0. -1.
    9900012    2    1    2    0    0 -0.27919670344E+02 -0.55505263969E+01 -0.29031867013E+02  0.50528860343E+02  0.30000001498E+02 0.  0.
        -12    1    1    2    0    0  0.27919670344E+02  0.55505263969E+01  0.29031867013E+02  0.40659139657E+02  0.00000000000E+00 0.  1.
         11    1    3    3    0    0  0.18217037424E+01 -0.16788042357E+01 -0.24958334494E+01  0.35165569888E+01  0.51100000000E-03 0. -1.
        -11    1    3    3    0    0 -0.57354792549E+01  0.29073843748E+01  0.40075800685E+01  0.75768927967E+01  0.51100000000E-03 0.  1.
        -12    1    3    3    0    0 -0.24005894831E+02 -0.67791065360E+01 -0.30543613633E+02  0.39435410557E+02  0.00000000000E+00 0.  1.
</event>
<event>
 7    1  0.2937071E-011  0.5052884E+02  0.7816164E-02  0.1300439E+00
        -11   -1    0    0    0    0  0.00000000000E+00  0.00000000000E+00  0.45593999997E+02  0.45594000000E+02  0.51100000000E-03 0.  1.
         11   -1    0    0    0    0 -0.00000000000E+00 -0.00000000000E+00 -0.45593999997E+02  0.45594000000E+02  0.51100000000E-03 0. -1.
    9900012    2    1    2    0    0 -0.31038585821E+02  0.25255540314E+02  0.72063336964E+01  0.50528839019E+02  0.29999936682E+02 0.  0.
        -12    1    1    2    0    0  0.31038585821E+02 -0.25255540314E+02 -0.72063336964E+01  0.40659160981E+02  0.00000000000E+00 0.  1.
         11    1    3    3    0    0 -0.15464529752E+02  0.49052803260E+01 -0.51580034866E+01  0.17024055209E+02  0.51100000000E-03 0. -1.
        -11    1    3    3    0    0 -0.19495539616E+02  0.17028020549E+02  0.92108986172E+01  0.27474901316E+02  0.51100000000E-03 0.  1.
         12    1    3    3    0    0  0.39214835471E+01  0.33222394393E+01  0.31534385658E+01  0.60298824939E+01  0.00000000000E+00 0. -1.
</event>
<event>
 7    1  0.2937071E-011  0.5052884E+02  0.7816164E-02  0.1300439E+00
        -11   -1    0    0    0    0  0.00000000000E+00  0.00000000000E+00  0.45593999997E+02  0.45594000000E+02  0.51100000000E-03 0.  1.
         11   -1    0    0    0    0 -0.00000000000E+00 -0.00000000000E+00 -0.45593999997E+02  0.45594000000E+02  0.51100000000E-03 0. -1.
    9900012    2    1    2    0    0  0.40634517668E+02  0.12208300404E+01 -0.71593035403E+00  0.50528843487E+02  0.29999950264E+02 0.  0.
        -12    1    1    2    0    0 -0.40634517668E+02 -0.12208300404E+01  0.71593035403E+00  0.40659156513E+02  0.00000000000E+00 0.  1.
         11    1    3    3    0    0 -0.74935816170E+00  0.44211330988E+01 -0.21522790222E+01  0.49739582610E+01  0.51100000000E-03 0. -1.
        -11    1    3    3    0    0  0.27885434412E+01 -0.18466999253E+01  0.57947194431E+01  0.66906687874E+01  0.51100000000E-03 0.  1.
         12    1    3    3    0    0  0.38595332388E+02 -0.13536031331E+01 -0.43583707749E+01  0.38864216439E+02  0.00000000000E+00 0. -1.
</event>
<event>
 7    1  0.2937071E-011  0.5052886E+02  0.7816164E-02  0.1300439E+00
        -11   -1    0    0    0    0  0.00000000000E+00  0.00000000000E+00  0.45593999997E+02  0.45594000000E+02  0.51100000000E-03 0. -1.
         11   -1    0    0    0    0 -0.00000000000E+00 -0.00000000000E+00 -0.45593999997E+02  0.45594000000E+02  0.51100000000E-03 0.  1.
    9900012    2    1    2    0    0  0.35574637685E+01  0.31596805153E+02  0.25340724471E+02  0.50528856366E+02  0.29999989412E+02 0.  0.
        -12    1    1    2    0    0 -0.35574637685E+01 -0.31596805153E+02 -0.25340724471E+02  0.40659143634E+02  0.00000000000E+00 0.  1.
         11    1    3    3    0    0 -0.68303961644E+01  0.28149058565E+01  0.12658388715E+02  0.14656493846E+02  0.51100000000E-03 0. -1.
        -11    1    3    3    0    0  0.12760123766E+01  0.22354984165E+02  0.79774073389E+01  0.23769992695E+02  0.51100000000E-03 0.  1.
        -12    1    3    3    0    0  0.91118475563E+01  0.64269151314E+01  0.47049284171E+01  0.12102369826E+02  0.00000000000E+00 0.  1.
</event>
<event>
 7    1  0.2937071E-011  0.5052886E+02  0.7816164E-02  0.1300439E+00
        -11   -1    0    0    0    0  0.00000000000E+00  0.00000000000E+00  0.45593999997E+02  0.45594000000E+02  0.51100000000E-03 0.  1.
         11   -1    0    0    0    0 -0.00000000000E+00 -0.00000000000E+00 -0.45593999997E+02  0.45594000000E+02  0.51100000000E-03 0. -1.
    9900012    2    1    2    0    0  0.27659845282E+00  0.17772904561E+02 -0.36567925586E+02  0.50528858040E+02  0.29999994500E+02 0.  0.
        -12    1    1    2    0    0 -0.27659845282E+00 -0.17772904561E+02  0.36567925586E+02  0.40659141960E+02  0.00000000000E+00 0.  1.
         11    1    3    3    0    0  0.62710108924E+01  0.23353007240E+01 -0.23340599192E+01  0.70871039961E+01  0.51100000000E-03 0.  1.
        -11    1    3    3    0    0  0.14478091740E+01  0.18071543442E+02 -0.18867105942E+02  0.26165712691E+02  0.51100000000E-03 0. -1.
         12    1    3    3    0    0 -0.74422216136E+01 -0.26339396048E+01 -0.15366759725E+02  0.17276041353E+02  0.00000000000E+00 0. -1.
</event>
<event>
 7    1  0.2937071E-011  0.5052886E+02  0.7816164E-02  0.1300439E+00
        -11   -1    0    0    0    0  0.00000000000E+00  0.00000000000E+00  0.45593999997E+02  0.45594000000E+02  0.51100000000E-03 0. -1.
         11   -1    0    0    0    0 -0.00000000000E+00 -0.00000000000E+00 -0.45593999997E+02  0.45594000000E+02  0.51100000000E-03 0.  1.
    9900012    2    1    2    0    0 -0.30774098742E+02  0.24907961701E+02 -0.92581750232E+01  0.50528861860E+02  0.30000006111E+02 0.  0.
        -12    1    1    2    0    0  0.30774098742E+02 -0.24907961701E+02  0.92581750232E+01  0.40659138140E+02  0.00000000000E+00 0.  1.
         11    1    3    3    0    0  0.22172503405E+01  0.89260017003E+01 -0.10334351410E+01  0.92551441847E+01  0.51100000000E-03 0.  1.
        -11    1    3    3    0    0 -0.17864198385E+01  0.16721366286E+01  0.41201840808E+01  0.47919989424E+01  0.51100000000E-03 0. -1.
         12    1    3    3    0    0 -0.31204929244E+02  0.14309823372E+02 -0.12344923963E+02  0.36481718733E+02  0.00000000000E+00 0. -1.
</event>
<event>
 7    1  0.2937071E-011  0.5052887E+02  0.7816164E-02  0.1300439E+00
        -11   -1    0    0    0    0  0.00000000000E+00  0.00000000000E+00  0.45593999997E+02  0.45594000000E+02  0.51100000000E-03 0.  1.
         11   -1    0    0    0    0 -0.00000000000E+00 -0.00000000000E+00 -0.45593999997E+02  0.45594000000E+02  0.51100000000E-03 0. -1.
    9900012    2    1    2    0    0  0.77385024263E+01 -0.34038459798E+02 -0.20848588773E+02  0.50528870409E+02  0.30000032095E+02 0.  0.
        -12    1    1    2    0    0 -0.77385024263E+01  0.34038459798E+02  0.20848588773E+02  0.40659129591E+02  0.00000000000E+00 0.  1.
         11    1    3    3    0    0 -0.47344255404E+01 -0.17058527363E+02 -0.80596362240E+01  0.19451629169E+02  0.51100000000E-03 0. -1.
        -11    1    3    3    0    0  0.29571111536E+00 -0.12482665342E+02  0.50533357087E+00  0.12496389134E+02  0.51100000000E-03 0.  1.
         12    1    3    3    0    0  0.12177216851E+02 -0.44972670932E+01 -0.13294286120E+02  0.18580852106E+02  0.00000000000E+00 0. -1.
</event>
<event>
 7    1  0.2937071E-011  0.5052886E+02  0.7816164E-02  0.1300439E+00
        -11   -1    0    0    0    0  0.00000000000E+00  0.00000000000E+00  0.45593999997E+02  0.45594000000E+02  0.51100000000E-03 0.  1.
         11   -1    0    0    0    0 -0.00000000000E+00 -0.00000000000E+00 -0.45593999997E+02  0.45594000000E+02  0.51100000000E-03 0. -1.
    9900012    2    1    2    0    0 -0.19037321784E+02  0.12556404363E+02 -0.33661288658E+02  0.50528864921E+02  0.30000015415E+02 0.  0.
        -12    1    1    2    0    0  0.19037321784E+02 -0.12556404363E+02  0.33661288658E+02  0.40659135079E+02  0.00000000000E+00 0.  1.
         11    1    3    3    0    0 -0.10718302742E+02  0.18374651530E+02 -0.21472696375E+02  0.30225593830E+02  0.51100000000E-03 0. -1.
        -11    1    3    3    0    0  0.13654052272E+01  0.27308608261E+01 -0.99786484040E+00  0.32121125116E+01  0.51100000000E-03 0.  1.
        -12    1    3    3    0    0 -0.96844242691E+01 -0.85491079930E+01 -0.11190727442E+02  0.17091158579E+02  0.00000000000E+00 0.  1.
</event>
<event>
 7    1  0.2937071E-011  0.5052887E+02  0.7816164E-02  0.1300439E+00
        -11   -1    0    0    0    0  0.00000000000E+00  0.00000000000E+00  0.45593999997E+02  0.45594000000E+02  0.51100000000E-03 0.  1.
         11   -1    0    0    0    0 -0.00000000000E+00 -0.00000000000E+00 -0.45593999997E+02  0.45594000000E+02  0.51100000000E-03 0. -1.
    9900012    2    1    2    0    0  0.25393576536E+02  0.17084169565E+02 -0.26766814988E+02  0.50528868631E+02  0.30000026692E+02 0.  0.
        -12    1    1    2    0    0 -0.25393576536E+02 -0.17084169565E+02  0.26766814988E+02  0.40659131369E+02  0.00000000000E+00 0.  1.
         11    1    3    3    0    0  0.45597303565E+01  0.89009445483E+01 -0.49280373368E+01  0.11149148265E+02  0.51100000000E-03 0. -1.
        -11    1    3    3    0    0  0.11476057896E+02  0.15101927198E+02 -0.20058928481E+02  0.27606678938E+02  0.51100000000E-03 0.  1.
        -12    1    3    3    0    0  0.93577882833E+01 -0.69187021804E+01 -0.17798491706E+01  0.11773041429E+02  0.00000000000E+00 0.  1.
</event>
<event>
 7    1  0.2937071E-011  0.5052886E+02  0.7816164E-02  0.1300439E+00
        -11   -1    0    0    0    0  0.00000000000E+00  0.00000000000E+00  0.45593999997E+02  0.45594000000E+02  0.51100000000E-03 0.  1.
         11   -1    0    0    0    0 -0.00000000000E+00 -0.00000000000E+00 -0.45593999997E+02  0.45594000000E+02  0.51100000000E-03 0. -1.
    9900012    2    1    2    0    0 -0.16238866539E+02 -0.36984192886E+02 -0.46513064133E+01  0.50528856363E+02  0.29999989402E+02 0.  0.
        -12    1    1    2    0    0  0.16238866539E+02  0.36984192886E+02  0.46513064133E+01  0.40659143637E+02  0.00000000000E+00 0.  1.
         11    1    3    3    0    0 -0.10338066296E+02 -0.53031485055E+01  0.74462955135E+01  0.13800228837E+02  0.51100000000E-03 0.  1.
        -11    1    3    3    0    0 -0.26573120092E+01 -0.79139881594E+01  0.24178678589E+01  0.86912945494E+01  0.51100000000E-03 0. -1.
         12    1    3    3    0    0 -0.32434882339E+01 -0.23767056221E+02 -0.14515469786E+02  0.28037332977E+02  0.00000000000E+00 0. -1.
</event>
<event>
 7    1  0.2937071E-011  0.5052888E+02  0.7816164E-02  0.1300439E+00
        -11   -1    0    0    0    0  0.00000000000E+00  0.00000000000E+00  0.45593999997E+02  0.45594000000E+02  0.51100000000E-03 0. -1.
         11   -1    0    0    0    0 -0.00000000000E+00 -0.00000000000E+00 -0.45593999997E+02  0.45594000000E+02  0.51100000000E-03 0.  1.
    9900012    2    1    2    0    0  0.24640727241E+01  0.15001364479E+02  0.37710092596E+02  0.50528884488E+02  0.30000074888E+02 0.  0.
        -12    1    1    2    0    0 -0.24640727241E+01 -0.15001364479E+02 -0.37710092596E+02  0.40659115512E+02  0.00000000000E+00 0.  1.
         11    1    3    3    0    0 -0.78948899341E+01 -0.71382705200E+00  0.21602200348E+02  0.23010734371E+02  0.51100000000E-03 0. -1.
        -11    1    3    3    0    0 -0.27145058648E+01  0.24193389079E+01  0.21295499627E+01  0.42138730576E+01  0.51100000000E-03 0.  1.
        -12    1    3    3    0    0  0.13073468523E+02  0.13295852623E+02  0.13978342286E+02  0.23304277059E+02  0.00000000000E+00 0.  1.
</event>
<event>
 7    1  0.2937071E-011  0.5052886E+02  0.7816164E-02  0.1300439E+00
        -11   -1    0    0    0    0  0.00000000000E+00  0.00000000000E+00  0.45593999997E+02  0.45594000000E+02  0.51100000000E-03 0.  1.
         11   -1    0    0    0    0 -0.00000000000E+00 -0.00000000000E+00 -0.45593999997E+02  0.45594000000E+02  0.51100000000E-03 0. -1.
    9900012    2    1    2    0    0  0.36934962647E+02 -0.64411993468E+01 -0.15731661204E+02  0.50528859834E+02  0.29999999952E+02 0.  0.
        -12    1    1    2    0    0 -0.36934962647E+02  0.64411993468E+01  0.15731661204E+02  0.40659140166E+02  0.00000000000E+00 0.  1.
         11    1    3    3    0    0  0.25017876694E+02  0.85113359468E+01 -0.85148675581E+01  0.27764004821E+02  0.51100000000E-03 0. -1.
        -11    1    3    3    0    0  0.67222452517E+01 -0.63478783097E+01 -0.85899754313E+01  0.12620293912E+02  0.51100000000E-03 0.  1.
        -12    1    3    3    0    0  0.51948407013E+01 -0.86046569838E+01  0.13731817852E+01  0.10144561101E+02  0.00000000000E+00 0.  1.
</event>
<event>
 7    1  0.2937071E-011  0.5052886E+02  0.7816164E-02  0.1300439E+00
        -11   -1    0    0    0    0  0.00000000000E+00  0.00000000000E+00  0.45593999997E+02  0.45594000000E+02  0.51100000000E-03 0.  1.
         11   -1    0    0    0    0 -0.00000000000E+00 -0.00000000000E+00 -0.45593999997E+02  0.45594000000E+02  0.51100000000E-03 0. -1.
    9900012    2    1    2    0    0  0.23850048254E+02  0.74224905287E+01 -0.32081886614E+02  0.50528860608E+02  0.30000002305E+02 0.  0.
        -12    1    1    2    0    0 -0.23850048254E+02 -0.74224905287E+01  0.32081886614E+02  0.40659139392E+02  0.00000000000E+00 0.  1.
         11    1    3    3    0    0  0.25072673074E+02  0.11794269145E+02 -0.21618220927E+02  0.35143864273E+02  0.51100000000E-03 0. -1.
        -11    1    3    3    0    0  0.25747561558E+01 -0.61296825133E+01 -0.42401871567E+01  0.78855287939E+01  0.51100000000E-03 0.  1.
        -12    1    3    3    0    0 -0.37973809757E+01  0.17579038974E+01 -0.62234785307E+01  0.74994675417E+01  0.00000000000E+00 0.  1.
</event>
<event>
 7    1  0.2937071E-011  0.5052886E+02  0.7816164E-02  0.1300439E+00
        -11   -1    0    0    0    0  0.00000000000E+00  0.00000000000E+00  0.45593999997E+02  0.45594000000E+02  0.51100000000E-03 0.  1.
         11   -1    0    0    0    0 -0.00000000000E+00 -0.00000000000E+00 -0.45593999997E+02  0.45594000000E+02  0.51100000000E-03 0. -1.
    9900012    2    1    2    0    0 -0.30875522835E+02 -0.88206305750E+01 -0.24941210234E+02  0.50528863240E+02  0.30000010306E+02 0.  0.
        -12    1    1    2    0    0  0.30875522835E+02  0.88206305750E+01  0.24941210234E+02  0.40659136760E+02  0.00000000000E+00 0.  1.
         11    1    3    3    0    0 -0.12547970982E+01 -0.67381886454E+01  0.20731158722E+01  0.71606921215E+01  0.51100000000E-03 0. -1.
        -11    1    3    3    0    0 -0.15881326718E+02  0.55308481996E+01 -0.77643204201E+01  0.18522729064E+02  0.51100000000E-03 0.  1.
         12    1    3    3    0    0 -0.13739399020E+02 -0.76132901292E+01 -0.19250005686E+02  0.24845442055E+02  0.00000000000E+00 0. -1.
</event>
<event>
 7    1  0.2937071E-011  0.5052886E+02  0.7816164E-02  0.1300439E+00
        -11   -1    0    0    0    0  0.00000000000E+00  0.00000000000E+00  0.45593999997E+02  0.45594000000E+02  0.51100000000E-03 0.  1.
         11   -1    0    0    0    0 -0.00000000000E+00 -0.00000000000E+00 -0.45593999997E+02  0.45594000000E+02  0.51100000000E-03 0. -1.
    9900012    2    1    2    0    0  0.10919644322E+02 -0.47799997844E+01 -0.38872595343E+02  0.50528859592E+02  0.29999999215E+02 0.  0.
        -12    1    1    2    0    0 -0.10919644322E+02  0.47799997844E+01  0.38872595343E+02  0.40659140408E+02  0.00000000000E+00 0.  1.
         11    1    3    3    0    0  0.22057999109E+01  0.49577471542E+00  0.15585809273E+01  0.27460008346E+01  0.51100000000E-03 0. -1.
        -11    1    3    3    0    0 -0.22728149299E+01  0.61328786287E+01 -0.31148290763E+01  0.72443114522E+01  0.51100000000E-03 0.  1.
         12    1    3    3    0    0  0.10986659341E+02 -0.11408653129E+02 -0.37316347194E+02  0.40538547305E+02  0.00000000000E+00 0. -1.
</event>
<event>
 7    1  0.2937071E-011  0.5052886E+02  0.7816164E-02  0.1300439E+00
        -11   -1    0    0    0    0  0.00000000000E+00  0.00000000000E+00  0.45593999997E+02  0.45594000000E+02  0.51100000000E-03 0. -1.
         11   -1    0    0    0    0 -0.00000000000E+00 -0.00000000000E+00 -0.45593999997E+02  0.45594000000E+02  0.51100000000E-03 0.  1.
    9900012    2    1    2    0    0 -0.61695419652E+01  0.38505268384E+02 -0.11508534912E+02  0.50528864283E+02  0.30000013475E+02 0.  0.
        -12    1    1    2    0    0  0.61695419652E+01 -0.38505268384E+02  0.11508534912E+02  0.40659135717E+02  0.00000000000E+00 0.  1.
         11    1    3    3    0    0 -0.94126368451E+01  0.23510050264E+02  0.48310484040E+01  0.25780985721E+02  0.51100000000E-03 0. -1.
        -11    1    3    3    0    0  0.17180788997E+01 -0.93604929429E+00 -0.11755858887E+00  0.19600519559E+01  0.51100000000E-03 0.  1.
        -12    1    3    3    0    0  0.15250159802E+01  0.15931267414E+02 -0.16222024727E+02  0.22787826606E+02  0.00000000000E+00 0.  1.
</event>
<event>
 7    1  0.2937071E-011  0.5052888E+02  0.7816164E-02  0.1300439E+00
        -11   -1    0    0    0    0  0.00000000000E+00  0.00000000000E+00  0.45593999997E+02  0.45594000000E+02  0.51100000000E-03 0.  1.
         11   -1    0    0    0    0 -0.00000000000E+00 -0.00000000000E+00 -0.45593999997E+02  0.45594000000E+02  0.51100000000E-03 0. -1.
    9900012    2    1    2    0    0 -0.87596742949E+01 -0.24735800034E+02 -0.31057566849E+02  0.50528878568E+02  0.30000056895E+02 0.  0.
        -12    1    1    2    0    0  0.87596742949E+01  0.24735800034E+02  0.31057566849E+02  0.40659121432E+02  0.00000000000E+00 0.  1.
         11    1    3    3    0    0  0.10967050083E+01 -0.11755343905E+02 -0.17230135724E+02  0.20887040229E+02  0.51100000000E-03 0. -1.
        -11    1    3    3    0    0 -0.15140556346E+01 -0.16824395714E+02 -0.10404176520E+02  0.19839343360E+02  0.51100000000E-03 0.  1.
        -12    1    3    3    0    0 -0.83423236686E+01  0.38439395855E+01 -0.34232546050E+01  0.98024949793E+01  0.00000000000E+00 0.  1.
</event>
<event>
 7    1  0.2937071E-011  0.5052889E+02  0.7816164E-02  0.1300439E+00
        -11   -1    0    0    0    0  0.00000000000E+00  0.00000000000E+00  0.45593999997E+02  0.45594000000E+02  0.51100000000E-03 0.  1.
         11   -1    0    0    0    0 -0.00000000000E+00 -0.00000000000E+00 -0.45593999997E+02  0.45594000000E+02  0.51100000000E-03 0. -1.
    9900012    2    1    2    0    0 -0.19130706859E+00 -0.38478600662E+02 -0.13134850174E+02  0.50528885445E+02  0.30000077800E+02 0.  0.
        -12    1    1    2    0    0  0.19130706859E+00  0.38478600662E+02  0.13134850174E+02  0.40659114555E+02  0.00000000000E+00 0.  1.
         11    1    3    3    0    0  0.66876432177E+00  0.34136285132E+00 -0.12032613703E+01  0.14183132590E+01  0.51100000000E-03 0. -1.
        -11    1    3    3    0    0  0.17970556526E+01 -0.10691196290E+00  0.60720814697E+01  0.63333255737E+01  0.51100000000E-03 0.  1.
         12    1    3    3    0    0 -0.26571270430E+01 -0.38713051550E+02 -0.18003670273E+02  0.42777246613E+02  0.00000000000E+00 0. -1.
</event>
<event>
 7    1  0.2937071E-011  0.5052887E+02  0.7816164E-02  0.1300439E+00
        -11   -1    0    0    0    0  0.00000000000E+00  0.00000000000E+00  0.45593999997E+02  0.45594000000E+02  0.51100000000E-03 0.  1.
         11   -1    0    0    0    0 -0.00000000000E+00 -0.00000000000E+00 -0.45593999997E+02  0.45594000000E+02  0.51100000000E-03 0. -1.
    9900012    2    1    2    0    0 -0.31021207651E+02 -0.26277505116E+02  0.58517405910E+00  0.50528867841E+02  0.30000024289E+02 0.  0.
        -12    1    1    2    0    0  0.31021207651E+02  0.26277505116E+02 -0.58517405910E+00  0.40659132159E+02  0.00000000000E+00 0.  1.
         11    1    3    3    0    0 -0.20443736554E+01 -0.53086705792E+01 -0.16732906397E+01  0.59297005648E+01  0.51100000000E-03 0. -1.
        -11    1    3    3    0    0  0.16855815456E+01  0.42724502551E+01 -0.11595489661E+01  0.47370423679E+01  0.51100000000E-03 0.  1.
         12    1    3    3    0    0 -0.30662415541E+02 -0.25241284792E+02  0.34180136650E+01  0.39862124908E+02  0.00000000000E+00 0. -1.
</event>
<event>
 7    1  0.2937071E-011  0.5052885E+02  0.7816164E-02  0.1300439E+00
        -11   -1    0    0    0    0  0.00000000000E+00  0.00000000000E+00  0.45593999997E+02  0.45594000000E+02  0.51100000000E-03 0. -1.
         11   -1    0    0    0    0 -0.00000000000E+00 -0.00000000000E+00 -0.45593999997E+02  0.45594000000E+02  0.51100000000E-03 0.  1.
    9900012    2    1    2    0    0  0.39418944549E+02 -0.67103831128E+01  0.73677904312E+01  0.50528846458E+02  0.29999959294E+02 0.  0.
        -12    1    1    2    0    0 -0.39418944549E+02  0.67103831128E+01 -0.73677904312E+01  0.40659153542E+02  0.00000000000E+00 0.  1.
         11    1    3    3    0    0  0.20153093566E+02 -0.12646444440E+02  0.35035424041E+01  0.24049003034E+02  0.51100000000E-03 0. -1.
        -11    1    3    3    0    0  0.10760020485E+01 -0.44535320312E+01 -0.15619073789E+01  0.48405870390E+01  0.51100000000E-03 0.  1.
         12    1    3    3    0    0  0.18189848935E+02  0.10389593359E+02  0.54261554060E+01  0.21639256385E+02  0.00000000000E+00 0. -1.
</event>
<event>
 7    1  0.2937071E-011  0.5052886E+02  0.7816164E-02  0.1300439E+00
        -11   -1    0    0    0    0  0.00000000000E+00  0.00000000000E+00  0.45593999997E+02  0.45594000000E+02  0.51100000000E-03 0. -1.
         11   -1    0    0    0    0 -0.00000000000E+00 -0.00000000000E+00 -0.45593999997E+02  0.45594000000E+02  0.51100000000E-03 0.  1.
    9900012    2    1    2    0    0 -0.24063706736E+02 -0.26707248519E+02  0.18995435753E+02  0.50528859763E+02  0.29999999737E+02 0.  0.
        -12    1    1    2    0    0  0.24063706736E+02  0.26707248519E+02 -0.18995435753E+02  0.40659140237E+02  0.00000000000E+00 0.  1.
         11    1    3    3    0    0 -0.14064582642E+01 -0.54271418999E+01  0.13655863086E+02  0.14761930461E+02  0.51100000000E-03 0. -1.
        -11    1    3    3    0    0  0.25514388025E+01 -0.24521111715E+01  0.21528419723E+01  0.41421513709E+01  0.51100000000E-03 0.  1.
        -12    1    3    3    0    0 -0.25208687275E+02 -0.18827995447E+02  0.31867306944E+01  0.31624777931E+02  0.00000000000E+00 0.  1.
</event>
<event>
 7    1  0.2937071E-011  0.5052887E+02  0.7816164E-02  0.1300439E+00
        -11   -1    0    0    0    0  0.00000000000E+00  0.00000000000E+00  0.45593999997E+02  0.45594000000E+02  0.51100000000E-03 0.  1.
         11   -1    0    0    0    0 -0.00000000000E+00 -0.00000000000E+00 -0.45593999997E+02  0.45594000000E+02  0.51100000000E-03 0. -1.
    9900012    2    1    2    0    0  0.80615505939E+01  0.39464255622E+02  0.55451909035E+01  0.50528865578E+02  0.30000017412E+02 0.  0.
        -12    1    1    2    0    0 -0.80615505939E+01 -0.39464255622E+02 -0.55451909035E+01  0.40659134422E+02  0.00000000000E+00 0.  1.
         11    1    3    3    0    0 -0.29433871180E+01  0.19024987340E+02  0.48902216361E+01  0.19862727379E+02  0.51100000000E-03 0. -1.
        -11    1    3    3    0    0 -0.53677811139E+01  0.70988310876E+01 -0.26582910770E+01  0.92883253931E+01  0.51100000000E-03 0.  1.
         12    1    3    3    0    0  0.16372718826E+02  0.13340437194E+02  0.33132603444E+01  0.21377812807E+02  0.00000000000E+00 0. -1.
</event>
<event>
 7    1  0.2937071E-011  0.5052889E+02  0.7816164E-02  0.1300439E+00
        -11   -1    0    0    0    0  0.00000000000E+00  0.00000000000E+00  0.45593999997E+02  0.45594000000E+02  0.51100000000E-03 0.  1.
         11   -1    0    0    0    0 -0.00000000000E+00 -0.00000000000E+00 -0.45593999997E+02  0.45594000000E+02  0.51100000000E-03 0. -1.
    9900012    2    1    2    0    0 -0.27402822333E+02  0.99655046640E+01 -0.28336151333E+02  0.50528887524E+02  0.30000084117E+02 0.  0.
        -12    1    1    2    0    0  0.27402822333E+02 -0.99655046640E+01  0.28336151333E+02  0.40659112476E+02  0.00000000000E+00 0.  1.
         11    1    3    3    0    0 -0.15275188381E+01 -0.47894682494E+01  0.18220970361E+00  0.50304592783E+01  0.51100000000E-03 0. -1.
        -11    1    3    3    0    0 -0.14294207330E+02  0.99742504815E+01 -0.27971097068E+02  0.32957431746E+02  0.51100000000E-03 0.  1.
         12    1    3    3    0    0 -0.11581096165E+02  0.47807224319E+01 -0.54726396824E+00  0.12540996500E+02  0.00000000000E+00 0. -1.
</event>
<event>
 7    1  0.2937071E-011  0.5052886E+02  0.7816164E-02  0.1300439E+00
        -11   -1    0    0    0    0  0.00000000000E+00  0.00000000000E+00  0.45593999997E+02  0.45594000000E+02  0.51100000000E-03 0.  1.
         11   -1    0    0    0    0 -0.00000000000E+00 -0.00000000000E+00 -0.45593999997E+02  0.45594000000E+02  0.51100000000E-03 0. -1.
    9900012    2    1    2    0    0 -0.19139722603E+02  0.34300768399E+02 -0.10502086426E+02  0.50528861871E+02  0.30000006143E+02 0.  0.
        -12    1    1    2    0    0  0.19139722603E+02 -0.34300768399E+02  0.10502086426E+02  0.40659138129E+02  0.00000000000E+00 0.  1.
         11    1    3    3    0    0 -0.12562844699E+02  0.24070668695E+02 -0.44093218801E+00  0.27155415295E+02  0.51100000000E-03 0. -1.
        -11    1    3    3    0    0 -0.25263943961E+01 -0.42347409451E+01  0.57982280186E+00  0.49650673973E+01  0.51100000000E-03 0.  1.
         12    1    3    3    0    0 -0.40504835081E+01  0.14464840649E+02 -0.10640977039E+02  0.18408379179E+02  0.00000000000E+00 0. -1.
</event>
<event>
 7    1  0.2937071E-011  0.5052885E+02  0.7816164E-02  0.1300439E+00
        -11   -1    0    0    0    0  0.00000000000E+00  0.00000000000E+00  0.45593999997E+02  0.45594000000E+02  0.51100000000E-03 0. -1.
         11   -1    0    0    0    0 -0.00000000000E+00 -0.00000000000E+00 -0.45593999997E+02  0.45594000000E+02  0.51100000000E-03 0.  1.
    9900012    2    1    2    0    0 -0.66256629809E+01 -0.12122871017E+02  0.38240075363E+02  0.50528846352E+02  0.29999958972E+02 0.  0.
        -12    1    1    2    0    0  0.66256629809E+01  0.12122871017E+02 -0.38240075363E+02  0.40659153648E+02  0.00000000000E+00 0.  1.
         11    1    3    3    0    0 -0.51481430678E+01  0.67236147038E+01  0.21684497486E+02  0.23279342843E+02  0.51100000000E-03 0. -1.
        -11    1    3    3    0    0 -0.55385625020E+00  0.12622151733E+01  0.19108123899E+01  0.23560874644E+01  0.51100000000E-03 0.  1.
        -12    1    3    3    0    0 -0.92366366287E+00 -0.20108700894E+02  0.14644765487E+02  0.24893416044E+02  0.00000000000E+00 0.  1.
</event>
<event>
 7    1  0.2937071E-011  0.5052885E+02  0.7816164E-02  0.1300439E+00
        -11   -1    0    0    0    0  0.00000000000E+00  0.00000000000E+00  0.45593999997E+02  0.45594000000E+02  0.51100000000E-03 0. -1.
         11   -1    0    0    0    0 -0.00000000000E+00 -0.00000000000E+00 -0.45593999997E+02  0.45594000000E+02  0.51100000000E-03 0.  1.
    9900012    2    1    2    0    0 -0.24251704403E+02 -0.32230821348E+02  0.51181117272E+01  0.50528854917E+02  0.29999985006E+02 0.  0.
        -12    1    1    2    0    0  0.24251704403E+02  0.32230821348E+02 -0.51181117272E+01  0.40659145083E+02  0.00000000000E+00 0.  1.
         11    1    3    3    0    0 -0.69346033323E+00 -0.35380617252E+01  0.54242798150E+01  0.65131850717E+01  0.51100000000E-03 0. -1.
        -11    1    3    3    0    0 -0.22589991263E+01 -0.19708866704E+02  0.46461929935E+01  0.20374729775E+02  0.51100000000E-03 0.  1.
        -12    1    3    3    0    0 -0.21299244944E+02 -0.89838929190E+01 -0.49523610813E+01  0.23640940071E+02  0.00000000000E+00 0.  1.
</event>
<event>
 7    1  0.2937071E-011  0.5052889E+02  0.7816164E-02  0.1300439E+00
        -11   -1    0    0    0    0  0.00000000000E+00  0.00000000000E+00  0.45593999997E+02  0.45594000000E+02  0.51100000000E-03 0.  1.
         11   -1    0    0    0    0 -0.00000000000E+00 -0.00000000000E+00 -0.45593999997E+02  0.45594000000E+02  0.51100000000E-03 0. -1.
    9900012    2    1    2    0    0 -0.56811167791E+01 -0.16146163733E+02 -0.36880748465E+02  0.50528889109E+02  0.30000088935E+02 0.  0.
        -12    1    1    2    0    0  0.56811167791E+01  0.16146163733E+02  0.36880748465E+02  0.40659110891E+02  0.00000000000E+00 0.  1.
         11    1    3    3    0    0 -0.31235119235E+00  0.75262166625E+01 -0.10382887985E+02  0.12827543166E+02  0.51100000000E-03 0. -1.
        -11    1    3    3    0    0 -0.40136120358E+00 -0.22205527707E+00  0.10731492061E+01  0.11670684819E+01  0.51100000000E-03 0.  1.
         12    1    3    3    0    0 -0.49674043832E+01 -0.23450325118E+02 -0.27571009686E+02  0.36534277460E+02  0.00000000000E+00 0. -1.
</event>
<event>
 7    1  0.2937071E-011  0.5052886E+02  0.7816164E-02  0.1300439E+00
        -11   -1    0    0    0    0  0.00000000000E+00  0.00000000000E+00  0.45593999997E+02  0.45594000000E+02  0.51100000000E-03 0. -1.
         11   -1    0    0    0    0 -0.00000000000E+00 -0.00000000000E+00 -0.45593999997E+02  0.45594000000E+02  0.51100000000E-03 0.  1.
    9900012    2    1    2    0    0  0.38801909977E+02 -0.47215799309E+00  0.12138969331E+02  0.50528859239E+02  0.29999998142E+02 0.  0.
        -12    1    1    2    0    0 -0.38801909977E+02  0.47215799309E+00 -0.12138969331E+02  0.40659140761E+02  0.00000000000E+00 0.  1.
         11    1    3    3    0    0  0.17666687285E+02  0.31797122324E+01  0.16809893031E+02  0.24592578423E+02  0.51100000000E-03 0. -1.
        -11    1    3    3    0    0 -0.71542820137E+00 -0.35219469825E+01 -0.11047387553E-01  0.35938934827E+01  0.51100000000E-03 0.  1.
        -12    1    3    3    0    0  0.21850650893E+02 -0.12992324296E+00 -0.46598763122E+01  0.22342387333E+02  0.00000000000E+00 0.  1.
</event>
<event>
 7    1  0.2937071E-011  0.5052885E+02  0.7816164E-02  0.1300439E+00
        -11   -1    0    0    0    0  0.00000000000E+00  0.00000000000E+00  0.45593999997E+02  0.45594000000E+02  0.51100000000E-03 0.  1.
         11   -1    0    0    0    0 -0.00000000000E+00 -0.00000000000E+00 -0.45593999997E+02  0.45594000000E+02  0.51100000000E-03 0. -1.
    9900012    2    1    2    0    0 -0.16126472276E+02  0.26732209824E+02  0.26047880413E+02  0.50528853131E+02  0.29999979576E+02 0.  0.
        -12    1    1    2    0    0  0.16126472276E+02 -0.26732209824E+02 -0.26047880413E+02  0.40659146869E+02  0.00000000000E+00 0.  1.
         11    1    3    3    0    0 -0.46240729375E+01  0.56675972071E+01 -0.16953930285E+01  0.75085329069E+01  0.51100000000E-03 0. -1.
        -11    1    3    3    0    0 -0.15460436880E+02  0.52089643034E+01  0.16360344231E+02  0.23104529453E+02  0.51100000000E-03 0.  1.
        -12    1    3    3    0    0  0.39580375410E+01  0.15855648313E+02  0.11382929210E+02  0.19915790771E+02  0.00000000000E+00 0.  1.
</event>
<event>
 7    1  0.2937071E-011  0.5052886E+02  0.7816164E-02  0.1300439E+00
        -11   -1    0    0    0    0  0.00000000000E+00  0.00000000000E+00  0.45593999997E+02  0.45594000000E+02  0.51100000000E-03 0.  1.
         11   -1    0    0    0    0 -0.00000000000E+00 -0.00000000000E+00 -0.45593999997E+02  0.45594000000E+02  0.51100000000E-03 0. -1.
    9900012    2    1    2    0    0 -0.23203477063E+02  0.97330957897E+01 -0.31937925857E+02  0.50528860689E+02  0.30000002550E+02 0.  0.
        -12    1    1    2    0    0  0.23203477063E+02 -0.97330957897E+01  0.31937925857E+02  0.40659139311E+02  0.00000000000E+00 0.  1.
         11    1    3    3    0    0 -0.18223070463E+02  0.51140178333E+01 -0.65068932719E+01  0.20014323267E+02  0.51100000000E-03 0. -1.
        -11    1    3    3    0    0 -0.93958378187E+01  0.13600926676E+01 -0.85943255296E+01  0.12806016240E+02  0.51100000000E-03 0.  1.
        -12    1    3    3    0    0  0.44154312190E+01  0.32589852888E+01 -0.16836707056E+02  0.17708521182E+02  0.00000000000E+00 0.  1.
</event>
<event>
 7    1  0.2937071E-011  0.5052884E+02  0.7816164E-02  0.1300439E+00
        -11   -1    0    0    0    0  0.00000000000E+00  0.00000000000E+00  0.45593999997E+02  0.45594000000E+02  0.51100000000E-03 0. -1.
         11   -1    0    0    0    0 -0.00000000000E+00 -0.00000000000E+00 -0.45593999997E+02  0.45594000000E+02  0.51100000000E-03 0.  1.
    9900012    2    1    2    0    0  0.21367784627E+01 -0.11708903268E+02  0.38878049489E+02  0.50528843959E+02  0.29999951698E+02 0.  0.
        -12    1    1    2    0    0 -0.21367784627E+01  0.11708903268E+02 -0.38878049489E+02  0.40659156041E+02  0.00000000000E+00 0.  1.
         11    1    3    3    0    0  0.21482676225E+01  0.72963599281E+00  0.29518760599E+02  0.29605821219E+02  0.51100000000E-03 0. -1.
        -11    1    3    3    0    0 -0.20832185506E+01  0.24389917729E+01  0.36358307542E+01  0.48484787235E+01  0.51100000000E-03 0.  1.
         12    1    3    3    0    0  0.20717293908E+01 -0.14877531033E+02  0.57234581351E+01  0.16074544017E+02  0.00000000000E+00 0. -1.
</event>
<event>
 7    1  0.2937071E-011  0.5052886E+02  0.7816164E-02  0.1300439E+00
        -11   -1    0    0    0    0  0.00000000000E+00  0.00000000000E+00  0.45593999997E+02  0.45594000000E+02  0.51100000000E-03 0.  1.
         11   -1    0    0    0    0 -0.00000000000E+00 -0.00000000000E+00 -0.45593999997E+02  0.45594000000E+02  0.51100000000E-03 0. -1.
    9900012    2    1    2    0    0  0.94434984157E+01 -0.39477473903E+02 -0.23484051119E+01  0.50528860626E+02  0.30000002359E+02 0.  0.
        -12    1    1    2    0    0 -0.94434984157E+01  0.39477473903E+02  0.23484051119E+01  0.40659139374E+02  0.00000000000E+00 0.  1.
         11    1    3    3    0    0 -0.10238590103E+01 -0.98980120700E+01 -0.11878518311E+02  0.15495745472E+02  0.51100000000E-03 0. -1.
        -11    1    3    3    0    0  0.20023499684E+00 -0.66006918181E+00 -0.21038215010E+01  0.22140123188E+01  0.51100000000E-03 0.  1.
        -12    1    3    3    0    0  0.10267122429E+02 -0.28919392651E+02  0.11633934700E+02  0.32819102835E+02  0.00000000000E+00 0.  1.
</event>
<event>
 7    1  0.2937071E-011  0.5052885E+02  0.7816164E-02  0.1300439E+00
        -11   -1    0    0    0    0  0.00000000000E+00  0.00000000000E+00  0.45593999997E+02  0.45594000000E+02  0.51100000000E-03 0.  1.
         11   -1    0    0    0    0 -0.00000000000E+00 -0.00000000000E+00 -0.45593999997E+02  0.45594000000E+02  0.51100000000E-03 0. -1.
    9900012    2    1    2    0    0 -0.25558243744E+01 -0.36797805313E+02  0.17104268302E+02  0.50528847178E+02  0.29999961481E+02 0.  0.
        -12    1    1    2    0    0  0.25558243744E+01  0.36797805313E+02 -0.17104268302E+02  0.40659152822E+02  0.00000000000E+00 0.  1.
         11    1    3    3    0    0  0.31013055430E+01  0.16337044288E+00 -0.97523908393E-01  0.31071364866E+01  0.51100000000E-03 0. -1.
        -11    1    3    3    0    0 -0.14334108150E+02 -0.27751796676E+02  0.96752306152E+01  0.32699219607E+02  0.51100000000E-03 0.  1.
         12    1    3    3    0    0  0.86769782322E+01 -0.92093790798E+01  0.75265615949E+01  0.14722491084E+02  0.00000000000E+00 0. -1.
</event>
<event>
 7    1  0.2937071E-011  0.5052886E+02  0.7816164E-02  0.1300439E+00
        -11   -1    0    0    0    0  0.00000000000E+00  0.00000000000E+00  0.45593999997E+02  0.45594000000E+02  0.51100000000E-03 0.  1.
         11   -1    0    0    0    0 -0.00000000000E+00 -0.00000000000E+00 -0.45593999997E+02  0.45594000000E+02  0.51100000000E-03 0. -1.
    9900012    2    1    2    0    0 -0.80551382327E+01  0.37516264062E+02 -0.13446578417E+02  0.50528858441E+02  0.29999995719E+02 0.  0.
        -12    1    1    2    0    0  0.80551382327E+01 -0.37516264062E+02  0.13446578417E+02  0.40659141559E+02  0.00000000000E+00 0.  1.
         11    1    3    3    0    0 -0.44481864599E+01  0.33923591108E+02 -0.19013395781E+00  0.34214507853E+02  0.51100000000E-03 0. -1.
        -11    1    3    3    0    0  0.10555817776E+01  0.13807940900E+01  0.34042953409E+00  0.17710837747E+01  0.51100000000E-03 0.  1.
        -12    1    3    3    0    0 -0.46625335504E+01  0.22118788644E+01 -0.13596873994E+02  0.14543266814E+02  0.00000000000E+00 0.  1.
</event>
<event>
 7    1  0.2937071E-011  0.5052886E+02  0.7816164E-02  0.1300439E+00
        -11   -1    0    0    0    0  0.00000000000E+00  0.00000000000E+00  0.45593999997E+02  0.45594000000E+02  0.51100000000E-03 0. -1.
         11   -1    0    0    0    0 -0.00000000000E+00 -0.00000000000E+00 -0.45593999997E+02  0.45594000000E+02  0.51100000000E-03 0.  1.
    9900012    2    1    2    0    0  0.34569930609E+02 -0.15755993350E+02  0.14485660068E+02  0.50528858637E+02  0.29999996314E+02 0.  0.
        -12    1    1    2    0    0 -0.34569930609E+02  0.15755993350E+02 -0.14485660068E+02  0.40659141363E+02  0.00000000000E+00 0.  1.
         11    1    3    3    0    0  0.74539392690E+01 -0.33794097000E+01  0.10465588545E+02  0.13285712792E+02  0.51100000000E-03 0. -1.
        -11    1    3    3    0    0  0.30310021214E+02 -0.77331929080E+01  0.23696779563E+01  0.31370607779E+02  0.51100000000E-03 0.  1.
        -12    1    3    3    0    0 -0.31940298736E+01 -0.46433907417E+01  0.16503935665E+01  0.58725380661E+01  0.00000000000E+00 0.  1.
</event>
<event>
 7    1  0.2937071E-011  0.5052883E+02  0.7816164E-02  0.1300439E+00
        -11   -1    0    0    0    0  0.00000000000E+00  0.00000000000E+00  0.45593999997E+02  0.45594000000E+02  0.51100000000E-03 0.  1.
         11   -1    0    0    0    0 -0.00000000000E+00 -0.00000000000E+00 -0.45593999997E+02  0.45594000000E+02  0.51100000000E-03 0. -1.
    9900012    2    1    2    0    0 -0.73486087753E+01 -0.39989568839E+02  0.95628245362E-02  0.50528834265E+02  0.29999922231E+02 0.  0.
        -12    1    1    2    0    0  0.73486087753E+01  0.39989568839E+02 -0.95628245362E-02  0.40659165735E+02  0.00000000000E+00 0.  1.
         11    1    3    3    0    0  0.52916139512E+00 -0.53397098873E+01 -0.78599111161E+00  0.54231260129E+01  0.51100000000E-03 0. -1.
        -11    1    3    3    0    0 -0.17691725812E+02 -0.15430396649E+02  0.14002405893E+01  0.23517120932E+02  0.51100000000E-03 0.  1.
        -12    1    3    3    0    0  0.98139556414E+01 -0.19219462303E+02 -0.60468665319E+00  0.21588587320E+02  0.00000000000E+00 0.  1.
</event>
<event>
 7    1  0.3144081E-011  0.5052886E+02  0.7816164E-02  0.1300439E+00
        -11   -1    0    0    0    0  0.00000000000E+00  0.00000000000E+00  0.45593999997E+02  0.45594000000E+02  0.51100000000E-03 0. -1.
         11   -1    0    0    0    0 -0.00000000000E+00 -0.00000000000E+00 -0.45593999997E+02  0.45594000000E+02  0.51100000000E-03 0.  1.
    9900012    2    1    2    0    0  0.17275936713E+02 -0.23354488023E+02  0.28447762627E+02  0.50528864512E+02  0.30000014171E+02 0.  0.
        -12    1    1    2    0    0 -0.17275936713E+02  0.23354488023E+02 -0.28447762627E+02  0.40659135488E+02  0.00000000000E+00 0.  1.
         11    1    3    3    0    0  0.18476622381E+02 -0.79337677512E+01  0.15852975540E+02  0.25605606399E+02  0.51100000000E-03 0. -1.
        -11    1    3    3    0    0  0.46337938359E+01 -0.33358740277E+01 -0.10273636028E+01  0.58013426959E+01  0.51100000000E-03 0.  1.
        -12    1    3    3    0    0 -0.58344795032E+01 -0.12084846244E+02  0.13622150690E+02  0.19121915417E+02  0.00000000000E+00 0.  1.
</event>
<event>
 7    1  0.2937071E-011  0.5052885E+02  0.7816164E-02  0.1300439E+00
        -11   -1    0    0    0    0  0.00000000000E+00  0.00000000000E+00  0.45593999997E+02  0.45594000000E+02  0.51100000000E-03 0. -1.
         11   -1    0    0    0    0 -0.00000000000E+00 -0.00000000000E+00 -0.45593999997E+02  0.45594000000E+02  0.51100000000E-03 0.  1.
    9900012    2    1    2    0    0  0.19339586369E+02  0.21895911933E+02  0.28279253434E+02  0.50528846848E+02  0.29999960479E+02 0.  0.
        -12    1    1    2    0    0 -0.19339586369E+02 -0.21895911933E+02 -0.28279253434E+02  0.40659153152E+02  0.00000000000E+00 0.  1.
         11    1    3    3    0    0  0.47619827542E+01  0.19293511435E+02  0.20906729886E+02  0.28844538791E+02  0.51100000000E-03 0. -1.
        -11    1    3    3    0    0  0.45249898637E+00 -0.44549049345E+01  0.65782000296E+00  0.45258878383E+01  0.51100000000E-03 0.  1.
        -12    1    3    3    0    0  0.14125104628E+02  0.70573054319E+01  0.67147035447E+01  0.17158420219E+02  0.00000000000E+00 0.  1.
</event>
<event>
 7    1  0.2937071E-011  0.5052886E+02  0.7816164E-02  0.1300439E+00
        -11   -1    0    0    0    0  0.00000000000E+00  0.00000000000E+00  0.45593999997E+02  0.45594000000E+02  0.51100000000E-03 0. -1.
         11   -1    0    0    0    0 -0.00000000000E+00 -0.00000000000E+00 -0.45593999997E+02  0.45594000000E+02  0.51100000000E-03 0.  1.
    9900012    2    1    2    0    0 -0.25232294670E+02 -0.95169259437E+01  0.30429017227E+02  0.50528860029E+02  0.30000000545E+02 0.  0.
        -12    1    1    2    0    0  0.25232294670E+02  0.95169259437E+01 -0.30429017227E+02  0.40659139971E+02  0.00000000000E+00 0.  1.
         11    1    3    3    0    0 -0.40693921031E+01 -0.71082250637E+01  0.18245893648E+02  0.19999986273E+02  0.51100000000E-03 0. -1.
        -11    1    3    3    0    0 -0.68020050148E+01  0.77530726445E+01  0.56676310558E+01  0.11768578916E+02  0.51100000000E-03 0.  1.
        -12    1    3    3    0    0 -0.14360897553E+02 -0.10161773525E+02  0.65154925228E+01  0.18760294840E+02  0.00000000000E+00 0.  1.
</event>
<event>
 7    1  0.2937071E-011  0.5052891E+02  0.7816164E-02  0.1300439E+00
        -11   -1    0    0    0    0  0.00000000000E+00  0.00000000000E+00  0.45593999997E+02  0.45594000000E+02  0.51100000000E-03 0.  1.
         11   -1    0    0    0    0 -0.00000000000E+00 -0.00000000000E+00 -0.45593999997E+02  0.45594000000E+02  0.51100000000E-03 0. -1.
    9900012    2    1    2    0    0  0.98640758169E+01 -0.30537016040E+02 -0.24967028355E+02  0.50528906980E+02  0.30000143256E+02 0.  0.
        -12    1    1    2    0    0 -0.98640758169E+01  0.30537016040E+02  0.24967028355E+02  0.40659093020E+02  0.00000000000E+00 0.  1.
         11    1    3    3    0    0  0.52798977559E+01 -0.73230926612E+00 -0.74441186917E+01  0.91557905465E+01  0.51100000000E-03 0. -1.
        -11    1    3    3    0    0  0.12168959232E+02 -0.85224342766E+01 -0.61560941738E+01  0.16081447402E+02  0.51100000000E-03 0.  1.
        -12    1    3    3    0    0 -0.75847811710E+01 -0.21282272497E+02 -0.11366815490E+02  0.25291669032E+02  0.00000000000E+00 0.  1.
</event>
<event>
 7    1  0.2937071E-011  0.5052885E+02  0.7816164E-02  0.1300439E+00
        -11   -1    0    0    0    0  0.00000000000E+00  0.00000000000E+00  0.45593999997E+02  0.45594000000E+02  0.51100000000E-03 0.  1.
         11   -1    0    0    0    0 -0.00000000000E+00 -0.00000000000E+00 -0.45593999997E+02  0.45594000000E+02  0.51100000000E-03 0. -1.
    9900012    2    1    2    0    0 -0.21111193238E+02 -0.31900747695E+02 -0.13777759237E+02  0.50528845643E+02  0.29999956815E+02 0.  0.
        -12    1    1    2    0    0  0.21111193238E+02  0.31900747695E+02  0.13777759237E+02  0.40659154357E+02  0.00000000000E+00 0.  1.
         11    1    3    3    0    0 -0.16092340347E+02 -0.91914938426E+01 -0.24211818368E+01  0.18689812697E+02  0.51100000000E-03 0. -1.
        -11    1    3    3    0    0 -0.93412445568E+01 -0.23351651205E+02 -0.11011288534E+02  0.27455544783E+02  0.51100000000E-03 0.  1.
        -12    1    3    3    0    0  0.43223916658E+01  0.64239735236E+00 -0.34528886611E+00  0.43834881627E+01  0.00000000000E+00 0.  1.
</event>
<event>
 7    1  0.2937071E-011  0.5052883E+02  0.7816164E-02  0.1300439E+00
        -11   -1    0    0    0    0  0.00000000000E+00  0.00000000000E+00  0.45593999997E+02  0.45594000000E+02  0.51100000000E-03 0.  1.
         11   -1    0    0    0    0 -0.00000000000E+00 -0.00000000000E+00 -0.45593999997E+02  0.45594000000E+02  0.51100000000E-03 0. -1.
    9900012    2    1    2    0    0  0.26798358434E+02  0.28877883680E+01 -0.30441364739E+02  0.50528831002E+02  0.29999912313E+02 0.  0.
        -12    1    1    2    0    0 -0.26798358434E+02 -0.28877883680E+01  0.30441364739E+02  0.40659168998E+02  0.00000000000E+00 0.  1.
         11    1    3    3    0    0  0.82437423452E+00 -0.57860463117E+01 -0.76086208174E+01  0.95942188740E+01  0.51100000000E-03 0. -1.
        -11    1    3    3    0    0  0.27306076477E+01 -0.30668417041E+01  0.23316559563E+01  0.47221135017E+01  0.51100000000E-03 0.  1.
         12    1    3    3    0    0  0.23243376552E+02  0.11740676384E+02 -0.25164399878E+02  0.36212498626E+02  0.00000000000E+00 0. -1.
</event>
<event>
 7    1  0.2937071E-011  0.5052883E+02  0.7816164E-02  0.1300439E+00
        -11   -1    0    0    0    0  0.00000000000E+00  0.00000000000E+00  0.45593999997E+02  0.45594000000E+02  0.51100000000E-03 0.  1.
         11   -1    0    0    0    0 -0.00000000000E+00 -0.00000000000E+00 -0.45593999997E+02  0.45594000000E+02  0.51100000000E-03 0. -1.
    9900012    2    1    2    0    0 -0.38472619420E+02  0.21492031892E+01 -0.12977157659E+02  0.50528829567E+02  0.29999907952E+02 0.  0.
        -12    1    1    2    0    0  0.38472619420E+02 -0.21492031892E+01  0.12977157659E+02  0.40659170433E+02  0.00000000000E+00 0.  1.
         11    1    3    3    0    0 -0.31084222427E+02 -0.94974156220E+01 -0.93127447644E+01  0.33810604885E+02  0.51100000000E-03 0. -1.
        -11    1    3    3    0    0 -0.77056491677E+01  0.50522928127E+01 -0.98502761813E-01  0.92147921743E+01  0.51100000000E-03 0.  1.
        -12    1    3    3    0    0  0.31725217482E+00  0.65943259985E+01 -0.35659101326E+01  0.75034325072E+01  0.00000000000E+00 0.  1.
</event>
<event>
 7    1  0.2937071E-011  0.5052883E+02  0.7816164E-02  0.1300439E+00
        -11   -1    0    0    0    0  0.00000000000E+00  0.00000000000E+00  0.45593999997E+02  0.45594000000E+02  0.51100000000E-03 0.  1.
         11   -1    0    0    0    0 -0.00000000000E+00 -0.00000000000E+00 -0.45593999997E+02  0.45594000000E+02  0.51100000000E-03 0. -1.
    9900012    2    1    2    0    0 -0.13038005176E+02 -0.18168193075E+02 -0.33957255683E+02  0.50528830898E+02  0.29999911997E+02 0.  0.
        -12    1    1    2    0    0  0.13038005176E+02  0.18168193075E+02  0.33957255683E+02  0.40659169102E+02  0.00000000000E+00 0.  1.
         11    1    3    3    0    0 -0.71071659050E+01 -0.98062508537E+01 -0.31096951088E+01  0.12503782105E+02  0.51100000000E-03 0. -1.
        -11    1    3    3    0    0  0.17697496647E+01 -0.12231591524E+00  0.23612994863E+01  0.29534235362E+01  0.51100000000E-03 0.  1.
        -12    1    3    3    0    0 -0.77005889361E+01 -0.82396263058E+01 -0.33208860060E+02  0.35071625256E+02  0.00000000000E+00 0.  1.
</event>
<event>
 7    1  0.2937071E-011  0.5052886E+02  0.7816164E-02  0.1300439E+00
        -11   -1    0    0    0    0  0.00000000000E+00  0.00000000000E+00  0.45593999997E+02  0.45594000000E+02  0.51100000000E-03 0.  1.
         11   -1    0    0    0    0 -0.00000000000E+00 -0.00000000000E+00 -0.45593999997E+02  0.45594000000E+02  0.51100000000E-03 0. -1.
    9900012    2    1    2    0    0  0.38133677811E+02 -0.88664305023E+01 -0.10971541577E+02  0.50528859603E+02  0.29999999248E+02 0.  0.
        -12    1    1    2    0    0 -0.38133677811E+02  0.88664305023E+01  0.10971541577E+02  0.40659140397E+02  0.00000000000E+00 0.  1.
         11    1    3    3    0    0  0.20315744877E+02  0.66796220029E+01 -0.15997784793E+01  0.21445422156E+02  0.51100000000E-03 0. -1.
        -11    1    3    3    0    0  0.93015985561E+00  0.70524354792E+00  0.25381870289E+01  0.27937357558E+01  0.51100000000E-03 0.  1.
         12    1    3    3    0    0  0.16887773078E+02 -0.16251296053E+02 -0.11909950126E+02  0.26289701690E+02  0.00000000000E+00 0. -1.
</event>
<event>
 7    1  0.2937071E-011  0.5052886E+02  0.7816164E-02  0.1300439E+00
        -11   -1    0    0    0    0  0.00000000000E+00  0.00000000000E+00  0.45593999997E+02  0.45594000000E+02  0.51100000000E-03 0.  1.
         11   -1    0    0    0    0 -0.00000000000E+00 -0.00000000000E+00 -0.45593999997E+02  0.45594000000E+02  0.51100000000E-03 0. -1.
    9900012    2    1    2    0    0 -0.19622198795E+02 -0.29225848116E+02  0.20346616588E+02  0.50528859697E+02  0.29999999535E+02 0.  0.
        -12    1    1    2    0    0  0.19622198795E+02  0.29225848116E+02 -0.20346616588E+02  0.40659140303E+02  0.00000000000E+00 0.  1.
         11    1    3    3    0    0 -0.95838384336E+01 -0.51571283315E+01 -0.21389098442E+01  0.11091477238E+02  0.51100000000E-03 0.  1.
        -11    1    3    3    0    0 -0.66818504502E+01  0.40235895508E+00  0.11368971618E+01  0.67898124852E+01  0.51100000000E-03 0. -1.
         12    1    3    3    0    0 -0.33565099112E+01 -0.24471078739E+02  0.21348629270E+02  0.32647569973E+02  0.00000000000E+00 0. -1.
</event>
<event>
 7    1  0.2937071E-011  0.5052884E+02  0.7816164E-02  0.1300439E+00
        -11   -1    0    0    0    0  0.00000000000E+00  0.00000000000E+00  0.45593999997E+02  0.45594000000E+02  0.51100000000E-03 0.  1.
         11   -1    0    0    0    0 -0.00000000000E+00 -0.00000000000E+00 -0.45593999997E+02  0.45594000000E+02  0.51100000000E-03 0. -1.
    9900012    2    1    2    0    0 -0.12206931262E+02 -0.55823037574E+01 -0.38379624985E+02  0.50528844818E+02  0.29999954310E+02 0.  0.
        -12    1    1    2    0    0  0.12206931262E+02  0.55823037574E+01  0.38379624985E+02  0.40659155182E+02  0.00000000000E+00 0.  1.
         11    1    3    3    0    0 -0.87030924539E+01  0.16168593564E+01 -0.36609670125E+01  0.95791822286E+01  0.51100000000E-03 0.  1.
        -11    1    3    3    0    0 -0.68798085521E+01 -0.21185097781E+01 -0.34062048877E+02  0.34814408273E+02  0.51100000000E-03 0. -1.
         12    1    3    3    0    0  0.33759697443E+01 -0.50806533357E+01 -0.65660909523E+00  0.61352543171E+01  0.00000000000E+00 0. -1.
</event>
<event>
 7    1  0.2937071E-011  0.5052885E+02  0.7816164E-02  0.1300439E+00
        -11   -1    0    0    0    0  0.00000000000E+00  0.00000000000E+00  0.45593999997E+02  0.45594000000E+02  0.51100000000E-03 0.  1.
         11   -1    0    0    0    0 -0.00000000000E+00 -0.00000000000E+00 -0.45593999997E+02  0.45594000000E+02  0.51100000000E-03 0. -1.
    9900012    2    1    2    0    0  0.19478572945E+02 -0.28672316032E+02 -0.21252053296E+02  0.50528852445E+02  0.29999977491E+02 0.  0.
        -12    1    1    2    0    0 -0.19478572945E+02  0.28672316032E+02  0.21252053296E+02  0.40659147555E+02  0.00000000000E+00 0.  1.
         11    1    3    3    0    0  0.44943506833E+00 -0.39833157968E+01  0.38665245038E+01  0.55694531704E+01  0.51100000000E-03 0. -1.
        -11    1    3    3    0    0  0.19081050298E+02 -0.12931257277E+02 -0.84266296570E+01  0.24542045205E+02  0.51100000000E-03 0.  1.
         12    1    3    3    0    0 -0.51912420976E-01 -0.11757742958E+02 -0.16691948143E+02  0.20417354069E+02  0.00000000000E+00 0. -1.
</event>
<event>
 7    1  0.2937071E-011  0.5052886E+02  0.7816164E-02  0.1300439E+00
        -11   -1    0    0    0    0  0.00000000000E+00  0.00000000000E+00  0.45593999997E+02  0.45594000000E+02  0.51100000000E-03 0.  1.
         11   -1    0    0    0    0 -0.00000000000E+00 -0.00000000000E+00 -0.45593999997E+02  0.45594000000E+02  0.51100000000E-03 0. -1.
    9900012    2    1    2    0    0  0.13104258899E+02 -0.27237082414E+02 -0.27195314667E+02  0.50528863271E+02  0.30000010397E+02 0.  0.
        -12    1    1    2    0    0 -0.13104258899E+02  0.27237082414E+02  0.27195314667E+02  0.40659136729E+02  0.00000000000E+00 0.  1.
         11    1    3    3    0    0  0.78485425509E+01 -0.62325001898E+01  0.99089662705E-01  0.10022649241E+02  0.51100000000E-03 0. -1.
        -11    1    3    3    0    0  0.67690725077E+01 -0.14242304012E+02 -0.40923066440E+01  0.16291425356E+02  0.51100000000E-03 0.  1.
         12    1    3    3    0    0 -0.15133561591E+01 -0.67622782120E+01 -0.23202097686E+02  0.24214788674E+02  0.00000000000E+00 0. -1.
</event>
<event>
 7    1  0.2937071E-011  0.5052885E+02  0.7816164E-02  0.1300439E+00
        -11   -1    0    0    0    0  0.00000000000E+00  0.00000000000E+00  0.45593999997E+02  0.45594000000E+02  0.51100000000E-03 0.  1.
         11   -1    0    0    0    0 -0.00000000000E+00 -0.00000000000E+00 -0.45593999997E+02  0.45594000000E+02  0.51100000000E-03 0. -1.
    9900012    2    1    2    0    0 -0.28998359243E+01  0.21400503310E+02 -0.34449608348E+02  0.50528854588E+02  0.29999984007E+02 0.  0.
        -12    1    1    2    0    0  0.28998359243E+01 -0.21400503310E+02  0.34449608348E+02  0.40659145412E+02  0.00000000000E+00 0.  1.
         11    1    3    3    0    0 -0.29537251154E+01 -0.34132036599E+00 -0.91455267022E+00  0.31108517318E+01  0.51100000000E-03 0.  1.
        -11    1    3    3    0    0 -0.63858476614E+01 -0.29912129000E+01 -0.12350846729E+02  0.14222159476E+02  0.51100000000E-03 0. -1.
         12    1    3    3    0    0  0.64397368526E+01  0.24733036576E+02 -0.21184208948E+02  0.33195843380E+02  0.00000000000E+00 0. -1.
</event>
<event>
 7    1  0.2937071E-011  0.5052887E+02  0.7816164E-02  0.1300439E+00
        -11   -1    0    0    0    0  0.00000000000E+00  0.00000000000E+00  0.45593999997E+02  0.45594000000E+02  0.51100000000E-03 0. -1.
         11   -1    0    0    0    0 -0.00000000000E+00 -0.00000000000E+00 -0.45593999997E+02  0.45594000000E+02  0.51100000000E-03 0.  1.
    9900012    2    1    2    0    0  0.39390070264E+02 -0.84527628610E+01  0.54898372812E+01  0.50528866355E+02  0.30000019771E+02 0.  0.
        -12    1    1    2    0    0 -0.39390070264E+02  0.84527628610E+01 -0.54898372812E+01  0.40659133645E+02  0.00000000000E+00 0.  1.
         11    1    3    3    0    0  0.13507682585E+02 -0.98298981158E+01  0.21654280054E+01  0.16845577001E+02  0.51100000000E-03 0. -1.
        -11    1    3    3    0    0  0.26840358696E+02 -0.25401824808E+00  0.85141457772E+01  0.28159546494E+02  0.51100000000E-03 0.  1.
        -12    1    3    3    0    0 -0.95797101666E+00  0.16311535029E+01 -0.51897365014E+01  0.55237428591E+01  0.00000000000E+00 0.  1.
</event>
<event>
 7    1  0.2937071E-011  0.5052886E+02  0.7816164E-02  0.1300439E+00
        -11   -1    0    0    0    0  0.00000000000E+00  0.00000000000E+00  0.45593999997E+02  0.45594000000E+02  0.51100000000E-03 0.  1.
         11   -1    0    0    0    0 -0.00000000000E+00 -0.00000000000E+00 -0.45593999997E+02  0.45594000000E+02  0.51100000000E-03 0. -1.
    9900012    2    1    2    0    0  0.29563143603E+02 -0.12776433518E+02  0.24818319217E+02  0.50528859799E+02  0.29999999846E+02 0.  0.
        -12    1    1    2    0    0 -0.29563143603E+02  0.12776433518E+02 -0.24818319217E+02  0.40659140201E+02  0.00000000000E+00 0.  1.
         11    1    3    3    0    0  0.32432019380E+01 -0.54241185842E+01  0.10987234643E+02  0.12675123139E+02  0.51100000000E-03 0. -1.
        -11    1    3    3    0    0  0.15423195367E+01 -0.42482423234E+01  0.11991315481E+02  0.12814755543E+02  0.51100000000E-03 0.  1.
         12    1    3    3    0    0  0.24777622128E+02 -0.31040726103E+01  0.18397690927E+01  0.25038981118E+02  0.00000000000E+00 0. -1.
</event>
<event>
 7    1  0.2937071E-011  0.5052885E+02  0.7816164E-02  0.1300439E+00
        -11   -1    0    0    0    0  0.00000000000E+00  0.00000000000E+00  0.45593999997E+02  0.45594000000E+02  0.51100000000E-03 0. -1.
         11   -1    0    0    0    0 -0.00000000000E+00 -0.00000000000E+00 -0.45593999997E+02  0.45594000000E+02  0.51100000000E-03 0.  1.
    9900012    2    1    2    0    0  0.33609690133E+02  0.19028590978E+02  0.12707008481E+02  0.50528848386E+02  0.29999965155E+02 0.  0.
        -12    1    1    2    0    0 -0.33609690133E+02 -0.19028590978E+02 -0.12707008481E+02  0.40659151614E+02  0.00000000000E+00 0.  1.
         11    1    3    3    0    0  0.85649199085E+01  0.11699861480E+02  0.15609255632E+02  0.21304775834E+02  0.51100000000E-03 0. -1.
        -11    1    3    3    0    0 -0.14127409030E+01 -0.46308286044E+00 -0.33389871517E+00  0.15237359377E+01  0.51100000000E-03 0.  1.
        -12    1    3    3    0    0  0.26457511127E+02  0.77918123579E+01 -0.25683484361E+01  0.27700336614E+02  0.00000000000E+00 0.  1.
</event>
<event>
 7    1  0.2937071E-011  0.5052886E+02  0.7816164E-02  0.1300439E+00
        -11   -1    0    0    0    0  0.00000000000E+00  0.00000000000E+00  0.45593999997E+02  0.45594000000E+02  0.51100000000E-03 0. -1.
         11   -1    0    0    0    0 -0.00000000000E+00 -0.00000000000E+00 -0.45593999997E+02  0.45594000000E+02  0.51100000000E-03 0.  1.
    9900012    2    1    2    0    0  0.39661668615E+02  0.19922699663E+01 -0.87263038026E+01  0.50528862343E+02  0.30000007579E+02 0.  0.
        -12    1    1    2    0    0 -0.39661668615E+02 -0.19922699663E+01  0.87263038026E+01  0.40659137657E+02  0.00000000000E+00 0.  1.
         11    1    3    3    0    0  0.22003587989E+02  0.76728401175E+01 -0.10552284394E+01  0.23326891502E+02  0.51100000000E-03 0. -1.
        -11    1    3    3    0    0 -0.10471422083E+00  0.51963359113E+01 -0.73561696623E+00  0.52491908475E+01  0.51100000000E-03 0.  1.
        -12    1    3    3    0    0  0.17762794847E+02 -0.10876906063E+02 -0.69354583970E+01  0.21952779993E+02  0.00000000000E+00 0.  1.
</event>
<event>
 7    1  0.2937071E-011  0.5052900E+02  0.7816164E-02  0.1300438E+00
        -11   -1    0    0    0    0  0.00000000000E+00  0.00000000000E+00  0.45593999997E+02  0.45594000000E+02  0.51100000000E-03 0. -1.
         11   -1    0    0    0    0 -0.00000000000E+00 -0.00000000000E+00 -0.45593999997E+02  0.45594000000E+02  0.51100000000E-03 0.  1.
    9900012    2    1    2    0    0  0.32044296018E+02 -0.58624074311E+01  0.24330005440E+02  0.50529004773E+02  0.30000440505E+02 0.  0.
        -12    1    1    2    0    0 -0.32044296018E+02  0.58624074311E+01 -0.24330005440E+02  0.40658995227E+02  0.00000000000E+00 0.  1.
         11    1    3    3    0    0  0.92864058533E+01 -0.33782044795E+01  0.73896848953E+01  0.12339248044E+02  0.51100000000E-03 0. -1.
        -11    1    3    3    0    0  0.12726080353E+02 -0.93396161681E+01  0.20174476591E+02  0.25616226445E+02  0.51100000000E-03 0.  1.
        -12    1    3    3    0    0  0.10031809812E+02  0.68554132165E+01 -0.32341560462E+01  0.12573530284E+02  0.00000000000E+00 0.  1.
</event>
<event>
 7    1  0.3314564E-011  0.5052886E+02  0.7816164E-02  0.1300439E+00
        -11   -1    0    0    0    0  0.00000000000E+00  0.00000000000E+00  0.45593999997E+02  0.45594000000E+02  0.51100000000E-03 0.  1.
         11   -1    0    0    0    0 -0.00000000000E+00 -0.00000000000E+00 -0.45593999997E+02  0.45594000000E+02  0.51100000000E-03 0. -1.
    9900012    2    1    2    0    0 -0.50801734076E+01 -0.36504586937E+02  0.17168944981E+02  0.50528859563E+02  0.29999999129E+02 0.  0.
        -12    1    1    2    0    0  0.50801734076E+01  0.36504586937E+02 -0.17168944981E+02  0.40659140437E+02  0.00000000000E+00 0.  1.
         11    1    3    3    0    0 -0.10043596501E+02 -0.28384681126E+02  0.77658215545E+01  0.31094564444E+02  0.51100000000E-03 0. -1.
        -11    1    3    3    0    0 -0.28560469424E+01  0.21626777325E+01  0.22850753179E+00  0.35897625360E+01  0.51100000000E-03 0.  1.
        -12    1    3    3    0    0  0.78194700354E+01 -0.10282583543E+02  0.91746158950E+01  0.15844532583E+02  0.00000000000E+00 0.  1.
</event>
<event>
 7    1  0.2937071E-011  0.5052885E+02  0.7816164E-02  0.1300439E+00
        -11   -1    0    0    0    0  0.00000000000E+00  0.00000000000E+00  0.45593999997E+02  0.45594000000E+02  0.51100000000E-03 0.  1.
         11   -1    0    0    0    0 -0.00000000000E+00 -0.00000000000E+00 -0.45593999997E+02  0.45594000000E+02  0.51100000000E-03 0. -1.
    9900012    2    1    2    0    0  0.36486442591E+02 -0.16780588268E+02 -0.63496285917E+01  0.50528850737E+02  0.29999972299E+02 0.  0.
        -12    1    1    2    0    0 -0.36486442591E+02  0.16780588268E+02  0.63496285917E+01  0.40659149263E+02  0.00000000000E+00 0.  1.
         11    1    3    3    0    0  0.29935018749E+01  0.27590487868E+01  0.10335541787E+01  0.42001950174E+01  0.51100000000E-03 0. -1.
        -11    1    3    3    0    0  0.98702726195E+01  0.54767499814E+01 -0.97577429043E+00  0.11330013578E+02  0.51100000000E-03 0.  1.
         12    1    3    3    0    0  0.23622668097E+02 -0.25016387036E+02 -0.64074084800E+01  0.34998642142E+02  0.00000000000E+00 0. -1.
</event>
<event>
 7    1  0.2937071E-011  0.5052885E+02  0.7816164E-02  0.1300439E+00
        -11   -1    0    0    0    0  0.00000000000E+00  0.00000000000E+00  0.45593999997E+02  0.45594000000E+02  0.51100000000E-03 0.  1.
         11   -1    0    0    0    0 -0.00000000000E+00 -0.00000000000E+00 -0.45593999997E+02  0.45594000000E+02  0.51100000000E-03 0. -1.
    9900012    2    1    2    0    0  0.19288679304E+02 -0.17895181833E+02 -0.30998000862E+02  0.50528846792E+02  0.29999960310E+02 0.  0.
        -12    1    1    2    0    0 -0.19288679304E+02  0.17895181833E+02  0.30998000862E+02  0.40659153208E+02  0.00000000000E+00 0.  1.
         11    1    3    3    0    0  0.35934033837E+01 -0.15361436476E+02 -0.52609398867E+01  0.16630206470E+02  0.51100000000E-03 0. -1.
        -11    1    3    3    0    0  0.35780695249E+01 -0.43607499034E+01 -0.28236998420E+00  0.56478716623E+01  0.51100000000E-03 0.  1.
        -12    1    3    3    0    0  0.12117206395E+02  0.18270045459E+01 -0.25454690991E+02  0.28250768660E+02  0.00000000000E+00 0.  1.
</event>
<event>
 7    1  0.2937071E-011  0.5052895E+02  0.7816164E-02  0.1300438E+00
        -11   -1    0    0    0    0  0.00000000000E+00  0.00000000000E+00  0.45593999997E+02  0.45594000000E+02  0.51100000000E-03 0.  1.
         11   -1    0    0    0    0 -0.00000000000E+00 -0.00000000000E+00 -0.45593999997E+02  0.45594000000E+02  0.51100000000E-03 0. -1.
    9900012    2    1    2    0    0  0.12861630334E+02  0.38318567145E+02 -0.44073158194E+01  0.50528947433E+02  0.30000266216E+02 0.  0.
        -12    1    1    2    0    0 -0.12861630334E+02 -0.38318567145E+02  0.44073158194E+01  0.40659052567E+02  0.00000000000E+00 0.  1.
         11    1    3    3    0    0  0.12111811361E+02  0.13321358350E+02  0.68847007244E+01  0.19275727407E+02  0.51100000000E-03 0.  1.
        -11    1    3    3    0    0  0.71154937653E+01  0.19281287989E+02 -0.72767483491E+01  0.21802508682E+02  0.51100000000E-03 0. -1.
        -12    1    3    3    0    0 -0.63656747929E+01  0.57159208066E+01 -0.40152681946E+01  0.94507113442E+01  0.00000000000E+00 0.  1.
</event>
<event>
 7    1  0.2937071E-011  0.5052887E+02  0.7816164E-02  0.1300439E+00
        -11   -1    0    0    0    0  0.00000000000E+00  0.00000000000E+00  0.45593999997E+02  0.45594000000E+02  0.51100000000E-03 0.  1.
         11   -1    0    0    0    0 -0.00000000000E+00 -0.00000000000E+00 -0.45593999997E+02  0.45594000000E+02  0.51100000000E-03 0. -1.
    9900012    2    1    2    0    0  0.27632381488E+02 -0.13093827496E+02 -0.26798656710E+02  0.50528870316E+02  0.30000031814E+02 0.  0.
        -12    1    1    2    0    0 -0.27632381488E+02  0.13093827496E+02  0.26798656710E+02  0.40659129684E+02  0.00000000000E+00 0.  1.
         11    1    3    3    0    0  0.81431930532E+01  0.19378199786E+01 -0.13467452822E+01  0.84782346327E+01  0.51100000000E-03 0. -1.
        -11    1    3    3    0    0  0.10235105076E+02 -0.36642840836E+01  0.18835060853E+01  0.11033220255E+02  0.51100000000E-03 0.  1.
         12    1    3    3    0    0  0.92540833584E+01 -0.11367363391E+02 -0.27335417513E+02  0.31017415429E+02  0.00000000000E+00 0. -1.
</event>
<event>
 7    1  0.2937071E-011  0.5052885E+02  0.7816164E-02  0.1300439E+00
        -11   -1    0    0    0    0  0.00000000000E+00  0.00000000000E+00  0.45593999997E+02  0.45594000000E+02  0.51100000000E-03 0.  1.
         11   -1    0    0    0    0 -0.00000000000E+00 -0.00000000000E+00 -0.45593999997E+02  0.45594000000E+02  0.51100000000E-03 0. -1.
    9900012    2    1    2    0    0  0.11244506528E+02 -0.12371927549E+02 -0.37062954553E+02  0.50528854430E+02  0.29999983525E+02 0.  0.
        -12    1    1    2    0    0 -0.11244506528E+02  0.12371927549E+02  0.37062954553E+02  0.40659145570E+02  0.00000000000E+00 0.  1.
         11    1    3    3    0    0  0.48315972924E+01 -0.21082367351E+01 -0.17570582513E+02  0.18344327860E+02  0.51100000000E-03 0. -1.
        -11    1    3    3    0    0  0.26509189901E+01  0.61273073057E+01 -0.32312168944E+00  0.66839864002E+01  0.51100000000E-03 0.  1.
        -12    1    3    3    0    0  0.37619902450E+01 -0.16390998119E+02 -0.19169250350E+02  0.25500540170E+02  0.00000000000E+00 0.  1.
</event>
<event>
 7    1  0.2937071E-011  0.5052885E+02  0.7816164E-02  0.1300439E+00
        -11   -1    0    0    0    0  0.00000000000E+00  0.00000000000E+00  0.45593999997E+02  0.45594000000E+02  0.51100000000E-03 0.  1.
         11   -1    0    0    0    0 -0.00000000000E+00 -0.00000000000E+00 -0.45593999997E+02  0.45594000000E+02  0.51100000000E-03 0. -1.
    9900012    2    1    2    0    0  0.32126546955E+02  0.22972699533E+02 -0.96595290162E+01  0.50528850428E+02  0.29999971362E+02 0.  0.
        -12    1    1    2    0    0 -0.32126546955E+02 -0.22972699533E+02  0.96595290162E+01  0.40659149572E+02  0.00000000000E+00 0.  1.
         11    1    3    3    0    0  0.17108148687E+01  0.10388669486E+01 -0.84213755332E+01  0.86559631576E+01  0.51100000000E-03 0. -1.
        -11    1    3    3    0    0  0.47830726131E+01 -0.33376668335E+01 -0.68981226338E+00  0.58731290411E+01  0.51100000000E-03 0.  1.
        -12    1    3    3    0    0  0.25632659473E+02  0.25271499418E+02 -0.54834121954E+00  0.35999758230E+02  0.00000000000E+00 0.  1.
</event>
<event>
 7    1  0.2937071E-011  0.5052886E+02  0.7816164E-02  0.1300439E+00
        -11   -1    0    0    0    0  0.00000000000E+00  0.00000000000E+00  0.45593999997E+02  0.45594000000E+02  0.51100000000E-03 0. -1.
         11   -1    0    0    0    0 -0.00000000000E+00 -0.00000000000E+00 -0.45593999997E+02  0.45594000000E+02  0.51100000000E-03 0.  1.
    9900012    2    1    2    0    0  0.38234768976E+02  0.76246724081E+01  0.11538309491E+02  0.50528858668E+02  0.29999996406E+02 0.  0.
        -12    1    1    2    0    0 -0.38234768976E+02 -0.76246724081E+01 -0.11538309491E+02  0.40659141332E+02  0.00000000000E+00 0.  1.
         11    1    3    3    0    0  0.80584372476E+01 -0.45101205384E+00 -0.26526057820E+01  0.84957719156E+01  0.51100000000E-03 0. -1.
        -11    1    3    3    0    0  0.47368344764E+01 -0.33204790067E+01 -0.54384711844E+01  0.79397827915E+01  0.51100000000E-03 0.  1.
         12    1    3    3    0    0  0.25439497252E+02  0.11396163469E+02  0.19629386458E+02  0.34093303960E+02  0.00000000000E+00 0. -1.
</event>
<event>
 7    1  0.2937071E-011  0.5052886E+02  0.7816164E-02  0.1300439E+00
        -11   -1    0    0    0    0  0.00000000000E+00  0.00000000000E+00  0.45593999997E+02  0.45594000000E+02  0.51100000000E-03 0.  1.
         11   -1    0    0    0    0 -0.00000000000E+00 -0.00000000000E+00 -0.45593999997E+02  0.45594000000E+02  0.51100000000E-03 0. -1.
    9900012    2    1    2    0    0  0.10698801912E+02  0.22746103872E+00 -0.39225628162E+02  0.50528855819E+02  0.29999987746E+02 0.  0.
        -12    1    1    2    0    0 -0.10698801912E+02 -0.22746103872E+00  0.39225628162E+02  0.40659144181E+02  0.00000000000E+00 0.  1.
         11    1    3    3    0    0 -0.59523428000E+01  0.23755971273E+01 -0.77849746399E+01  0.10083634113E+02  0.51100000000E-03 0. -1.
        -11    1    3    3    0    0 -0.41900149435E+01 -0.17525579687E+01 -0.46445178515E+01  0.64960935180E+01  0.51100000000E-03 0.  1.
        -12    1    3    3    0    0  0.20841159656E+02 -0.39557811984E+00 -0.26796135670E+02  0.33949128188E+02  0.00000000000E+00 0.  1.
</event>
<event>
 7    1  0.2937071E-011  0.5052886E+02  0.7816164E-02  0.1300439E+00
        -11   -1    0    0    0    0  0.00000000000E+00  0.00000000000E+00  0.45593999997E+02  0.45594000000E+02  0.51100000000E-03 0. -1.
         11   -1    0    0    0    0 -0.00000000000E+00 -0.00000000000E+00 -0.45593999997E+02  0.45594000000E+02  0.51100000000E-03 0.  1.
    9900012    2    1    2    0    0 -0.93865403570E+01 -0.33322341192E+02  0.21323234513E+02  0.50528857209E+02  0.29999991972E+02 0.  0.
        -12    1    1    2    0    0  0.93865403570E+01  0.33322341192E+02 -0.21323234513E+02  0.40659142791E+02  0.00000000000E+00 0.  1.
         11    1    3    3    0    0 -0.10672206550E+02 -0.20082337303E+02  0.12655772143E+02  0.26026233554E+02  0.51100000000E-03 0. -1.
        -11    1    3    3    0    0 -0.86946580074E+01 -0.65088769071E+01  0.36094133860E+01  0.11445104705E+02  0.51100000000E-03 0.  1.
         12    1    3    3    0    0  0.99803242009E+01 -0.67311269822E+01  0.50580489848E+01  0.13057518950E+02  0.00000000000E+00 0. -1.
</event>
<event>
 7    1  0.2937071E-011  0.5052886E+02  0.7816164E-02  0.1300439E+00
        -11   -1    0    0    0    0  0.00000000000E+00  0.00000000000E+00  0.45593999997E+02  0.45594000000E+02  0.51100000000E-03 0.  1.
         11   -1    0    0    0    0 -0.00000000000E+00 -0.00000000000E+00 -0.45593999997E+02  0.45594000000E+02  0.51100000000E-03 0. -1.
    9900012    2    1    2    0    0 -0.43658591098E+01  0.31434369250E+02 -0.25416250195E+02  0.50528855027E+02  0.29999985341E+02 0.  0.
        -12    1    1    2    0    0  0.43658591098E+01 -0.31434369250E+02  0.25416250195E+02  0.40659144973E+02  0.00000000000E+00 0.  1.
         11    1    3    3    0    0 -0.11128915536E+02  0.92888897427E+01 -0.12830732500E+02  0.19358820481E+02  0.51100000000E-03 0. -1.
        -11    1    3    3    0    0 -0.50535487256E+01  0.74735602992E+01 -0.72961287485E+01  0.11602842464E+02  0.51100000000E-03 0.  1.
        -12    1    3    3    0    0  0.11816605152E+02  0.14671919208E+02 -0.52893889464E+01  0.19567192082E+02  0.00000000000E+00 0.  1.
</event>
<event>
 7    1  0.2937071E-011  0.5052886E+02  0.7816164E-02  0.1300439E+00
        -11   -1    0    0    0    0  0.00000000000E+00  0.00000000000E+00  0.45593999997E+02  0.45594000000E+02  0.51100000000E-03 0.  1.
         11   -1    0    0    0    0 -0.00000000000E+00 -0.00000000000E+00 -0.45593999997E+02  0.45594000000E+02  0.51100000000E-03 0. -1.
    9900012    2    1    2    0    0  0.29830953945E+02  0.31633352836E+01 -0.27445820869E+02  0.50528860971E+02  0.30000003408E+02 0.  0.
        -12    1    1    2    0    0 -0.29830953945E+02 -0.31633352836E+01  0.27445820869E+02  0.40659139029E+02  0.00000000000E+00 0.  1.
         11    1    3    3    0    0  0.14926023615E+01 -0.20470138719E+01 -0.16039245108E+01  0.29984498827E+01  0.51100000000E-03 0. -1.
        -11    1    3    3    0    0  0.32578101945E+02  0.35946159925E+01 -0.15539134548E+02  0.36272836851E+02  0.51100000000E-03 0.  1.
        -12    1    3    3    0    0 -0.42397503616E+01  0.16157331630E+01 -0.10302761810E+02  0.11257574237E+02  0.00000000000E+00 0.  1.
</event>
<event>
 7    1  0.2937071E-011  0.5052887E+02  0.7816164E-02  0.1300439E+00
        -11   -1    0    0    0    0  0.00000000000E+00  0.00000000000E+00  0.45593999997E+02  0.45594000000E+02  0.51100000000E-03 0. -1.
         11   -1    0    0    0    0 -0.00000000000E+00 -0.00000000000E+00 -0.45593999997E+02  0.45594000000E+02  0.51100000000E-03 0.  1.
    9900012    2    1    2    0    0  0.21887313881E+02 -0.21640712118E+02  0.26566706932E+02  0.50528870065E+02  0.30000031048E+02 0.  0.
        -12    1    1    2    0    0 -0.21887313881E+02  0.21640712118E+02 -0.26566706932E+02  0.40659129935E+02  0.00000000000E+00 0.  1.
         11    1    3    3    0    0  0.12242791263E+02 -0.95987717058E+01  0.12254571413E+02  0.19803961143E+02  0.51100000000E-03 0. -1.
        -11    1    3    3    0    0  0.11303919577E+02 -0.16146089777E+02  0.48790158563E+01  0.20304669632E+02  0.51100000000E-03 0.  1.
         12    1    3    3    0    0 -0.16593969591E+01  0.41041493651E+01  0.94331196623E+01  0.10420239289E+02  0.00000000000E+00 0. -1.
</event>
<event>
 7    1  0.2937071E-011  0.5052886E+02  0.7816164E-02  0.1300439E+00
        -11   -1    0    0    0    0  0.00000000000E+00  0.00000000000E+00  0.45593999997E+02  0.45594000000E+02  0.51100000000E-03 0. -1.
         11   -1    0    0    0    0 -0.00000000000E+00 -0.00000000000E+00 -0.45593999997E+02  0.45594000000E+02  0.51100000000E-03 0.  1.
    9900012    2    1    2    0    0  0.34175933375E+02 -0.20103806340E+02  0.90004739522E+01  0.50528856099E+02  0.29999988597E+02 0.  0.
        -12    1    1    2    0    0 -0.34175933375E+02  0.20103806340E+02 -0.90004739522E+01  0.40659143901E+02  0.00000000000E+00 0.  1.
         11    1    3    3    0    0  0.39816030947E+01 -0.87132905736E+01  0.96591385659E+01  0.13604174136E+02  0.51100000000E-03 0. -1.
        -11    1    3    3    0    0  0.10966265601E+02  0.45897483634E+01  0.47207737047E+00  0.11897379063E+02  0.51100000000E-03 0.  1.
        -12    1    3    3    0    0  0.19228064680E+02 -0.15980264130E+02 -0.11307419841E+01  0.25027302900E+02  0.00000000000E+00 0.  1.
</event>
<event>
 7    1  0.2937071E-011  0.5052890E+02  0.7816164E-02  0.1300439E+00
        -11   -1    0    0    0    0  0.00000000000E+00  0.00000000000E+00  0.45593999997E+02  0.45594000000E+02  0.51100000000E-03 0. -1.
         11   -1    0    0    0    0 -0.00000000000E+00 -0.00000000000E+00 -0.45593999997E+02  0.45594000000E+02  0.51100000000E-03 0.  1.
    9900012    2    1    2    0    0  0.29781106324E+02  0.27164285782E+02  0.53244368038E+01  0.50528900856E+02  0.30000124642E+02 0.  0.
        -12    1    1    2    0    0 -0.29781106324E+02 -0.27164285782E+02 -0.53244368038E+01  0.40659099144E+02  0.00000000000E+00 0.  1.
         11    1    3    3    0    0  0.38902114676E+01 -0.36184917580E+01  0.60200385289E+01  0.80292024521E+01  0.51100000000E-03 0. -1.
        -11    1    3    3    0    0  0.68737855578E+00  0.16097993022E+01  0.33054713211E+01  0.37403320692E+01  0.51100000000E-03 0.  1.
         12    1    3    3    0    0  0.25203516301E+02  0.29172978238E+02 -0.40010730463E+01  0.38759366335E+02  0.00000000000E+00 0. -1.
</event>
<event>
 7    1  0.2937071E-011  0.5052886E+02  0.7816164E-02  0.1300439E+00
        -11   -1    0    0    0    0  0.00000000000E+00  0.00000000000E+00  0.45593999997E+02  0.45594000000E+02  0.51100000000E-03 0. -1.
         11   -1    0    0    0    0 -0.00000000000E+00 -0.00000000000E+00 -0.45593999997E+02  0.45594000000E+02  0.51100000000E-03 0.  1.
    9900012    2    1    2    0    0 -0.25902073999E+02 -0.83428305627E+01  0.30210022006E+02  0.50528859714E+02  0.29999999585E+02 0.  0.
        -12    1    1    2    0    0  0.25902073999E+02  0.83428305627E+01 -0.30210022006E+02  0.40659140286E+02  0.00000000000E+00 0.  1.
         11    1    3    3    0    0 -0.57645311969E+01  0.38809221501E+00  0.23849675721E+02  0.24539508303E+02  0.51100000000E-03 0. -1.
        -11    1    3    3    0    0  0.15737410250E+01 -0.16723242639E+01  0.11684379962E+01  0.25765435897E+01  0.51100000000E-03 0.  1.
         12    1    3    3    0    0 -0.21711283827E+02 -0.70585985138E+01  0.51919082886E+01  0.23412807821E+02  0.00000000000E+00 0. -1.
</event>
<event>
 7    1  0.2937071E-011  0.5052886E+02  0.7816164E-02  0.1300439E+00
        -11   -1    0    0    0    0  0.00000000000E+00  0.00000000000E+00  0.45593999997E+02  0.45594000000E+02  0.51100000000E-03 0.  1.
         11   -1    0    0    0    0 -0.00000000000E+00 -0.00000000000E+00 -0.45593999997E+02  0.45594000000E+02  0.51100000000E-03 0. -1.
    9900012    2    1    2    0    0 -0.16004441337E+01 -0.43141509174E+01 -0.40397928297E+02  0.50528856745E+02  0.29999990561E+02 0.  0.
        -12    1    1    2    0    0  0.16004441337E+01  0.43141509174E+01  0.40397928297E+02  0.40659143255E+02  0.00000000000E+00 0.  1.
         11    1    3    3    0    0 -0.24367530040E+01 -0.15331718135E+02 -0.14483746932E+02  0.21231539549E+02  0.51100000000E-03 0. -1.
        -11    1    3    3    0    0  0.61914985788E+00 -0.21157135237E+00  0.34314192691E+00  0.73882042932E+00  0.51100000000E-03 0.  1.
         12    1    3    3    0    0  0.21715901243E+00  0.11229138570E+02 -0.26257323292E+02  0.28558496766E+02  0.00000000000E+00 0. -1.
</event>
<event>
 7    1  0.2937071E-011  0.5052897E+02  0.7816164E-02  0.1300438E+00
        -11   -1    0    0    0    0  0.00000000000E+00  0.00000000000E+00  0.45593999997E+02  0.45594000000E+02  0.51100000000E-03 0.  1.
         11   -1    0    0    0    0 -0.00000000000E+00 -0.00000000000E+00 -0.45593999997E+02  0.45594000000E+02  0.51100000000E-03 0. -1.
    9900012    2    1    2    0    0 -0.17493119533E+02 -0.18729595602E+02 -0.31565006135E+02  0.50528971547E+02  0.30000339513E+02 0.  0.
        -12    1    1    2    0    0  0.17493119533E+02  0.18729595602E+02  0.31565006135E+02  0.40659028453E+02  0.00000000000E+00 0.  1.
         11    1    3    3    0    0 -0.11728237251E+02 -0.61295225211E+01 -0.25729992623E+02  0.28933632955E+02  0.51100000000E-03 0. -1.
        -11    1    3    3    0    0 -0.87966785794E+01 -0.17372504345E+01 -0.50481056655E+01  0.10289944809E+02  0.51100000000E-03 0.  1.
         12    1    3    3    0    0  0.30317962968E+01 -0.10862822646E+02 -0.78690784617E+00  0.11305393783E+02  0.00000000000E+00 0. -1.
</event>
<event>
 7    1  0.2937071E-011  0.5052885E+02  0.7816164E-02  0.1300439E+00
        -11   -1    0    0    0    0  0.00000000000E+00  0.00000000000E+00  0.45593999997E+02  0.45594000000E+02  0.51100000000E-03 0.  1.
         11   -1    0    0    0    0 -0.00000000000E+00 -0.00000000000E+00 -0.45593999997E+02  0.45594000000E+02  0.51100000000E-03 0. -1.
    9900012    2    1    2    0    0 -0.30798236970E+01 -0.26367427787E+02 -0.30796746880E+02  0.50528853668E+02  0.29999981208E+02 0.  0.
        -12    1    1    2    0    0  0.30798236970E+01  0.26367427787E+02  0.30796746880E+02  0.40659146332E+02  0.00000000000E+00 0.  1.
         11    1    3    3    0    0  0.12558524441E+01  0.37776835598E+01 -0.49172673522E+01  0.63267350911E+01  0.51100000000E-03 0. -1.
        -11    1    3    3    0    0 -0.57199088777E+01 -0.47644917457E+00 -0.19538968796E+01  0.60631736461E+01  0.51100000000E-03 0.  1.
         12    1    3    3    0    0  0.13842327367E+01 -0.29668662172E+02 -0.23925582648E+02  0.38138944930E+02  0.00000000000E+00 0. -1.
</event>
<event>
 7    1  0.2937071E-011  0.5052886E+02  0.7816164E-02  0.1300439E+00
        -11   -1    0    0    0    0  0.00000000000E+00  0.00000000000E+00  0.45593999997E+02  0.45594000000E+02  0.51100000000E-03 0. -1.
         11   -1    0    0    0    0 -0.00000000000E+00 -0.00000000000E+00 -0.45593999997E+02  0.45594000000E+02  0.51100000000E-03 0.  1.
    9900012    2    1    2    0    0 -0.18029296285E+01 -0.39164159863E+02 -0.10774229483E+02  0.50528855962E+02  0.29999988181E+02 0.  0.
        -12    1    1    2    0    0  0.18029296285E+01  0.39164159863E+02  0.10774229483E+02  0.40659144038E+02  0.00000000000E+00 0.  1.
         11    1    3    3    0    0 -0.52224709028E+01 -0.10524305157E+02  0.25708784612E+01  0.12026829078E+02  0.51100000000E-03 0. -1.
        -11    1    3    3    0    0 -0.77791690094E+01 -0.16270228422E+02 -0.12207340822E+02  0.21777395932E+02  0.51100000000E-03 0.  1.
        -12    1    3    3    0    0  0.11198710284E+02 -0.12369626284E+02 -0.11377671224E+01  0.16724630951E+02  0.00000000000E+00 0.  1.
</event>
<event>
 7    1  0.2937071E-011  0.5052886E+02  0.7816164E-02  0.1300439E+00
        -11   -1    0    0    0    0  0.00000000000E+00  0.00000000000E+00  0.45593999997E+02  0.45594000000E+02  0.51100000000E-03 0.  1.
         11   -1    0    0    0    0 -0.00000000000E+00 -0.00000000000E+00 -0.45593999997E+02  0.45594000000E+02  0.51100000000E-03 0. -1.
    9900012    2    1    2    0    0  0.16005644037E+02 -0.17790856017E+02 -0.32870506584E+02  0.50528863242E+02  0.30000010310E+02 0.  0.
        -12    1    1    2    0    0 -0.16005644037E+02  0.17790856017E+02  0.32870506584E+02  0.40659136758E+02  0.00000000000E+00 0.  1.
         11    1    3    3    0    0 -0.19111117053E+01 -0.74206344309E+01 -0.10842216496E+02  0.13276739890E+02  0.51100000000E-03 0. -1.
        -11    1    3    3    0    0  0.18192481391E+02 -0.91387212123E+01 -0.60706444964E+01  0.21244654138E+02  0.51100000000E-03 0.  1.
         12    1    3    3    0    0 -0.27572564927E+00 -0.12315003734E+01 -0.15957645592E+02  0.16007469214E+02  0.00000000000E+00 0. -1.
</event>
<event>
 7    1  0.2937071E-011  0.5052886E+02  0.7816164E-02  0.1300439E+00
        -11   -1    0    0    0    0  0.00000000000E+00  0.00000000000E+00  0.45593999997E+02  0.45594000000E+02  0.51100000000E-03 0.  1.
         11   -1    0    0    0    0 -0.00000000000E+00 -0.00000000000E+00 -0.45593999997E+02  0.45594000000E+02  0.51100000000E-03 0. -1.
    9900012    2    1    2    0    0  0.13420213405E+01 -0.22525017860E+02 -0.33822895731E+02  0.50528859250E+02  0.29999998178E+02 0.  0.
        -12    1    1    2    0    0 -0.13420213405E+01  0.22525017860E+02  0.33822895731E+02  0.40659140750E+02  0.00000000000E+00 0.  1.
         11    1    3    3    0    0 -0.43914540945E+01 -0.73032967058E+01 -0.17635524079E+02  0.19586595458E+02  0.51100000000E-03 0. -1.
        -11    1    3    3    0    0 -0.28968748677E+01  0.42031172627E+01 -0.34722623851E+01  0.61737091813E+01  0.51100000000E-03 0.  1.
        -12    1    3    3    0    0  0.86303503027E+01 -0.19424838417E+02 -0.12715109267E+02  0.24768554611E+02  0.00000000000E+00 0.  1.
</event>
<event>
 7    1  0.2937071E-011  0.5052886E+02  0.7816164E-02  0.1300439E+00
        -11   -1    0    0    0    0  0.00000000000E+00  0.00000000000E+00  0.45593999997E+02  0.45594000000E+02  0.51100000000E-03 0.  1.
         11   -1    0    0    0    0 -0.00000000000E+00 -0.00000000000E+00 -0.45593999997E+02  0.45594000000E+02  0.51100000000E-03 0. -1.
    9900012    2    1    2    0    0  0.25901501430E+02  0.61165574391E+01 -0.30738660455E+02  0.50528864522E+02  0.30000014202E+02 0.  0.
        -12    1    1    2    0    0 -0.25901501430E+02 -0.61165574391E+01  0.30738660455E+02  0.40659135478E+02  0.00000000000E+00 0.  1.
         11    1    3    3    0    0  0.23654718932E+01 -0.72473908103E+01 -0.68520884396E+01  0.10250426678E+02  0.51100000000E-03 0. -1.
        -11    1    3    3    0    0  0.13116741302E+02 -0.25908660040E+01 -0.10211845348E+02  0.16823889999E+02  0.51100000000E-03 0.  1.
        -12    1    3    3    0    0  0.10419288234E+02  0.15954814253E+02 -0.13674726668E+02  0.23454547845E+02  0.00000000000E+00 0.  1.
</event>
<event>
 7    1  0.2937071E-011  0.5052886E+02  0.7816164E-02  0.1300439E+00
        -11   -1    0    0    0    0  0.00000000000E+00  0.00000000000E+00  0.45593999997E+02  0.45594000000E+02  0.51100000000E-03 0.  1.
         11   -1    0    0    0    0 -0.00000000000E+00 -0.00000000000E+00 -0.45593999997E+02  0.45594000000E+02  0.51100000000E-03 0. -1.
    9900012    2    1    2    0    0  0.38575444356E+02 -0.11092308063E+02  0.64854821099E+01  0.50528859777E+02  0.29999999779E+02 0.  0.
        -12    1    1    2    0    0 -0.38575444356E+02  0.11092308063E+02 -0.64854821099E+01  0.40659140223E+02  0.00000000000E+00 0.  1.
         11    1    3    3    0    0  0.17799438965E+02 -0.12597950875E+02  0.79406900922E+01  0.23207390054E+02  0.51100000000E-03 0. -1.
        -11    1    3    3    0    0 -0.18654135211E+01 -0.18070637829E+01 -0.34881704670E+01  0.43488596883E+01  0.51100000000E-03 0.  1.
         12    1    3    3    0    0  0.22641418913E+02  0.33127065950E+01  0.20329624847E+01  0.22972610035E+02  0.00000000000E+00 0. -1.
</event>
<event>
 7    1  0.2937071E-011  0.5052885E+02  0.7816164E-02  0.1300439E+00
        -11   -1    0    0    0    0  0.00000000000E+00  0.00000000000E+00  0.45593999997E+02  0.45594000000E+02  0.51100000000E-03 0.  1.
         11   -1    0    0    0    0 -0.00000000000E+00 -0.00000000000E+00 -0.45593999997E+02  0.45594000000E+02  0.51100000000E-03 0. -1.
    9900012    2    1    2    0    0 -0.34940390071E+01  0.39787094171E+02 -0.76121933812E+01  0.50528847780E+02  0.29999963311E+02 0.  0.
        -12    1    1    2    0    0  0.34940390071E+01 -0.39787094171E+02  0.76121933812E+01  0.40659152220E+02  0.00000000000E+00 0.  1.
         11    1    3    3    0    0 -0.14389807046E+01  0.28160192595E+01 -0.28131506735E+01  0.42325461499E+01  0.51100000000E-03 0. -1.
        -11    1    3    3    0    0  0.76590741956E+01  0.33799413180E+02 -0.80383853743E+01  0.35576359968E+02  0.51100000000E-03 0.  1.
        -12    1    3    3    0    0 -0.97141324981E+01  0.31716617318E+01  0.32393426666E+01  0.10719941662E+02  0.00000000000E+00 0.  1.
</event>
<event>
 7    1  0.2937071E-011  0.5052886E+02  0.7816164E-02  0.1300439E+00
        -11   -1    0    0    0    0  0.00000000000E+00  0.00000000000E+00  0.45593999997E+02  0.45594000000E+02  0.51100000000E-03 0. -1.
         11   -1    0    0    0    0 -0.00000000000E+00 -0.00000000000E+00 -0.45593999997E+02  0.45594000000E+02  0.51100000000E-03 0.  1.
    9900012    2    1    2    0    0  0.88208847143E+01 -0.22953193376E+02  0.32380681441E+02  0.50528860512E+02  0.30000002011E+02 0.  0.
        -12    1    1    2    0    0 -0.88208847143E+01  0.22953193376E+02 -0.32380681441E+02  0.40659139488E+02  0.00000000000E+00 0.  1.
         11    1    3    3    0    0 -0.16997537317E+01 -0.73065250569E+01  0.14681056988E+02  0.16486597760E+02  0.51100000000E-03 0. -1.
        -11    1    3    3    0    0 -0.55149608914E+01 -0.42916198944E+01  0.11467159140E+02  0.13428646021E+02  0.51100000000E-03 0.  1.
         12    1    3    3    0    0  0.16035599337E+02 -0.11355048425E+02  0.62324653138E+01  0.20613616731E+02  0.00000000000E+00 0. -1.
</event>
<event>
 7    1  0.2937071E-011  0.5052886E+02  0.7816164E-02  0.1300439E+00
        -11   -1    0    0    0    0  0.00000000000E+00  0.00000000000E+00  0.45593999997E+02  0.45594000000E+02  0.51100000000E-03 0. -1.
         11   -1    0    0    0    0 -0.00000000000E+00 -0.00000000000E+00 -0.45593999997E+02  0.45594000000E+02  0.51100000000E-03 0.  1.
    9900012    2    1    2    0    0 -0.21387226737E+02 -0.27211336262E+02  0.21337655460E+02  0.50528857987E+02  0.29999994338E+02 0.  0.
        -12    1    1    2    0    0  0.21387226737E+02  0.27211336262E+02 -0.21337655460E+02  0.40659142013E+02  0.00000000000E+00 0.  1.
         11    1    3    3    0    0  0.44486587247E+01 -0.65713983949E+01  0.81252807167E+01  0.11357553799E+02  0.51100000000E-03 0. -1.
        -11    1    3    3    0    0  0.20783435252E+00 -0.76906583316E+01  0.39400397628E+01  0.86436875398E+01  0.51100000000E-03 0.  1.
        -12    1    3    3    0    0 -0.26043719814E+02 -0.12949279536E+02  0.92723349805E+01  0.30527616648E+02  0.00000000000E+00 0.  1.
</event>
<event>
 7    1  0.2937071E-011  0.5052884E+02  0.7816164E-02  0.1300439E+00
        -11   -1    0    0    0    0  0.00000000000E+00  0.00000000000E+00  0.45593999997E+02  0.45594000000E+02  0.51100000000E-03 0.  1.
         11   -1    0    0    0    0 -0.00000000000E+00 -0.00000000000E+00 -0.45593999997E+02  0.45594000000E+02  0.51100000000E-03 0. -1.
    9900012    2    1    2    0    0 -0.38164911598E+02  0.10804083822E+02 -0.89374816936E+01  0.50528840103E+02  0.29999939977E+02 0.  0.
        -12    1    1    2    0    0  0.38164911598E+02 -0.10804083822E+02  0.89374816936E+01  0.40659159897E+02  0.00000000000E+00 0.  1.
         11    1    3    3    0    0 -0.73405159135E+01 -0.37341482495E+01 -0.13665685617E+01  0.83483259951E+01  0.51100000000E-03 0. -1.
        -11    1    3    3    0    0 -0.35334533241E-01 -0.93246894730E+00 -0.76664523470E+01  0.77230329998E+01  0.51100000000E-03 0.  1.
         12    1    3    3    0    0 -0.30789061151E+02  0.15470701019E+02  0.95539215045E-01  0.34457481108E+02  0.00000000000E+00 0. -1.
</event>
<event>
 7    1  0.2937071E-011  0.5052896E+02  0.7816164E-02  0.1300438E+00
        -11   -1    0    0    0    0  0.00000000000E+00  0.00000000000E+00  0.45593999997E+02  0.45594000000E+02  0.51100000000E-03 0. -1.
         11   -1    0    0    0    0 -0.00000000000E+00 -0.00000000000E+00 -0.45593999997E+02  0.45594000000E+02  0.51100000000E-03 0.  1.
    9900012    2    1    2    0    0 -0.21616936486E+02  0.34057568611E+02  0.50938576300E+01  0.50528962772E+02  0.30000312840E+02 0.  0.
        -12    1    1    2    0    0  0.21616936486E+02 -0.34057568611E+02 -0.50938576300E+01  0.40659037228E+02  0.00000000000E+00 0.  1.
         11    1    3    3    0    0 -0.13921030399E+02  0.22310061715E+02 -0.27384600561E+01  0.26439234195E+02  0.51100000000E-03 0. -1.
        -11    1    3    3    0    0 -0.22358152072E+01  0.11275072306E+02 -0.30612246784E+01  0.11895260482E+02  0.51100000000E-03 0.  1.
        -12    1    3    3    0    0 -0.54600908798E+01  0.47243459038E+00  0.10893542365E+02  0.12194468094E+02  0.00000000000E+00 0.  1.
</event>
<event>
 7    1  0.2937071E-011  0.5052886E+02  0.7816164E-02  0.1300439E+00
        -11   -1    0    0    0    0  0.00000000000E+00  0.00000000000E+00  0.45593999997E+02  0.45594000000E+02  0.51100000000E-03 0. -1.
         11   -1    0    0    0    0 -0.00000000000E+00 -0.00000000000E+00 -0.45593999997E+02  0.45594000000E+02  0.51100000000E-03 0.  1.
    9900012    2    1    2    0    0  0.26471775082E+02  0.30859959342E+02  0.27074879893E+00  0.50528864845E+02  0.30000015184E+02 0.  0.
        -12    1    1    2    0    0 -0.26471775082E+02 -0.30859959342E+02 -0.27074879893E+00  0.40659135155E+02  0.00000000000E+00 0.  1.
         11    1    3    3    0    0  0.14326632021E+02  0.13887208374E+02  0.10360885143E+02  0.22482323783E+02  0.51100000000E-03 0. -1.
        -11    1    3    3    0    0  0.16464219884E+01  0.14053194018E+02 -0.16140510321E+01  0.14241071887E+02  0.51100000000E-03 0.  1.
        -12    1    3    3    0    0  0.10498721073E+02  0.29195569497E+01 -0.84760853117E+01  0.13805469176E+02  0.00000000000E+00 0.  1.
</event>
<event>
 7    1  0.2937071E-011  0.5052884E+02  0.7816164E-02  0.1300439E+00
        -11   -1    0    0    0    0  0.00000000000E+00  0.00000000000E+00  0.45593999997E+02  0.45594000000E+02  0.51100000000E-03 0. -1.
         11   -1    0    0    0    0 -0.00000000000E+00 -0.00000000000E+00 -0.45593999997E+02  0.45594000000E+02  0.51100000000E-03 0.  1.
    9900012    2    1    2    0    0 -0.37857936910E+01 -0.28663559103E+02 -0.28587325906E+02  0.50528842892E+02  0.29999948454E+02 0.  0.
        -12    1    1    2    0    0  0.37857936910E+01  0.28663559103E+02  0.28587325906E+02  0.40659157108E+02  0.00000000000E+00 0.  1.
         11    1    3    3    0    0 -0.74619505490E+01 -0.41905913821E+01 -0.12738156744E+02  0.15346087437E+02  0.51100000000E-03 0. -1.
        -11    1    3    3    0    0 -0.64055213828E+01 -0.89960326217E+01 -0.12012680527E+02  0.16317591759E+02  0.51100000000E-03 0.  1.
         12    1    3    3    0    0  0.10081678241E+02 -0.15476935099E+02 -0.38364886348E+01  0.18865163696E+02  0.00000000000E+00 0. -1.
</event>
<event>
 7    1  0.2937071E-011  0.5052885E+02  0.7816164E-02  0.1300439E+00
        -11   -1    0    0    0    0  0.00000000000E+00  0.00000000000E+00  0.45593999997E+02  0.45594000000E+02  0.51100000000E-03 0.  1.
         11   -1    0    0    0    0 -0.00000000000E+00 -0.00000000000E+00 -0.45593999997E+02  0.45594000000E+02  0.51100000000E-03 0. -1.
    9900012    2    1    2    0    0 -0.36401681777E+02  0.99595578247E+01  0.15129161960E+02  0.50528846420E+02  0.29999959178E+02 0.  0.
        -12    1    1    2    0    0  0.36401681777E+02 -0.99595578247E+01 -0.15129161960E+02  0.40659153580E+02  0.00000000000E+00 0.  1.
         11    1    3    3    0    0 -0.35660458666E+01  0.63519974830E+01  0.13706655348E+01  0.74123733997E+01  0.51100000000E-03 0. -1.
        -11    1    3    3    0    0 -0.36531386746E+02  0.37759244829E+01  0.10528690647E+02  0.38205407343E+02  0.51100000000E-03 0.  1.
         12    1    3    3    0    0  0.36957508356E+01 -0.16836414112E+00  0.32298057779E+01  0.49110656772E+01  0.00000000000E+00 0. -1.
</event>
<event>
 7    1  0.2937071E-011  0.5052886E+02  0.7816164E-02  0.1300439E+00
        -11   -1    0    0    0    0  0.00000000000E+00  0.00000000000E+00  0.45593999997E+02  0.45594000000E+02  0.51100000000E-03 0. -1.
         11   -1    0    0    0    0 -0.00000000000E+00 -0.00000000000E+00 -0.45593999997E+02  0.45594000000E+02  0.51100000000E-03 0.  1.
    9900012    2    1    2    0    0 -0.14705914969E+02 -0.84339354032E+01  0.36956332825E+02  0.50528859117E+02  0.29999997772E+02 0.  0.
        -12    1    1    2    0    0  0.14705914969E+02  0.84339354032E+01 -0.36956332825E+02  0.40659140883E+02  0.00000000000E+00 0.  1.
         11    1    3    3    0    0 -0.42162304049E+01  0.61349074929E+01 -0.50884323956E+00  0.74614080760E+01  0.51100000000E-03 0. -1.
        -11    1    3    3    0    0  0.22975326019E+01 -0.92781180316E+00  0.33810921854E+01  0.41918105189E+01  0.51100000000E-03 0.  1.
         12    1    3    3    0    0 -0.12787217166E+02 -0.13641031093E+02  0.34084083879E+02  0.38875640522E+02  0.00000000000E+00 0. -1.
</event>
<event>
 7    1  0.2937071E-011  0.5052886E+02  0.7816164E-02  0.1300439E+00
        -11   -1    0    0    0    0  0.00000000000E+00  0.00000000000E+00  0.45593999997E+02  0.45594000000E+02  0.51100000000E-03 0.  1.
         11   -1    0    0    0    0 -0.00000000000E+00 -0.00000000000E+00 -0.45593999997E+02  0.45594000000E+02  0.51100000000E-03 0. -1.
    9900012    2    1    2    0    0  0.20184171817E+02 -0.11709383798E+02 -0.33296478944E+02  0.50528856244E+02  0.29999989040E+02 0.  0.
        -12    1    1    2    0    0 -0.20184171817E+02  0.11709383798E+02  0.33296478944E+02  0.40659143756E+02  0.00000000000E+00 0.  1.
         11    1    3    3    0    0  0.64196911047E+01  0.55092222818E+01 -0.36075786901E+01  0.91966618018E+01  0.51100000000E-03 0. -1.
        -11    1    3    3    0    0 -0.30354451756E+00  0.35672339009E+01 -0.27628244627E+01  0.45222224902E+01  0.51100000000E-03 0.  1.
         12    1    3    3    0    0  0.14068025230E+02 -0.20785839981E+02 -0.26926075791E+02  0.36809971952E+02  0.00000000000E+00 0. -1.
</event>
<event>
 7    1  0.2937071E-011  0.5052893E+02  0.7816164E-02  0.1300439E+00
        -11   -1    0    0    0    0  0.00000000000E+00  0.00000000000E+00  0.45593999997E+02  0.45594000000E+02  0.51100000000E-03 0. -1.
         11   -1    0    0    0    0 -0.00000000000E+00 -0.00000000000E+00 -0.45593999997E+02  0.45594000000E+02  0.51100000000E-03 0.  1.
    9900012    2    1    2    0    0  0.31945424831E+02  0.24971162122E+02 -0.30150609951E+01  0.50528933383E+02  0.30000223509E+02 0.  0.
        -12    1    1    2    0    0 -0.31945424831E+02 -0.24971162122E+02  0.30150609951E+01  0.40659066617E+02  0.00000000000E+00 0.  1.
         11    1    3    3    0    0  0.11663977612E+01  0.76171184838E+01  0.14786851603E+01  0.78464952557E+01  0.51100000000E-03 0. -1.
        -11    1    3    3    0    0 -0.33160044670E+01  0.77326529791E+00 -0.33134762318E+01  0.47510998564E+01  0.51100000000E-03 0.  1.
        -12    1    3    3    0    0  0.34095031537E+02  0.16580778341E+02 -0.11802699236E+01  0.37931338270E+02  0.00000000000E+00 0.  1.
</event>
<event>
 7    1  0.2937071E-011  0.5052886E+02  0.7816164E-02  0.1300439E+00
        -11   -1    0    0    0    0  0.00000000000E+00  0.00000000000E+00  0.45593999997E+02  0.45594000000E+02  0.51100000000E-03 0. -1.
         11   -1    0    0    0    0 -0.00000000000E+00 -0.00000000000E+00 -0.45593999997E+02  0.45594000000E+02  0.51100000000E-03 0.  1.
    9900012    2    1    2    0    0 -0.16615127496E+02  0.23383559738E+02  0.28815145756E+02  0.50528856470E+02  0.29999989725E+02 0.  0.
        -12    1    1    2    0    0  0.16615127496E+02 -0.23383559738E+02 -0.28815145756E+02  0.40659143530E+02  0.00000000000E+00 0.  1.
         11    1    3    3    0    0 -0.12165697098E+01  0.78363289218E+01  0.16295489563E+02  0.18122667386E+02  0.51100000000E-03 0. -1.
        -11    1    3    3    0    0  0.29025970069E+01  0.37097662499E+00  0.75775896127E+01  0.81229648307E+01  0.51100000000E-03 0.  1.
         12    1    3    3    0    0 -0.18301154793E+02  0.15176254191E+02  0.49420665798E+01  0.24283224253E+02  0.00000000000E+00 0. -1.
</event>
<event>
 7    1  0.2937071E-011  0.5052886E+02  0.7816164E-02  0.1300439E+00
        -11   -1    0    0    0    0  0.00000000000E+00  0.00000000000E+00  0.45593999997E+02  0.45594000000E+02  0.51100000000E-03 0. -1.
         11   -1    0    0    0    0 -0.00000000000E+00 -0.00000000000E+00 -0.45593999997E+02  0.45594000000E+02  0.51100000000E-03 0.  1.
    9900012    2    1    2    0    0  0.55099069310E+01 -0.40092730041E+02 -0.39216760517E+01  0.50528860565E+02  0.30000002174E+02 0.  0.
        -12    1    1    2    0    0 -0.55099069310E+01  0.40092730041E+02  0.39216760517E+01  0.40659139435E+02  0.00000000000E+00 0.  1.
         11    1    3    3    0    0  0.95208371040E+01 -0.11089622965E+02  0.19859066456E+01  0.14750250918E+02  0.51100000000E-03 0.  1.
        -11    1    3    3    0    0  0.74494031474E+01 -0.15202459895E+02 -0.56187999164E+01  0.17837581307E+02  0.51100000000E-03 0. -1.
         12    1    3    3    0    0 -0.11460333320E+02 -0.13800647181E+02 -0.28878278087E+00  0.17941028341E+02  0.00000000000E+00 0. -1.
</event>
<event>
 7    1  0.2937071E-011  0.5052887E+02  0.7816164E-02  0.1300439E+00
        -11   -1    0    0    0    0  0.00000000000E+00  0.00000000000E+00  0.45593999997E+02  0.45594000000E+02  0.51100000000E-03 0.  1.
         11   -1    0    0    0    0 -0.00000000000E+00 -0.00000000000E+00 -0.45593999997E+02  0.45594000000E+02  0.51100000000E-03 0. -1.
    9900012    2    1    2    0    0 -0.37246949765E+01  0.36390087604E+02 -0.17749742177E+02  0.50528866022E+02  0.30000018762E+02 0.  0.
        -12    1    1    2    0    0  0.37246949765E+01 -0.36390087604E+02  0.17749742177E+02  0.40659133978E+02  0.00000000000E+00 0.  1.
         11    1    3    3    0    0 -0.74298541436E+01  0.19025123832E+02  0.10134633036E+01  0.20449576464E+02  0.51100000000E-03 0. -1.
        -11    1    3    3    0    0 -0.52444239485E+01  0.25015556432E+01 -0.25945618383E+01  0.63634514676E+01  0.51100000000E-03 0.  1.
        -12    1    3    3    0    0  0.89495831156E+01  0.14863408129E+02 -0.16168643642E+02  0.23715838091E+02  0.00000000000E+00 0.  1.
</event>
<event>
 7    1  0.2937071E-011  0.5052886E+02  0.7816164E-02  0.1300439E+00
        -11   -1    0    0    0    0  0.00000000000E+00  0.00000000000E+00  0.45593999997E+02  0.45594000000E+02  0.51100000000E-03 0.  1.
         11   -1    0    0    0    0 -0.00000000000E+00 -0.00000000000E+00 -0.45593999997E+02  0.45594000000E+02  0.51100000000E-03 0. -1.
    9900012    2    1    2    0    0  0.14561775424E+02 -0.18016865871E+02 -0.33414260947E+02  0.50528860881E+02  0.30000003134E+02 0.  0.
        -12    1    1    2    0    0 -0.14561775424E+02  0.18016865871E+02  0.33414260947E+02  0.40659139119E+02  0.00000000000E+00 0.  1.
         11    1    3    3    0    0 -0.59521113279E+01 -0.19503277598E+01 -0.10222561330E+02  0.11988835141E+02  0.51100000000E-03 0. -1.
        -11    1    3    3    0    0  0.27872710032E+00  0.82286611731E-01  0.22343955427E+01  0.22532162758E+01  0.51100000000E-03 0.  1.
         12    1    3    3    0    0  0.20235159651E+02 -0.16148824723E+02 -0.25426095159E+02  0.36286809464E+02  0.00000000000E+00 0. -1.
</event>
<event>
 7    1  0.2937071E-011  0.5052887E+02  0.7816164E-02  0.1300439E+00
        -11   -1    0    0    0    0  0.00000000000E+00  0.00000000000E+00  0.45593999997E+02  0.45594000000E+02  0.51100000000E-03 0. -1.
         11   -1    0    0    0    0 -0.00000000000E+00 -0.00000000000E+00 -0.45593999997E+02  0.45594000000E+02  0.51100000000E-03 0.  1.
    9900012    2    1    2    0    0  0.34362743770E+02 -0.10903027401E+01  0.21706636695E+02  0.50528868233E+02  0.30000025480E+02 0.  0.
        -12    1    1    2    0    0 -0.34362743770E+02  0.10903027401E+01 -0.21706636695E+02  0.40659131767E+02  0.00000000000E+00 0.  1.
         11    1    3    3    0    0 -0.36276577461E+01  0.32656181471E+01  0.18545587697E+01  0.52214510528E+01  0.51100000000E-03 0. -1.
        -11    1    3    3    0    0  0.48866523635E+01  0.12689997611E+01 -0.17926474267E+01  0.53575476454E+01  0.51100000000E-03 0.  1.
         12    1    3    3    0    0  0.33103749152E+02 -0.56249206483E+01  0.21644725352E+02  0.39949869534E+02  0.00000000000E+00 0. -1.
</event>
<event>
 7    1  0.2937071E-011  0.5052886E+02  0.7816164E-02  0.1300439E+00
        -11   -1    0    0    0    0  0.00000000000E+00  0.00000000000E+00  0.45593999997E+02  0.45594000000E+02  0.51100000000E-03 0. -1.
         11   -1    0    0    0    0 -0.00000000000E+00 -0.00000000000E+00 -0.45593999997E+02  0.45594000000E+02  0.51100000000E-03 0.  1.
    9900012    2    1    2    0    0  0.14369231748E+01  0.25612540611E+02  0.31545190295E+02  0.50528855696E+02  0.29999987374E+02 0.  0.
        -12    1    1    2    0    0 -0.14369231748E+01 -0.25612540611E+02 -0.31545190295E+02  0.40659144304E+02  0.00000000000E+00 0.  1.
         11    1    3    3    0    0  0.53167880070E+01  0.32663076281E+01  0.52879982146E+01  0.81792374713E+01  0.51100000000E-03 0. -1.
        -11    1    3    3    0    0  0.58369093729E+01  0.22764823799E+02  0.18495894123E+02  0.29906601500E+02  0.51100000000E-03 0.  1.
        -12    1    3    3    0    0 -0.97167742051E+01 -0.41859081593E+00  0.77612979572E+01  0.12443016724E+02  0.00000000000E+00 0.  1.
</event>
<event>
 7    1  0.2937071E-011  0.5052884E+02  0.7816164E-02  0.1300439E+00
        -11   -1    0    0    0    0  0.00000000000E+00  0.00000000000E+00  0.45593999997E+02  0.45594000000E+02  0.51100000000E-03 0.  1.
         11   -1    0    0    0    0 -0.00000000000E+00 -0.00000000000E+00 -0.45593999997E+02  0.45594000000E+02  0.51100000000E-03 0. -1.
    9900012    2    1    2    0    0 -0.34281829302E+02 -0.12861463061E+02 -0.17677844431E+02  0.50528840687E+02  0.29999941751E+02 0.  0.
        -12    1    1    2    0    0  0.34281829302E+02  0.12861463061E+02  0.17677844431E+02  0.40659159313E+02  0.00000000000E+00 0.  1.
         11    1    3    3    0    0 -0.18216850305E+02 -0.70397884097E+00 -0.19073563374E+01  0.18329954438E+02  0.51100000000E-03 0. -1.
        -11    1    3    3    0    0 -0.18103110735E+02 -0.50572014847E+01 -0.55692934442E+01  0.19603952022E+02  0.51100000000E-03 0.  1.
        -12    1    3    3    0    0  0.20381317384E+01 -0.71002827356E+01 -0.10201194649E+02  0.12594934227E+02  0.00000000000E+00 0.  1.
</event>
<event>
 7    1  0.2937071E-011  0.5052884E+02  0.7816164E-02  0.1300439E+00
        -11   -1    0    0    0    0  0.00000000000E+00  0.00000000000E+00  0.45593999997E+02  0.45594000000E+02  0.51100000000E-03 0.  1.
         11   -1    0    0    0    0 -0.00000000000E+00 -0.00000000000E+00 -0.45593999997E+02  0.45594000000E+02  0.51100000000E-03 0. -1.
    9900012    2    1    2    0    0 -0.14641392082E+02 -0.26754952573E+02 -0.26888087550E+02  0.50528842343E+02  0.29999946786E+02 0.  0.
        -12    1    1    2    0    0  0.14641392082E+02  0.26754952573E+02  0.26888087550E+02  0.40659157657E+02  0.00000000000E+00 0.  1.
         11    1    3    3    0    0 -0.48622462629E+01 -0.16995252485E+02 -0.17431907635E+02  0.24826426440E+02  0.51100000000E-03 0. -1.
        -11    1    3    3    0    0  0.31289773688E+01  0.27759341825E+01 -0.61036424860E+01  0.73993757722E+01  0.51100000000E-03 0.  1.
        -12    1    3    3    0    0 -0.12908123188E+02 -0.12535634271E+02 -0.33525374285E+01  0.18303040130E+02  0.00000000000E+00 0.  1.
</event>
<event>
 7    1  0.2937071E-011  0.5052886E+02  0.7816164E-02  0.1300439E+00
        -11   -1    0    0    0    0  0.00000000000E+00  0.00000000000E+00  0.45593999997E+02  0.45594000000E+02  0.51100000000E-03 0.  1.
         11   -1    0    0    0    0 -0.00000000000E+00 -0.00000000000E+00 -0.45593999997E+02  0.45594000000E+02  0.51100000000E-03 0. -1.
    9900012    2    1    2    0    0  0.50809080450E+01 -0.11123628755E+02 -0.38776477544E+02  0.50528856453E+02  0.29999989676E+02 0.  0.
        -12    1    1    2    0    0 -0.50809080450E+01  0.11123628755E+02  0.38776477544E+02  0.40659143547E+02  0.00000000000E+00 0.  1.
         11    1    3    3    0    0  0.19875127582E+01 -0.18622942139E+01  0.11558273211E+01  0.29587638906E+01  0.51100000000E-03 0.  1.
        -11    1    3    3    0    0 -0.86886563011E+01  0.22453453621E+01 -0.10235694738E+02  0.13612632778E+02  0.51100000000E-03 0. -1.
        -12    1    3    3    0    0  0.11782051588E+02 -0.11506679903E+02 -0.29696610127E+02  0.33957459785E+02  0.00000000000E+00 0.  1.
</event>
<event>
 7    1  0.2937071E-011  0.5052886E+02  0.7816164E-02  0.1300439E+00
        -11   -1    0    0    0    0  0.00000000000E+00  0.00000000000E+00  0.45593999997E+02  0.45594000000E+02  0.51100000000E-03 0.  1.
         11   -1    0    0    0    0 -0.00000000000E+00 -0.00000000000E+00 -0.45593999997E+02  0.45594000000E+02  0.51100000000E-03 0. -1.
    9900012    2    1    2    0    0 -0.19139167478E+02  0.38278920393E+01 -0.35667989785E+02  0.50528856078E+02  0.29999988534E+02 0.  0.
        -12    1    1    2    0    0  0.19139167478E+02 -0.38278920393E+01  0.35667989785E+02  0.40659143922E+02  0.00000000000E+00 0.  1.
         11    1    3    3    0    0 -0.54935700868E+01  0.10139204261E+02 -0.62560270951E+01  0.13119476004E+02  0.51100000000E-03 0. -1.
        -11    1    3    3    0    0 -0.48876201056E+01  0.46272883078E+01 -0.27133581639E+01  0.72569236021E+01  0.51100000000E-03 0.  1.
        -12    1    3    3    0    0 -0.87579772858E+01 -0.10938600529E+02 -0.26698604526E+02  0.30152456472E+02  0.00000000000E+00 0.  1.
</event>
<event>
 7    1  0.2937071E-011  0.5052885E+02  0.7816164E-02  0.1300439E+00
        -11   -1    0    0    0    0  0.00000000000E+00  0.00000000000E+00  0.45593999997E+02  0.45594000000E+02  0.51100000000E-03 0. -1.
         11   -1    0    0    0    0 -0.00000000000E+00 -0.00000000000E+00 -0.45593999997E+02  0.45594000000E+02  0.51100000000E-03 0.  1.
    9900012    2    1    2    0    0  0.17148150774E+02  0.10784023709E+01  0.36850297181E+02  0.50528850612E+02  0.29999971920E+02 0.  0.
        -12    1    1    2    0    0 -0.17148150774E+02 -0.10784023709E+01 -0.36850297181E+02  0.40659149388E+02  0.00000000000E+00 0.  1.
         11    1    3    3    0    0  0.39703570698E+01 -0.94696422466E+00 -0.86280498132E+00  0.41719191269E+01  0.51100000000E-03 0. -1.
        -11    1    3    3    0    0  0.11550404943E+01 -0.81173228757E+01  0.39318701746E+01  0.90931101689E+01  0.51100000000E-03 0.  1.
         12    1    3    3    0    0  0.12022753210E+02  0.10142689471E+02  0.33781231988E+02  0.37263821316E+02  0.00000000000E+00 0. -1.
</event>
<event>
 7    1  0.2937071E-011  0.5052885E+02  0.7816164E-02  0.1300439E+00
        -11   -1    0    0    0    0  0.00000000000E+00  0.00000000000E+00  0.45593999997E+02  0.45594000000E+02  0.51100000000E-03 0.  1.
         11   -1    0    0    0    0 -0.00000000000E+00 -0.00000000000E+00 -0.45593999997E+02  0.45594000000E+02  0.51100000000E-03 0. -1.
    9900012    2    1    2    0    0 -0.29707387919E+02  0.15181680926E+02  0.23241210760E+02  0.50528853301E+02  0.29999980095E+02 0.  0.
        -12    1    1    2    0    0  0.29707387919E+02 -0.15181680926E+02 -0.23241210760E+02  0.40659146699E+02  0.00000000000E+00 0.  1.
         11    1    3    3    0    0 -0.32487242075E+01  0.15035416231E+01  0.10883481942E+01  0.37415703176E+01  0.51100000000E-03 0. -1.
        -11    1    3    3    0    0 -0.21914873118E+02 -0.45607001764E+01  0.11155144965E+02  0.25009976196E+02  0.51100000000E-03 0.  1.
         12    1    3    3    0    0 -0.45437905931E+01  0.18238839479E+02  0.10997717601E+02  0.21777306787E+02  0.00000000000E+00 0. -1.
</event>
<event>
 7    1  0.2937071E-011  0.5052886E+02  0.7816164E-02  0.1300439E+00
        -11   -1    0    0    0    0  0.00000000000E+00  0.00000000000E+00  0.45593999997E+02  0.45594000000E+02  0.51100000000E-03 0.  1.
         11   -1    0    0    0    0 -0.00000000000E+00 -0.00000000000E+00 -0.45593999997E+02  0.45594000000E+02  0.51100000000E-03 0. -1.
    9900012    2    1    2    0    0 -0.40548923047E+02  0.27314668424E+01 -0.12203843275E+01  0.50528863151E+02  0.30000010033E+02 0.  0.
        -12    1    1    2    0    0  0.40548923047E+02 -0.27314668424E+01  0.12203843275E+01  0.40659136849E+02  0.00000000000E+00 0.  1.
         11    1    3    3    0    0 -0.17652927396E+02  0.19383490377E+01  0.52845932793E+01  0.18528625664E+02  0.51100000000E-03 0. -1.
        -11    1    3    3    0    0 -0.10986337598E+02 -0.88184532477E+01  0.24044624700E+01  0.14291471986E+02  0.51100000000E-03 0.  1.
        -12    1    3    3    0    0 -0.11909658054E+02  0.96115710524E+01 -0.89094400767E+01  0.17708765500E+02  0.00000000000E+00 0.  1.
</event>
<event>
 7    1  0.2937071E-011  0.5052886E+02  0.7816164E-02  0.1300439E+00
        -11   -1    0    0    0    0  0.00000000000E+00  0.00000000000E+00  0.45593999997E+02  0.45594000000E+02  0.51100000000E-03 0.  1.
         11   -1    0    0    0    0 -0.00000000000E+00 -0.00000000000E+00 -0.45593999997E+02  0.45594000000E+02  0.51100000000E-03 0. -1.
    9900012    2    1    2    0    0 -0.47745941963E-01 -0.32246385269E+02 -0.24765583842E+02  0.50528858523E+02  0.29999995966E+02 0.  0.
        -12    1    1    2    0    0  0.47745941963E-01  0.32246385269E+02  0.24765583842E+02  0.40659141477E+02  0.00000000000E+00 0.  1.
         11    1    3    3    0    0 -0.10028738508E+02 -0.17689790129E+02 -0.45124046187E+01  0.20829451903E+02  0.51100000000E-03 0. -1.
        -11    1    3    3    0    0 -0.17627486770E+01 -0.70812747344E+01 -0.40816596180E+01  0.83613204855E+01  0.51100000000E-03 0.  1.
        -12    1    3    3    0    0  0.11743741243E+02 -0.74753204057E+01 -0.16171519606E+02  0.21338086135E+02  0.00000000000E+00 0.  1.
</event>
<event>
 7    1  0.2937071E-011  0.5052895E+02  0.7816164E-02  0.1300438E+00
        -11   -1    0    0    0    0  0.00000000000E+00  0.00000000000E+00  0.45593999997E+02  0.45594000000E+02  0.51100000000E-03 0.  1.
         11   -1    0    0    0    0 -0.00000000000E+00 -0.00000000000E+00 -0.45593999997E+02  0.45594000000E+02  0.51100000000E-03 0. -1.
    9900012    2    1    2    0    0 -0.33755003069E+02 -0.20851330660E+02 -0.88870958064E+01  0.50528945727E+02  0.30000261031E+02 0.  0.
        -12    1    1    2    0    0  0.33755003069E+02  0.20851330660E+02  0.88870958064E+01  0.40659054273E+02  0.00000000000E+00 0.  1.
         11    1    3    3    0    0 -0.12050235210E+02  0.33366293485E+01 -0.56059491952E+01  0.13702843889E+02  0.51100000000E-03 0. -1.
        -11    1    3    3    0    0 -0.17345132307E+02 -0.97169711407E+01  0.36254539885E+01  0.20209331008E+02  0.51100000000E-03 0.  1.
        -12    1    3    3    0    0 -0.43596355520E+01 -0.14470988868E+02 -0.69066005997E+01  0.16616770830E+02  0.00000000000E+00 0.  1.
</event>
<event>
 7    1  0.2937071E-011  0.5052887E+02  0.7816164E-02  0.1300439E+00
        -11   -1    0    0    0    0  0.00000000000E+00  0.00000000000E+00  0.45593999997E+02  0.45594000000E+02  0.51100000000E-03 0. -1.
         11   -1    0    0    0    0 -0.00000000000E+00 -0.00000000000E+00 -0.45593999997E+02  0.45594000000E+02  0.51100000000E-03 0.  1.
    9900012    2    1    2    0    0  0.33092578640E+02 -0.10389174629E+00  0.23622766889E+02  0.50528872242E+02  0.30000037668E+02 0.  0.
        -12    1    1    2    0    0 -0.33092578640E+02  0.10389174629E+00 -0.23622766889E+02  0.40659127758E+02  0.00000000000E+00 0.  1.
         11    1    3    3    0    0  0.10274915697E+02 -0.10891719297E+02  0.60230968983E+01  0.16139428067E+02  0.51100000000E-03 0. -1.
        -11    1    3    3    0    0  0.30717054652E+01 -0.27276420384E+01  0.72197258527E+01  0.83066146656E+01  0.51100000000E-03 0.  1.
        -12    1    3    3    0    0  0.19745957477E+02  0.13515469589E+02  0.10379944138E+02  0.26082829509E+02  0.00000000000E+00 0.  1.
</event>
<event>
 7    1  0.2937071E-011  0.5052886E+02  0.7816164E-02  0.1300439E+00
        -11   -1    0    0    0    0  0.00000000000E+00  0.00000000000E+00  0.45593999997E+02  0.45594000000E+02  0.51100000000E-03 0. -1.
         11   -1    0    0    0    0 -0.00000000000E+00 -0.00000000000E+00 -0.45593999997E+02  0.45594000000E+02  0.51100000000E-03 0.  1.
    9900012    2    1    2    0    0  0.39223908457E+02 -0.21374123727E+01 -0.10492015312E+02  0.50528856974E+02  0.29999991259E+02 0.  0.
        -12    1    1    2    0    0 -0.39223908457E+02  0.21374123727E+01  0.10492015312E+02  0.40659143026E+02  0.00000000000E+00 0.  1.
         11    1    3    3    0    0  0.33170281223E+02 -0.48781509666E+01 -0.16389752800E+02  0.37318734041E+02  0.51100000000E-03 0.  1.
        -11    1    3    3    0    0  0.20558243249E+01 -0.34626972214E+01  0.38021454141E+01  0.55383206582E+01  0.51100000000E-03 0. -1.
        -12    1    3    3    0    0  0.39978029086E+01  0.62034358153E+01  0.20955920739E+01  0.76718022753E+01  0.00000000000E+00 0.  1.
</event>
<event>
 7    1  0.2937071E-011  0.5052886E+02  0.7816164E-02  0.1300439E+00
        -11   -1    0    0    0    0  0.00000000000E+00  0.00000000000E+00  0.45593999997E+02  0.45594000000E+02  0.51100000000E-03 0.  1.
         11   -1    0    0    0    0 -0.00000000000E+00 -0.00000000000E+00 -0.45593999997E+02  0.45594000000E+02  0.51100000000E-03 0. -1.
    9900012    2    1    2    0    0 -0.28915831372E+02 -0.12611832630E+02 -0.25651165479E+02  0.50528856912E+02  0.29999991070E+02 0.  0.
        -12    1    1    2    0    0  0.28915831372E+02  0.12611832630E+02  0.25651165479E+02  0.40659143088E+02  0.00000000000E+00 0.  1.
         11    1    3    3    0    0 -0.14390751264E+02 -0.13100389637E+01 -0.18669165498E+02  0.23608211806E+02  0.51100000000E-03 0. -1.
        -11    1    3    3    0    0 -0.16036426351E+02 -0.12051452950E+02 -0.10774042584E+02  0.22770254328E+02  0.51100000000E-03 0.  1.
        -12    1    3    3    0    0  0.15113462431E+01  0.74965928335E+00  0.37920426027E+01  0.41503907778E+01  0.00000000000E+00 0.  1.
</event>
<event>
 7    1  0.2937071E-011  0.5052887E+02  0.7816164E-02  0.1300439E+00
        -11   -1    0    0    0    0  0.00000000000E+00  0.00000000000E+00  0.45593999997E+02  0.45594000000E+02  0.51100000000E-03 0.  1.
         11   -1    0    0    0    0 -0.00000000000E+00 -0.00000000000E+00 -0.45593999997E+02  0.45594000000E+02  0.51100000000E-03 0. -1.
    9900012    2    1    2    0    0 -0.37089414751E+02  0.57779830213E+01  0.15625471816E+02  0.50528866416E+02  0.30000019957E+02 0.  0.
        -12    1    1    2    0    0  0.37089414751E+02 -0.57779830213E+01 -0.15625471816E+02  0.40659133584E+02  0.00000000000E+00 0.  1.
         11    1    3    3    0    0 -0.71709408477E+01  0.69578511713E+01  0.27968506396E+01  0.10375763072E+02  0.51100000000E-03 0. -1.
        -11    1    3    3    0    0  0.25632558357E+01  0.43219731478E+01  0.83710934345E+00  0.50941618234E+01  0.51100000000E-03 0.  1.
         12    1    3    3    0    0 -0.32481729739E+02 -0.55018412979E+01  0.11991511833E+02  0.35058941520E+02  0.00000000000E+00 0. -1.
</event>
<event>
 7    1  0.3386128E-011  0.5052886E+02  0.7816164E-02  0.1300439E+00
        -11   -1    0    0    0    0  0.00000000000E+00  0.00000000000E+00  0.45593999997E+02  0.45594000000E+02  0.51100000000E-03 0. -1.
         11   -1    0    0    0    0 -0.00000000000E+00 -0.00000000000E+00 -0.45593999997E+02  0.45594000000E+02  0.51100000000E-03 0.  1.
    9900012    2    1    2    0    0 -0.33810859422E+02 -0.18447128858E+02  0.13026687037E+02  0.50528863842E+02  0.30000012134E+02 0.  0.
        -12    1    1    2    0    0  0.33810859422E+02  0.18447128858E+02 -0.13026687037E+02  0.40659136158E+02  0.00000000000E+00 0.  1.
         11    1    3    3    0    0 -0.17044319704E+02 -0.17725405170E+02  0.85104688686E+01  0.26021662192E+02  0.51100000000E-03 0. -1.
        -11    1    3    3    0    0 -0.16951760316E+02 -0.65800210947E+01  0.27881332123E+01  0.18396536155E+02  0.51100000000E-03 0.  1.
        -12    1    3    3    0    0  0.18522059866E+00  0.58582974068E+01  0.17280849565E+01  0.61106654951E+01  0.00000000000E+00 0.  1.
</event>
<event>
 7    1  0.2937071E-011  0.5052886E+02  0.7816164E-02  0.1300439E+00
        -11   -1    0    0    0    0  0.00000000000E+00  0.00000000000E+00  0.45593999997E+02  0.45594000000E+02  0.51100000000E-03 0.  1.
         11   -1    0    0    0    0 -0.00000000000E+00 -0.00000000000E+00 -0.45593999997E+02  0.45594000000E+02  0.51100000000E-03 0. -1.
    9900012    2    1    2    0    0  0.23843986573E+02 -0.11431134133E+02 -0.30886230335E+02  0.50528858991E+02  0.29999997389E+02 0.  0.
        -12    1    1    2    0    0 -0.23843986573E+02  0.11431134133E+02  0.30886230335E+02  0.40659141009E+02  0.00000000000E+00 0.  1.
         11    1    3    3    0    0 -0.30699787368E+01  0.19251900392E+01 -0.13293902236E+02  0.13778931855E+02  0.51100000000E-03 0. -1.
        -11    1    3    3    0    0  0.65743186312E+01 -0.14820929687E+01 -0.98948893651E+01  0.11971929704E+02  0.51100000000E-03 0.  1.
        -12    1    3    3    0    0  0.20339646679E+02 -0.11874231203E+02 -0.76974387344E+01  0.24777997432E+02  0.00000000000E+00 0.  1.
</event>
<event>
 7    1  0.2937071E-011  0.5052887E+02  0.7816164E-02  0.1300439E+00
        -11   -1    0    0    0    0  0.00000000000E+00  0.00000000000E+00  0.45593999997E+02  0.45594000000E+02  0.51100000000E-03 0. -1.
         11   -1    0    0    0    0 -0.00000000000E+00 -0.00000000000E+00 -0.45593999997E+02  0.45594000000E+02  0.51100000000E-03 0.  1.
    9900012    2    1    2    0    0  0.13852493150E+02 -0.10385562574E+02  0.36788767413E+02  0.50528869608E+02  0.30000029660E+02 0.  0.
        -12    1    1    2    0    0 -0.13852493150E+02  0.10385562574E+02 -0.36788767413E+02  0.40659130392E+02  0.00000000000E+00 0.  1.
         11    1    3    3    0    0 -0.28573708276E+01  0.73310738574E+00  0.64216294002E+01  0.70667771225E+01  0.51100000000E-03 0. -1.
        -11    1    3    3    0    0 -0.29415034886E+01  0.76436411811E+00  0.16191963269E+02  0.16474719118E+02  0.51100000000E-03 0.  1.
        -12    1    3    3    0    0  0.19651367467E+02 -0.11883034078E+02  0.14175174745E+02  0.26987373367E+02  0.00000000000E+00 0.  1.
</event>
<event>
 7    1  0.2937071E-011  0.5052881E+02  0.7816164E-02  0.1300439E+00
        -11   -1    0    0    0    0  0.00000000000E+00  0.00000000000E+00  0.45593999997E+02  0.45594000000E+02  0.51100000000E-03 0. -1.
         11   -1    0    0    0    0 -0.00000000000E+00 -0.00000000000E+00 -0.45593999997E+02  0.45594000000E+02  0.51100000000E-03 0.  1.
    9900012    2    1    2    0    0 -0.13658161623E+02 -0.38282518170E+02  0.10359122913E+01  0.50528810502E+02  0.29999850003E+02 0.  0.
        -12    1    1    2    0    0  0.13658161623E+02  0.38282518170E+02 -0.10359122913E+01  0.40659189498E+02  0.00000000000E+00 0.  1.
         11    1    3    3    0    0 -0.10569444011E+02 -0.28865055625E+02  0.82358752532E+01  0.31823485422E+02  0.51100000000E-03 0. -1.
        -11    1    3    3    0    0 -0.29050382012E+01 -0.28627518850E+01  0.40091591221E+01  0.57190866782E+01  0.51100000000E-03 0.  1.
        -12    1    3    3    0    0 -0.18367941115E+00 -0.65547106593E+01 -0.11209122084E+02  0.12986238402E+02  0.00000000000E+00 0.  1.
</event>
<event>
 7    1  0.2937071E-011  0.5052884E+02  0.7816164E-02  0.1300439E+00
        -11   -1    0    0    0    0  0.00000000000E+00  0.00000000000E+00  0.45593999997E+02  0.45594000000E+02  0.51100000000E-03 0. -1.
         11   -1    0    0    0    0 -0.00000000000E+00 -0.00000000000E+00 -0.45593999997E+02  0.45594000000E+02  0.51100000000E-03 0.  1.
    9900012    2    1    2    0    0 -0.57626686172E+01  0.15596209825E+02 -0.37104138423E+02  0.50528841147E+02  0.29999943149E+02 0.  0.
        -12    1    1    2    0    0  0.57626686172E+01 -0.15596209825E+02  0.37104138423E+02  0.40659158853E+02  0.00000000000E+00 0.  1.
         11    1    3    3    0    0  0.83008569360E+01  0.48823281019E+01 -0.81491488178E+01  0.12615465916E+02  0.51100000000E-03 0. -1.
        -11    1    3    3    0    0  0.13802794752E+01 -0.28894775166E+01 -0.76409543281E+01  0.82848316250E+01  0.51100000000E-03 0.  1.
         12    1    3    3    0    0 -0.15443805028E+02  0.13603359240E+02 -0.21314035278E+02  0.29628543605E+02  0.00000000000E+00 0. -1.
</event>
<event>
 7    1  0.2937071E-011  0.5052886E+02  0.7816164E-02  0.1300439E+00
        -11   -1    0    0    0    0  0.00000000000E+00  0.00000000000E+00  0.45593999997E+02  0.45594000000E+02  0.51100000000E-03 0. -1.
         11   -1    0    0    0    0 -0.00000000000E+00 -0.00000000000E+00 -0.45593999997E+02  0.45594000000E+02  0.51100000000E-03 0.  1.
    9900012    2    1    2    0    0  0.75742264384E+01  0.55833150345E+00  0.39943526516E+02  0.50528856493E+02  0.29999989796E+02 0.  0.
        -12    1    1    2    0    0 -0.75742264384E+01 -0.55833150345E+00 -0.39943526516E+02  0.40659143507E+02  0.00000000000E+00 0.  1.
         11    1    3    3    0    0  0.13083218499E+01  0.45949842072E+01 -0.13133789112E+01  0.49548511938E+01  0.51100000000E-03 0. -1.
        -11    1    3    3    0    0  0.13762590471E+01 -0.54209410564E+01  0.19246381874E+01  0.59148054334E+01  0.51100000000E-03 0.  1.
         12    1    3    3    0    0  0.48896455414E+01  0.13842883527E+01  0.39332267240E+02  0.39659199866E+02  0.00000000000E+00 0. -1.
</event>
<event>
 7    1  0.2937071E-011  0.5052886E+02  0.7816164E-02  0.1300439E+00
        -11   -1    0    0    0    0  0.00000000000E+00  0.00000000000E+00  0.45593999997E+02  0.45594000000E+02  0.51100000000E-03 0. -1.
         11   -1    0    0    0    0 -0.00000000000E+00 -0.00000000000E+00 -0.45593999997E+02  0.45594000000E+02  0.51100000000E-03 0.  1.
    9900012    2    1    2    0    0  0.88289590326E+01  0.34137551939E+02  0.20244579121E+02  0.50528856455E+02  0.29999989680E+02 0.  0.
        -12    1    1    2    0    0 -0.88289590326E+01 -0.34137551939E+02 -0.20244579121E+02  0.40659143545E+02  0.00000000000E+00 0.  1.
         11    1    3    3    0    0  0.11572972577E+02  0.61599890210E+01  0.11230876239E+02  0.17263016549E+02  0.51100000000E-03 0. -1.
        -11    1    3    3    0    0 -0.64983777987E+01  0.44714699595E+01  0.43540575892E+01  0.90100374785E+01  0.51100000000E-03 0.  1.
         12    1    3    3    0    0  0.37543642544E+01  0.23506092959E+02  0.46596452933E+01  0.24255802428E+02  0.00000000000E+00 0. -1.
</event>
<event>
 7    1  0.2937071E-011  0.5052886E+02  0.7816164E-02  0.1300439E+00
        -11   -1    0    0    0    0  0.00000000000E+00  0.00000000000E+00  0.45593999997E+02  0.45594000000E+02  0.51100000000E-03 0.  1.
         11   -1    0    0    0    0 -0.00000000000E+00 -0.00000000000E+00 -0.45593999997E+02  0.45594000000E+02  0.51100000000E-03 0. -1.
    9900012    2    1    2    0    0 -0.11187894867E+02  0.12506336824E+02 -0.37034961445E+02  0.50528858082E+02  0.29999994625E+02 0.  0.
        -12    1    1    2    0    0  0.11187894867E+02 -0.12506336824E+02  0.37034961445E+02  0.40659141918E+02  0.00000000000E+00 0.  1.
         11    1    3    3    0    0  0.47905816082E+01 -0.14959207988E+01 -0.16239768393E+02  0.16997574206E+02  0.51100000000E-03 0. -1.
        -11    1    3    3    0    0  0.22695450544E+01 -0.45120647832E+00 -0.46741007536E+01  0.52155191646E+01  0.51100000000E-03 0.  1.
        -12    1    3    3    0    0 -0.18248021530E+02  0.14453464101E+02 -0.16121092298E+02  0.28315764711E+02  0.00000000000E+00 0.  1.
</event>
<event>
 7    1  0.2937071E-011  0.5052886E+02  0.7816164E-02  0.1300439E+00
        -11   -1    0    0    0    0  0.00000000000E+00  0.00000000000E+00  0.45593999997E+02  0.45594000000E+02  0.51100000000E-03 0.  1.
         11   -1    0    0    0    0 -0.00000000000E+00 -0.00000000000E+00 -0.45593999997E+02  0.45594000000E+02  0.51100000000E-03 0. -1.
    9900012    2    1    2    0    0  0.54920575404E+01  0.30476820594E+02 -0.26347037530E+02  0.50528859870E+02  0.30000000060E+02 0.  0.
        -12    1    1    2    0    0 -0.54920575404E+01 -0.30476820594E+02  0.26347037530E+02  0.40659140130E+02  0.00000000000E+00 0.  1.
         11    1    3    3    0    0  0.14541582540E+01  0.65576885542E+00 -0.31966140760E+01  0.35725272331E+01  0.51100000000E-03 0. -1.
        -11    1    3    3    0    0 -0.45461897310E+01 -0.33244032279E+01 -0.11903299271E-01  0.56320191620E+01  0.51100000000E-03 0.  1.
         12    1    3    3    0    0  0.85840890174E+01  0.33145454966E+02 -0.23138520155E+02  0.41324313474E+02  0.00000000000E+00 0. -1.
</event>
<event>
 7    1  0.2937071E-011  0.5052886E+02  0.7816164E-02  0.1300439E+00
        -11   -1    0    0    0    0  0.00000000000E+00  0.00000000000E+00  0.45593999997E+02  0.45594000000E+02  0.51100000000E-03 0. -1.
         11   -1    0    0    0    0 -0.00000000000E+00 -0.00000000000E+00 -0.45593999997E+02  0.45594000000E+02  0.51100000000E-03 0.  1.
    9900012    2    1    2    0    0  0.10044294286E+02  0.38816185894E+02  0.67514362665E+01  0.50528855558E+02  0.29999986954E+02 0.  0.
        -12    1    1    2    0    0 -0.10044294286E+02 -0.38816185894E+02 -0.67514362665E+01  0.40659144442E+02  0.00000000000E+00 0.  1.
         11    1    3    3    0    0 -0.71666529610E+00  0.10475392084E+02  0.77338739588E+01  0.13040715285E+02  0.51100000000E-03 0. -1.
        -11    1    3    3    0    0  0.11047881588E+02  0.31971759708E+02 -0.68427016279E+00  0.33833671576E+02  0.51100000000E-03 0.  1.
        -12    1    3    3    0    0 -0.28692200556E+00 -0.36309658975E+01 -0.29816752954E+00  0.36544686976E+01  0.00000000000E+00 0.  1.
</event>
<event>
 7    1  0.2937071E-011  0.5052885E+02  0.7816164E-02  0.1300439E+00
        -11   -1    0    0    0    0  0.00000000000E+00  0.00000000000E+00  0.45593999997E+02  0.45594000000E+02  0.51100000000E-03 0.  1.
         11   -1    0    0    0    0 -0.00000000000E+00 -0.00000000000E+00 -0.45593999997E+02  0.45594000000E+02  0.51100000000E-03 0. -1.
    9900012    2    1    2    0    0 -0.19365321564E+02  0.23993080946E+01 -0.35670638917E+02  0.50528845565E+02  0.29999956581E+02 0.  0.
        -12    1    1    2    0    0  0.19365321564E+02 -0.23993080946E+01  0.35670638917E+02  0.40659154435E+02  0.00000000000E+00 0.  1.
         11    1    3    3    0    0  0.28855059412E+01 -0.29196086245E+01 -0.13717155573E+02  0.14318191796E+02  0.51100000000E-03 0. -1.
        -11    1    3    3    0    0 -0.54818430261E+01 -0.44317073439E+01 -0.18236118089E+00  0.70515167734E+01  0.51100000000E-03 0.  1.
         12    1    3    3    0    0 -0.16768984479E+02  0.97506240630E+01 -0.21771122163E+02  0.29159136996E+02  0.00000000000E+00 0. -1.
</event>
<event>
 7    1  0.2937071E-011  0.5052890E+02  0.7816164E-02  0.1300439E+00
        -11   -1    0    0    0    0  0.00000000000E+00  0.00000000000E+00  0.45593999997E+02  0.45594000000E+02  0.51100000000E-03 0.  1.
         11   -1    0    0    0    0 -0.00000000000E+00 -0.00000000000E+00 -0.45593999997E+02  0.45594000000E+02  0.51100000000E-03 0. -1.
    9900012    2    1    2    0    0 -0.70815986787E+01 -0.20593494527E+02 -0.34335428929E+02  0.50528896020E+02  0.30000109942E+02 0.  0.
        -12    1    1    2    0    0  0.70815986787E+01  0.20593494527E+02  0.34335428929E+02  0.40659103980E+02  0.00000000000E+00 0.  1.
         11    1    3    3    0    0  0.28007040708E+01 -0.20456065942E+01 -0.28739858795E+01  0.45042474096E+01  0.51100000000E-03 0. -1.
        -11    1    3    3    0    0  0.31960363812E+01 -0.12834114241E+01  0.34920293509E+01  0.49046980215E+01  0.51100000000E-03 0.  1.
         12    1    3    3    0    0 -0.13078339131E+02 -0.17264476509E+02 -0.34953472401E+02  0.41119950589E+02  0.00000000000E+00 0. -1.
</event>
<event>
 7    1  0.2937071E-011  0.5052876E+02  0.7816164E-02  0.1300439E+00
        -11   -1    0    0    0    0  0.00000000000E+00  0.00000000000E+00  0.45593999997E+02  0.45594000000E+02  0.51100000000E-03 0.  1.
         11   -1    0    0    0    0 -0.00000000000E+00 -0.00000000000E+00 -0.45593999997E+02  0.45594000000E+02  0.51100000000E-03 0. -1.
    9900012    2    1    2    0    0  0.40457180863E+02  0.23262139311E+00 -0.40418162153E+01  0.50528759053E+02  0.29999693615E+02 0.  0.
        -12    1    1    2    0    0 -0.40457180863E+02 -0.23262139311E+00  0.40418162153E+01  0.40659240947E+02  0.00000000000E+00 0.  1.
         11    1    3    3    0    0  0.12830913354E+02 -0.50371777045E+01  0.29275963764E+01  0.14091710951E+02  0.51100000000E-03 0. -1.
        -11    1    3    3    0    0  0.68061809143E+01 -0.32825428967E+00  0.77593949617E+01  0.10326667417E+02  0.51100000000E-03 0.  1.
         12    1    3    3    0    0  0.20820086594E+02  0.55980533872E+01 -0.14728807553E+02  0.26110380684E+02  0.00000000000E+00 0. -1.
</event>
<event>
 7    1  0.2937071E-011  0.5052884E+02  0.7816164E-02  0.1300439E+00
        -11   -1    0    0    0    0  0.00000000000E+00  0.00000000000E+00  0.45593999997E+02  0.45594000000E+02  0.51100000000E-03 0.  1.
         11   -1    0    0    0    0 -0.00000000000E+00 -0.00000000000E+00 -0.45593999997E+02  0.45594000000E+02  0.51100000000E-03 0. -1.
    9900012    2    1    2    0    0  0.29688764782E+02  0.20168348730E+01 -0.27706987357E+02  0.50528837126E+02  0.29999930927E+02 0.  0.
        -12    1    1    2    0    0 -0.29688764782E+02 -0.20168348730E+01  0.27706987357E+02  0.40659162874E+02  0.00000000000E+00 0.  1.
         11    1    3    3    0    0  0.10359345740E+02  0.49744889869E+01 -0.16344644234E+02  0.19980214719E+02  0.51100000000E-03 0. -1.
        -11    1    3    3    0    0  0.98617720490E+01 -0.22495563665E+01 -0.16798175327E+02  0.19608512089E+02  0.51100000000E-03 0.  1.
        -12    1    3    3    0    0  0.94676469935E+01 -0.70809774744E+00  0.54358322029E+01  0.10940110317E+02  0.00000000000E+00 0.  1.
</event>
<event>
 7    1  0.2937071E-011  0.5052885E+02  0.7816164E-02  0.1300439E+00
        -11   -1    0    0    0    0  0.00000000000E+00  0.00000000000E+00  0.45593999997E+02  0.45594000000E+02  0.51100000000E-03 0.  1.
         11   -1    0    0    0    0 -0.00000000000E+00 -0.00000000000E+00 -0.45593999997E+02  0.45594000000E+02  0.51100000000E-03 0. -1.
    9900012    2    1    2    0    0 -0.20079439219E+02  0.28014409925E+02 -0.21567917456E+02  0.50528854581E+02  0.29999983986E+02 0.  0.
        -12    1    1    2    0    0  0.20079439219E+02 -0.28014409925E+02  0.21567917456E+02  0.40659145419E+02  0.00000000000E+00 0.  1.
         11    1    3    3    0    0  0.53110924020E+00  0.58363726585E+01  0.13053299794E+01  0.60040993871E+01  0.51100000000E-03 0. -1.
        -11    1    3    3    0    0 -0.32101214787E+01  0.20455342487E+02 -0.12886733418E+02  0.24388395081E+02  0.51100000000E-03 0.  1.
         12    1    3    3    0    0 -0.17400426980E+02  0.17226947794E+01 -0.99865140174E+01  0.20136360113E+02  0.00000000000E+00 0. -1.
</event>
<event>
 7    1  0.2937071E-011  0.5052886E+02  0.7816164E-02  0.1300439E+00
        -11   -1    0    0    0    0  0.00000000000E+00  0.00000000000E+00  0.45593999997E+02  0.45594000000E+02  0.51100000000E-03 0.  1.
         11   -1    0    0    0    0 -0.00000000000E+00 -0.00000000000E+00 -0.45593999997E+02  0.45594000000E+02  0.51100000000E-03 0. -1.
    9900012    2    1    2    0    0 -0.36639253855E+02 -0.17202497254E+02 -0.38477047728E+01  0.50528859984E+02  0.30000000407E+02 0.  0.
        -12    1    1    2    0    0  0.36639253855E+02  0.17202497254E+02  0.38477047728E+01  0.40659140016E+02  0.00000000000E+00 0.  1.
         11    1    3    3    0    0 -0.13503537878E+02 -0.10723356093E+02 -0.45471759729E+01  0.17832910888E+02  0.51100000000E-03 0.  1.
        -11    1    3    3    0    0 -0.21632467746E+02  0.37926584915E+01  0.26870156228E+01  0.22126182961E+02  0.51100000000E-03 0. -1.
         12    1    3    3    0    0 -0.15032482314E+01 -0.10271799652E+02 -0.19875444228E+01  0.10569766136E+02  0.00000000000E+00 0. -1.
</event>
<event>
 7    1  0.2937071E-011  0.5052882E+02  0.7816164E-02  0.1300439E+00
        -11   -1    0    0    0    0  0.00000000000E+00  0.00000000000E+00  0.45593999997E+02  0.45594000000E+02  0.51100000000E-03 0. -1.
         11   -1    0    0    0    0 -0.00000000000E+00 -0.00000000000E+00 -0.45593999997E+02  0.45594000000E+02  0.51100000000E-03 0.  1.
    9900012    2    1    2    0    0  0.15416924763E+02  0.31391279439E+02 -0.20738247137E+02  0.50528820369E+02  0.29999879994E+02 0.  0.
        -12    1    1    2    0    0 -0.15416924763E+02 -0.31391279439E+02  0.20738247137E+02  0.40659179631E+02  0.00000000000E+00 0.  1.
         11    1    3    3    0    0  0.48019040873E+01  0.12747172790E+02 -0.92363490972E+01  0.16457789703E+02  0.51100000000E-03 0. -1.
        -11    1    3    3    0    0 -0.55626872773E+01  0.13239992630E+02 -0.86864146501E+01  0.16783762818E+02  0.51100000000E-03 0.  1.
         12    1    3    3    0    0  0.16177707953E+02  0.54041140185E+01 -0.28154833893E+01  0.17287267848E+02  0.00000000000E+00 0. -1.
</event>
<event>
 7    1  0.2937071E-011  0.5052886E+02  0.7816164E-02  0.1300439E+00
        -11   -1    0    0    0    0  0.00000000000E+00  0.00000000000E+00  0.45593999997E+02  0.45594000000E+02  0.51100000000E-03 0. -1.
         11   -1    0    0    0    0 -0.00000000000E+00 -0.00000000000E+00 -0.45593999997E+02  0.45594000000E+02  0.51100000000E-03 0.  1.
    9900012    2    1    2    0    0  0.17018301168E+02  0.36678993336E+02  0.42655179995E+01  0.50528858708E+02  0.29999996530E+02 0.  0.
        -12    1    1    2    0    0 -0.17018301168E+02 -0.36678993336E+02 -0.42655179995E+01  0.40659141292E+02  0.00000000000E+00 0.  1.
         11    1    3    3    0    0  0.93948465996E+01  0.10990710888E+02 -0.25876098942E+01  0.14688587191E+02  0.51100000000E-03 0. -1.
        -11    1    3    3    0    0  0.91202000409E+01  0.62504808303E+01 -0.59116805704E+01  0.12537724148E+02  0.51100000000E-03 0.  1.
         12    1    3    3    0    0 -0.14967454726E+01  0.19437801618E+02  0.12764808464E+02  0.23302547369E+02  0.00000000000E+00 0. -1.
</event>
<event>
 7    1  0.2937071E-011  0.5052889E+02  0.7816164E-02  0.1300439E+00
        -11   -1    0    0    0    0  0.00000000000E+00  0.00000000000E+00  0.45593999997E+02  0.45594000000E+02  0.51100000000E-03 0. -1.
         11   -1    0    0    0    0 -0.00000000000E+00 -0.00000000000E+00 -0.45593999997E+02  0.45594000000E+02  0.51100000000E-03 0.  1.
    9900012    2    1    2    0    0 -0.11677558928E+02  0.34598535501E+02  0.17881255845E+02  0.50528888452E+02  0.30000086937E+02 0.  0.
        -12    1    1    2    0    0  0.11677558928E+02 -0.34598535501E+02 -0.17881255845E+02  0.40659111548E+02  0.00000000000E+00 0.  1.
         11    1    3    3    0    0 -0.73685006498E+01  0.10757896742E+02 -0.17720635612E+01  0.13159306732E+02  0.51100000000E-03 0. -1.
        -11    1    3    3    0    0  0.12373939836E+01  0.24526530768E+01 -0.40956295867E+01  0.49316156540E+01  0.51100000000E-03 0.  1.
         12    1    3    3    0    0 -0.55464522618E+01  0.21387985682E+02  0.23748948993E+02  0.32437966066E+02  0.00000000000E+00 0. -1.
</event>
<event>
 7    1  0.2937071E-011  0.5052888E+02  0.7816164E-02  0.1300439E+00
        -11   -1    0    0    0    0  0.00000000000E+00  0.00000000000E+00  0.45593999997E+02  0.45594000000E+02  0.51100000000E-03 0. -1.
         11   -1    0    0    0    0 -0.00000000000E+00 -0.00000000000E+00 -0.45593999997E+02  0.45594000000E+02  0.51100000000E-03 0.  1.
    9900012    2    1    2    0    0  0.16973758403E+02 -0.35052852998E+02 -0.11677043907E+02  0.50528876398E+02  0.30000050300E+02 0.  0.
        -12    1    1    2    0    0 -0.16973758403E+02  0.35052852998E+02  0.11677043907E+02  0.40659123602E+02  0.00000000000E+00 0.  1.
         11    1    3    3    0    0  0.94066256777E+01 -0.26131503702E+02  0.49109179363E+01  0.28203850936E+02  0.51100000000E-03 0. -1.
        -11    1    3    3    0    0  0.21920754896E+01 -0.35167307387E+01 -0.82838985984E-01  0.41448103213E+01  0.51100000000E-03 0.  1.
        -12    1    3    3    0    0  0.53750572353E+01 -0.54046185574E+01 -0.16505122857E+02  0.18180215141E+02  0.00000000000E+00 0.  1.
</event>
<event>
 7    1  0.2937071E-011  0.5052886E+02  0.7816164E-02  0.1300439E+00
        -11   -1    0    0    0    0  0.00000000000E+00  0.00000000000E+00  0.45593999997E+02  0.45594000000E+02  0.51100000000E-03 0. -1.
         11   -1    0    0    0    0 -0.00000000000E+00 -0.00000000000E+00 -0.45593999997E+02  0.45594000000E+02  0.51100000000E-03 0.  1.
    9900012    2    1    2    0    0 -0.25070599321E+02  0.22838512165E+00  0.32009042614E+02  0.50528856881E+02  0.29999990977E+02 0.  0.
        -12    1    1    2    0    0  0.25070599321E+02 -0.22838512165E+00 -0.32009042614E+02  0.40659143119E+02  0.00000000000E+00 0.  1.
         11    1    3    3    0    0 -0.21202797412E+02  0.24636480038E+01  0.16793286906E+02  0.27159577776E+02  0.51100000000E-03 0. -1.
        -11    1    3    3    0    0 -0.17267501682E+01 -0.64749697607E+01 -0.72087705623E+00  0.67399231106E+01  0.51100000000E-03 0.  1.
         12    1    3    3    0    0 -0.21410517413E+01  0.42397068785E+01  0.15936632764E+02  0.16629355995E+02  0.00000000000E+00 0. -1.
</event>
<event>
 7    1  0.2937071E-011  0.5052885E+02  0.7816164E-02  0.1300439E+00
        -11   -1    0    0    0    0  0.00000000000E+00  0.00000000000E+00  0.45593999997E+02  0.45594000000E+02  0.51100000000E-03 0.  1.
         11   -1    0    0    0    0 -0.00000000000E+00 -0.00000000000E+00 -0.45593999997E+02  0.45594000000E+02  0.51100000000E-03 0. -1.
    9900012    2    1    2    0    0 -0.33490192387E+01 -0.23379240527E+02 -0.33096244857E+02  0.50528852922E+02  0.29999978941E+02 0.  0.
        -12    1    1    2    0    0  0.33490192387E+01  0.23379240527E+02  0.33096244857E+02  0.40659147078E+02  0.00000000000E+00 0.  1.
         11    1    3    3    0    0 -0.13439722303E+02 -0.16315289060E+02 -0.23038745565E+02  0.31266573048E+02  0.51100000000E-03 0. -1.
        -11    1    3    3    0    0 -0.10366899623E+01 -0.30172650512E+01  0.69836150647E+00  0.32659337902E+01  0.51100000000E-03 0.  1.
         12    1    3    3    0    0  0.11127393026E+02 -0.40466864153E+01 -0.10755860799E+02  0.15996346084E+02  0.00000000000E+00 0. -1.
</event>
<event>
 7    1  0.2937071E-011  0.5052886E+02  0.7816164E-02  0.1300439E+00
        -11   -1    0    0    0    0  0.00000000000E+00  0.00000000000E+00  0.45593999997E+02  0.45594000000E+02  0.51100000000E-03 0.  1.
         11   -1    0    0    0    0 -0.00000000000E+00 -0.00000000000E+00 -0.45593999997E+02  0.45594000000E+02  0.51100000000E-03 0. -1.
    9900012    2    1    2    0    0  0.25579688278E+02 -0.26532721094E+02 -0.17171496414E+02  0.50528855516E+02  0.29999986828E+02 0.  0.
        -12    1    1    2    0    0 -0.25579688278E+02  0.26532721094E+02  0.17171496414E+02  0.40659144484E+02  0.00000000000E+00 0.  1.
         11    1    3    3    0    0 -0.11680420417E+01  0.28437510281E+01 -0.23532762920E+01  0.38715825819E+01  0.51100000000E-03 0. -1.
        -11    1    3    3    0    0 -0.58378259979E+00  0.89117762176E+00  0.22177485141E+01  0.24603675356E+01  0.51100000000E-03 0.  1.
         12    1    3    3    0    0  0.27331512920E+02 -0.30267649743E+02 -0.17035968636E+02  0.44196905399E+02  0.00000000000E+00 0. -1.
</event>
<event>
 7    1  0.2937071E-011  0.5052886E+02  0.7816164E-02  0.1300439E+00
        -11   -1    0    0    0    0  0.00000000000E+00  0.00000000000E+00  0.45593999997E+02  0.45594000000E+02  0.51100000000E-03 0. -1.
         11   -1    0    0    0    0 -0.00000000000E+00 -0.00000000000E+00 -0.45593999997E+02  0.45594000000E+02  0.51100000000E-03 0.  1.
    9900012    2    1    2    0    0 -0.36002715951E+02  0.98247116748E+01  0.16138307824E+02  0.50528862100E+02  0.30000006840E+02 0.  0.
        -12    1    1    2    0    0  0.36002715951E+02 -0.98247116748E+01 -0.16138307824E+02  0.40659137900E+02  0.00000000000E+00 0.  1.
         11    1    3    3    0    0 -0.14894680546E+02  0.94036133448E+01  0.35401149001E+01  0.17966965973E+02  0.51100000000E-03 0. -1.
        -11    1    3    3    0    0 -0.16318685764E+02  0.98371733040E+01  0.10620317415E+02  0.21814229896E+02  0.51100000000E-03 0.  1.
        -12    1    3    3    0    0 -0.47893496406E+01 -0.94160749740E+01  0.19778755091E+01  0.10747666232E+02  0.00000000000E+00 0.  1.
</event>
<event>
 7    1  0.2937071E-011  0.5052886E+02  0.7816164E-02  0.1300439E+00
        -11   -1    0    0    0    0  0.00000000000E+00  0.00000000000E+00  0.45593999997E+02  0.45594000000E+02  0.51100000000E-03 0.  1.
         11   -1    0    0    0    0 -0.00000000000E+00 -0.00000000000E+00 -0.45593999997E+02  0.45594000000E+02  0.51100000000E-03 0. -1.
    9900012    2    1    2    0    0  0.27134673349E+02  0.19395176438E+01 -0.30217766684E+02  0.50528860193E+02  0.30000001043E+02 0.  0.
        -12    1    1    2    0    0 -0.27134673349E+02 -0.19395176438E+01  0.30217766684E+02  0.40659139807E+02  0.00000000000E+00 0.  1.
         11    1    3    3    0    0  0.72042250887E+01 -0.81185050765E+01 -0.57354371037E+01  0.12276246285E+02  0.51100000000E-03 0. -1.
        -11    1    3    3    0    0  0.69342337590E+00  0.10015632011E+02 -0.10031823734E+02  0.14192646273E+02  0.51100000000E-03 0.  1.
         12    1    3    3    0    0  0.19237024885E+02  0.42390709531E-01 -0.14450505847E+02  0.24059967635E+02  0.00000000000E+00 0. -1.
</event>
<event>
 7    1  0.2937071E-011  0.5052886E+02  0.7816164E-02  0.1300439E+00
        -11   -1    0    0    0    0  0.00000000000E+00  0.00000000000E+00  0.45593999997E+02  0.45594000000E+02  0.51100000000E-03 0.  1.
         11   -1    0    0    0    0 -0.00000000000E+00 -0.00000000000E+00 -0.45593999997E+02  0.45594000000E+02  0.51100000000E-03 0. -1.
    9900012    2    1    2    0    0 -0.97496806835E+00 -0.37524683504E+02 -0.15624134457E+02  0.50528855735E+02  0.29999987493E+02 0.  0.
        -12    1    1    2    0    0  0.97496806835E+00  0.37524683504E+02  0.15624134457E+02  0.40659144265E+02  0.00000000000E+00 0.  1.
         11    1    3    3    0    0  0.68450435417E+01 -0.27254872857E+01 -0.32006178794E+00  0.73746418111E+01  0.51100000000E-03 0. -1.
        -11    1    3    3    0    0 -0.64071202327E+00  0.37405559025E+00  0.28369598179E+01  0.29323660670E+01  0.51100000000E-03 0.  1.
         12    1    3    3    0    0 -0.71792995868E+01 -0.35173251809E+02 -0.18141032487E+02  0.40221847857E+02  0.00000000000E+00 0. -1.
</event>
<event>
 7    1  0.2937071E-011  0.5052886E+02  0.7816164E-02  0.1300439E+00
        -11   -1    0    0    0    0  0.00000000000E+00  0.00000000000E+00  0.45593999997E+02  0.45594000000E+02  0.51100000000E-03 0.  1.
         11   -1    0    0    0    0 -0.00000000000E+00 -0.00000000000E+00 -0.45593999997E+02  0.45594000000E+02  0.51100000000E-03 0. -1.
    9900012    2    1    2    0    0 -0.76938696211E+01 -0.13357678697E+01 -0.39902197748E+02  0.50528864610E+02  0.30000014469E+02 0.  0.
        -12    1    1    2    0    0  0.76938696211E+01  0.13357678697E+01  0.39902197748E+02  0.40659135390E+02  0.00000000000E+00 0.  1.
         11    1    3    3    0    0 -0.56136627583E+00  0.14397616256E+01  0.97568110855E+00  0.18275665571E+01  0.51100000000E-03 0. -1.
        -11    1    3    3    0    0  0.72181923623E+01  0.38532869641E+01 -0.52440040954E+01  0.97185235823E+01  0.51100000000E-03 0.  1.
         12    1    3    3    0    0 -0.14350695708E+02 -0.66288164593E+01 -0.35633874761E+02  0.38982774471E+02  0.00000000000E+00 0. -1.
</event>
<event>
 7    1  0.2937071E-011  0.5052885E+02  0.7816164E-02  0.1300439E+00
        -11   -1    0    0    0    0  0.00000000000E+00  0.00000000000E+00  0.45593999997E+02  0.45594000000E+02  0.51100000000E-03 0.  1.
         11   -1    0    0    0    0 -0.00000000000E+00 -0.00000000000E+00 -0.45593999997E+02  0.45594000000E+02  0.51100000000E-03 0. -1.
    9900012    2    1    2    0    0 -0.27405610681E+02 -0.17403875757E+01 -0.29984493939E+02  0.50528851921E+02  0.29999975900E+02 0.  0.
        -12    1    1    2    0    0  0.27405610681E+02  0.17403875757E+01  0.29984493939E+02  0.40659148079E+02  0.00000000000E+00 0.  1.
         11    1    3    3    0    0 -0.31869897264E+01  0.18700157567E+01  0.33166313427E+01  0.49652699998E+01  0.51100000000E-03 0. -1.
        -11    1    3    3    0    0 -0.29837515282E+01  0.14911963585E+00  0.24152873182E+01  0.38416953209E+01  0.51100000000E-03 0.  1.
         12    1    3    3    0    0 -0.21234869426E+02 -0.37595229682E+01 -0.35716412600E+02  0.41721886601E+02  0.00000000000E+00 0. -1.
</event>
<event>
 7    1  0.2937071E-011  0.5052886E+02  0.7816164E-02  0.1300439E+00
        -11   -1    0    0    0    0  0.00000000000E+00  0.00000000000E+00  0.45593999997E+02  0.45594000000E+02  0.51100000000E-03 0.  1.
         11   -1    0    0    0    0 -0.00000000000E+00 -0.00000000000E+00 -0.45593999997E+02  0.45594000000E+02  0.51100000000E-03 0. -1.
    9900012    2    1    2    0    0  0.42451847453E+00 -0.39496726283E+02 -0.96433559945E+01  0.50528856898E+02  0.29999991026E+02 0.  0.
        -12    1    1    2    0    0 -0.42451847453E+00  0.39496726283E+02  0.96433559945E+01  0.40659143102E+02  0.00000000000E+00 0.  1.
         11    1    3    3    0    0 -0.33084127494E+01 -0.13760726822E+02  0.29346478891E+01  0.14453904527E+02  0.51100000000E-03 0. -1.
        -11    1    3    3    0    0 -0.90205114556E+01 -0.10158166551E+02 -0.37599094213E+01  0.14095917626E+02  0.51100000000E-03 0.  1.
        -12    1    3    3    0    0  0.12753442680E+02 -0.15577832910E+02 -0.88180944623E+01  0.21979034744E+02  0.00000000000E+00 0.  1.
</event>
<event>
 7    1  0.2937071E-011  0.5052886E+02  0.7816164E-02  0.1300439E+00
        -11   -1    0    0    0    0  0.00000000000E+00  0.00000000000E+00  0.45593999997E+02  0.45594000000E+02  0.51100000000E-03 0.  1.
         11   -1    0    0    0    0 -0.00000000000E+00 -0.00000000000E+00 -0.45593999997E+02  0.45594000000E+02  0.51100000000E-03 0. -1.
    9900012    2    1    2    0    0 -0.26646355307E+02  0.20314261688E+02 -0.23031891918E+02  0.50528861736E+02  0.30000005732E+02 0.  0.
        -12    1    1    2    0    0  0.26646355307E+02 -0.20314261688E+02  0.23031891918E+02  0.40659138264E+02  0.00000000000E+00 0.  1.
         11    1    3    3    0    0 -0.13455315811E+02 -0.38344650903E+01 -0.14989228782E+02  0.20504283110E+02  0.51100000000E-03 0. -1.
        -11    1    3    3    0    0 -0.18435013800E+01 -0.36123424040E+00 -0.92059799494E+00  0.20920058423E+01  0.51100000000E-03 0.  1.
        -12    1    3    3    0    0 -0.11347538116E+02  0.24509961019E+02 -0.71220651410E+01  0.27932572784E+02  0.00000000000E+00 0.  1.
</event>
<event>
 7    1  0.2937071E-011  0.5052885E+02  0.7816164E-02  0.1300439E+00
        -11   -1    0    0    0    0  0.00000000000E+00  0.00000000000E+00  0.45593999997E+02  0.45594000000E+02  0.51100000000E-03 0. -1.
         11   -1    0    0    0    0 -0.00000000000E+00 -0.00000000000E+00 -0.45593999997E+02  0.45594000000E+02  0.51100000000E-03 0.  1.
    9900012    2    1    2    0    0 -0.30215648319E+01 -0.21591892619E+02  0.34319477274E+02  0.50528853412E+02  0.29999980432E+02 0.  0.
        -12    1    1    2    0    0  0.30215648319E+01  0.21591892619E+02 -0.34319477274E+02  0.40659146588E+02  0.00000000000E+00 0.  1.
         11    1    3    3    0    0  0.11457818537E+01  0.31319432401E+01  0.67293999059E+01  0.75104399252E+01  0.51100000000E-03 0. -1.
        -11    1    3    3    0    0 -0.35768459760E+01  0.54979714700E-01 -0.22507942895E+01  0.42264553825E+01  0.51100000000E-03 0.  1.
         12    1    3    3    0    0 -0.59050070954E+00 -0.24778815573E+02  0.29840871657E+02  0.38791958105E+02  0.00000000000E+00 0. -1.
</event>
<event>
 7    1  0.2937071E-011  0.5052886E+02  0.7816164E-02  0.1300439E+00
        -11   -1    0    0    0    0  0.00000000000E+00  0.00000000000E+00  0.45593999997E+02  0.45594000000E+02  0.51100000000E-03 0. -1.
         11   -1    0    0    0    0 -0.00000000000E+00 -0.00000000000E+00 -0.45593999997E+02  0.45594000000E+02  0.51100000000E-03 0.  1.
    9900012    2    1    2    0    0  0.13513674689E+02  0.20271723484E+02  0.32551556208E+02  0.50528856033E+02  0.29999988397E+02 0.  0.
        -12    1    1    2    0    0 -0.13513674689E+02 -0.20271723484E+02 -0.32551556208E+02  0.40659143967E+02  0.00000000000E+00 0.  1.
         11    1    3    3    0    0 -0.84094059660E+00  0.57634435815E+01  0.21870802168E+02  0.22633083103E+02  0.51100000000E-03 0. -1.
        -11    1    3    3    0    0 -0.31757588426E+01  0.54251329784E+00  0.23355687042E+01  0.39792771124E+01  0.51100000000E-03 0.  1.
        -12    1    3    3    0    0  0.17530374128E+02  0.13965766604E+02  0.83451853358E+01  0.23916495818E+02  0.00000000000E+00 0.  1.
</event>
<event>
 7    1  0.2937071E-011  0.5052885E+02  0.7816164E-02  0.1300439E+00
        -11   -1    0    0    0    0  0.00000000000E+00  0.00000000000E+00  0.45593999997E+02  0.45594000000E+02  0.51100000000E-03 0.  1.
         11   -1    0    0    0    0 -0.00000000000E+00 -0.00000000000E+00 -0.45593999997E+02  0.45594000000E+02  0.51100000000E-03 0. -1.
    9900012    2    1    2    0    0  0.33545492481E+02  0.20619997700E+02  0.10133223576E+02  0.50528848619E+02  0.29999965863E+02 0.  0.
        -12    1    1    2    0    0 -0.33545492481E+02 -0.20619997700E+02 -0.10133223576E+02  0.40659151381E+02  0.00000000000E+00 0.  1.
         11    1    3    3    0    0  0.30157692769E+00  0.83343841976E+01 -0.14586264735E+01  0.84664337266E+01  0.51100000000E-03 0. -1.
        -11    1    3    3    0    0  0.11432275286E+01  0.71917799665E+01 -0.69510007737E+00  0.73151782376E+01  0.51100000000E-03 0.  1.
         12    1    3    3    0    0  0.32100688024E+02  0.50938335363E+01  0.12286950127E+02  0.34747236655E+02  0.00000000000E+00 0. -1.
</event>
<event>
 7    1  0.2937071E-011  0.5052885E+02  0.7816164E-02  0.1300439E+00
        -11   -1    0    0    0    0  0.00000000000E+00  0.00000000000E+00  0.45593999997E+02  0.45594000000E+02  0.51100000000E-03 0.  1.
         11   -1    0    0    0    0 -0.00000000000E+00 -0.00000000000E+00 -0.45593999997E+02  0.45594000000E+02  0.51100000000E-03 0. -1.
    9900012    2    1    2    0    0  0.16242116931E+02  0.17938563266E+02 -0.32673654255E+02  0.50528854697E+02  0.29999984336E+02 0.  0.
        -12    1    1    2    0    0 -0.16242116931E+02 -0.17938563266E+02  0.32673654255E+02  0.40659145303E+02  0.00000000000E+00 0.  1.
         11    1    3    3    0    0  0.15836025487E+02  0.14456621889E+02 -0.35570042398E+02  0.41533137807E+02  0.51100000000E-03 0. -1.
        -11    1    3    3    0    0  0.20360007082E+01 -0.79794833693E+00 -0.14964318180E+01  0.26497790246E+01  0.51100000000E-03 0.  1.
        -12    1    3    3    0    0 -0.16299092641E+01  0.42798897140E+01  0.43928199615E+01  0.63459378650E+01  0.00000000000E+00 0.  1.
</event>
<event>
 7    1  0.2937071E-011  0.5052885E+02  0.7816164E-02  0.1300439E+00
        -11   -1    0    0    0    0  0.00000000000E+00  0.00000000000E+00  0.45593999997E+02  0.45594000000E+02  0.51100000000E-03 0.  1.
         11   -1    0    0    0    0 -0.00000000000E+00 -0.00000000000E+00 -0.45593999997E+02  0.45594000000E+02  0.51100000000E-03 0. -1.
    9900012    2    1    2    0    0 -0.17917964098E+02  0.22001994122E+02 -0.29120870025E+02  0.50528852766E+02  0.29999978466E+02 0.  0.
        -12    1    1    2    0    0  0.17917964098E+02 -0.22001994122E+02  0.29120870025E+02  0.40659147234E+02  0.00000000000E+00 0.  1.
         11    1    3    3    0    0 -0.11422370245E+02  0.67357382605E+01 -0.88674401364E+01  0.15952185015E+02  0.51100000000E-03 0. -1.
        -11    1    3    3    0    0 -0.11191054206E+02  0.13486839759E+02 -0.45732769020E+01  0.18112134131E+02  0.51100000000E-03 0.  1.
        -12    1    3    3    0    0  0.46954603525E+01  0.17794161032E+01 -0.15680152987E+02  0.16464533619E+02  0.00000000000E+00 0.  1.
</event>
<event>
 7    1  0.2937071E-011  0.5052886E+02  0.7816164E-02  0.1300439E+00
        -11   -1    0    0    0    0  0.00000000000E+00  0.00000000000E+00  0.45593999997E+02  0.45594000000E+02  0.51100000000E-03 0.  1.
         11   -1    0    0    0    0 -0.00000000000E+00 -0.00000000000E+00 -0.45593999997E+02  0.45594000000E+02  0.51100000000E-03 0. -1.
    9900012    2    1    2    0    0 -0.22871630566E+02  0.87121390059E+01 -0.32467721389E+02  0.50528858556E+02  0.29999996067E+02 0.  0.
        -12    1    1    2    0    0  0.22871630566E+02 -0.87121390059E+01  0.32467721389E+02  0.40659141444E+02  0.00000000000E+00 0.  1.
         11    1    3    3    0    0 -0.95455681417E+01 -0.30649713457E+01 -0.11648426715E+01  0.10093006450E+02  0.51100000000E-03 0. -1.
        -11    1    3    3    0    0 -0.59018585122E+01 -0.46793169482E+01 -0.97665476410E+01  0.12333425886E+02  0.51100000000E-03 0.  1.
        -12    1    3    3    0    0 -0.74242039115E+01  0.16456427300E+02 -0.21536331076E+02  0.28102426219E+02  0.00000000000E+00 0.  1.
</event>
<event>
 7    1  0.2937071E-011  0.5052886E+02  0.7816164E-02  0.1300439E+00
        -11   -1    0    0    0    0  0.00000000000E+00  0.00000000000E+00  0.45593999997E+02  0.45594000000E+02  0.51100000000E-03 0.  1.
         11   -1    0    0    0    0 -0.00000000000E+00 -0.00000000000E+00 -0.45593999997E+02  0.45594000000E+02  0.51100000000E-03 0. -1.
    9900012    2    1    2    0    0  0.16864767458E+02 -0.34364388430E+02 -0.13705261080E+02  0.50528858902E+02  0.29999997118E+02 0.  0.
        -12    1    1    2    0    0 -0.16864767458E+02  0.34364388430E+02  0.13705261080E+02  0.40659141098E+02  0.00000000000E+00 0.  1.
         11    1    3    3    0    0  0.49151456662E+01 -0.69350573800E+01 -0.18646694103E+01  0.87023370456E+01  0.51100000000E-03 0. -1.
        -11    1    3    3    0    0  0.84209217753E+01 -0.15355335096E+02  0.72582678429E+01  0.18957338732E+02  0.51100000000E-03 0.  1.
        -12    1    3    3    0    0  0.35287000166E+01 -0.12073995954E+02 -0.19098859512E+02  0.22869183124E+02  0.00000000000E+00 0.  1.
</event>
<event>
 7    1  0.2937071E-011  0.5052887E+02  0.7816164E-02  0.1300439E+00
        -11   -1    0    0    0    0  0.00000000000E+00  0.00000000000E+00  0.45593999997E+02  0.45594000000E+02  0.51100000000E-03 0.  1.
         11   -1    0    0    0    0 -0.00000000000E+00 -0.00000000000E+00 -0.45593999997E+02  0.45594000000E+02  0.51100000000E-03 0. -1.
    9900012    2    1    2    0    0  0.25847530568E+02 -0.59204126611E+01 -0.30822377380E+02  0.50528867325E+02  0.30000022720E+02 0.  0.
        -12    1    1    2    0    0 -0.25847530568E+02  0.59204126611E+01  0.30822377380E+02  0.40659132675E+02  0.00000000000E+00 0.  1.
         11    1    3    3    0    0  0.43866353167E+00  0.78792291448E+00  0.27990681907E+01  0.29407535107E+01  0.51100000000E-03 0.  1.
        -11    1    3    3    0    0  0.40542612158E+01 -0.85496174788E+01 -0.24772390748E+01  0.97810892407E+01  0.51100000000E-03 0. -1.
         12    1    3    3    0    0  0.21354605821E+02  0.18412819032E+01 -0.31144206496E+02  0.37807024573E+02  0.00000000000E+00 0. -1.
</event>
<event>
 7    1  0.2937071E-011  0.5052886E+02  0.7816164E-02  0.1300439E+00
        -11   -1    0    0    0    0  0.00000000000E+00  0.00000000000E+00  0.45593999997E+02  0.45594000000E+02  0.51100000000E-03 0.  1.
         11   -1    0    0    0    0 -0.00000000000E+00 -0.00000000000E+00 -0.45593999997E+02  0.45594000000E+02  0.51100000000E-03 0. -1.
    9900012    2    1    2    0    0  0.73201670684E+01  0.13114421790E+02 -0.37783500149E+02  0.50528858490E+02  0.29999995867E+02 0.  0.
        -12    1    1    2    0    0 -0.73201670684E+01 -0.13114421790E+02  0.37783500149E+02  0.40659141510E+02  0.00000000000E+00 0.  1.
         11    1    3    3    0    0 -0.19648861949E+01 -0.91128241547E+00  0.16455806169E+01  0.27201377221E+01  0.51100000000E-03 0. -1.
        -11    1    3    3    0    0  0.93897236630E+01  0.11005168589E+02 -0.85956836127E+01  0.16827549530E+02  0.51100000000E-03 0.  1.
         12    1    3    3    0    0 -0.10467039973E+00  0.30205356169E+01 -0.30833397153E+02  0.30981171239E+02  0.00000000000E+00 0. -1.
</event>
<event>
 7    1  0.2937071E-011  0.5052885E+02  0.7816164E-02  0.1300439E+00
        -11   -1    0    0    0    0  0.00000000000E+00  0.00000000000E+00  0.45593999997E+02  0.45594000000E+02  0.51100000000E-03 0.  1.
         11   -1    0    0    0    0 -0.00000000000E+00 -0.00000000000E+00 -0.45593999997E+02  0.45594000000E+02  0.51100000000E-03 0. -1.
    9900012    2    1    2    0    0  0.60948909836E+01 -0.39945187067E+02 -0.45167108137E+01  0.50528851675E+02  0.29999975151E+02 0.  0.
        -12    1    1    2    0    0 -0.60948909836E+01  0.39945187067E+02  0.45167108137E+01  0.40659148325E+02  0.00000000000E+00 0.  1.
         11    1    3    3    0    0 -0.14414599180E+01 -0.16754512634E+02 -0.18366577732E+01  0.16916406602E+02  0.51100000000E-03 0.  1.
        -11    1    3    3    0    0  0.13211573988E+02 -0.21255124813E+02 -0.72700951033E+01  0.26061087873E+02  0.51100000000E-03 0. -1.
        -12    1    3    3    0    0 -0.56752230863E+01 -0.19355496199E+01  0.45900420628E+01  0.75513571991E+01  0.00000000000E+00 0.  1.
</event>
<event>
 7    1  0.2937071E-011  0.5052886E+02  0.7816164E-02  0.1300439E+00
        -11   -1    0    0    0    0  0.00000000000E+00  0.00000000000E+00  0.45593999997E+02  0.45594000000E+02  0.51100000000E-03 0. -1.
         11   -1    0    0    0    0 -0.00000000000E+00 -0.00000000000E+00 -0.45593999997E+02  0.45594000000E+02  0.51100000000E-03 0.  1.
    9900012    2    1    2    0    0 -0.15689273245E+02 -0.37469106635E+02  0.17545717955E+01  0.50528858726E+02  0.29999996583E+02 0.  0.
        -12    1    1    2    0    0  0.15689273245E+02  0.37469106635E+02 -0.17545717955E+01  0.40659141274E+02  0.00000000000E+00 0.  1.
         11    1    3    3    0    0  0.24672412716E+01 -0.57201484631E+00  0.24318718968E-01  0.25327992691E+01  0.51100000000E-03 0. -1.
        -11    1    3    3    0    0  0.52091814442E+01 -0.14247974567E+01  0.11194798008E+01  0.55153290380E+01  0.51100000000E-03 0.  1.
         12    1    3    3    0    0 -0.23365695960E+02 -0.35472294332E+02  0.61077327572E+00  0.42480730419E+02  0.00000000000E+00 0. -1.
</event>
<event>
 7    1  0.2937071E-011  0.5052886E+02  0.7816164E-02  0.1300439E+00
        -11   -1    0    0    0    0  0.00000000000E+00  0.00000000000E+00  0.45593999997E+02  0.45594000000E+02  0.51100000000E-03 0. -1.
         11   -1    0    0    0    0 -0.00000000000E+00 -0.00000000000E+00 -0.45593999997E+02  0.45594000000E+02  0.51100000000E-03 0.  1.
    9900012    2    1    2    0    0  0.37050100352E+02 -0.47136333362E+01  0.16069761053E+02  0.50528862089E+02  0.30000006806E+02 0.  0.
        -12    1    1    2    0    0 -0.37050100352E+02  0.47136333362E+01 -0.16069761053E+02  0.40659137911E+02  0.00000000000E+00 0.  1.
         11    1    3    3    0    0  0.12347204040E+02  0.22603800965E+00  0.19609694185E+02  0.23174223764E+02  0.51100000000E-03 0. -1.
        -11    1    3    3    0    0  0.50599267555E+01  0.20144672919E+01 -0.35791261996E+01  0.65169841073E+01  0.51100000000E-03 0.  1.
        -12    1    3    3    0    0  0.19642969557E+02 -0.69541386377E+01  0.39193068311E-01  0.20837654218E+02  0.00000000000E+00 0.  1.
</event>
<event>
 7    1  0.2937071E-011  0.5052885E+02  0.7816164E-02  0.1300439E+00
        -11   -1    0    0    0    0  0.00000000000E+00  0.00000000000E+00  0.45593999997E+02  0.45594000000E+02  0.51100000000E-03 0. -1.
         11   -1    0    0    0    0 -0.00000000000E+00 -0.00000000000E+00 -0.45593999997E+02  0.45594000000E+02  0.51100000000E-03 0.  1.
    9900012    2    1    2    0    0 -0.37411992964E+02 -0.14524884349E+02 -0.65220574332E+01  0.50528847081E+02  0.29999961189E+02 0.  0.
        -12    1    1    2    0    0  0.37411992964E+02  0.14524884349E+02  0.65220574332E+01  0.40659152919E+02  0.00000000000E+00 0.  1.
         11    1    3    3    0    0 -0.27009232475E+02 -0.15688759249E+02 -0.29818502161E+01  0.31377177003E+02  0.51100000000E-03 0. -1.
        -11    1    3    3    0    0 -0.52519204397E+00 -0.25846414285E+01  0.49428528940E+01  0.56024988166E+01  0.51100000000E-03 0.  1.
        -12    1    3    3    0    0 -0.98775684449E+01  0.37485163288E+01 -0.84830601110E+01  0.13549171262E+02  0.00000000000E+00 0.  1.
</event>
<event>
 7    1  0.2937071E-011  0.5052886E+02  0.7816164E-02  0.1300439E+00
        -11   -1    0    0    0    0  0.00000000000E+00  0.00000000000E+00  0.45593999997E+02  0.45594000000E+02  0.51100000000E-03 0. -1.
         11   -1    0    0    0    0 -0.00000000000E+00 -0.00000000000E+00 -0.45593999997E+02  0.45594000000E+02  0.51100000000E-03 0.  1.
    9900012    2    1    2    0    0  0.56363931643E+01  0.40219982856E+02 -0.19365070064E+01  0.50528855786E+02  0.29999987647E+02 0.  0.
        -12    1    1    2    0    0 -0.56363931643E+01 -0.40219982856E+02  0.19365070064E+01  0.40659144214E+02  0.00000000000E+00 0.  1.
         11    1    3    3    0    0  0.84716228547E+00 -0.23253711736E-01 -0.29073136018E+01  0.30283159203E+01  0.51100000000E-03 0. -1.
        -11    1    3    3    0    0 -0.65154809201E+01  0.92811624224E+00  0.16239020487E-01  0.65812730794E+01  0.51100000000E-03 0.  1.
         12    1    3    3    0    0  0.11304711799E+02  0.39315120325E+02  0.95456757487E+00  0.40919266786E+02  0.00000000000E+00 0. -1.
</event>
<event>
 7    1  0.2937071E-011  0.5052887E+02  0.7816164E-02  0.1300439E+00
        -11   -1    0    0    0    0  0.00000000000E+00  0.00000000000E+00  0.45593999997E+02  0.45594000000E+02  0.51100000000E-03 0.  1.
         11   -1    0    0    0    0 -0.00000000000E+00 -0.00000000000E+00 -0.45593999997E+02  0.45594000000E+02  0.51100000000E-03 0. -1.
    9900012    2    1    2    0    0  0.38517793513E+02 -0.10740036968E+02  0.73618200624E+01  0.50528865653E+02  0.30000017639E+02 0.  0.
        -12    1    1    2    0    0 -0.38517793513E+02  0.10740036968E+02 -0.73618200624E+01  0.40659134347E+02  0.00000000000E+00 0.  1.
         11    1    3    3    0    0 -0.11066175273E-01 -0.54530725523E+01 -0.29229941345E+01  0.61870847491E+01  0.51100000000E-03 0. -1.
        -11    1    3    3    0    0  0.15170280525E+02  0.59748469571E+01  0.84015412336E+01  0.18341812962E+02  0.51100000000E-03 0.  1.
         12    1    3    3    0    0  0.23358579163E+02 -0.11261811373E+02  0.18832729634E+01  0.25999967942E+02  0.00000000000E+00 0. -1.
</event>
<event>
 7    1  0.2937071E-011  0.5052886E+02  0.7816164E-02  0.1300439E+00
        -11   -1    0    0    0    0  0.00000000000E+00  0.00000000000E+00  0.45593999997E+02  0.45594000000E+02  0.51100000000E-03 0.  1.
         11   -1    0    0    0    0 -0.00000000000E+00 -0.00000000000E+00 -0.45593999997E+02  0.45594000000E+02  0.51100000000E-03 0. -1.
    9900012    2    1    2    0    0  0.23554312713E+02 -0.42195913599E+01 -0.32871803018E+02  0.50528855490E+02  0.29999986747E+02 0.  0.
        -12    1    1    2    0    0 -0.23554312713E+02  0.42195913599E+01  0.32871803018E+02  0.40659144510E+02  0.00000000000E+00 0.  1.
         11    1    3    3    0    0 -0.63166571572E+00  0.64309739628E+01 -0.49603680678E+00  0.64809320673E+01  0.51100000000E-03 0.  1.
        -11    1    3    3    0    0  0.40521727089E+01 -0.31124015777E+00  0.54171570810E+00  0.41000524714E+01  0.51100000000E-03 0. -1.
         12    1    3    3    0    0  0.20133805720E+02 -0.10339325165E+02 -0.32917481919E+02  0.39947870951E+02  0.00000000000E+00 0. -1.
</event>
<event>
 7    1  0.2937071E-011  0.5052887E+02  0.7816164E-02  0.1300439E+00
        -11   -1    0    0    0    0  0.00000000000E+00  0.00000000000E+00  0.45593999997E+02  0.45594000000E+02  0.51100000000E-03 0. -1.
         11   -1    0    0    0    0 -0.00000000000E+00 -0.00000000000E+00 -0.45593999997E+02  0.45594000000E+02  0.51100000000E-03 0.  1.
    9900012    2    1    2    0    0  0.37972321394E+02  0.13381090225E+02  0.56757759302E+01  0.50528865724E+02  0.30000017855E+02 0.  0.
        -12    1    1    2    0    0 -0.37972321394E+02 -0.13381090225E+02 -0.56757759302E+01  0.40659134276E+02  0.00000000000E+00 0.  1.
         11    1    3    3    0    0  0.23938191221E+02  0.65293722864E+01  0.26927353181E+01  0.24958375852E+02  0.51100000000E-03 0. -1.
        -11    1    3    3    0    0  0.15703808563E+02 -0.46473580640E+00  0.68373400042E+01  0.17134024669E+02  0.51100000000E-03 0.  1.
        -12    1    3    3    0    0 -0.16696783905E+01  0.73164537448E+01 -0.38542993922E+01  0.84364652036E+01  0.00000000000E+00 0.  1.
</event>
<event>
 7    1  0.2937071E-011  0.5052887E+02  0.7816164E-02  0.1300439E+00
        -11   -1    0    0    0    0  0.00000000000E+00  0.00000000000E+00  0.45593999997E+02  0.45594000000E+02  0.51100000000E-03 0.  1.
         11   -1    0    0    0    0 -0.00000000000E+00 -0.00000000000E+00 -0.45593999997E+02  0.45594000000E+02  0.51100000000E-03 0. -1.
    9900012    2    1    2    0    0 -0.63696442619E+01 -0.36998681866E+02 -0.15610578786E+02  0.50528868210E+02  0.30000025411E+02 0.  0.
        -12    1    1    2    0    0  0.63696442619E+01  0.36998681866E+02  0.15610578786E+02  0.40659131790E+02  0.00000000000E+00 0.  1.
         11    1    3    3    0    0 -0.11589686880E+02 -0.21998603850E+02 -0.55814015534E+01  0.25483552674E+02  0.51100000000E-03 0.  1.
        -11    1    3    3    0    0 -0.15109322077E+00 -0.17066225813E+02 -0.63240172621E+01  0.18200881497E+02  0.51100000000E-03 0. -1.
         12    1    3    3    0    0  0.53711358384E+01  0.20661477968E+01 -0.37051599707E+01  0.68444340395E+01  0.00000000000E+00 0. -1.
</event>
<event>
 7    1  0.2937071E-011  0.5052885E+02  0.7816164E-02  0.1300439E+00
        -11   -1    0    0    0    0  0.00000000000E+00  0.00000000000E+00  0.45593999997E+02  0.45594000000E+02  0.51100000000E-03 0.  1.
         11   -1    0    0    0    0 -0.00000000000E+00 -0.00000000000E+00 -0.45593999997E+02  0.45594000000E+02  0.51100000000E-03 0. -1.
    9900012    2    1    2    0    0 -0.34684566425E+02 -0.63883508958E+01 -0.20232058878E+02  0.50528851193E+02  0.29999973687E+02 0.  0.
        -12    1    1    2    0    0  0.34684566425E+02  0.63883508958E+01  0.20232058878E+02  0.40659148807E+02  0.00000000000E+00 0.  1.
         11    1    3    3    0    0 -0.17744723262E+02  0.20392887713E+01 -0.18906073037E+02  0.26009104180E+02  0.51100000000E-03 0. -1.
        -11    1    3    3    0    0 -0.49970720402E+01 -0.99779056693E+01 -0.45523234745E+01  0.12052094415E+02  0.51100000000E-03 0.  1.
        -12    1    3    3    0    0 -0.11942771123E+02  0.15502660022E+01  0.32263376331E+01  0.12467652597E+02  0.00000000000E+00 0.  1.
</event>
<event>
 7    1  0.2937071E-011  0.5052889E+02  0.7816164E-02  0.1300439E+00
        -11   -1    0    0    0    0  0.00000000000E+00  0.00000000000E+00  0.45593999997E+02  0.45594000000E+02  0.51100000000E-03 0. -1.
         11   -1    0    0    0    0 -0.00000000000E+00 -0.00000000000E+00 -0.45593999997E+02  0.45594000000E+02  0.51100000000E-03 0.  1.
    9900012    2    1    2    0    0  0.24878304345E+02 -0.31485804508E+02 -0.65480687826E+01  0.50528891335E+02  0.30000095703E+02 0.  0.
        -12    1    1    2    0    0 -0.24878304345E+02  0.31485804508E+02  0.65480687826E+01  0.40659108665E+02  0.00000000000E+00 0.  1.
         11    1    3    3    0    0  0.62247015337E+00 -0.73016788714E+01 -0.40571954696E+01  0.83763248965E+01  0.51100000000E-03 0. -1.
        -11    1    3    3    0    0  0.32616376700E+01 -0.16916619622E+02 -0.83953017955E+01  0.19164847827E+02  0.51100000000E-03 0.  1.
        -12    1    3    3    0    0  0.20994196522E+02 -0.72675060146E+01  0.59044284825E+01  0.22987718612E+02  0.00000000000E+00 0.  1.
</event>
<event>
 7    1  0.2937071E-011  0.5052886E+02  0.7816164E-02  0.1300439E+00
        -11   -1    0    0    0    0  0.00000000000E+00  0.00000000000E+00  0.45593999997E+02  0.45594000000E+02  0.51100000000E-03 0.  1.
         11   -1    0    0    0    0 -0.00000000000E+00 -0.00000000000E+00 -0.45593999997E+02  0.45594000000E+02  0.51100000000E-03 0. -1.
    9900012    2    1    2    0    0 -0.12922400411E+02  0.23800835227E+02 -0.30326510172E+02  0.50528863154E+02  0.30000010042E+02 0.  0.
        -12    1    1    2    0    0  0.12922400411E+02 -0.23800835227E+02  0.30326510172E+02  0.40659136846E+02  0.00000000000E+00 0.  1.
         11    1    3    3    0    0  0.40617676431E+01  0.80724943271E+01 -0.90202592792E+01  0.12768249636E+02  0.51100000000E-03 0. -1.
        -11    1    3    3    0    0 -0.42017352557E+01  0.10419091467E+02 -0.21115482046E+02  0.23918102526E+02  0.51100000000E-03 0.  1.
        -12    1    3    3    0    0 -0.12782432799E+02  0.53092494331E+01 -0.19076884642E+00  0.13842510991E+02  0.00000000000E+00 0.  1.
</event>
<event>
 7    1  0.2937071E-011  0.5052885E+02  0.7816164E-02  0.1300439E+00
        -11   -1    0    0    0    0  0.00000000000E+00  0.00000000000E+00  0.45593999997E+02  0.45594000000E+02  0.51100000000E-03 0. -1.
         11   -1    0    0    0    0 -0.00000000000E+00 -0.00000000000E+00 -0.45593999997E+02  0.45594000000E+02  0.51100000000E-03 0.  1.
    9900012    2    1    2    0    0 -0.33624040252E+02  0.18776317644E+02  0.13039943156E+02  0.50528852140E+02  0.29999976566E+02 0.  0.
        -12    1    1    2    0    0  0.33624040252E+02 -0.18776317644E+02 -0.13039943156E+02  0.40659147860E+02  0.00000000000E+00 0.  1.
         11    1    3    3    0    0 -0.21059694613E+02 -0.11272822196E+00  0.89009076036E+01  0.22863718011E+02  0.51100000000E-03 0. -1.
        -11    1    3    3    0    0 -0.38504737608E+01  0.10546419070E+02  0.92660511787E+01  0.14557225288E+02  0.51100000000E-03 0.  1.
        -12    1    3    3    0    0 -0.87138718784E+01  0.83426267956E+01 -0.51270156261E+01  0.13107908841E+02  0.00000000000E+00 0.  1.
</event>
<event>
 7    1  0.2937071E-011  0.5052888E+02  0.7816164E-02  0.1300439E+00
        -11   -1    0    0    0    0  0.00000000000E+00  0.00000000000E+00  0.45593999997E+02  0.45594000000E+02  0.51100000000E-03 0. -1.
         11   -1    0    0    0    0 -0.00000000000E+00 -0.00000000000E+00 -0.45593999997E+02  0.45594000000E+02  0.51100000000E-03 0.  1.
    9900012    2    1    2    0    0  0.18316401900E+02 -0.63024104283E+01  0.35748474099E+02  0.50528876102E+02  0.30000049399E+02 0.  0.
        -12    1    1    2    0    0 -0.18316401900E+02  0.63024104283E+01 -0.35748474099E+02  0.40659123898E+02  0.00000000000E+00 0.  1.
         11    1    3    3    0    0  0.43119369038E+01  0.12839756657E+01  0.22200378832E+01  0.50169673944E+01  0.51100000000E-03 0.  1.
        -11    1    3    3    0    0  0.11907423830E+02  0.50624030719E+01  0.29269113726E+02  0.32001495054E+02  0.51100000000E-03 0. -1.
         12    1    3    3    0    0  0.20970411657E+01 -0.12648789166E+02  0.42593224904E+01  0.13510413654E+02  0.00000000000E+00 0. -1.
</event>
<event>
 7    1  0.2937071E-011  0.5052885E+02  0.7816164E-02  0.1300439E+00
        -11   -1    0    0    0    0  0.00000000000E+00  0.00000000000E+00  0.45593999997E+02  0.45594000000E+02  0.51100000000E-03 0.  1.
         11   -1    0    0    0    0 -0.00000000000E+00 -0.00000000000E+00 -0.45593999997E+02  0.45594000000E+02  0.51100000000E-03 0. -1.
    9900012    2    1    2    0    0 -0.18110486472E+02 -0.32700598034E+02 -0.15995235390E+02  0.50528851125E+02  0.29999973479E+02 0.  0.
        -12    1    1    2    0    0  0.18110486472E+02  0.32700598034E+02  0.15995235390E+02  0.40659148875E+02  0.00000000000E+00 0.  1.
         11    1    3    3    0    0 -0.69905804789E+01 -0.14910680781E+02 -0.29720649595E+00  0.16470730061E+02  0.51100000000E-03 0. -1.
        -11    1    3    3    0    0 -0.13440704520E+02 -0.18257908628E+02 -0.19282268320E+02  0.29762554280E+02  0.51100000000E-03 0.  1.
        -12    1    3    3    0    0  0.23207985261E+01  0.46799137530E+00  0.35842394258E+01  0.42955667830E+01  0.00000000000E+00 0.  1.
</event>
<event>
 7    1  0.2937071E-011  0.5052885E+02  0.7816164E-02  0.1300439E+00
        -11   -1    0    0    0    0  0.00000000000E+00  0.00000000000E+00  0.45593999997E+02  0.45594000000E+02  0.51100000000E-03 0. -1.
         11   -1    0    0    0    0 -0.00000000000E+00 -0.00000000000E+00 -0.45593999997E+02  0.45594000000E+02  0.51100000000E-03 0.  1.
    9900012    2    1    2    0    0 -0.19085975414E+02 -0.35893314510E+02 -0.74940694222E+00  0.50528854722E+02  0.29999984412E+02 0.  0.
        -12    1    1    2    0    0  0.19085975414E+02  0.35893314510E+02  0.74940694222E+00  0.40659145278E+02  0.00000000000E+00 0.  1.
         11    1    3    3    0    0  0.37508529506E+00 -0.11494774510E+01  0.68686186453E+01  0.69742318391E+01  0.51100000000E-03 0. -1.
        -11    1    3    3    0    0  0.26451882524E+01 -0.26625303141E+01  0.41142297494E+00  0.37756267943E+01  0.51100000000E-03 0.  1.
        -12    1    3    3    0    0 -0.22106248962E+02 -0.32081306745E+02 -0.80294485625E+01  0.39778996088E+02  0.00000000000E+00 0.  1.
</event>
<event>
 7    1  0.2937071E-011  0.5052885E+02  0.7816164E-02  0.1300439E+00
        -11   -1    0    0    0    0  0.00000000000E+00  0.00000000000E+00  0.45593999997E+02  0.45594000000E+02  0.51100000000E-03 0.  1.
         11   -1    0    0    0    0 -0.00000000000E+00 -0.00000000000E+00 -0.45593999997E+02  0.45594000000E+02  0.51100000000E-03 0. -1.
    9900012    2    1    2    0    0  0.27878453350E+02  0.26983951361E+02 -0.12158301182E+02  0.50528854906E+02  0.29999984971E+02 0.  0.
        -12    1    1    2    0    0 -0.27878453350E+02 -0.26983951361E+02  0.12158301182E+02  0.40659145094E+02  0.00000000000E+00 0.  1.
         11    1    3    3    0    0 -0.30881830717E+01  0.78222593643E+01  0.19166558072E+01  0.86254383072E+01  0.51100000000E-03 0. -1.
        -11    1    3    3    0    0  0.13989298796E+01 -0.20790020182E+01  0.71771913036E+00  0.26066022349E+01  0.51100000000E-03 0.  1.
         12    1    3    3    0    0  0.29567706542E+02  0.21240694014E+02 -0.14792676119E+02  0.39296814363E+02  0.00000000000E+00 0. -1.
</event>
<event>
 7    1  0.2937071E-011  0.5052886E+02  0.7816164E-02  0.1300439E+00
        -11   -1    0    0    0    0  0.00000000000E+00  0.00000000000E+00  0.45593999997E+02  0.45594000000E+02  0.51100000000E-03 0. -1.
         11   -1    0    0    0    0 -0.00000000000E+00 -0.00000000000E+00 -0.45593999997E+02  0.45594000000E+02  0.51100000000E-03 0.  1.
    9900012    2    1    2    0    0  0.38727926844E+02 -0.11966006129E+02 -0.31824709564E+01  0.50528859064E+02  0.29999997610E+02 0.  0.
        -12    1    1    2    0    0 -0.38727926844E+02  0.11966006129E+02  0.31824709564E+01  0.40659140936E+02  0.00000000000E+00 0.  1.
         11    1    3    3    0    0  0.93310007757E+01  0.52676596945E+01 -0.20178739207E+01  0.10903560407E+02  0.51100000000E-03 0. -1.
        -11    1    3    3    0    0  0.11791146845E+02  0.29324378070E+01  0.30455759395E+01  0.12526207266E+02  0.51100000000E-03 0.  1.
         12    1    3    3    0    0  0.17605779223E+02 -0.20166103630E+02 -0.42101729752E+01  0.27099091390E+02  0.00000000000E+00 0. -1.
</event>
<event>
 7    1  0.2937071E-011  0.5052886E+02  0.7816164E-02  0.1300439E+00
        -11   -1    0    0    0    0  0.00000000000E+00  0.00000000000E+00  0.45593999997E+02  0.45594000000E+02  0.51100000000E-03 0. -1.
         11   -1    0    0    0    0 -0.00000000000E+00 -0.00000000000E+00 -0.45593999997E+02  0.45594000000E+02  0.51100000000E-03 0.  1.
    9900012    2    1    2    0    0 -0.66605996589E+00 -0.15271267463E+02  0.37676395113E+02  0.50528855955E+02  0.29999988160E+02 0.  0.
        -12    1    1    2    0    0  0.66605996589E+00  0.15271267463E+02 -0.37676395113E+02  0.40659144045E+02  0.00000000000E+00 0.  1.
         11    1    3    3    0    0 -0.20198502045E+01 -0.62778428506E+01  0.11646084782E+02  0.13383661558E+02  0.51100000000E-03 0. -1.
        -11    1    3    3    0    0  0.13288229602E+01 -0.17721018856E+02  0.17356380385E+02  0.24840374797E+02  0.51100000000E-03 0.  1.
        -12    1    3    3    0    0  0.24967278393E-01  0.87275942437E+01  0.86739299466E+01  0.12304819599E+02  0.00000000000E+00 0.  1.
</event>
<event>
 7    1  0.2937071E-011  0.5052886E+02  0.7816164E-02  0.1300439E+00
        -11   -1    0    0    0    0  0.00000000000E+00  0.00000000000E+00  0.45593999997E+02  0.45594000000E+02  0.51100000000E-03 0. -1.
         11   -1    0    0    0    0 -0.00000000000E+00 -0.00000000000E+00 -0.45593999997E+02  0.45594000000E+02  0.51100000000E-03 0.  1.
    9900012    2    1    2    0    0 -0.39688510248E+02  0.70514355141E+01  0.53164870682E+01  0.50528860520E+02  0.30000002035E+02 0.  0.
        -12    1    1    2    0    0  0.39688510248E+02 -0.70514355141E+01 -0.53164870682E+01  0.40659139480E+02  0.00000000000E+00 0.  1.
         11    1    3    3    0    0 -0.49570766826E+01 -0.20636016988E+01  0.26032892749E+01  0.59672587105E+01  0.51100000000E-03 0. -1.
        -11    1    3    3    0    0 -0.13199676409E+02 -0.83748324724E+01  0.57489154641E+01  0.16655909027E+02  0.51100000000E-03 0.  1.
         12    1    3    3    0    0 -0.21531757157E+02  0.17489869685E+02 -0.30357176707E+01  0.27905692782E+02  0.00000000000E+00 0. -1.
</event>
<event>
 7    1  0.2937071E-011  0.5052885E+02  0.7816164E-02  0.1300439E+00
        -11   -1    0    0    0    0  0.00000000000E+00  0.00000000000E+00  0.45593999997E+02  0.45594000000E+02  0.51100000000E-03 0.  1.
         11   -1    0    0    0    0 -0.00000000000E+00 -0.00000000000E+00 -0.45593999997E+02  0.45594000000E+02  0.51100000000E-03 0. -1.
    9900012    2    1    2    0    0  0.15726109996E+02  0.16749901505E+02 -0.33545447125E+02  0.50528846555E+02  0.29999959588E+02 0.  0.
        -12    1    1    2    0    0 -0.15726109996E+02 -0.16749901505E+02  0.33545447125E+02  0.40659153445E+02  0.00000000000E+00 0.  1.
         11    1    3    3    0    0  0.14529257789E+02  0.11652620116E+02 -0.81790358474E+01  0.20341571107E+02  0.51100000000E-03 0. -1.
        -11    1    3    3    0    0  0.11810183596E+01  0.54868534105E+01 -0.86030876767E+00  0.56780715169E+01  0.51100000000E-03 0.  1.
        -12    1    3    3    0    0  0.15833846928E-01 -0.38957202109E+00 -0.24506102510E+02  0.24509203931E+02  0.00000000000E+00 0.  1.
</event>
<event>
 7    1  0.2937071E-011  0.5052888E+02  0.7816164E-02  0.1300439E+00
        -11   -1    0    0    0    0  0.00000000000E+00  0.00000000000E+00  0.45593999997E+02  0.45594000000E+02  0.51100000000E-03 0.  1.
         11   -1    0    0    0    0 -0.00000000000E+00 -0.00000000000E+00 -0.45593999997E+02  0.45594000000E+02  0.51100000000E-03 0. -1.
    9900012    2    1    2    0    0  0.16463099423E+02 -0.36379177095E+02 -0.76606914692E+01  0.50528876024E+02  0.30000049163E+02 0.  0.
        -12    1    1    2    0    0 -0.16463099423E+02  0.36379177095E+02  0.76606914692E+01  0.40659123976E+02  0.00000000000E+00 0.  1.
         11    1    3    3    0    0 -0.72575458648E+01 -0.67648266811E+01 -0.17091311269E+01  0.10067570783E+02  0.51100000000E-03 0. -1.
        -11    1    3    3    0    0  0.11154403361E+02 -0.52861366510E+01  0.40875642450E+00  0.12350345627E+02  0.51100000000E-03 0.  1.
         12    1    3    3    0    0  0.12566241927E+02 -0.24328213763E+02 -0.63603167668E+01  0.28110959614E+02  0.00000000000E+00 0. -1.
</event>
<event>
 7    1  0.2937071E-011  0.5052891E+02  0.7816164E-02  0.1300439E+00
        -11   -1    0    0    0    0  0.00000000000E+00  0.00000000000E+00  0.45593999997E+02  0.45594000000E+02  0.51100000000E-03 0.  1.
         11   -1    0    0    0    0 -0.00000000000E+00 -0.00000000000E+00 -0.45593999997E+02  0.45594000000E+02  0.51100000000E-03 0. -1.
    9900012    2    1    2    0    0  0.38767510663E+02  0.17276981688E+01 -0.12134953119E+02  0.50528906169E+02  0.30000140790E+02 0.  0.
        -12    1    1    2    0    0 -0.38767510663E+02 -0.17276981688E+01  0.12134953119E+02  0.40659093831E+02  0.00000000000E+00 0.  1.
         11    1    3    3    0    0  0.16723201732E+02  0.67859018390E+01  0.84339874416E+00  0.18067242780E+02  0.51100000000E-03 0. -1.
        -11    1    3    3    0    0  0.14148376024E+01  0.42543633822E+01 -0.81747622545E+01  0.93235246236E+01  0.51100000000E-03 0.  1.
         12    1    3    3    0    0  0.20629471329E+02 -0.93125670524E+01 -0.48035896084E+01  0.23138138765E+02  0.00000000000E+00 0. -1.
</event>
<event>
 7    1  0.2937071E-011  0.5052887E+02  0.7816164E-02  0.1300439E+00
        -11   -1    0    0    0    0  0.00000000000E+00  0.00000000000E+00  0.45593999997E+02  0.45594000000E+02  0.51100000000E-03 0. -1.
         11   -1    0    0    0    0 -0.00000000000E+00 -0.00000000000E+00 -0.45593999997E+02  0.45594000000E+02  0.51100000000E-03 0.  1.
    9900012    2    1    2    0    0  0.11090462060E+02  0.13652456463E+02  0.36657567195E+02  0.50528866354E+02  0.30000019770E+02 0.  0.
        -12    1    1    2    0    0 -0.11090462060E+02 -0.13652456463E+02 -0.36657567195E+02  0.40659133646E+02  0.00000000000E+00 0.  1.
         11    1    3    3    0    0 -0.17456802386E+01  0.82502624994E+01  0.27247538619E+02  0.28522668035E+02  0.51100000000E-03 0. -1.
        -11    1    3    3    0    0  0.83892981559E+00  0.64129722552E+01 -0.39406566204E+00  0.64796068081E+01  0.51100000000E-03 0.  1.
        -12    1    3    3    0    0  0.11997212483E+02 -0.10107782918E+01  0.98040942384E+01  0.15526591511E+02  0.00000000000E+00 0.  1.
</event>
<event>
 7    1  0.2937071E-011  0.5052888E+02  0.7816164E-02  0.1300439E+00
        -11   -1    0    0    0    0  0.00000000000E+00  0.00000000000E+00  0.45593999997E+02  0.45594000000E+02  0.51100000000E-03 0.  1.
         11   -1    0    0    0    0 -0.00000000000E+00 -0.00000000000E+00 -0.45593999997E+02  0.45594000000E+02  0.51100000000E-03 0. -1.
    9900012    2    1    2    0    0 -0.98114782021E+01  0.21135979205E+02 -0.33319201088E+02  0.50528881925E+02  0.30000067099E+02 0.  0.
        -12    1    1    2    0    0  0.98114782021E+01 -0.21135979205E+02  0.33319201088E+02  0.40659118075E+02  0.00000000000E+00 0.  1.
         11    1    3    3    0    0  0.70408211713E+00 -0.71311465352E+00  0.12244576320E+01  0.15822644818E+01  0.51100000000E-03 0. -1.
        -11    1    3    3    0    0 -0.57972548827E+01 -0.43402845106E+01 -0.12253406957E+02  0.14233489246E+02  0.51100000000E-03 0.  1.
         12    1    3    3    0    0 -0.47183054366E+01  0.26189378369E+02 -0.22290251763E+02  0.34713128197E+02  0.00000000000E+00 0. -1.
</event>
<event>
 7    1  0.2937071E-011  0.5052886E+02  0.7816164E-02  0.1300439E+00
        -11   -1    0    0    0    0  0.00000000000E+00  0.00000000000E+00  0.45593999997E+02  0.45594000000E+02  0.51100000000E-03 0.  1.
         11   -1    0    0    0    0 -0.00000000000E+00 -0.00000000000E+00 -0.45593999997E+02  0.45594000000E+02  0.51100000000E-03 0. -1.
    9900012    2    1    2    0    0 -0.46201720186E+01  0.84101748121E+00 -0.40387033651E+02  0.50528858506E+02  0.29999995915E+02 0.  0.
        -12    1    1    2    0    0  0.46201720186E+01 -0.84101748121E+00  0.40387033651E+02  0.40659141494E+02  0.00000000000E+00 0.  1.
         11    1    3    3    0    0  0.29955934006E+01  0.43280562871E+01 -0.18338923081E+01  0.55739404648E+01  0.51100000000E-03 0. -1.
        -11    1    3    3    0    0 -0.34073797126E+01  0.55775731412E+01 -0.16758759813E+01  0.67474527947E+01  0.51100000000E-03 0.  1.
        -12    1    3    3    0    0 -0.42083857066E+01 -0.90646119471E+01 -0.36877265362E+02  0.38207465247E+02  0.00000000000E+00 0.  1.
</event>
<event>
 7    1  0.2937071E-011  0.5052887E+02  0.7816164E-02  0.1300439E+00
        -11   -1    0    0    0    0  0.00000000000E+00  0.00000000000E+00  0.45593999997E+02  0.45594000000E+02  0.51100000000E-03 0. -1.
         11   -1    0    0    0    0 -0.00000000000E+00 -0.00000000000E+00 -0.45593999997E+02  0.45594000000E+02  0.51100000000E-03 0.  1.
    9900012    2    1    2    0    0  0.55928131685E+01 -0.15853216220E+02  0.37021087397E+02  0.50528868974E+02  0.30000027735E+02 0.  0.
        -12    1    1    2    0    0 -0.55928131685E+01  0.15853216220E+02 -0.37021087397E+02  0.40659131026E+02  0.00000000000E+00 0.  1.
         11    1    3    3    0    0 -0.29201668046E+01 -0.43293431790E+01  0.22059879229E+02  0.22669557967E+02  0.51100000000E-03 0.  1.
        -11    1    3    3    0    0 -0.49763768371E+01 -0.36156659571E+01  0.94584930338E+01  0.11282750439E+02  0.51100000000E-03 0. -1.
        -12    1    3    3    0    0  0.13489356810E+02 -0.79082070843E+01  0.55027151344E+01  0.16576560569E+02  0.00000000000E+00 0.  1.
</event>
<event>
 7    1  0.2937071E-011  0.5052885E+02  0.7816164E-02  0.1300439E+00
        -11   -1    0    0    0    0  0.00000000000E+00  0.00000000000E+00  0.45593999997E+02  0.45594000000E+02  0.51100000000E-03 0.  1.
         11   -1    0    0    0    0 -0.00000000000E+00 -0.00000000000E+00 -0.45593999997E+02  0.45594000000E+02  0.51100000000E-03 0. -1.
    9900012    2    1    2    0    0  0.24452333989E+02  0.32448074024E+02 -0.15401665436E+01  0.50528852710E+02  0.29999978296E+02 0.  0.
        -12    1    1    2    0    0 -0.24452333989E+02 -0.32448074024E+02  0.15401665436E+01  0.40659147290E+02  0.00000000000E+00 0.  1.
         11    1    3    3    0    0  0.16566676668E+02  0.74706854761E+01 -0.37252213979E+01  0.18551096788E+02  0.51100000000E-03 0. -1.
        -11    1    3    3    0    0  0.10039919835E+02  0.85703653867E+01 -0.47588532211E+01  0.14032028983E+02  0.51100000000E-03 0.  1.
        -12    1    3    3    0    0 -0.21542625132E+01  0.16407023161E+02  0.69439080754E+01  0.17945726939E+02  0.00000000000E+00 0.  1.
</event>
<event>
 7    1  0.2937071E-011  0.5052886E+02  0.7816164E-02  0.1300439E+00
        -11   -1    0    0    0    0  0.00000000000E+00  0.00000000000E+00  0.45593999997E+02  0.45594000000E+02  0.51100000000E-03 0.  1.
         11   -1    0    0    0    0 -0.00000000000E+00 -0.00000000000E+00 -0.45593999997E+02  0.45594000000E+02  0.51100000000E-03 0. -1.
    9900012    2    1    2    0    0  0.10719751980E+02 -0.35777013732E+02  0.16070407054E+02  0.50528858630E+02  0.29999996290E+02 0.  0.
        -12    1    1    2    0    0 -0.10719751980E+02  0.35777013732E+02 -0.16070407054E+02  0.40659141370E+02  0.00000000000E+00 0.  1.
         11    1    3    3    0    0 -0.22268744623E+01 -0.12464305499E+02 -0.15525089013E+01  0.12756495035E+02  0.51100000000E-03 0. -1.
        -11    1    3    3    0    0  0.14757532998E+01 -0.20506415065E+02  0.15561328777E+02  0.25784605101E+02  0.51100000000E-03 0.  1.
         12    1    3    3    0    0  0.11470873143E+02 -0.28062931680E+01  0.20615871784E+01  0.11987758494E+02  0.00000000000E+00 0. -1.
</event>
<event>
 7    1  0.2937071E-011  0.5052882E+02  0.7816164E-02  0.1300439E+00
        -11   -1    0    0    0    0  0.00000000000E+00  0.00000000000E+00  0.45593999997E+02  0.45594000000E+02  0.51100000000E-03 0. -1.
         11   -1    0    0    0    0 -0.00000000000E+00 -0.00000000000E+00 -0.45593999997E+02  0.45594000000E+02  0.51100000000E-03 0.  1.
    9900012    2    1    2    0    0 -0.84262048513E+01  0.29841266028E+02  0.26299553325E+02  0.50528824019E+02  0.29999891088E+02 0.  0.
        -12    1    1    2    0    0  0.84262048513E+01 -0.29841266028E+02 -0.26299553325E+02  0.40659175981E+02  0.00000000000E+00 0.  1.
         11    1    3    3    0    0  0.95588161805E+00  0.46545365134E+01  0.14221532298E+02  0.14994345634E+02  0.51100000000E-03 0. -1.
        -11    1    3    3    0    0  0.40656100277E+01  0.52671964420E+01  0.91636382163E+01  0.11324522457E+02  0.51100000000E-03 0.  1.
         12    1    3    3    0    0 -0.13447696497E+02  0.19919533072E+02  0.29143828113E+01  0.24209955929E+02  0.00000000000E+00 0. -1.
</event>
<event>
 7    1  0.2937071E-011  0.5052886E+02  0.7816164E-02  0.1300439E+00
        -11   -1    0    0    0    0  0.00000000000E+00  0.00000000000E+00  0.45593999997E+02  0.45594000000E+02  0.51100000000E-03 0.  1.
         11   -1    0    0    0    0 -0.00000000000E+00 -0.00000000000E+00 -0.45593999997E+02  0.45594000000E+02  0.51100000000E-03 0. -1.
    9900012    2    1    2    0    0  0.24795655307E+02  0.21384156797E+02 -0.24105158481E+02  0.50528863888E+02  0.30000012273E+02 0.  0.
        -12    1    1    2    0    0 -0.24795655307E+02 -0.21384156797E+02  0.24105158481E+02  0.40659136112E+02  0.00000000000E+00 0.  1.
         11    1    3    3    0    0  0.44650485532E+01  0.12720136401E+02 -0.19071758671E+02  0.23355310054E+02  0.51100000000E-03 0. -1.
        -11    1    3    3    0    0  0.36026444047E+01 -0.48048300637E+00 -0.71214100040E+01  0.79952730618E+01  0.51100000000E-03 0.  1.
        -12    1    3    3    0    0  0.16727962349E+02  0.91445034016E+01  0.20880101938E+01  0.19178280772E+02  0.00000000000E+00 0.  1.
</event>
<event>
 7    1  0.2937071E-011  0.5052885E+02  0.7816164E-02  0.1300439E+00
        -11   -1    0    0    0    0  0.00000000000E+00  0.00000000000E+00  0.45593999997E+02  0.45594000000E+02  0.51100000000E-03 0. -1.
         11   -1    0    0    0    0 -0.00000000000E+00 -0.00000000000E+00 -0.45593999997E+02  0.45594000000E+02  0.51100000000E-03 0.  1.
    9900012    2    1    2    0    0  0.10524469627E+02 -0.38572428400E+02  0.73871173923E+01  0.50528853464E+02  0.29999980591E+02 0.  0.
        -12    1    1    2    0    0 -0.10524469627E+02  0.38572428400E+02 -0.73871173923E+01  0.40659146536E+02  0.00000000000E+00 0.  1.
         11    1    3    3    0    0  0.90009557649E+01 -0.24272537556E+02  0.13004766889E+02  0.28970627301E+02  0.51100000000E-03 0. -1.
        -11    1    3    3    0    0  0.37509874821E+01  0.20095115497E+01 -0.20125080303E+01  0.47072531898E+01  0.51100000000E-03 0.  1.
        -12    1    3    3    0    0 -0.22274736204E+01 -0.16309402394E+02 -0.36051414662E+01  0.16850972974E+02  0.00000000000E+00 0.  1.
</event>
<event>
 7    1  0.2937071E-011  0.5052886E+02  0.7816164E-02  0.1300439E+00
        -11   -1    0    0    0    0  0.00000000000E+00  0.00000000000E+00  0.45593999997E+02  0.45594000000E+02  0.51100000000E-03 0.  1.
         11   -1    0    0    0    0 -0.00000000000E+00 -0.00000000000E+00 -0.45593999997E+02  0.45594000000E+02  0.51100000000E-03 0. -1.
    9900012    2    1    2    0    0 -0.27029424770E+02  0.29065507838E+02 -0.88188720913E+01  0.50528855220E+02  0.29999985926E+02 0.  0.
        -12    1    1    2    0    0  0.27029424770E+02 -0.29065507838E+02  0.88188720913E+01  0.40659144780E+02  0.00000000000E+00 0.  1.
         11    1    3    3    0    0  0.76550712781E+00  0.19799388633E+02 -0.23199519867E+01  0.19949535556E+02  0.51100000000E-03 0.  1.
        -11    1    3    3    0    0 -0.47234049763E+01  0.38815217758E+01 -0.22213898658E+01  0.65047166782E+01  0.51100000000E-03 0. -1.
        -12    1    3    3    0    0 -0.23071526922E+02  0.53845974290E+01 -0.42775302388E+01  0.24074602986E+02  0.00000000000E+00 0.  1.
</event>
<event>
 7    1  0.2937071E-011  0.5052890E+02  0.7816164E-02  0.1300439E+00
        -11   -1    0    0    0    0  0.00000000000E+00  0.00000000000E+00  0.45593999997E+02  0.45594000000E+02  0.51100000000E-03 0.  1.
         11   -1    0    0    0    0 -0.00000000000E+00 -0.00000000000E+00 -0.45593999997E+02  0.45594000000E+02  0.51100000000E-03 0. -1.
    9900012    2    1    2    0    0  0.39912621554E+02 -0.52659047356E+01  0.56934792309E+01  0.50528895020E+02  0.30000106902E+02 0.  0.
        -12    1    1    2    0    0 -0.39912621554E+02  0.52659047356E+01 -0.56934792309E+01  0.40659104980E+02  0.00000000000E+00 0.  1.
         11    1    3    3    0    0  0.88713073155E+01 -0.18290643324E+01  0.37244995799E+01  0.97937463312E+01  0.51100000000E-03 0. -1.
        -11    1    3    3    0    0  0.25705797035E+02  0.11930611994E+01  0.12058315690E+02  0.28418556856E+02  0.51100000000E-03 0.  1.
        -12    1    3    3    0    0  0.53355172041E+01 -0.46299016027E+01 -0.10089336039E+02  0.12316591833E+02  0.00000000000E+00 0.  1.
</event>
<event>
 7    1  0.2937071E-011  0.5052886E+02  0.7816164E-02  0.1300439E+00
        -11   -1    0    0    0    0  0.00000000000E+00  0.00000000000E+00  0.45593999997E+02  0.45594000000E+02  0.51100000000E-03 0.  1.
         11   -1    0    0    0    0 -0.00000000000E+00 -0.00000000000E+00 -0.45593999997E+02  0.45594000000E+02  0.51100000000E-03 0. -1.
    9900012    2    1    2    0    0  0.14176886620E+01  0.36508199956E+02 -0.17841158481E+02  0.50528862760E+02  0.30000008845E+02 0.  0.
        -12    1    1    2    0    0 -0.14176886620E+01 -0.36508199956E+02  0.17841158481E+02  0.40659137240E+02  0.00000000000E+00 0.  1.
         11    1    3    3    0    0  0.85867600776E+01  0.28065145521E+02 -0.18486873165E+02  0.34686442905E+02  0.51100000000E-03 0. -1.
        -11    1    3    3    0    0  0.10298331032E+01  0.55245928979E+01  0.35741994778E+01  0.66600739543E+01  0.51100000000E-03 0.  1.
        -12    1    3    3    0    0 -0.81989045188E+01  0.29184615373E+01 -0.29284847932E+01  0.91823459006E+01  0.00000000000E+00 0.  1.
</event>
<event>
 7    1  0.2937071E-011  0.5052886E+02  0.7816164E-02  0.1300439E+00
        -11   -1    0    0    0    0  0.00000000000E+00  0.00000000000E+00  0.45593999997E+02  0.45594000000E+02  0.51100000000E-03 0.  1.
         11   -1    0    0    0    0 -0.00000000000E+00 -0.00000000000E+00 -0.45593999997E+02  0.45594000000E+02  0.51100000000E-03 0. -1.
    9900012    2    1    2    0    0 -0.13692919933E+02 -0.12423401871E+01 -0.38263907105E+02  0.50528855243E+02  0.29999985996E+02 0.  0.
        -12    1    1    2    0    0  0.13692919933E+02  0.12423401871E+01  0.38263907105E+02  0.40659144757E+02  0.00000000000E+00 0.  1.
         11    1    3    3    0    0 -0.90743095778E+01 -0.26370143930E+00 -0.13056096152E+02  0.15902021247E+02  0.51100000000E-03 0.  1.
        -11    1    3    3    0    0 -0.90764755206E+01 -0.81266608718E+01 -0.22823804394E+02  0.25871820038E+02  0.51100000000E-03 0. -1.
        -12    1    3    3    0    0  0.44578651658E+01  0.71480221240E+01 -0.23840065592E+01  0.87550139574E+01  0.00000000000E+00 0.  1.
</event>
<event>
 7    1  0.2937071E-011  0.5052886E+02  0.7816164E-02  0.1300439E+00
        -11   -1    0    0    0    0  0.00000000000E+00  0.00000000000E+00  0.45593999997E+02  0.45594000000E+02  0.51100000000E-03 0. -1.
         11   -1    0    0    0    0 -0.00000000000E+00 -0.00000000000E+00 -0.45593999997E+02  0.45594000000E+02  0.51100000000E-03 0.  1.
    9900012    2    1    2    0    0  0.26073225145E+02 -0.27668743208E+02  0.14415028350E+02  0.50528862497E+02  0.30000008046E+02 0.  0.
        -12    1    1    2    0    0 -0.26073225145E+02  0.27668743208E+02 -0.14415028350E+02  0.40659137503E+02  0.00000000000E+00 0.  1.
         11    1    3    3    0    0  0.68917464408E+01 -0.13009839430E+02  0.13291372778E+02  0.19834633386E+02  0.51100000000E-03 0. -1.
        -11    1    3    3    0    0  0.66307947584E+01 -0.10002642409E+02 -0.80635959568E+01  0.14458280475E+02  0.51100000000E-03 0.  1.
         12    1    3    3    0    0  0.12550683946E+02 -0.46562613692E+01  0.91872515290E+01  0.16235948636E+02  0.00000000000E+00 0. -1.
</event>
<event>
 7    1  0.2937071E-011  0.5052887E+02  0.7816164E-02  0.1300439E+00
        -11   -1    0    0    0    0  0.00000000000E+00  0.00000000000E+00  0.45593999997E+02  0.45594000000E+02  0.51100000000E-03 0. -1.
         11   -1    0    0    0    0 -0.00000000000E+00 -0.00000000000E+00 -0.45593999997E+02  0.45594000000E+02  0.51100000000E-03 0.  1.
    9900012    2    1    2    0    0 -0.33327686968E+02  0.52762533588E+01  0.22684607143E+02  0.50528868561E+02  0.30000026477E+02 0.  0.
        -12    1    1    2    0    0  0.33327686968E+02 -0.52762533588E+01 -0.22684607143E+02  0.40659131439E+02  0.00000000000E+00 0.  1.
         11    1    3    3    0    0 -0.10837508787E+02 -0.55484196948E+01  0.43466574386E+01  0.12927876429E+02  0.51100000000E-03 0. -1.
        -11    1    3    3    0    0  0.16658270650E+01 -0.40737116311E+01  0.18147499425E+01  0.47606117127E+01  0.51100000000E-03 0.  1.
         12    1    3    3    0    0 -0.24156005246E+02  0.14898384685E+02  0.16523199762E+02  0.32840380419E+02  0.00000000000E+00 0. -1.
</event>
<event>
 7    1  0.2937071E-011  0.5052887E+02  0.7816164E-02  0.1300439E+00
        -11   -1    0    0    0    0  0.00000000000E+00  0.00000000000E+00  0.45593999997E+02  0.45594000000E+02  0.51100000000E-03 0.  1.
         11   -1    0    0    0    0 -0.00000000000E+00 -0.00000000000E+00 -0.45593999997E+02  0.45594000000E+02  0.51100000000E-03 0. -1.
    9900012    2    1    2    0    0  0.36695294467E+02  0.20109892542E+01 -0.17394724739E+02  0.50528866186E+02  0.30000019258E+02 0.  0.
        -12    1    1    2    0    0 -0.36695294467E+02 -0.20109892542E+01  0.17394724739E+02  0.40659133814E+02  0.00000000000E+00 0.  1.
         11    1    3    3    0    0 -0.14621165964E+00 -0.29254949758E+00  0.23109278631E+01  0.23339560638E+01  0.51100000000E-03 0.  1.
        -11    1    3    3    0    0  0.16772051556E+02 -0.91073325694E+01 -0.21791051766E+01  0.19209209238E+02  0.51100000000E-03 0. -1.
         12    1    3    3    0    0  0.20069454571E+02  0.11410871321E+02 -0.17526547425E+02  0.28985700884E+02  0.00000000000E+00 0. -1.
</event>
<event>
 7    1  0.2937071E-011  0.5052886E+02  0.7816164E-02  0.1300439E+00
        -11   -1    0    0    0    0  0.00000000000E+00  0.00000000000E+00  0.45593999997E+02  0.45594000000E+02  0.51100000000E-03 0.  1.
         11   -1    0    0    0    0 -0.00000000000E+00 -0.00000000000E+00 -0.45593999997E+02  0.45594000000E+02  0.51100000000E-03 0. -1.
    9900012    2    1    2    0    0  0.28054079411E+02 -0.50138617894E+01 -0.28999920210E+02  0.50528861374E+02  0.30000004632E+02 0.  0.
        -12    1    1    2    0    0 -0.28054079411E+02  0.50138617894E+01  0.28999920210E+02  0.40659138626E+02  0.00000000000E+00 0.  1.
         11    1    3    3    0    0  0.76269429054E+01  0.86727942096E+01  0.38920974329E+00  0.11555911992E+02  0.51100000000E-03 0.  1.
        -11    1    3    3    0    0  0.61547676668E+01 -0.57722829512E+01 -0.56117562184E+01  0.10133717167E+02  0.51100000000E-03 0. -1.
        -12    1    3    3    0    0  0.14272368839E+02 -0.79143730478E+01 -0.23777373735E+02  0.28839232215E+02  0.00000000000E+00 0.  1.
</event>
<event>
 7    1  0.2937071E-011  0.5052886E+02  0.7816164E-02  0.1300439E+00
        -11   -1    0    0    0    0  0.00000000000E+00  0.00000000000E+00  0.45593999997E+02  0.45594000000E+02  0.51100000000E-03 0.  1.
         11   -1    0    0    0    0 -0.00000000000E+00 -0.00000000000E+00 -0.45593999997E+02  0.45594000000E+02  0.51100000000E-03 0. -1.
    9900012    2    1    2    0    0 -0.20704818143E+02  0.95387578791E+01 -0.33667321791E+02  0.50528856467E+02  0.29999989718E+02 0.  0.
        -12    1    1    2    0    0  0.20704818143E+02 -0.95387578791E+01  0.33667321791E+02  0.40659143533E+02  0.00000000000E+00 0.  1.
         11    1    3    3    0    0 -0.94127347665E+01  0.47567999410E+01 -0.36593177694E+01  0.11163213169E+02  0.51100000000E-03 0. -1.
        -11    1    3    3    0    0 -0.15013441946E+02 -0.22823358103E+01 -0.11007756456E+02  0.18755884363E+02  0.51100000000E-03 0.  1.
         12    1    3    3    0    0  0.37213585695E+01  0.70642937484E+01 -0.19000247566E+02  0.20609758935E+02  0.00000000000E+00 0. -1.
</event>
<event>
 7    1  0.2937071E-011  0.5052885E+02  0.7816164E-02  0.1300439E+00
        -11   -1    0    0    0    0  0.00000000000E+00  0.00000000000E+00  0.45593999997E+02  0.45594000000E+02  0.51100000000E-03 0.  1.
         11   -1    0    0    0    0 -0.00000000000E+00 -0.00000000000E+00 -0.45593999997E+02  0.45594000000E+02  0.51100000000E-03 0. -1.
    9900012    2    1    2    0    0 -0.34460313486E+01  0.40470881305E+02  0.18435645009E+01  0.50528854709E+02  0.29999984375E+02 0.  0.
        -12    1    1    2    0    0  0.34460313486E+01 -0.40470881305E+02 -0.18435645009E+01  0.40659145291E+02  0.00000000000E+00 0.  1.
         11    1    3    3    0    0 -0.84927115900E+01  0.47312712351E+01 -0.20734983683E+01  0.99403457382E+01  0.51100000000E-03 0. -1.
        -11    1    3    3    0    0 -0.31995740185E+01  0.53450566459E+01 -0.48531407194E+01  0.78968271826E+01  0.51100000000E-03 0.  1.
        -12    1    3    3    0    0  0.82462542599E+01  0.30394553424E+02  0.87702035886E+01  0.32691681789E+02  0.00000000000E+00 0.  1.
</event>
<event>
 7    1  0.2937071E-011  0.5052888E+02  0.7816164E-02  0.1300439E+00
        -11   -1    0    0    0    0  0.00000000000E+00  0.00000000000E+00  0.45593999997E+02  0.45594000000E+02  0.51100000000E-03 0.  1.
         11   -1    0    0    0    0 -0.00000000000E+00 -0.00000000000E+00 -0.45593999997E+02  0.45594000000E+02  0.51100000000E-03 0. -1.
    9900012    2    1    2    0    0  0.28974745009E+02 -0.11333451276E+02 -0.26175966315E+02  0.50528878284E+02  0.30000056033E+02 0.  0.
        -12    1    1    2    0    0 -0.28974745009E+02  0.11333451276E+02  0.26175966315E+02  0.40659121716E+02  0.00000000000E+00 0.  1.
         11    1    3    3    0    0  0.13700627677E+02 -0.43069734421E+01 -0.13502517590E+02  0.19712310887E+02  0.51100000000E-03 0. -1.
        -11    1    3    3    0    0  0.20629429144E+02 -0.27630107028E+01 -0.11772565058E+02  0.23912357961E+02  0.51100000000E-03 0.  1.
        -12    1    3    3    0    0 -0.53553118112E+01 -0.42634671307E+01 -0.90088366751E+00  0.69042094372E+01  0.00000000000E+00 0.  1.
</event>
<event>
 7    1  0.2937071E-011  0.5052886E+02  0.7816164E-02  0.1300439E+00
        -11   -1    0    0    0    0  0.00000000000E+00  0.00000000000E+00  0.45593999997E+02  0.45594000000E+02  0.51100000000E-03 0.  1.
         11   -1    0    0    0    0 -0.00000000000E+00 -0.00000000000E+00 -0.45593999997E+02  0.45594000000E+02  0.51100000000E-03 0. -1.
    9900012    2    1    2    0    0 -0.17522574741E+02 -0.30035911805E+02 -0.21070567148E+02  0.50528862977E+02  0.30000009506E+02 0.  0.
        -12    1    1    2    0    0  0.17522574741E+02  0.30035911805E+02  0.21070567148E+02  0.40659137023E+02  0.00000000000E+00 0.  1.
         11    1    3    3    0    0 -0.11583394449E+02 -0.22560841460E+02 -0.10774673544E+02  0.27554676275E+02  0.51100000000E-03 0. -1.
        -11    1    3    3    0    0 -0.53392229809E+01 -0.12909187877E+02 -0.37871857055E+01  0.14474018430E+02  0.51100000000E-03 0.  1.
        -12    1    3    3    0    0 -0.59995731050E+00  0.54341175333E+01 -0.65087078991E+01  0.85001682722E+01  0.00000000000E+00 0.  1.
</event>
<event>
 7    1  0.2937071E-011  0.5052884E+02  0.7816164E-02  0.1300439E+00
        -11   -1    0    0    0    0  0.00000000000E+00  0.00000000000E+00  0.45593999997E+02  0.45594000000E+02  0.51100000000E-03 0. -1.
         11   -1    0    0    0    0 -0.00000000000E+00 -0.00000000000E+00 -0.45593999997E+02  0.45594000000E+02  0.51100000000E-03 0.  1.
    9900012    2    1    2    0    0  0.19310796900E+01 -0.38050221517E+02  0.14199252668E+02  0.50528841098E+02  0.29999943002E+02 0.  0.
        -12    1    1    2    0    0 -0.19310796900E+01  0.38050221517E+02 -0.14199252668E+02  0.40659158902E+02  0.00000000000E+00 0.  1.
         11    1    3    3    0    0  0.42682052660E+01 -0.23445753451E+02  0.14832034287E+02  0.28069737662E+02  0.51100000000E-03 0. -1.
        -11    1    3    3    0    0 -0.23089079361E+01 -0.95413677025E+01  0.78572200858E+01  0.12573967601E+02  0.51100000000E-03 0.  1.
        -12    1    3    3    0    0 -0.28217639853E-01 -0.50631003638E+01 -0.84900017051E+01  0.98851358352E+01  0.00000000000E+00 0.  1.
</event>
<event>
 7    1  0.2937071E-011  0.5052886E+02  0.7816164E-02  0.1300439E+00
        -11   -1    0    0    0    0  0.00000000000E+00  0.00000000000E+00  0.45593999997E+02  0.45594000000E+02  0.51100000000E-03 0.  1.
         11   -1    0    0    0    0 -0.00000000000E+00 -0.00000000000E+00 -0.45593999997E+02  0.45594000000E+02  0.51100000000E-03 0. -1.
    9900012    2    1    2    0    0 -0.36441611018E+02 -0.54143210396E+01 -0.17200584142E+02  0.50528856124E+02  0.29999988675E+02 0.  0.
        -12    1    1    2    0    0  0.36441611018E+02  0.54143210396E+01  0.17200584142E+02  0.40659143876E+02  0.00000000000E+00 0.  1.
         11    1    3    3    0    0  0.38739129895E+01 -0.47556809321E+01 -0.39758170757E+01  0.73096391606E+01  0.51100000000E-03 0.  1.
        -11    1    3    3    0    0 -0.21025269839E+02  0.57027479680E+00 -0.26867637349E+01  0.21203912015E+02  0.51100000000E-03 0. -1.
        -12    1    3    3    0    0 -0.19290254169E+02 -0.12289149043E+01 -0.10538003332E+02  0.22015304948E+02  0.00000000000E+00 0.  1.
</event>
<event>
 7    1  0.2937071E-011  0.5052886E+02  0.7816164E-02  0.1300439E+00
        -11   -1    0    0    0    0  0.00000000000E+00  0.00000000000E+00  0.45593999997E+02  0.45594000000E+02  0.51100000000E-03 0. -1.
         11   -1    0    0    0    0 -0.00000000000E+00 -0.00000000000E+00 -0.45593999997E+02  0.45594000000E+02  0.51100000000E-03 0.  1.
    9900012    2    1    2    0    0  0.36097455407E+02  0.18618702382E+02  0.18663605995E+01  0.50528859980E+02  0.30000000396E+02 0.  0.
        -12    1    1    2    0    0 -0.36097455407E+02 -0.18618702382E+02 -0.18663605995E+01  0.40659140020E+02  0.00000000000E+00 0.  1.
         11    1    3    3    0    0 -0.41976791486E+01  0.23045943915E+01  0.10921366470E+01  0.49116624742E+01  0.51100000000E-03 0. -1.
        -11    1    3    3    0    0  0.13109181245E+02  0.91000880859E+01 -0.53505625775E+01  0.16831243455E+02  0.51100000000E-03 0.  1.
        -12    1    3    3    0    0  0.27185953310E+02  0.72140199047E+01  0.61247865299E+01  0.28785954051E+02  0.00000000000E+00 0.  1.
</event>
<event>
 7    1  0.2937071E-011  0.5052886E+02  0.7816164E-02  0.1300439E+00
        -11   -1    0    0    0    0  0.00000000000E+00  0.00000000000E+00  0.45593999997E+02  0.45594000000E+02  0.51100000000E-03 0.  1.
         11   -1    0    0    0    0 -0.00000000000E+00 -0.00000000000E+00 -0.45593999997E+02  0.45594000000E+02  0.51100000000E-03 0. -1.
    9900012    2    1    2    0    0  0.25380546948E+01  0.22027974590E+02 -0.34080668703E+02  0.50528863690E+02  0.30000011673E+02 0.  0.
        -12    1    1    2    0    0 -0.25380546948E+01 -0.22027974590E+02  0.34080668703E+02  0.40659136310E+02  0.00000000000E+00 0.  1.
         11    1    3    3    0    0  0.85954349596E+00  0.57598591793E+01 -0.90078726647E+01  0.10726442234E+02  0.51100000000E-03 0. -1.
        -11    1    3    3    0    0 -0.11323689390E+02  0.13360813681E+02 -0.15607973321E+02  0.23459456837E+02  0.51100000000E-03 0.  1.
         12    1    3    3    0    0  0.13002200588E+02  0.29073017299E+01 -0.94648227177E+01  0.16342964620E+02  0.00000000000E+00 0. -1.
</event>
<event>
 7    1  0.2937071E-011  0.5052886E+02  0.7816164E-02  0.1300439E+00
        -11   -1    0    0    0    0  0.00000000000E+00  0.00000000000E+00  0.45593999997E+02  0.45594000000E+02  0.51100000000E-03 0. -1.
         11   -1    0    0    0    0 -0.00000000000E+00 -0.00000000000E+00 -0.45593999997E+02  0.45594000000E+02  0.51100000000E-03 0.  1.
    9900012    2    1    2    0    0  0.26641559937E+02 -0.27737588349E+02  0.13191632806E+02  0.50528859584E+02  0.29999999192E+02 0.  0.
        -12    1    1    2    0    0 -0.26641559937E+02  0.27737588349E+02 -0.13191632806E+02  0.40659140416E+02  0.00000000000E+00 0.  1.
         11    1    3    3    0    0  0.83957065122E+01 -0.16202003896E+02  0.15473547325E+02  0.23925373251E+02  0.51100000000E-03 0. -1.
        -11    1    3    3    0    0  0.38830119381E+01  0.33204481162E+01  0.20246741363E+01  0.54956767576E+01  0.51100000000E-03 0.  1.
         12    1    3    3    0    0  0.14362841486E+02 -0.14856032569E+02 -0.43065886555E+01  0.21107809576E+02  0.00000000000E+00 0. -1.
</event>
<event>
 7    1  0.2937071E-011  0.5052886E+02  0.7816164E-02  0.1300439E+00
        -11   -1    0    0    0    0  0.00000000000E+00  0.00000000000E+00  0.45593999997E+02  0.45594000000E+02  0.51100000000E-03 0.  1.
         11   -1    0    0    0    0 -0.00000000000E+00 -0.00000000000E+00 -0.45593999997E+02  0.45594000000E+02  0.51100000000E-03 0. -1.
    9900012    2    1    2    0    0  0.17401008186E+02  0.23009240873E+02 -0.28652140112E+02  0.50528863457E+02  0.30000010964E+02 0.  0.
        -12    1    1    2    0    0 -0.17401008186E+02 -0.23009240873E+02  0.28652140112E+02  0.40659136543E+02  0.00000000000E+00 0.  1.
         11    1    3    3    0    0 -0.48333948518E+01 -0.80369277525E+00 -0.34805923610E+01  0.60101706561E+01  0.51100000000E-03 0. -1.
        -11    1    3    3    0    0  0.50165778452E+01  0.16123432411E+02 -0.68359666776E+01  0.18217068004E+02  0.51100000000E-03 0.  1.
        -12    1    3    3    0    0  0.17217825193E+02  0.76895012368E+01 -0.18335581073E+02  0.26301624796E+02  0.00000000000E+00 0.  1.
</event>
<event>
 7    1  0.2937071E-011  0.5052887E+02  0.7816164E-02  0.1300439E+00
        -11   -1    0    0    0    0  0.00000000000E+00  0.00000000000E+00  0.45593999997E+02  0.45594000000E+02  0.51100000000E-03 0. -1.
         11   -1    0    0    0    0 -0.00000000000E+00 -0.00000000000E+00 -0.45593999997E+02  0.45594000000E+02  0.51100000000E-03 0.  1.
    9900012    2    1    2    0    0  0.36248194262E+02 -0.17406544246E+02  0.60204486848E+01  0.50528866066E+02  0.30000018896E+02 0.  0.
        -12    1    1    2    0    0 -0.36248194262E+02  0.17406544246E+02 -0.60204486848E+01  0.40659133934E+02  0.00000000000E+00 0.  1.
         11    1    3    3    0    0  0.11525713231E+02 -0.15658349733E+02  0.23997033946E+01  0.19590420069E+02  0.51100000000E-03 0.  1.
        -11    1    3    3    0    0  0.16113482507E+02 -0.65749613862E+01  0.91114761589E+01  0.19644170478E+02  0.51100000000E-03 0. -1.
         12    1    3    3    0    0  0.86089985243E+01  0.48267668727E+01 -0.54907308686E+01  0.11294275519E+02  0.00000000000E+00 0. -1.
</event>
<event>
 7    1  0.2937071E-011  0.5052885E+02  0.7816164E-02  0.1300439E+00
        -11   -1    0    0    0    0  0.00000000000E+00  0.00000000000E+00  0.45593999997E+02  0.45594000000E+02  0.51100000000E-03 0. -1.
         11   -1    0    0    0    0 -0.00000000000E+00 -0.00000000000E+00 -0.45593999997E+02  0.45594000000E+02  0.51100000000E-03 0.  1.
    9900012    2    1    2    0    0  0.26521200155E+01  0.38931249700E+02  0.11423228154E+02  0.50528854838E+02  0.29999984767E+02 0.  0.
        -12    1    1    2    0    0 -0.26521200155E+01 -0.38931249700E+02 -0.11423228154E+02  0.40659145162E+02  0.00000000000E+00 0.  1.
         11    1    3    3    0    0  0.10434411078E+00  0.46765453858E+01 -0.49039681651E+01  0.67771578456E+01  0.51100000000E-03 0. -1.
        -11    1    3    3    0    0  0.40266888612E+01  0.67266778959E+01 -0.46457576092E+01  0.91129294261E+01  0.51100000000E-03 0.  1.
         12    1    3    3    0    0 -0.14789129564E+01  0.27528026419E+02  0.20972953928E+02  0.34638767567E+02  0.00000000000E+00 0. -1.
</event>
<event>
 7    1  0.2937071E-011  0.5052886E+02  0.7816164E-02  0.1300439E+00
        -11   -1    0    0    0    0  0.00000000000E+00  0.00000000000E+00  0.45593999997E+02  0.45594000000E+02  0.51100000000E-03 0.  1.
         11   -1    0    0    0    0 -0.00000000000E+00 -0.00000000000E+00 -0.45593999997E+02  0.45594000000E+02  0.51100000000E-03 0. -1.
    9900012    2    1    2    0    0  0.30017257303E+02  0.14984634171E+02 -0.22969333826E+02  0.50528864573E+02  0.30000014356E+02 0.  0.
        -12    1    1    2    0    0 -0.30017257303E+02 -0.14984634171E+02  0.22969333826E+02  0.40659135427E+02  0.00000000000E+00 0.  1.
         11    1    3    3    0    0 -0.36905393635E+01  0.76822398949E+01 -0.40443548091E+01  0.94336470509E+01  0.51100000000E-03 0. -1.
        -11    1    3    3    0    0  0.18083062269E+02 -0.93974960034E+00 -0.13595985695E+02  0.22643566363E+02  0.51100000000E-03 0.  1.
        -12    1    3    3    0    0  0.15624734398E+02  0.82421438764E+01 -0.53289933219E+01  0.18451651159E+02  0.00000000000E+00 0.  1.
</event>
<event>
 7    1  0.2937071E-011  0.5052880E+02  0.7816164E-02  0.1300439E+00
        -11   -1    0    0    0    0  0.00000000000E+00  0.00000000000E+00  0.45593999997E+02  0.45594000000E+02  0.51100000000E-03 0. -1.
         11   -1    0    0    0    0 -0.00000000000E+00 -0.00000000000E+00 -0.45593999997E+02  0.45594000000E+02  0.51100000000E-03 0.  1.
    9900012    2    1    2    0    0 -0.37094556365E+02  0.11916533326E+02  0.11625873123E+02  0.50528796807E+02  0.29999808375E+02 0.  0.
        -12    1    1    2    0    0  0.37094556365E+02 -0.11916533326E+02 -0.11625873123E+02  0.40659203193E+02  0.00000000000E+00 0.  1.
         11    1    3    3    0    0 -0.24719736074E+02  0.68060349175E+01  0.10391220408E+02  0.27665229525E+02  0.51100000000E-03 0.  1.
        -11    1    3    3    0    0 -0.34043972055E+01 -0.36996713713E+01  0.73317071221E+01  0.88899616520E+01  0.51100000000E-03 0. -1.
        -12    1    3    3    0    0 -0.89704230855E+01  0.88101697794E+01 -0.60970544067E+01  0.13973605630E+02  0.00000000000E+00 0.  1.
</event>
<event>
 7    1  0.2937071E-011  0.5052886E+02  0.7816164E-02  0.1300439E+00
        -11   -1    0    0    0    0  0.00000000000E+00  0.00000000000E+00  0.45593999997E+02  0.45594000000E+02  0.51100000000E-03 0. -1.
         11   -1    0    0    0    0 -0.00000000000E+00 -0.00000000000E+00 -0.45593999997E+02  0.45594000000E+02  0.51100000000E-03 0.  1.
    9900012    2    1    2    0    0 -0.19059605324E+02  0.18320910149E+02  0.30890791715E+02  0.50528864291E+02  0.30000013500E+02 0.  0.
        -12    1    1    2    0    0  0.19059605324E+02 -0.18320910149E+02 -0.30890791715E+02  0.40659135709E+02  0.00000000000E+00 0.  1.
         11    1    3    3    0    0 -0.71372073275E+01  0.40093135363E+01 -0.43853895949E+01  0.92868706047E+01  0.51100000000E-03 0.  1.
        -11    1    3    3    0    0 -0.58539424902E+01  0.26453651572E+01  0.47054037808E+01  0.79628779028E+01  0.51100000000E-03 0. -1.
         12    1    3    3    0    0 -0.60684555059E+01  0.11666231455E+02  0.30570777530E+02  0.33279115784E+02  0.00000000000E+00 0. -1.
</event>
<event>
 7    1  0.2937071E-011  0.5052886E+02  0.7816164E-02  0.1300439E+00
        -11   -1    0    0    0    0  0.00000000000E+00  0.00000000000E+00  0.45593999997E+02  0.45594000000E+02  0.51100000000E-03 0.  1.
         11   -1    0    0    0    0 -0.00000000000E+00 -0.00000000000E+00 -0.45593999997E+02  0.45594000000E+02  0.51100000000E-03 0. -1.
    9900012    2    1    2    0    0 -0.22018314700E+02 -0.32502408263E+02 -0.10580781413E+02  0.50528860063E+02  0.30000000647E+02 0.  0.
        -12    1    1    2    0    0  0.22018314700E+02  0.32502408263E+02  0.10580781413E+02  0.40659139937E+02  0.00000000000E+00 0.  1.
         11    1    3    3    0    0 -0.26086347517E+01 -0.34842085027E+01  0.70189958261E+01  0.82589942987E+01  0.51100000000E-03 0. -1.
        -11    1    3    3    0    0 -0.64326481089E+01 -0.57599893432E+00 -0.13558261073E+00  0.64598079980E+01  0.51100000000E-03 0.  1.
         12    1    3    3    0    0 -0.12977031840E+02 -0.28442200826E+02 -0.17464194628E+02  0.35810057766E+02  0.00000000000E+00 0. -1.
</event>
<event>
 7    1  0.2937071E-011  0.5052885E+02  0.7816164E-02  0.1300439E+00
        -11   -1    0    0    0    0  0.00000000000E+00  0.00000000000E+00  0.45593999997E+02  0.45594000000E+02  0.51100000000E-03 0.  1.
         11   -1    0    0    0    0 -0.00000000000E+00 -0.00000000000E+00 -0.45593999997E+02  0.45594000000E+02  0.51100000000E-03 0. -1.
    9900012    2    1    2    0    0  0.44211051589E+01 -0.16973082607E+02 -0.36681526726E+02  0.50528854571E+02  0.29999983956E+02 0.  0.
        -12    1    1    2    0    0 -0.44211051589E+01  0.16973082607E+02  0.36681526726E+02  0.40659145429E+02  0.00000000000E+00 0.  1.
         11    1    3    3    0    0  0.51708965075E+01 -0.57506540248E+01 -0.10167481135E+02  0.12774422308E+02  0.51100000000E-03 0. -1.
        -11    1    3    3    0    0  0.87602859760E+01 -0.19548701564E+01 -0.10512103370E+01  0.90370997087E+01  0.51100000000E-03 0.  1.
        -12    1    3    3    0    0 -0.95100773247E+01 -0.92675584254E+01 -0.25462835254E+02  0.28717332555E+02  0.00000000000E+00 0.  1.
</event>
<event>
 7    1  0.2937071E-011  0.5052886E+02  0.7816164E-02  0.1300439E+00
        -11   -1    0    0    0    0  0.00000000000E+00  0.00000000000E+00  0.45593999997E+02  0.45594000000E+02  0.51100000000E-03 0.  1.
         11   -1    0    0    0    0 -0.00000000000E+00 -0.00000000000E+00 -0.45593999997E+02  0.45594000000E+02  0.51100000000E-03 0. -1.
    9900012    2    1    2    0    0  0.15940428373E+02  0.24928009492E+02 -0.27886610018E+02  0.50528856720E+02  0.29999990487E+02 0.  0.
        -12    1    1    2    0    0 -0.15940428373E+02 -0.24928009492E+02  0.27886610018E+02  0.40659143280E+02  0.00000000000E+00 0.  1.
         11    1    3    3    0    0  0.10264928498E+02  0.96109534675E+00 -0.88218063057E+01  0.13568961938E+02  0.51100000000E-03 0. -1.
        -11    1    3    3    0    0  0.26486325434E+01 -0.24357367468E+01  0.91342345047E+00  0.37124669036E+01  0.51100000000E-03 0.  1.
        -12    1    3    3    0    0  0.30268673315E+01  0.26402650892E+02 -0.19978227163E+02  0.33247427878E+02  0.00000000000E+00 0.  1.
</event>
<event>
 7    1  0.2937071E-011  0.5052886E+02  0.7816164E-02  0.1300439E+00
        -11   -1    0    0    0    0  0.00000000000E+00  0.00000000000E+00  0.45593999997E+02  0.45594000000E+02  0.51100000000E-03 0. -1.
         11   -1    0    0    0    0 -0.00000000000E+00 -0.00000000000E+00 -0.45593999997E+02  0.45594000000E+02  0.51100000000E-03 0.  1.
    9900012    2    1    2    0    0 -0.60260185425E+01  0.39109622043E+02  0.93429130472E+01  0.50528862527E+02  0.30000008138E+02 0.  0.
        -12    1    1    2    0    0  0.60260185425E+01 -0.39109622043E+02 -0.93429130472E+01  0.40659137473E+02  0.00000000000E+00 0.  1.
         11    1    3    3    0    0 -0.92524723281E+01  0.15845215446E+02  0.86022366403E+00  0.18368970622E+02  0.51100000000E-03 0. -1.
        -11    1    3    3    0    0 -0.49347456349E+01  0.21609072802E+02  0.34565721247E+01  0.22433270670E+02  0.51100000000E-03 0.  1.
        -12    1    3    3    0    0  0.81611994205E+01  0.16553337952E+01  0.50261172584E+01  0.97266212351E+01  0.00000000000E+00 0.  1.
</event>
<event>
 7    1  0.2937071E-011  0.5052886E+02  0.7816164E-02  0.1300439E+00
        -11   -1    0    0    0    0  0.00000000000E+00  0.00000000000E+00  0.45593999997E+02  0.45594000000E+02  0.51100000000E-03 0.  1.
         11   -1    0    0    0    0 -0.00000000000E+00 -0.00000000000E+00 -0.45593999997E+02  0.45594000000E+02  0.51100000000E-03 0. -1.
    9900012    2    1    2    0    0 -0.10180331063E+02 -0.89158460387E+01 -0.38341027670E+02  0.50528857683E+02  0.29999993413E+02 0.  0.
        -12    1    1    2    0    0  0.10180331063E+02  0.89158460387E+01  0.38341027670E+02  0.40659142317E+02  0.00000000000E+00 0.  1.
         11    1    3    3    0    0 -0.10806524977E+02 -0.91821494663E+01 -0.17913292923E+02  0.22846857869E+02  0.51100000000E-03 0. -1.
        -11    1    3    3    0    0 -0.70464068695E+01  0.58410637251E+01 -0.10992492182E+02  0.14304012019E+02  0.51100000000E-03 0.  1.
        -12    1    3    3    0    0  0.76726007833E+01 -0.55747602975E+01 -0.94352425658E+01  0.13377987795E+02  0.00000000000E+00 0.  1.
</event>
<event>
 7    1  0.2937071E-011  0.5052887E+02  0.7816164E-02  0.1300439E+00
        -11   -1    0    0    0    0  0.00000000000E+00  0.00000000000E+00  0.45593999997E+02  0.45594000000E+02  0.51100000000E-03 0. -1.
         11   -1    0    0    0    0 -0.00000000000E+00 -0.00000000000E+00 -0.45593999997E+02  0.45594000000E+02  0.51100000000E-03 0.  1.
    9900012    2    1    2    0    0 -0.17612555657E+02  0.23998057528E+02  0.27695779652E+02  0.50528867048E+02  0.30000021880E+02 0.  0.
        -12    1    1    2    0    0  0.17612555657E+02 -0.23998057528E+02 -0.27695779652E+02  0.40659132952E+02  0.00000000000E+00 0.  1.
         11    1    3    3    0    0 -0.43715425253E+01  0.94885773575E+00  0.49547926023E+01  0.66753790189E+01  0.51100000000E-03 0. -1.
        -11    1    3    3    0    0 -0.10224297877E+02 -0.56337306938E+00  0.16203048279E+02  0.19167483666E+02  0.51100000000E-03 0.  1.
        -12    1    3    3    0    0 -0.30167152541E+01  0.23612572862E+02  0.65379387706E+01  0.24686004364E+02  0.00000000000E+00 0.  1.
</event>
<event>
 7    1  0.2937071E-011  0.5052886E+02  0.7816164E-02  0.1300439E+00
        -11   -1    0    0    0    0  0.00000000000E+00  0.00000000000E+00  0.45593999997E+02  0.45594000000E+02  0.51100000000E-03 0. -1.
         11   -1    0    0    0    0 -0.00000000000E+00 -0.00000000000E+00 -0.45593999997E+02  0.45594000000E+02  0.51100000000E-03 0.  1.
    9900012    2    1    2    0    0 -0.39693544506E+02  0.58813122402E+01  0.65573235547E+01  0.50528858331E+02  0.29999995382E+02 0.  0.
        -12    1    1    2    0    0  0.39693544506E+02 -0.58813122402E+01 -0.65573235547E+01  0.40659141669E+02  0.00000000000E+00 0.  1.
         11    1    3    3    0    0 -0.16339412242E+02 -0.73728192547E+01  0.68257564058E+01  0.19181392205E+02  0.51100000000E-03 0. -1.
        -11    1    3    3    0    0 -0.67199227325E+00  0.73540180257E+01  0.23862897175E+01  0.77606400261E+01  0.51100000000E-03 0.  1.
         12    1    3    3    0    0 -0.22682139991E+02  0.59001134692E+01 -0.26547225686E+01  0.23586826099E+02  0.00000000000E+00 0. -1.
</event>
<event>
 7    1  0.2937071E-011  0.5052886E+02  0.7816164E-02  0.1300439E+00
        -11   -1    0    0    0    0  0.00000000000E+00  0.00000000000E+00  0.45593999997E+02  0.45594000000E+02  0.51100000000E-03 0.  1.
         11   -1    0    0    0    0 -0.00000000000E+00 -0.00000000000E+00 -0.45593999997E+02  0.45594000000E+02  0.51100000000E-03 0. -1.
    9900012    2    1    2    0    0  0.40486381175E+02 -0.33072462116E+01  0.17552280211E+01  0.50528858795E+02  0.29999996792E+02 0.  0.
        -12    1    1    2    0    0 -0.40486381175E+02  0.33072462116E+01 -0.17552280211E+01  0.40659141205E+02  0.00000000000E+00 0.  1.
         11    1    3    3    0    0  0.25995212105E+01  0.31544210692E+01  0.86045836736E+01  0.95261085057E+01  0.51100000000E-03 0. -1.
        -11    1    3    3    0    0  0.19630700815E+01  0.27136733912E+01 -0.52235951986E+00  0.33897680080E+01  0.51100000000E-03 0.  1.
         12    1    3    3    0    0  0.35923789883E+02 -0.91753406720E+01 -0.63269961326E+01  0.37612982281E+02  0.00000000000E+00 0. -1.
</event>
<event>
 7    1  0.2937071E-011  0.5052887E+02  0.7816164E-02  0.1300439E+00
        -11   -1    0    0    0    0  0.00000000000E+00  0.00000000000E+00  0.45593999997E+02  0.45594000000E+02  0.51100000000E-03 0.  1.
         11   -1    0    0    0    0 -0.00000000000E+00 -0.00000000000E+00 -0.45593999997E+02  0.45594000000E+02  0.51100000000E-03 0. -1.
    9900012    2    1    2    0    0 -0.14836255234E+02 -0.55398681633E+01 -0.37448101363E+02  0.50528869361E+02  0.30000028909E+02 0.  0.
        -12    1    1    2    0    0  0.14836255234E+02  0.55398681633E+01  0.37448101363E+02  0.40659130639E+02  0.00000000000E+00 0.  1.
         11    1    3    3    0    0 -0.34620852767E+01 -0.45292281478E+01 -0.50870597804E+01  0.76405575418E+01  0.51100000000E-03 0. -1.
        -11    1    3    3    0    0 -0.18097231401E+02 -0.58724844890E+01 -0.26926155333E+02  0.32969890805E+02  0.51100000000E-03 0.  1.
        -12    1    3    3    0    0  0.67230614432E+01  0.48618444735E+01 -0.54348862498E+01  0.99184210136E+01  0.00000000000E+00 0.  1.
</event>
<event>
 7    1  0.2937071E-011  0.5052886E+02  0.7816164E-02  0.1300439E+00
        -11   -1    0    0    0    0  0.00000000000E+00  0.00000000000E+00  0.45593999997E+02  0.45594000000E+02  0.51100000000E-03 0.  1.
         11   -1    0    0    0    0 -0.00000000000E+00 -0.00000000000E+00 -0.45593999997E+02  0.45594000000E+02  0.51100000000E-03 0. -1.
    9900012    2    1    2    0    0  0.28111055741E+02  0.21104169723E+02 -0.20433991257E+02  0.50528862856E+02  0.30000009137E+02 0.  0.
        -12    1    1    2    0    0 -0.28111055741E+02 -0.21104169723E+02  0.20433991257E+02  0.40659137144E+02  0.00000000000E+00 0.  1.
         11    1    3    3    0    0  0.26251744951E+02  0.71114139726E+01 -0.15191371849E+02  0.31152914801E+02  0.51100000000E-03 0. -1.
        -11    1    3    3    0    0  0.17856831217E+01  0.14404087416E+02 -0.80095276066E+01  0.16577663625E+02  0.51100000000E-03 0.  1.
        -12    1    3    3    0    0  0.73627667959E-01 -0.41133166554E+00  0.27669081987E+01  0.27982844303E+01  0.00000000000E+00 0.  1.
</event>
<event>
 7    1  0.2937071E-011  0.5052882E+02  0.7816164E-02  0.1300439E+00
        -11   -1    0    0    0    0  0.00000000000E+00  0.00000000000E+00  0.45593999997E+02  0.45594000000E+02  0.51100000000E-03 0. -1.
         11   -1    0    0    0    0 -0.00000000000E+00 -0.00000000000E+00 -0.45593999997E+02  0.45594000000E+02  0.51100000000E-03 0.  1.
    9900012    2    1    2    0    0 -0.36966796136E+02  0.14906731389E+02 -0.80258496135E+01  0.50528819987E+02  0.29999878833E+02 0.  0.
        -12    1    1    2    0    0  0.36966796136E+02 -0.14906731389E+02  0.80258496135E+01  0.40659180013E+02  0.00000000000E+00 0.  1.
         11    1    3    3    0    0 -0.65106466258E+01  0.15134016606E+02  0.16617636578E+01  0.16558636322E+02  0.51100000000E-03 0. -1.
        -11    1    3    3    0    0 -0.95990519456E+01  0.49516227916E+01 -0.12118733987E+01  0.10868716756E+02  0.51100000000E-03 0.  1.
        -12    1    3    3    0    0 -0.20857097565E+02 -0.51789080087E+01 -0.84757398726E+01  0.23101466910E+02  0.00000000000E+00 0.  1.
</event>
<event>
 7    1  0.2937071E-011  0.5052886E+02  0.7816164E-02  0.1300439E+00
        -11   -1    0    0    0    0  0.00000000000E+00  0.00000000000E+00  0.45593999997E+02  0.45594000000E+02  0.51100000000E-03 0. -1.
         11   -1    0    0    0    0 -0.00000000000E+00 -0.00000000000E+00 -0.45593999997E+02  0.45594000000E+02  0.51100000000E-03 0.  1.
    9900012    2    1    2    0    0  0.15580528642E+02  0.54898932447E+00 -0.37551449991E+02  0.50528860087E+02  0.30000000721E+02 0.  0.
        -12    1    1    2    0    0 -0.15580528642E+02 -0.54898932447E+00  0.37551449991E+02  0.40659139913E+02  0.00000000000E+00 0.  1.
         11    1    3    3    0    0  0.17486966786E+01  0.22682783340E+01  0.26950331261E+01  0.39327128660E+01  0.51100000000E-03 0. -1.
        -11    1    3    3    0    0  0.91299041947E+01  0.61898960063E+01 -0.96826285300E+01  0.14677304204E+02  0.51100000000E-03 0.  1.
        -12    1    3    3    0    0  0.47019277684E+01 -0.79091850159E+01 -0.30563854587E+02  0.31918843017E+02  0.00000000000E+00 0.  1.
</event>
<event>
 7    1  0.2937071E-011  0.5052887E+02  0.7816164E-02  0.1300439E+00
        -11   -1    0    0    0    0  0.00000000000E+00  0.00000000000E+00  0.45593999997E+02  0.45594000000E+02  0.51100000000E-03 0.  1.
         11   -1    0    0    0    0 -0.00000000000E+00 -0.00000000000E+00 -0.45593999997E+02  0.45594000000E+02  0.51100000000E-03 0. -1.
    9900012    2    1    2    0    0  0.37255603991E+02 -0.39108838989E+01 -0.15807913881E+02  0.50528865936E+02  0.30000018498E+02 0.  0.
        -12    1    1    2    0    0 -0.37255603991E+02  0.39108838989E+01  0.15807913881E+02  0.40659134064E+02  0.00000000000E+00 0.  1.
         11    1    3    3    0    0  0.24319719478E+01 -0.45674500412E+01 -0.47145863011E+01  0.70002436876E+01  0.51100000000E-03 0. -1.
        -11    1    3    3    0    0  0.22475221527E+02 -0.10854238836E+02 -0.89336789274E+01  0.26509634152E+02  0.51100000000E-03 0.  1.
         12    1    3    3    0    0  0.12348410516E+02  0.11510804979E+02 -0.21596486523E+01  0.17018988096E+02  0.00000000000E+00 0. -1.
</event>
<event>
 7    1  0.2937071E-011  0.5052885E+02  0.7816164E-02  0.1300439E+00
        -11   -1    0    0    0    0  0.00000000000E+00  0.00000000000E+00  0.45593999997E+02  0.45594000000E+02  0.51100000000E-03 0.  1.
         11   -1    0    0    0    0 -0.00000000000E+00 -0.00000000000E+00 -0.45593999997E+02  0.45594000000E+02  0.51100000000E-03 0. -1.
    9900012    2    1    2    0    0 -0.23049235818E+02  0.33486725182E+02  0.73367314857E+00  0.50528852057E+02  0.29999976311E+02 0.  0.
        -12    1    1    2    0    0  0.23049235818E+02 -0.33486725182E+02 -0.73367314857E+00  0.40659147943E+02  0.00000000000E+00 0.  1.
         11    1    3    3    0    0 -0.65827556547E+01  0.11436957639E+02 -0.68931882005E+01  0.14888005772E+02  0.51100000000E-03 0. -1.
        -11    1    3    3    0    0 -0.16837624822E+02  0.15927510941E+02 -0.30002333786E+01  0.23370764109E+02  0.51100000000E-03 0.  1.
        -12    1    3    3    0    0  0.37114465866E+00  0.61222566014E+01  0.10627094728E+02  0.12270082176E+02  0.00000000000E+00 0.  1.
</event>
<event>
 7    1  0.2937071E-011  0.5052887E+02  0.7816164E-02  0.1300439E+00
        -11   -1    0    0    0    0  0.00000000000E+00  0.00000000000E+00  0.45593999997E+02  0.45594000000E+02  0.51100000000E-03 0.  1.
         11   -1    0    0    0    0 -0.00000000000E+00 -0.00000000000E+00 -0.45593999997E+02  0.45594000000E+02  0.51100000000E-03 0. -1.
    9900012    2    1    2    0    0  0.29123459300E+02  0.20237633446E+02 -0.19885359072E+02  0.50528865792E+02  0.30000018062E+02 0.  0.
        -12    1    1    2    0    0 -0.29123459300E+02 -0.20237633446E+02  0.19885359072E+02  0.40659134208E+02  0.00000000000E+00 0.  1.
         11    1    3    3    0    0  0.14670671248E+02 -0.27528482681E+01 -0.47924880652E+01  0.15677203532E+02  0.51100000000E-03 0. -1.
        -11    1    3    3    0    0  0.16184912411E+02  0.14225157362E+02 -0.66289651307E+01  0.22544393331E+02  0.51100000000E-03 0.  1.
         12    1    3    3    0    0 -0.17321243593E+01  0.87653243524E+01 -0.84639058766E+01  0.12307268929E+02  0.00000000000E+00 0. -1.
</event>
<event>
 7    1  0.2937071E-011  0.5052887E+02  0.7816164E-02  0.1300439E+00
        -11   -1    0    0    0    0  0.00000000000E+00  0.00000000000E+00  0.45593999997E+02  0.45594000000E+02  0.51100000000E-03 0.  1.
         11   -1    0    0    0    0 -0.00000000000E+00 -0.00000000000E+00 -0.45593999997E+02  0.45594000000E+02  0.51100000000E-03 0. -1.
    9900012    2    1    2    0    0  0.55623240268E+01 -0.38745501727E+02 -0.11000527817E+02  0.50528868616E+02  0.30000026646E+02 0.  0.
        -12    1    1    2    0    0 -0.55623240268E+01  0.38745501727E+02  0.11000527817E+02  0.40659131384E+02  0.00000000000E+00 0.  1.
         11    1    3    3    0    0 -0.93994626163E+01 -0.26071716344E+02 -0.16091305649E+01  0.27761008484E+02  0.51100000000E-03 0. -1.
        -11    1    3    3    0    0 -0.25871244326E+00 -0.15727176169E+01 -0.19356683825E+01  0.25074260066E+01  0.51100000000E-03 0.  1.
        -12    1    3    3    0    0  0.15220499086E+02 -0.11101067765E+02 -0.74557288699E+01  0.20260434125E+02  0.00000000000E+00 0.  1.
</event>
<event>
 7    1  0.2937071E-011  0.5052885E+02  0.7816164E-02  0.1300439E+00
        -11   -1    0    0    0    0  0.00000000000E+00  0.00000000000E+00  0.45593999997E+02  0.45594000000E+02  0.51100000000E-03 0. -1.
         11   -1    0    0    0    0 -0.00000000000E+00 -0.00000000000E+00 -0.45593999997E+02  0.45594000000E+02  0.51100000000E-03 0.  1.
    9900012    2    1    2    0    0 -0.25924574300E+02  0.28489425860E+02  0.13016726826E+02  0.50528854464E+02  0.29999983629E+02 0.  0.
        -12    1    1    2    0    0  0.25924574300E+02 -0.28489425860E+02 -0.13016726826E+02  0.40659145536E+02  0.00000000000E+00 0.  1.
         11    1    3    3    0    0 -0.16103271684E+01  0.38020882375E+01 -0.80805762784E+00  0.42073728081E+01  0.51100000000E-03 0. -1.
        -11    1    3    3    0    0 -0.10674789583E+02  0.18901809975E+02  0.20693595523E+02  0.29990906103E+02  0.51100000000E-03 0.  1.
        -12    1    3    3    0    0 -0.13639457549E+02  0.57855276475E+01 -0.68688110692E+01  0.16330575553E+02  0.00000000000E+00 0.  1.
</event>
<event>
 7    1  0.2937071E-011  0.5052886E+02  0.7816164E-02  0.1300439E+00
        -11   -1    0    0    0    0  0.00000000000E+00  0.00000000000E+00  0.45593999997E+02  0.45594000000E+02  0.51100000000E-03 0. -1.
         11   -1    0    0    0    0 -0.00000000000E+00 -0.00000000000E+00 -0.45593999997E+02  0.45594000000E+02  0.51100000000E-03 0.  1.
    9900012    2    1    2    0    0 -0.16111354695E+02  0.13223316380E+02  0.34910371832E+02  0.50528857023E+02  0.29999991408E+02 0.  0.
        -12    1    1    2    0    0  0.16111354695E+02 -0.13223316380E+02 -0.34910371832E+02  0.40659142977E+02  0.00000000000E+00 0.  1.
         11    1    3    3    0    0 -0.31977645576E+01  0.67483688929E+01  0.16514598637E+02  0.18124517905E+02  0.51100000000E-03 0. -1.
        -11    1    3    3    0    0 -0.14026760385E+02 -0.16158569095E+01  0.22325377816E+01  0.14294937063E+02  0.51100000000E-03 0.  1.
         12    1    3    3    0    0  0.11131702476E+01  0.80908043963E+01  0.16163235413E+02  0.18109402055E+02  0.00000000000E+00 0. -1.
</event>
<event>
 7    1  0.2937071E-011  0.5052886E+02  0.7816164E-02  0.1300439E+00
        -11   -1    0    0    0    0  0.00000000000E+00  0.00000000000E+00  0.45593999997E+02  0.45594000000E+02  0.51100000000E-03 0.  1.
         11   -1    0    0    0    0 -0.00000000000E+00 -0.00000000000E+00 -0.45593999997E+02  0.45594000000E+02  0.51100000000E-03 0. -1.
    9900012    2    1    2    0    0 -0.28591833011E+01  0.21768768781E+02 -0.34221506181E+02  0.50528859469E+02  0.29999998842E+02 0.  0.
        -12    1    1    2    0    0  0.28591833011E+01 -0.21768768781E+02  0.34221506181E+02  0.40659140531E+02  0.00000000000E+00 0.  1.
         11    1    3    3    0    0 -0.30369599761E+01 -0.56658030829E+00 -0.58521487162E+01  0.66175360974E+01  0.51100000000E-03 0. -1.
        -11    1    3    3    0    0  0.47697573734E+01 -0.31140844108E+01 -0.12059874792E+02  0.13337491795E+02  0.51100000000E-03 0.  1.
        -12    1    3    3    0    0 -0.45919806984E+01  0.25449433500E+02 -0.16309482673E+02  0.30573831576E+02  0.00000000000E+00 0.  1.
</event>
<event>
 7    1  0.2937071E-011  0.5052886E+02  0.7816164E-02  0.1300439E+00
        -11   -1    0    0    0    0  0.00000000000E+00  0.00000000000E+00  0.45593999997E+02  0.45594000000E+02  0.51100000000E-03 0. -1.
         11   -1    0    0    0    0 -0.00000000000E+00 -0.00000000000E+00 -0.45593999997E+02  0.45594000000E+02  0.51100000000E-03 0.  1.
    9900012    2    1    2    0    0  0.32134829824E+01  0.40167756944E+02  0.54213263596E+01  0.50528856498E+02  0.29999989811E+02 0.  0.
        -12    1    1    2    0    0 -0.32134829824E+01 -0.40167756944E+02 -0.54213263596E+01  0.40659143502E+02  0.00000000000E+00 0.  1.
         11    1    3    3    0    0  0.12669516292E+02  0.11980442171E+02  0.13049476309E+01  0.17485723499E+02  0.51100000000E-03 0. -1.
        -11    1    3    3    0    0  0.31213069980E+01  0.19321328110E+01  0.59082835743E+00  0.37181679607E+01  0.51100000000E-03 0.  1.
         12    1    3    3    0    0 -0.12577340308E+02  0.26255181962E+02  0.35255503712E+01  0.29324965038E+02  0.00000000000E+00 0. -1.
</event>
<event>
 7    1  0.2937071E-011  0.5052886E+02  0.7816164E-02  0.1300439E+00
        -11   -1    0    0    0    0  0.00000000000E+00  0.00000000000E+00  0.45593999997E+02  0.45594000000E+02  0.51100000000E-03 0. -1.
         11   -1    0    0    0    0 -0.00000000000E+00 -0.00000000000E+00 -0.45593999997E+02  0.45594000000E+02  0.51100000000E-03 0.  1.
    9900012    2    1    2    0    0  0.22542381601E+02 -0.18132245033E+02  0.28569711803E+02  0.50528859444E+02  0.29999998767E+02 0.  0.
        -12    1    1    2    0    0 -0.22542381601E+02  0.18132245033E+02 -0.28569711803E+02  0.40659140556E+02  0.00000000000E+00 0.  1.
         11    1    3    3    0    0  0.41111194889E+00  0.34394620777E+01  0.92379429774E+01  0.98660277282E+01  0.51100000000E-03 0. -1.
        -11    1    3    3    0    0 -0.27130145117E+01 -0.53277088866E+01  0.44818784571E+01  0.74720923767E+01  0.51100000000E-03 0.  1.
         12    1    3    3    0    0  0.24844284164E+02 -0.16243998224E+02  0.14849890369E+02  0.33190739339E+02  0.00000000000E+00 0. -1.
</event>
<event>
 7    1  0.2937071E-011  0.5052889E+02  0.7816164E-02  0.1300439E+00
        -11   -1    0    0    0    0  0.00000000000E+00  0.00000000000E+00  0.45593999997E+02  0.45594000000E+02  0.51100000000E-03 0. -1.
         11   -1    0    0    0    0 -0.00000000000E+00 -0.00000000000E+00 -0.45593999997E+02  0.45594000000E+02  0.51100000000E-03 0.  1.
    9900012    2    1    2    0    0 -0.15869641306E+02 -0.11845143984E+01 -0.37415433260E+02  0.50528889882E+02  0.30000091286E+02 0.  0.
        -12    1    1    2    0    0  0.15869641306E+02  0.11845143984E+01  0.37415433260E+02  0.40659110118E+02  0.00000000000E+00 0.  1.
         11    1    3    3    0    0 -0.11447914357E+02 -0.30864889385E+00 -0.11987244607E+02  0.16578420938E+02  0.51100000000E-03 0. -1.
        -11    1    3    3    0    0 -0.16192124753E+01  0.24992712797E+01 -0.28461540507E+02  0.28616909237E+02  0.51100000000E-03 0.  1.
         12    1    3    3    0    0 -0.28025144733E+01 -0.33751367842E+01  0.30333518538E+01  0.53335597075E+01  0.00000000000E+00 0. -1.
</event>
<event>
 7    1  0.2937071E-011  0.5052885E+02  0.7816164E-02  0.1300439E+00
        -11   -1    0    0    0    0  0.00000000000E+00  0.00000000000E+00  0.45593999997E+02  0.45594000000E+02  0.51100000000E-03 0. -1.
         11   -1    0    0    0    0 -0.00000000000E+00 -0.00000000000E+00 -0.45593999997E+02  0.45594000000E+02  0.51100000000E-03 0.  1.
    9900012    2    1    2    0    0 -0.30846927222E+02 -0.26059382679E+02  0.47478357697E+01  0.50528852331E+02  0.29999977146E+02 0.  0.
        -12    1    1    2    0    0  0.30846927222E+02  0.26059382679E+02 -0.47478357697E+01  0.40659147669E+02  0.00000000000E+00 0.  1.
         11    1    3    3    0    0 -0.99315744382E+01 -0.73473166711E+00 -0.30761744849E+01  0.10422996266E+02  0.51100000000E-03 0. -1.
        -11    1    3    3    0    0 -0.16926743476E+02 -0.12968616360E+02 -0.49510793271E+01  0.21890930582E+02  0.51100000000E-03 0.  1.
         12    1    3    3    0    0 -0.39886093081E+01 -0.12356034652E+02  0.12775089582E+02  0.18214925483E+02  0.00000000000E+00 0. -1.
</event>
<event>
 7    1  0.2937071E-011  0.5052890E+02  0.7816164E-02  0.1300439E+00
        -11   -1    0    0    0    0  0.00000000000E+00  0.00000000000E+00  0.45593999997E+02  0.45594000000E+02  0.51100000000E-03 0.  1.
         11   -1    0    0    0    0 -0.00000000000E+00 -0.00000000000E+00 -0.45593999997E+02  0.45594000000E+02  0.51100000000E-03 0. -1.
    9900012    2    1    2    0    0  0.34132197607E+02 -0.42413376258E+01 -0.21683318938E+02  0.50528902882E+02  0.30000130799E+02 0.  0.
        -12    1    1    2    0    0 -0.34132197607E+02  0.42413376258E+01  0.21683318938E+02  0.40659097118E+02  0.00000000000E+00 0.  1.
         11    1    3    3    0    0 -0.27064421488E+01  0.29790960345E+01 -0.18080161357E+01  0.44123423366E+01  0.51100000000E-03 0. -1.
        -11    1    3    3    0    0  0.43416244242E+01  0.36239947432E+01 -0.81237057388E+01  0.98983653060E+01  0.51100000000E-03 0.  1.
         12    1    3    3    0    0  0.32497015331E+02 -0.10844428403E+02 -0.11751597063E+02  0.36218195239E+02  0.00000000000E+00 0. -1.
</event>
<event>
 7    1  0.2937071E-011  0.5052886E+02  0.7816164E-02  0.1300439E+00
        -11   -1    0    0    0    0  0.00000000000E+00  0.00000000000E+00  0.45593999997E+02  0.45594000000E+02  0.51100000000E-03 0.  1.
         11   -1    0    0    0    0 -0.00000000000E+00 -0.00000000000E+00 -0.45593999997E+02  0.45594000000E+02  0.51100000000E-03 0. -1.
    9900012    2    1    2    0    0  0.35507339145E+02 -0.14665519861E+02 -0.13316044729E+02  0.50528860152E+02  0.30000000919E+02 0.  0.
        -12    1    1    2    0    0 -0.35507339145E+02  0.14665519861E+02  0.13316044729E+02  0.40659139848E+02  0.00000000000E+00 0.  1.
         11    1    3    3    0    0  0.37644495220E+01 -0.50779214899E+01  0.44355561190E+00  0.63366480653E+01  0.51100000000E-03 0. -1.
        -11    1    3    3    0    0  0.32205985388E+02 -0.11214587832E+02 -0.40568780037E+01  0.34343132275E+02  0.51100000000E-03 0.  1.
         12    1    3    3    0    0 -0.46309576553E+00  0.16269894609E+01 -0.97027223367E+01  0.98490798117E+01  0.00000000000E+00 0. -1.
</event>
<event>
 7    1  0.2937071E-011  0.5052885E+02  0.7816164E-02  0.1300439E+00
        -11   -1    0    0    0    0  0.00000000000E+00  0.00000000000E+00  0.45593999997E+02  0.45594000000E+02  0.51100000000E-03 0.  1.
         11   -1    0    0    0    0 -0.00000000000E+00 -0.00000000000E+00 -0.45593999997E+02  0.45594000000E+02  0.51100000000E-03 0. -1.
    9900012    2    1    2    0    0  0.70897755835E+01 -0.39499681465E+02 -0.65327338361E+01  0.50528851398E+02  0.29999974310E+02 0.  0.
        -12    1    1    2    0    0 -0.70897755835E+01  0.39499681465E+02  0.65327338361E+01  0.40659148602E+02  0.00000000000E+00 0.  1.
         11    1    3    3    0    0  0.75078326227E+01 -0.85754009661E+01  0.19416860801E+01  0.11561799060E+02  0.51100000000E-03 0. -1.
        -11    1    3    3    0    0  0.70619916497E+01 -0.16087763868E+02 -0.12871192812E+02  0.21779703327E+02  0.51100000000E-03 0.  1.
        -12    1    3    3    0    0 -0.74800486889E+01 -0.14836516631E+02  0.43967728959E+01  0.17187349011E+02  0.00000000000E+00 0.  1.
</event>
<event>
 7    1  0.2937071E-011  0.5052888E+02  0.7816164E-02  0.1300439E+00
        -11   -1    0    0    0    0  0.00000000000E+00  0.00000000000E+00  0.45593999997E+02  0.45594000000E+02  0.51100000000E-03 0. -1.
         11   -1    0    0    0    0 -0.00000000000E+00 -0.00000000000E+00 -0.45593999997E+02  0.45594000000E+02  0.51100000000E-03 0.  1.
    9900012    2    1    2    0    0 -0.40307964757E+02 -0.60520901350E+00 -0.52977485803E+01  0.50528875061E+02  0.30000046234E+02 0.  0.
        -12    1    1    2    0    0  0.40307964757E+02  0.60520901350E+00  0.52977485803E+01  0.40659124939E+02  0.00000000000E+00 0.  1.
         11    1    3    3    0    0 -0.20395650268E+02  0.35758819371E+01  0.67826953245E+01  0.21789319347E+02  0.51100000000E-03 0. -1.
        -11    1    3    3    0    0 -0.11122128188E+02  0.29992342433E+01  0.83004645715E+00  0.11549290838E+02  0.51100000000E-03 0.  1.
        -12    1    3    3    0    0 -0.87901863003E+01 -0.71803251939E+01 -0.12910490362E+02  0.17190264875E+02  0.00000000000E+00 0.  1.
</event>
<event>
 7    1  0.2937071E-011  0.5052885E+02  0.7816164E-02  0.1300439E+00
        -11   -1    0    0    0    0  0.00000000000E+00  0.00000000000E+00  0.45593999997E+02  0.45594000000E+02  0.51100000000E-03 0.  1.
         11   -1    0    0    0    0 -0.00000000000E+00 -0.00000000000E+00 -0.45593999997E+02  0.45594000000E+02  0.51100000000E-03 0. -1.
    9900012    2    1    2    0    0  0.18394034231E+02 -0.28047880522E+02  0.22981343771E+02  0.50528852707E+02  0.29999978288E+02 0.  0.
        -12    1    1    2    0    0 -0.18394034231E+02  0.28047880522E+02 -0.22981343771E+02  0.40659147293E+02  0.00000000000E+00 0.  1.
         11    1    3    3    0    0 -0.35987663709E+00  0.13106212668E+01  0.88678875812E+01  0.89714363239E+01  0.51100000000E-03 0. -1.
        -11    1    3    3    0    0  0.14977702231E+01 -0.15634934599E+02  0.64197730229E+00  0.15719625653E+02  0.51100000000E-03 0.  1.
         12    1    3    3    0    0  0.17256140645E+02 -0.13723567190E+02  0.13471478887E+02  0.25837790730E+02  0.00000000000E+00 0. -1.
</event>
<event>
 7    1  0.2937071E-011  0.5052886E+02  0.7816164E-02  0.1300439E+00
        -11   -1    0    0    0    0  0.00000000000E+00  0.00000000000E+00  0.45593999997E+02  0.45594000000E+02  0.51100000000E-03 0. -1.
         11   -1    0    0    0    0 -0.00000000000E+00 -0.00000000000E+00 -0.45593999997E+02  0.45594000000E+02  0.51100000000E-03 0.  1.
    9900012    2    1    2    0    0  0.39875788719E+02  0.68622613054E+01 -0.39996123922E+01  0.50528855205E+02  0.29999985881E+02 0.  0.
        -12    1    1    2    0    0 -0.39875788719E+02 -0.68622613054E+01  0.39996123922E+01  0.40659144795E+02  0.00000000000E+00 0.  1.
         11    1    3    3    0    0  0.60823404876E+01 -0.46936238445E-01 -0.66561426003E+01  0.90167235398E+01  0.51100000000E-03 0. -1.
        -11    1    3    3    0    0  0.14660509976E+02  0.64036381743E+01 -0.97201174853E+01  0.18719450281E+02  0.51100000000E-03 0.  1.
         12    1    3    3    0    0  0.19132938255E+02  0.50555936949E+00  0.12376647693E+02  0.22792681384E+02  0.00000000000E+00 0. -1.
</event>
<event>
 7    1  0.2937071E-011  0.5052878E+02  0.7816164E-02  0.1300439E+00
        -11   -1    0    0    0    0  0.00000000000E+00  0.00000000000E+00  0.45593999997E+02  0.45594000000E+02  0.51100000000E-03 0.  1.
         11   -1    0    0    0    0 -0.00000000000E+00 -0.00000000000E+00 -0.45593999997E+02  0.45594000000E+02  0.51100000000E-03 0. -1.
    9900012    2    1    2    0    0  0.30386963160E+02  0.88422315797E+01 -0.25526840981E+02  0.50528779645E+02  0.29999756208E+02 0.  0.
        -12    1    1    2    0    0 -0.30386963160E+02 -0.88422315797E+01  0.25526840981E+02  0.40659220355E+02  0.00000000000E+00 0.  1.
         11    1    3    3    0    0  0.65300361001E+01  0.66496802751E+01 -0.59861519392E+01  0.11076715873E+02  0.51100000000E-03 0. -1.
        -11    1    3    3    0    0  0.16699510951E+02  0.68698192864E+01  0.71096120348E-01  0.18057495340E+02  0.51100000000E-03 0.  1.
         12    1    3    3    0    0  0.71574161088E+01 -0.46772679818E+01 -0.19611785162E+02  0.21394568432E+02  0.00000000000E+00 0. -1.
</event>
<event>
 7    1  0.2937071E-011  0.5052886E+02  0.7816164E-02  0.1300439E+00
        -11   -1    0    0    0    0  0.00000000000E+00  0.00000000000E+00  0.45593999997E+02  0.45594000000E+02  0.51100000000E-03 0.  1.
         11   -1    0    0    0    0 -0.00000000000E+00 -0.00000000000E+00 -0.45593999997E+02  0.45594000000E+02  0.51100000000E-03 0. -1.
    9900012    2    1    2    0    0 -0.34414489321E+02  0.21284204710E+02 -0.39738073671E+01  0.50528860925E+02  0.30000003267E+02 0.  0.
        -12    1    1    2    0    0  0.34414489321E+02 -0.21284204710E+02  0.39738073671E+01  0.40659139075E+02  0.00000000000E+00 0.  1.
         11    1    3    3    0    0 -0.14308384471E+02  0.17398475357E+02 -0.12295635706E+01  0.22559890021E+02  0.51100000000E-03 0. -1.
        -11    1    3    3    0    0 -0.41215965505E+01  0.73954841947E+01 -0.70827167736E+01  0.11038370430E+02  0.51100000000E-03 0.  1.
        -12    1    3    3    0    0 -0.15984508299E+02 -0.35097548419E+01  0.43384729771E+01  0.16930600474E+02  0.00000000000E+00 0.  1.
</event>
<event>
 7    1  0.2937071E-011  0.5052885E+02  0.7816164E-02  0.1300439E+00
        -11   -1    0    0    0    0  0.00000000000E+00  0.00000000000E+00  0.45593999997E+02  0.45594000000E+02  0.51100000000E-03 0.  1.
         11   -1    0    0    0    0 -0.00000000000E+00 -0.00000000000E+00 -0.45593999997E+02  0.45594000000E+02  0.51100000000E-03 0. -1.
    9900012    2    1    2    0    0 -0.16528904003E+02  0.51760647696E+01  0.36785458956E+02  0.50528852141E+02  0.29999976567E+02 0.  0.
        -12    1    1    2    0    0  0.16528904003E+02 -0.51760647696E+01 -0.36785458956E+02  0.40659147859E+02  0.00000000000E+00 0.  1.
         11    1    3    3    0    0 -0.90430564058E+01 -0.42224909094E+01  0.30844897057E+01  0.10446069866E+02  0.51100000000E-03 0. -1.
        -11    1    3    3    0    0 -0.84262945901E+01 -0.16659249466E+01  0.23437055174E+02  0.24961436296E+02  0.51100000000E-03 0.  1.
        -12    1    3    3    0    0  0.94044699242E+00  0.11064480626E+02  0.10263914076E+02  0.15121345979E+02  0.00000000000E+00 0.  1.
</event>
<event>
 7    1  0.2937071E-011  0.5052886E+02  0.7816164E-02  0.1300439E+00
        -11   -1    0    0    0    0  0.00000000000E+00  0.00000000000E+00  0.45593999997E+02  0.45594000000E+02  0.51100000000E-03 0.  1.
         11   -1    0    0    0    0 -0.00000000000E+00 -0.00000000000E+00 -0.45593999997E+02  0.45594000000E+02  0.51100000000E-03 0. -1.
    9900012    2    1    2    0    0  0.14569640482E+02  0.33984280106E+02 -0.16910361155E+02  0.50528855488E+02  0.29999986740E+02 0.  0.
        -12    1    1    2    0    0 -0.14569640482E+02 -0.33984280106E+02  0.16910361155E+02  0.40659144512E+02  0.00000000000E+00 0.  1.
         11    1    3    3    0    0  0.10866095389E+02  0.23727597819E+02 -0.20977532094E+02  0.33483246263E+02  0.51100000000E-03 0. -1.
        -11    1    3    3    0    0  0.39606533660E+01  0.20335359973E+01 -0.36563442384E+01  0.57611541542E+01  0.51100000000E-03 0.  1.
        -12    1    3    3    0    0 -0.25710827279E+00  0.82231462891E+01  0.77235151771E+01  0.11284455071E+02  0.00000000000E+00 0.  1.
</event>
<event>
 7    1  0.2937071E-011  0.5052887E+02  0.7816164E-02  0.1300439E+00
        -11   -1    0    0    0    0  0.00000000000E+00  0.00000000000E+00  0.45593999997E+02  0.45594000000E+02  0.51100000000E-03 0. -1.
         11   -1    0    0    0    0 -0.00000000000E+00 -0.00000000000E+00 -0.45593999997E+02  0.45594000000E+02  0.51100000000E-03 0.  1.
    9900012    2    1    2    0    0  0.42582848508E+01 -0.25601013087E+02  0.31298885753E+02  0.50528866827E+02  0.30000021208E+02 0.  0.
        -12    1    1    2    0    0 -0.42582848508E+01  0.25601013087E+02 -0.31298885753E+02  0.40659133173E+02  0.00000000000E+00 0.  1.
         11    1    3    3    0    0 -0.15701808973E+01 -0.28654094160E+01  0.92313376789E+00  0.33953225747E+01  0.51100000000E-03 0. -1.
        -11    1    3    3    0    0 -0.72235703178E+01 -0.14435282207E+02  0.41182627310E+01  0.16658854364E+02  0.51100000000E-03 0.  1.
         12    1    3    3    0    0  0.13052036066E+02 -0.83003214647E+01  0.26257489254E+02  0.30474689889E+02  0.00000000000E+00 0. -1.
</event>
<event>
 7    1  0.2937071E-011  0.5052886E+02  0.7816164E-02  0.1300439E+00
        -11   -1    0    0    0    0  0.00000000000E+00  0.00000000000E+00  0.45593999997E+02  0.45594000000E+02  0.51100000000E-03 0.  1.
         11   -1    0    0    0    0 -0.00000000000E+00 -0.00000000000E+00 -0.45593999997E+02  0.45594000000E+02  0.51100000000E-03 0. -1.
    9900012    2    1    2    0    0 -0.33851072682E+02 -0.20626684299E+02 -0.90449270514E+01  0.50528856720E+02  0.29999990485E+02 0.  0.
        -12    1    1    2    0    0  0.33851072682E+02  0.20626684299E+02  0.90449270514E+01  0.40659143280E+02  0.00000000000E+00 0.  1.
         11    1    3    3    0    0 -0.15870870982E+02 -0.16967132160E+02  0.40662543666E+01  0.23586066740E+02  0.51100000000E-03 0. -1.
        -11    1    3    3    0    0  0.42206923921E+00  0.36886772414E+01 -0.23523603993E+01  0.43952340033E+01  0.51100000000E-03 0.  1.
        -12    1    3    3    0    0 -0.18402270940E+02 -0.73482293803E+01 -0.10758821019E+02  0.22547555976E+02  0.00000000000E+00 0.  1.
</event>
<event>
 7    1  0.2937071E-011  0.5052885E+02  0.7816164E-02  0.1300439E+00
        -11   -1    0    0    0    0  0.00000000000E+00  0.00000000000E+00  0.45593999997E+02  0.45594000000E+02  0.51100000000E-03 0.  1.
         11   -1    0    0    0    0 -0.00000000000E+00 -0.00000000000E+00 -0.45593999997E+02  0.45594000000E+02  0.51100000000E-03 0. -1.
    9900012    2    1    2    0    0 -0.26914146343E+02  0.80078496266E+01 -0.29405261472E+02  0.50528851814E+02  0.29999975573E+02 0.  0.
        -12    1    1    2    0    0  0.26914146343E+02 -0.80078496266E+01  0.29405261472E+02  0.40659148186E+02  0.00000000000E+00 0.  1.
         11    1    3    3    0    0 -0.37490653651E+01 -0.27176334842E+01 -0.95439714292E+01  0.10607941071E+02  0.51100000000E-03 0. -1.
        -11    1    3    3    0    0 -0.10853135852E+02 -0.66712925892E+01 -0.39966287564E+01  0.13351769332E+02  0.51100000000E-03 0.  1.
         12    1    3    3    0    0 -0.12311945126E+02  0.17396775700E+02 -0.15864661286E+02  0.26569141410E+02  0.00000000000E+00 0. -1.
</event>
<event>
 7    1  0.2937071E-011  0.5052887E+02  0.7816164E-02  0.1300439E+00
        -11   -1    0    0    0    0  0.00000000000E+00  0.00000000000E+00  0.45593999997E+02  0.45594000000E+02  0.51100000000E-03 0.  1.
         11   -1    0    0    0    0 -0.00000000000E+00 -0.00000000000E+00 -0.45593999997E+02  0.45594000000E+02  0.51100000000E-03 0. -1.
    9900012    2    1    2    0    0  0.20676290591E+02 -0.34640722622E+02 -0.50671950483E+01  0.50528866684E+02  0.30000020771E+02 0.  0.
        -12    1    1    2    0    0 -0.20676290591E+02  0.34640722622E+02  0.50671950483E+01  0.40659133316E+02  0.00000000000E+00 0.  1.
         11    1    3    3    0    0 -0.41938765624E+01 -0.41033623695E+01 -0.64310049433E+01  0.87054010934E+01  0.51100000000E-03 0. -1.
        -11    1    3    3    0    0 -0.10361834662E+01 -0.33224409926E+01  0.24130969452E+01  0.42350120960E+01  0.51100000000E-03 0.  1.
         12    1    3    3    0    0  0.25906350620E+02 -0.27214919260E+02 -0.10492870502E+01  0.37588453494E+02  0.00000000000E+00 0. -1.
</event>
<event>
 7    1  0.2937071E-011  0.5052885E+02  0.7816164E-02  0.1300439E+00
        -11   -1    0    0    0    0  0.00000000000E+00  0.00000000000E+00  0.45593999997E+02  0.45594000000E+02  0.51100000000E-03 0.  1.
         11   -1    0    0    0    0 -0.00000000000E+00 -0.00000000000E+00 -0.45593999997E+02  0.45594000000E+02  0.51100000000E-03 0. -1.
    9900012    2    1    2    0    0  0.26303276149E+02  0.64678355834E+01 -0.30322786664E+02  0.50528848209E+02  0.29999964616E+02 0.  0.
        -12    1    1    2    0    0 -0.26303276149E+02 -0.64678355834E+01  0.30322786664E+02  0.40659151791E+02  0.00000000000E+00 0.  1.
         11    1    3    3    0    0  0.11243831914E+02  0.57344209923E-01  0.30072977731E+01  0.11639196048E+02  0.51100000000E-03 0. -1.
        -11    1    3    3    0    0  0.22166191455E+00  0.26165925718E+01 -0.51410651599E+00  0.26758169710E+01  0.51100000000E-03 0.  1.
         12    1    3    3    0    0  0.14837782320E+02  0.37938988017E+01 -0.32815977921E+02  0.36213835191E+02  0.00000000000E+00 0. -1.
</event>
<event>
 7    1  0.2937071E-011  0.5052886E+02  0.7816164E-02  0.1300439E+00
        -11   -1    0    0    0    0  0.00000000000E+00  0.00000000000E+00  0.45593999997E+02  0.45594000000E+02  0.51100000000E-03 0.  1.
         11   -1    0    0    0    0 -0.00000000000E+00 -0.00000000000E+00 -0.45593999997E+02  0.45594000000E+02  0.51100000000E-03 0. -1.
    9900012    2    1    2    0    0  0.12565319729E+02 -0.26641252999E+01 -0.38576949515E+02  0.50528857641E+02  0.29999993284E+02 0.  0.
        -12    1    1    2    0    0 -0.12565319729E+02  0.26641252999E+01  0.38576949515E+02  0.40659142359E+02  0.00000000000E+00 0.  1.
         11    1    3    3    0    0 -0.39932875416E+01 -0.27929958881E+00  0.14112848617E+01  0.42445351775E+01  0.51100000000E-03 0. -1.
        -11    1    3    3    0    0 -0.29239009590E+01 -0.22848785464E+00 -0.20396162912E+01  0.35723155507E+01  0.51100000000E-03 0.  1.
         12    1    3    3    0    0  0.19482508230E+02 -0.21563378564E+01 -0.37948618086E+02  0.42712006912E+02  0.00000000000E+00 0. -1.
</event>
<event>
 7    1  0.2937071E-011  0.5052886E+02  0.7816164E-02  0.1300439E+00
        -11   -1    0    0    0    0  0.00000000000E+00  0.00000000000E+00  0.45593999997E+02  0.45594000000E+02  0.51100000000E-03 0.  1.
         11   -1    0    0    0    0 -0.00000000000E+00 -0.00000000000E+00 -0.45593999997E+02  0.45594000000E+02  0.51100000000E-03 0. -1.
    9900012    2    1    2    0    0 -0.28163645660E+02  0.74488269186E+01 -0.28363528045E+02  0.50528859792E+02  0.29999999823E+02 0.  0.
        -12    1    1    2    0    0  0.28163645660E+02 -0.74488269186E+01  0.28363528045E+02  0.40659140208E+02  0.00000000000E+00 0.  1.
         11    1    3    3    0    0  0.54082583937E+00  0.90203447053E+01 -0.87965014876E+01  0.12611009074E+02  0.51100000000E-03 0. -1.
        -11    1    3    3    0    0 -0.11006658449E+02  0.50770206656E+01 -0.23486454842E+01  0.12346611070E+02  0.51100000000E-03 0.  1.
        -12    1    3    3    0    0 -0.17697813051E+02 -0.66485384523E+01 -0.17218381073E+02  0.25571239647E+02  0.00000000000E+00 0.  1.
</event>
<event>
 7    1  0.2937071E-011  0.5052887E+02  0.7816164E-02  0.1300439E+00
        -11   -1    0    0    0    0  0.00000000000E+00  0.00000000000E+00  0.45593999997E+02  0.45594000000E+02  0.51100000000E-03 0. -1.
         11   -1    0    0    0    0 -0.00000000000E+00 -0.00000000000E+00 -0.45593999997E+02  0.45594000000E+02  0.51100000000E-03 0.  1.
    9900012    2    1    2    0    0  0.11044772444E+02  0.35517803253E+02  0.16421440820E+02  0.50528867387E+02  0.30000022909E+02 0.  0.
        -12    1    1    2    0    0 -0.11044772444E+02 -0.35517803253E+02 -0.16421440820E+02  0.40659132613E+02  0.00000000000E+00 0.  1.
         11    1    3    3    0    0  0.45197911652E+01 -0.68745365381E+00 -0.32845588172E+01  0.56293366917E+01  0.51100000000E-03 0. -1.
        -11    1    3    3    0    0  0.78358098128E+01  0.60180086718E+01  0.27694920822E+01  0.10260917622E+02  0.51100000000E-03 0.  1.
         12    1    3    3    0    0 -0.13108285341E+01  0.30187248235E+02  0.16936507555E+02  0.34638613073E+02  0.00000000000E+00 0. -1.
</event>
<event>
 7    1  0.2937071E-011  0.5052886E+02  0.7816164E-02  0.1300439E+00
        -11   -1    0    0    0    0  0.00000000000E+00  0.00000000000E+00  0.45593999997E+02  0.45594000000E+02  0.51100000000E-03 0.  1.
         11   -1    0    0    0    0 -0.00000000000E+00 -0.00000000000E+00 -0.45593999997E+02  0.45594000000E+02  0.51100000000E-03 0. -1.
    9900012    2    1    2    0    0  0.13990848487E+02  0.23016860422E+01 -0.38106750377E+02  0.50528855588E+02  0.29999987044E+02 0.  0.
        -12    1    1    2    0    0 -0.13990848487E+02 -0.23016860422E+01  0.38106750377E+02  0.40659144412E+02  0.00000000000E+00 0.  1.
         11    1    3    3    0    0  0.30719436348E+01 -0.72954438638E+00 -0.11851282398E+02  0.12264663364E+02  0.51100000000E-03 0. -1.
        -11    1    3    3    0    0  0.15238062991E+02 -0.58799280828E+01 -0.22205070199E+02  0.27565145760E+02  0.51100000000E-03 0.  1.
        -12    1    3    3    0    0 -0.43191581391E+01  0.89111585113E+01 -0.40503977811E+01  0.10699046464E+02  0.00000000000E+00 0.  1.
</event>
<event>
 7    1  0.2937071E-011  0.5052886E+02  0.7816164E-02  0.1300439E+00
        -11   -1    0    0    0    0  0.00000000000E+00  0.00000000000E+00  0.45593999997E+02  0.45594000000E+02  0.51100000000E-03 0.  1.
         11   -1    0    0    0    0 -0.00000000000E+00 -0.00000000000E+00 -0.45593999997E+02  0.45594000000E+02  0.51100000000E-03 0. -1.
    9900012    2    1    2    0    0  0.25057093422E+02 -0.14942881225E+01 -0.31985538486E+02  0.50528862036E+02  0.30000006645E+02 0.  0.
        -12    1    1    2    0    0 -0.25057093422E+02  0.14942881225E+01  0.31985538486E+02  0.40659137964E+02  0.00000000000E+00 0.  1.
         11    1    3    3    0    0  0.15251346124E+02 -0.18947970161E+01 -0.38164537758E+01  0.15835376030E+02  0.51100000000E-03 0. -1.
        -11    1    3    3    0    0  0.12608561602E+02  0.35954190524E+01 -0.11336393912E+02  0.17332532736E+02  0.51100000000E-03 0.  1.
         12    1    3    3    0    0 -0.28028143051E+01 -0.31949101587E+01 -0.16832690798E+02  0.17360953270E+02  0.00000000000E+00 0. -1.
</event>
<event>
 7    1  0.2937071E-011  0.5052884E+02  0.7816164E-02  0.1300439E+00
        -11   -1    0    0    0    0  0.00000000000E+00  0.00000000000E+00  0.45593999997E+02  0.45594000000E+02  0.51100000000E-03 0.  1.
         11   -1    0    0    0    0 -0.00000000000E+00 -0.00000000000E+00 -0.45593999997E+02  0.45594000000E+02  0.51100000000E-03 0. -1.
    9900012    2    1    2    0    0  0.92086089299E+01  0.13314305514E+02 -0.37297431135E+02  0.50528836469E+02  0.29999928932E+02 0.  0.
        -12    1    1    2    0    0 -0.92086089299E+01 -0.13314305514E+02  0.37297431135E+02  0.40659163531E+02  0.00000000000E+00 0.  1.
         11    1    3    3    0    0  0.67142670323E+01  0.10121523313E+02 -0.32416992315E+02  0.34617741217E+02  0.51100000000E-03 0. -1.
        -11    1    3    3    0    0  0.15928447938E+01  0.90320354413E+01 -0.36787308112E+01  0.98816941560E+01  0.51100000000E-03 0.  1.
        -12    1    3    3    0    0  0.90149710378E+00 -0.58392532406E+01 -0.12017080088E+01  0.60294010959E+01  0.00000000000E+00 0.  1.
</event>
<event>
 7    1  0.2937071E-011  0.5052886E+02  0.7816164E-02  0.1300439E+00
        -11   -1    0    0    0    0  0.00000000000E+00  0.00000000000E+00  0.45593999997E+02  0.45594000000E+02  0.51100000000E-03 0.  1.
         11   -1    0    0    0    0 -0.00000000000E+00 -0.00000000000E+00 -0.45593999997E+02  0.45594000000E+02  0.51100000000E-03 0. -1.
    9900012    2    1    2    0    0  0.12151374276E+02  0.82550786520E+01 -0.37912572975E+02  0.50528863144E+02  0.30000010011E+02 0.  0.
        -12    1    1    2    0    0 -0.12151374276E+02 -0.82550786520E+01  0.37912572975E+02  0.40659136856E+02  0.00000000000E+00 0.  1.
         11    1    3    3    0    0  0.13491664157E+02 -0.19611095794E+01 -0.23715580188E+02  0.27355067107E+02  0.51100000000E-03 0. -1.
        -11    1    3    3    0    0  0.39598649972E+01 -0.23632101309E+01 -0.28321678490E+01  0.54116973220E+01  0.51100000000E-03 0.  1.
        -12    1    3    3    0    0 -0.53001548781E+01  0.12579398362E+02 -0.11364824938E+02  0.17762098715E+02  0.00000000000E+00 0.  1.
</event>
<event>
 7    1  0.2937071E-011  0.5052886E+02  0.7816164E-02  0.1300439E+00
        -11   -1    0    0    0    0  0.00000000000E+00  0.00000000000E+00  0.45593999997E+02  0.45594000000E+02  0.51100000000E-03 0.  1.
         11   -1    0    0    0    0 -0.00000000000E+00 -0.00000000000E+00 -0.45593999997E+02  0.45594000000E+02  0.51100000000E-03 0. -1.
    9900012    2    1    2    0    0  0.26991552201E+02 -0.27140843837E+02 -0.13711181969E+02  0.50528858280E+02  0.29999995229E+02 0.  0.
        -12    1    1    2    0    0 -0.26991552201E+02  0.27140843837E+02  0.13711181969E+02  0.40659141720E+02  0.00000000000E+00 0.  1.
         11    1    3    3    0    0  0.95087370165E+01 -0.96983221395E+01  0.18887907728E+01  0.13712806526E+02  0.51100000000E-03 0. -1.
        -11    1    3    3    0    0  0.23512818570E+01 -0.79353575403E+01  0.49018712962E+01  0.96190835390E+01  0.51100000000E-03 0.  1.
         12    1    3    3    0    0  0.15131533327E+02 -0.95071641572E+01 -0.20501844038E+02  0.27196968215E+02  0.00000000000E+00 0. -1.
</event>
<event>
 7    1  0.2937071E-011  0.5052881E+02  0.7816164E-02  0.1300439E+00
        -11   -1    0    0    0    0  0.00000000000E+00  0.00000000000E+00  0.45593999997E+02  0.45594000000E+02  0.51100000000E-03 0.  1.
         11   -1    0    0    0    0 -0.00000000000E+00 -0.00000000000E+00 -0.45593999997E+02  0.45594000000E+02  0.51100000000E-03 0. -1.
    9900012    2    1    2    0    0  0.24601857017E+02  0.26775096213E+02 -0.18193760814E+02  0.50528805733E+02  0.29999835505E+02 0.  0.
        -12    1    1    2    0    0 -0.24601857017E+02 -0.26775096213E+02  0.18193760814E+02  0.40659194267E+02  0.00000000000E+00 0.  1.
         11    1    3    3    0    0  0.43828393934E+01  0.16886334892E+00  0.42245590245E+01  0.60897204527E+01  0.51100000000E-03 0. -1.
        -11    1    3    3    0    0 -0.21270672922E+01  0.29192258418E+01  0.16249868044E+01  0.39606662516E+01  0.51100000000E-03 0.  1.
        -12    1    3    3    0    0  0.22346084916E+02  0.23687007022E+02 -0.24043306643E+02  0.40478419029E+02  0.00000000000E+00 0.  1.
</event>
<event>
 7    1  0.2937071E-011  0.5052886E+02  0.7816164E-02  0.1300439E+00
        -11   -1    0    0    0    0  0.00000000000E+00  0.00000000000E+00  0.45593999997E+02  0.45594000000E+02  0.51100000000E-03 0. -1.
         11   -1    0    0    0    0 -0.00000000000E+00 -0.00000000000E+00 -0.45593999997E+02  0.45594000000E+02  0.51100000000E-03 0.  1.
    9900012    2    1    2    0    0 -0.18031895600E+02 -0.26743638842E+02  0.24754685314E+02  0.50528856841E+02  0.29999990854E+02 0.  0.
        -12    1    1    2    0    0  0.18031895600E+02  0.26743638842E+02 -0.24754685314E+02  0.40659143159E+02  0.00000000000E+00 0.  1.
         11    1    3    3    0    0  0.11837058435E+01 -0.39940541575E+01 -0.21575761408E+01  0.46913498273E+01  0.51100000000E-03 0.  1.
        -11    1    3    3    0    0 -0.23924001987E+01 -0.18744286817E+02  0.89679152005E+01  0.20916389992E+02  0.51100000000E-03 0. -1.
         12    1    3    3    0    0 -0.16823201245E+02 -0.40052978670E+01  0.17944346254E+02  0.24921117022E+02  0.00000000000E+00 0. -1.
</event>
<event>
 7    1  0.2937071E-011  0.5052886E+02  0.7816164E-02  0.1300439E+00
        -11   -1    0    0    0    0  0.00000000000E+00  0.00000000000E+00  0.45593999997E+02  0.45594000000E+02  0.51100000000E-03 0.  1.
         11   -1    0    0    0    0 -0.00000000000E+00 -0.00000000000E+00 -0.45593999997E+02  0.45594000000E+02  0.51100000000E-03 0. -1.
    9900012    2    1    2    0    0  0.21625471114E+02  0.22433249204E+02 -0.26119998740E+02  0.50528855826E+02  0.29999987769E+02 0.  0.
        -12    1    1    2    0    0 -0.21625471114E+02 -0.22433249204E+02  0.26119998740E+02  0.40659144174E+02  0.00000000000E+00 0.  1.
         11    1    3    3    0    0  0.44728746979E+01  0.69540914362E+01 -0.91533651078E+01  0.12334913410E+02  0.51100000000E-03 0. -1.
        -11    1    3    3    0    0  0.53836950140E+01  0.20242812136E+02 -0.71090109350E+01  0.22119983090E+02  0.51100000000E-03 0.  1.
         12    1    3    3    0    0  0.11768901403E+02 -0.47636543686E+01 -0.98576226975E+01  0.16073959326E+02  0.00000000000E+00 0. -1.
</event>
<event>
 7    1  0.2937071E-011  0.5052886E+02  0.7816164E-02  0.1300439E+00
        -11   -1    0    0    0    0  0.00000000000E+00  0.00000000000E+00  0.45593999997E+02  0.45594000000E+02  0.51100000000E-03 0. -1.
         11   -1    0    0    0    0 -0.00000000000E+00 -0.00000000000E+00 -0.45593999997E+02  0.45594000000E+02  0.51100000000E-03 0.  1.
    9900012    2    1    2    0    0  0.85469463582E+01  0.37121861016E+02 -0.14215580655E+02  0.50528860921E+02  0.30000003254E+02 0.  0.
        -12    1    1    2    0    0 -0.85469463582E+01 -0.37121861016E+02  0.14215580655E+02  0.40659139079E+02  0.00000000000E+00 0.  1.
         11    1    3    3    0    0  0.89893840334E+01  0.97859565254E+01 -0.10089354080E+02  0.16684394997E+02  0.51100000000E-03 0. -1.
        -11    1    3    3    0    0  0.77660352260E+01  0.39669465963E+01 -0.22424967714E+01  0.90042634602E+01  0.51100000000E-03 0.  1.
        -12    1    3    3    0    0 -0.82084729012E+01  0.23368957894E+02 -0.18837298031E+01  0.24840202463E+02  0.00000000000E+00 0.  1.
</event>
<event>
 7    1  0.2937071E-011  0.5052886E+02  0.7816164E-02  0.1300439E+00
        -11   -1    0    0    0    0  0.00000000000E+00  0.00000000000E+00  0.45593999997E+02  0.45594000000E+02  0.51100000000E-03 0.  1.
         11   -1    0    0    0    0 -0.00000000000E+00 -0.00000000000E+00 -0.45593999997E+02  0.45594000000E+02  0.51100000000E-03 0. -1.
    9900012    2    1    2    0    0 -0.25662552751E+02 -0.24881496486E+02 -0.19378082649E+02  0.50528861196E+02  0.30000004092E+02 0.  0.
        -12    1    1    2    0    0  0.25662552751E+02  0.24881496486E+02  0.19378082649E+02  0.40659138804E+02  0.00000000000E+00 0.  1.
         11    1    3    3    0    0  0.56786801704E+01 -0.10310387509E+02 -0.59190744917E+01  0.13175239739E+02  0.51100000000E-03 0. -1.
        -11    1    3    3    0    0 -0.75850789614E+01 -0.42680752122E+01 -0.53640424651E+01  0.10223641264E+02  0.51100000000E-03 0.  1.
        -12    1    3    3    0    0 -0.23756153960E+02 -0.10303033764E+02 -0.80949656922E+01  0.27129980193E+02  0.00000000000E+00 0.  1.
</event>
<event>
 7    1  0.2937071E-011  0.5052884E+02  0.7816164E-02  0.1300439E+00
        -11   -1    0    0    0    0  0.00000000000E+00  0.00000000000E+00  0.45593999997E+02  0.45594000000E+02  0.51100000000E-03 0. -1.
         11   -1    0    0    0    0 -0.00000000000E+00 -0.00000000000E+00 -0.45593999997E+02  0.45594000000E+02  0.51100000000E-03 0.  1.
    9900012    2    1    2    0    0 -0.17063754127E+02 -0.36861879684E+02  0.17881871520E+01  0.50528837539E+02  0.29999932183E+02 0.  0.
        -12    1    1    2    0    0  0.17063754127E+02  0.36861879684E+02 -0.17881871520E+01  0.40659162461E+02  0.00000000000E+00 0.  1.
         11    1    3    3    0    0 -0.12420702202E+02 -0.22420289897E+02  0.78463494113E+01  0.26805007771E+02  0.51100000000E-03 0. -1.
        -11    1    3    3    0    0 -0.10975146062E+02 -0.71193168355E+01 -0.49204986322E+01  0.13976759651E+02  0.51100000000E-03 0.  1.
         12    1    3    3    0    0  0.63320941369E+01 -0.73222729518E+01 -0.11376636271E+01  0.97470701171E+01  0.00000000000E+00 0. -1.
</event>
<event>
 7    1  0.2937071E-011  0.5052886E+02  0.7816164E-02  0.1300439E+00
        -11   -1    0    0    0    0  0.00000000000E+00  0.00000000000E+00  0.45593999997E+02  0.45594000000E+02  0.51100000000E-03 0. -1.
         11   -1    0    0    0    0 -0.00000000000E+00 -0.00000000000E+00 -0.45593999997E+02  0.45594000000E+02  0.51100000000E-03 0.  1.
    9900012    2    1    2    0    0  0.37309136465E+02  0.30456506204E+01 -0.15871936841E+02  0.50528855511E+02  0.29999986812E+02 0.  0.
        -12    1    1    2    0    0 -0.37309136465E+02 -0.30456506204E+01  0.15871936841E+02  0.40659144489E+02  0.00000000000E+00 0.  1.
         11    1    3    3    0    0  0.24019065280E+02  0.78054743827E+01 -0.44833218868E+01  0.25650362623E+02  0.51100000000E-03 0. -1.
        -11    1    3    3    0    0  0.16725535349E+02 -0.84488247602E+00 -0.73555556670E+01  0.18291023988E+02  0.51100000000E-03 0.  1.
        -12    1    3    3    0    0 -0.34354641643E+01 -0.39149412863E+01 -0.40330592877E+01  0.65874689006E+01  0.00000000000E+00 0.  1.
</event>
<event>
 7    1  0.2937071E-011  0.5052886E+02  0.7816164E-02  0.1300439E+00
        -11   -1    0    0    0    0  0.00000000000E+00  0.00000000000E+00  0.45593999997E+02  0.45594000000E+02  0.51100000000E-03 0.  1.
         11   -1    0    0    0    0 -0.00000000000E+00 -0.00000000000E+00 -0.45593999997E+02  0.45594000000E+02  0.51100000000E-03 0. -1.
    9900012    2    1    2    0    0  0.14978343598E+02  0.22281616040E+02 -0.30534314815E+02  0.50528861156E+02  0.30000003971E+02 0.  0.
        -12    1    1    2    0    0 -0.14978343598E+02 -0.22281616040E+02  0.30534314815E+02  0.40659138844E+02  0.00000000000E+00 0.  1.
         11    1    3    3    0    0 -0.15339715432E+01  0.24021287664E+01 -0.21721851667E+02  0.21908038055E+02  0.51100000000E-03 0. -1.
        -11    1    3    3    0    0  0.36422633941E+01  0.46251077937E+01  0.16123980846E+01  0.61038948696E+01  0.51100000000E-03 0.  1.
        -12    1    3    3    0    0  0.12870051747E+02  0.15254379480E+02 -0.10424861232E+02  0.22516928232E+02  0.00000000000E+00 0.  1.
</event>
<event>
 7    1  0.2937071E-011  0.5052885E+02  0.7816164E-02  0.1300439E+00
        -11   -1    0    0    0    0  0.00000000000E+00  0.00000000000E+00  0.45593999997E+02  0.45594000000E+02  0.51100000000E-03 0.  1.
         11   -1    0    0    0    0 -0.00000000000E+00 -0.00000000000E+00 -0.45593999997E+02  0.45594000000E+02  0.51100000000E-03 0. -1.
    9900012    2    1    2    0    0  0.37997976110E+02 -0.18305776406E+01 -0.14351626501E+02  0.50528851138E+02  0.29999973519E+02 0.  0.
        -12    1    1    2    0    0 -0.37997976110E+02  0.18305776406E+01  0.14351626501E+02  0.40659148862E+02  0.00000000000E+00 0.  1.
         11    1    3    3    0    0  0.11143775047E+02  0.28675422996E+01 -0.14530250791E+02  0.18534689354E+02  0.51100000000E-03 0. -1.
        -11    1    3    3    0    0  0.12234341099E+02  0.98995167040E+00 -0.76487101618E+01  0.14462429735E+02  0.51100000000E-03 0.  1.
        -12    1    3    3    0    0  0.14619859965E+02 -0.56880716106E+01  0.78273344521E+01  0.17531732050E+02  0.00000000000E+00 0.  1.
</event>
<event>
 7    1  0.2937071E-011  0.5052886E+02  0.7816164E-02  0.1300439E+00
        -11   -1    0    0    0    0  0.00000000000E+00  0.00000000000E+00  0.45593999997E+02  0.45594000000E+02  0.51100000000E-03 0. -1.
         11   -1    0    0    0    0 -0.00000000000E+00 -0.00000000000E+00 -0.45593999997E+02  0.45594000000E+02  0.51100000000E-03 0.  1.
    9900012    2    1    2    0    0  0.37979818445E+02  0.13425717602E+02  0.55180878708E+01  0.50528858396E+02  0.29999995580E+02 0.  0.
        -12    1    1    2    0    0 -0.37979818445E+02 -0.13425717602E+02 -0.55180878708E+01  0.40659141604E+02  0.00000000000E+00 0.  1.
         11    1    3    3    0    0  0.10833008431E+02  0.67417996378E+01  0.31333040142E+01  0.13138627338E+02  0.51100000000E-03 0. -1.
        -11    1    3    3    0    0  0.12965128858E+02  0.61008273087E+00  0.13228700579E+02  0.18532816475E+02  0.51100000000E-03 0.  1.
         12    1    3    3    0    0  0.14181681156E+02  0.60738352329E+01 -0.10843916722E+02  0.18857414582E+02  0.00000000000E+00 0. -1.
</event>
<event>
 7    1  0.2937071E-011  0.5052886E+02  0.7816164E-02  0.1300439E+00
        -11   -1    0    0    0    0  0.00000000000E+00  0.00000000000E+00  0.45593999997E+02  0.45594000000E+02  0.51100000000E-03 0. -1.
         11   -1    0    0    0    0 -0.00000000000E+00 -0.00000000000E+00 -0.45593999997E+02  0.45594000000E+02  0.51100000000E-03 0.  1.
    9900012    2    1    2    0    0 -0.23378140593E+02 -0.14523583573E+00  0.33265707944E+02  0.50528857411E+02  0.29999992586E+02 0.  0.
        -12    1    1    2    0    0  0.23378140593E+02  0.14523583573E+00 -0.33265707944E+02  0.40659142589E+02  0.00000000000E+00 0.  1.
         11    1    3    3    0    0 -0.84140821533E+01  0.18477292934E+01  0.52352967047E+01  0.10080635589E+02  0.51100000000E-03 0. -1.
        -11    1    3    3    0    0 -0.92128391511E+01  0.17994006849E+01 -0.20338877665E+01  0.96047356943E+01  0.51100000000E-03 0.  1.
         12    1    3    3    0    0 -0.57512192889E+01 -0.37923658141E+01  0.30064299006E+02  0.30843486128E+02  0.00000000000E+00 0. -1.
</event>
<event>
 7    1  0.2937071E-011  0.5052886E+02  0.7816164E-02  0.1300439E+00
        -11   -1    0    0    0    0  0.00000000000E+00  0.00000000000E+00  0.45593999997E+02  0.45594000000E+02  0.51100000000E-03 0.  1.
         11   -1    0    0    0    0 -0.00000000000E+00 -0.00000000000E+00 -0.45593999997E+02  0.45594000000E+02  0.51100000000E-03 0. -1.
    9900012    2    1    2    0    0  0.85578804686E+01 -0.25990180452E+02 -0.30073885465E+02  0.50528863449E+02  0.30000010941E+02 0.  0.
        -12    1    1    2    0    0 -0.85578804686E+01  0.25990180452E+02  0.30073885465E+02  0.40659136551E+02  0.00000000000E+00 0.  1.
         11    1    3    3    0    0  0.94903985347E+01 -0.22224427087E+02 -0.21910584579E+02  0.32620032810E+02  0.51100000000E-03 0. -1.
        -11    1    3    3    0    0 -0.20764214161E+01 -0.87253056328E+01 -0.90510682529E+01  0.12742225907E+02  0.51100000000E-03 0.  1.
         12    1    3    3    0    0  0.11439033499E+01  0.49595522672E+01  0.88776736636E+00  0.51666047325E+01  0.00000000000E+00 0. -1.
</event>
<event>
 7    1  0.2937071E-011  0.5052885E+02  0.7816164E-02  0.1300439E+00
        -11   -1    0    0    0    0  0.00000000000E+00  0.00000000000E+00  0.45593999997E+02  0.45594000000E+02  0.51100000000E-03 0.  1.
         11   -1    0    0    0    0 -0.00000000000E+00 -0.00000000000E+00 -0.45593999997E+02  0.45594000000E+02  0.51100000000E-03 0. -1.
    9900012    2    1    2    0    0 -0.15749428933E+02 -0.14714697956E+01 -0.37456058900E+02  0.50528854861E+02  0.29999984836E+02 0.  0.
        -12    1    1    2    0    0  0.15749428933E+02  0.14714697956E+01  0.37456058900E+02  0.40659145139E+02  0.00000000000E+00 0.  1.
         11    1    3    3    0    0  0.17978469550E+01  0.15910413452E+00 -0.85326042719E+01  0.87214049167E+01  0.51100000000E-03 0. -1.
        -11    1    3    3    0    0 -0.10990582022E+02  0.41954259874E+00 -0.32322694745E+02  0.34142722578E+02  0.51100000000E-03 0.  1.
        -12    1    3    3    0    0 -0.65566938653E+01 -0.20501165289E+01  0.33992401171E+01  0.76647273663E+01  0.00000000000E+00 0.  1.
</event>
<event>
 7    1  0.2937071E-011  0.5052886E+02  0.7816164E-02  0.1300439E+00
        -11   -1    0    0    0    0  0.00000000000E+00  0.00000000000E+00  0.45593999997E+02  0.45594000000E+02  0.51100000000E-03 0.  1.
         11   -1    0    0    0    0 -0.00000000000E+00 -0.00000000000E+00 -0.45593999997E+02  0.45594000000E+02  0.51100000000E-03 0. -1.
    9900012    2    1    2    0    0 -0.10723162424E+02  0.27413475705E+01 -0.39123705080E+02  0.50528862060E+02  0.30000006717E+02 0.  0.
        -12    1    1    2    0    0  0.10723162424E+02 -0.27413475705E+01  0.39123705080E+02  0.40659137940E+02  0.00000000000E+00 0.  1.
         11    1    3    3    0    0 -0.86464113303E+01  0.59134195371E+01 -0.88325915465E+01  0.13701957276E+02  0.51100000000E-03 0. -1.
        -11    1    3    3    0    0 -0.58178903443E+01  0.17103365112E+01 -0.15142394697E+00  0.60659730063E+01  0.51100000000E-03 0.  1.
         12    1    3    3    0    0  0.37411392507E+01 -0.48824084778E+01 -0.30139689586E+02  0.30760931777E+02  0.00000000000E+00 0. -1.
</event>
<event>
 7    1  0.2937071E-011  0.5052886E+02  0.7816164E-02  0.1300439E+00
        -11   -1    0    0    0    0  0.00000000000E+00  0.00000000000E+00  0.45593999997E+02  0.45594000000E+02  0.51100000000E-03 0. -1.
         11   -1    0    0    0    0 -0.00000000000E+00 -0.00000000000E+00 -0.45593999997E+02  0.45594000000E+02  0.51100000000E-03 0.  1.
    9900012    2    1    2    0    0 -0.21337427945E+02 -0.34495018348E+02  0.28237386355E+01  0.50528860535E+02  0.30000002083E+02 0.  0.
        -12    1    1    2    0    0  0.21337427945E+02  0.34495018348E+02 -0.28237386355E+01  0.40659139465E+02  0.00000000000E+00 0.  1.
         11    1    3    3    0    0 -0.16647281868E+02 -0.14804426569E+02  0.43469680528E+01  0.22697999276E+02  0.51100000000E-03 0. -1.
        -11    1    3    3    0    0 -0.11774721637E+02 -0.14756694211E+02 -0.28618750004E+01  0.19094355774E+02  0.51100000000E-03 0.  1.
        -12    1    3    3    0    0  0.70845755602E+01 -0.49338975684E+01  0.13386455831E+01  0.87365054845E+01  0.00000000000E+00 0.  1.
</event>
<event>
 7    1  0.2937071E-011  0.5052886E+02  0.7816164E-02  0.1300439E+00
        -11   -1    0    0    0    0  0.00000000000E+00  0.00000000000E+00  0.45593999997E+02  0.45594000000E+02  0.51100000000E-03 0. -1.
         11   -1    0    0    0    0 -0.00000000000E+00 -0.00000000000E+00 -0.45593999997E+02  0.45594000000E+02  0.51100000000E-03 0.  1.
    9900012    2    1    2    0    0 -0.35871895261E+02  0.18545695668E+02  0.47359979003E+01  0.50528863591E+02  0.30000011371E+02 0.  0.
        -12    1    1    2    0    0  0.35871895261E+02 -0.18545695668E+02 -0.47359979003E+01  0.40659136409E+02  0.00000000000E+00 0.  1.
         11    1    3    3    0    0 -0.16335872126E+02  0.53885661262E+01  0.34270560277E+01  0.17539728513E+02  0.51100000000E-03 0. -1.
        -11    1    3    3    0    0 -0.17655614055E+02  0.52997281027E+01  0.10124580301E+02  0.21031285080E+02  0.51100000000E-03 0.  1.
        -12    1    3    3    0    0 -0.18804090803E+01  0.78574014387E+01 -0.88156384282E+01  0.11957849998E+02  0.00000000000E+00 0.  1.
</event>
<event>
 7    1  0.2937071E-011  0.5052886E+02  0.7816164E-02  0.1300439E+00
        -11   -1    0    0    0    0  0.00000000000E+00  0.00000000000E+00  0.45593999997E+02  0.45594000000E+02  0.51100000000E-03 0. -1.
         11   -1    0    0    0    0 -0.00000000000E+00 -0.00000000000E+00 -0.45593999997E+02  0.45594000000E+02  0.51100000000E-03 0.  1.
    9900012    2    1    2    0    0 -0.37604787960E+02  0.89744001364E+01  0.12589899547E+02  0.50528861963E+02  0.30000006421E+02 0.  0.
        -12    1    1    2    0    0  0.37604787960E+02 -0.89744001364E+01 -0.12589899547E+02  0.40659138037E+02  0.00000000000E+00 0.  1.
         11    1    3    3    0    0 -0.52485797758E+01  0.73786256990E+01 -0.63137631015E+01  0.11038809339E+02  0.51100000000E-03 0.  1.
        -11    1    3    3    0    0 -0.15673664957E+01  0.27178015091E+01 -0.35402754277E+00  0.31572802437E+01  0.51100000000E-03 0. -1.
         12    1    3    3    0    0 -0.30788841689E+02 -0.11220270718E+01  0.19257690191E+02  0.36332772379E+02  0.00000000000E+00 0. -1.
</event>
<event>
 7    1  0.2937071E-011  0.5052882E+02  0.7816164E-02  0.1300439E+00
        -11   -1    0    0    0    0  0.00000000000E+00  0.00000000000E+00  0.45593999997E+02  0.45594000000E+02  0.51100000000E-03 0. -1.
         11   -1    0    0    0    0 -0.00000000000E+00 -0.00000000000E+00 -0.45593999997E+02  0.45594000000E+02  0.51100000000E-03 0.  1.
    9900012    2    1    2    0    0  0.34503154492E+02 -0.19901781893E+02  0.81621359879E+01  0.50528818303E+02  0.29999873714E+02 0.  0.
        -12    1    1    2    0    0 -0.34503154492E+02  0.19901781893E+02 -0.81621359879E+01  0.40659181697E+02  0.00000000000E+00 0.  1.
         11    1    3    3    0    0  0.10269447589E+02 -0.14179670489E+02  0.12930833615E+02  0.21765363935E+02  0.51100000000E-03 0. -1.
        -11    1    3    3    0    0  0.62176927599E+00  0.15487423983E+01 -0.36715577277E+01  0.40330554742E+01  0.51100000000E-03 0.  1.
        -12    1    3    3    0    0  0.23611937627E+02 -0.72708538018E+01 -0.10971398999E+01  0.24730398894E+02  0.00000000000E+00 0.  1.
</event>
<event>
 7    1  0.2937071E-011  0.5052886E+02  0.7816164E-02  0.1300439E+00
        -11   -1    0    0    0    0  0.00000000000E+00  0.00000000000E+00  0.45593999997E+02  0.45594000000E+02  0.51100000000E-03 0.  1.
         11   -1    0    0    0    0 -0.00000000000E+00 -0.00000000000E+00 -0.45593999997E+02  0.45594000000E+02  0.51100000000E-03 0. -1.
    9900012    2    1    2    0    0  0.29456621843E+02  0.19067456159E+02 -0.20540327676E+02  0.50528861841E+02  0.30000006052E+02 0.  0.
        -12    1    1    2    0    0 -0.29456621843E+02 -0.19067456159E+02  0.20540327676E+02  0.40659138159E+02  0.00000000000E+00 0.  1.
         11    1    3    3    0    0  0.55000675811E+01  0.43010628369E+01 -0.84491087978E+01  0.10960717342E+02  0.51100000000E-03 0.  1.
        -11    1    3    3    0    0  0.20614002093E+02  0.18190534488E+02 -0.17309759800E+02  0.32487850219E+02  0.51100000000E-03 0. -1.
        -12    1    3    3    0    0  0.33425521691E+01 -0.34241411665E+01  0.52185409217E+01  0.70802942794E+01  0.00000000000E+00 0.  1.
</event>
<event>
 7    1  0.2937071E-011  0.5052886E+02  0.7816164E-02  0.1300439E+00
        -11   -1    0    0    0    0  0.00000000000E+00  0.00000000000E+00  0.45593999997E+02  0.45594000000E+02  0.51100000000E-03 0.  1.
         11   -1    0    0    0    0 -0.00000000000E+00 -0.00000000000E+00 -0.45593999997E+02  0.45594000000E+02  0.51100000000E-03 0. -1.
    9900012    2    1    2    0    0 -0.41326798134E+01 -0.28314060212E+01 -0.40349344529E+02  0.50528861957E+02  0.30000006403E+02 0.  0.
        -12    1    1    2    0    0  0.41326798134E+01  0.28314060212E+01  0.40349344529E+02  0.40659138043E+02  0.00000000000E+00 0.  1.
         11    1    3    3    0    0  0.19959128393E+01 -0.35858719995E+01 -0.52686317915E+01  0.66783701061E+01  0.51100000000E-03 0.  1.
        -11    1    3    3    0    0 -0.76187989038E+00 -0.10008737033E+02 -0.28336112631E+02  0.30061446360E+02  0.51100000000E-03 0. -1.
        -12    1    3    3    0    0 -0.53667127623E+01  0.10763203011E+02 -0.67446001065E+01  0.13789045490E+02  0.00000000000E+00 0.  1.
</event>
<event>
 7    1  0.2937071E-011  0.5052887E+02  0.7816164E-02  0.1300439E+00
        -11   -1    0    0    0    0  0.00000000000E+00  0.00000000000E+00  0.45593999997E+02  0.45594000000E+02  0.51100000000E-03 0.  1.
         11   -1    0    0    0    0 -0.00000000000E+00 -0.00000000000E+00 -0.45593999997E+02  0.45594000000E+02  0.51100000000E-03 0. -1.
    9900012    2    1    2    0    0  0.18663391375E+02  0.34224558970E+02  0.11555188751E+02  0.50528868167E+02  0.30000025281E+02 0.  0.
        -12    1    1    2    0    0 -0.18663391375E+02 -0.34224558970E+02 -0.11555188751E+02  0.40659131833E+02  0.00000000000E+00 0.  1.
         11    1    3    3    0    0  0.65336546815E+01  0.58219623045E+01  0.22263867120E+01  0.90299881851E+01  0.51100000000E-03 0. -1.
        -11    1    3    3    0    0  0.20225176324E+02  0.17376425382E+02  0.48248010171E+01  0.27097539031E+02  0.51100000000E-03 0.  1.
        -12    1    3    3    0    0 -0.80954396307E+01  0.11026171284E+02  0.45040010217E+01  0.14401340951E+02  0.00000000000E+00 0.  1.
</event>
<event>
 7    1  0.2937071E-011  0.5052887E+02  0.7816164E-02  0.1300439E+00
        -11   -1    0    0    0    0  0.00000000000E+00  0.00000000000E+00  0.45593999997E+02  0.45594000000E+02  0.51100000000E-03 0. -1.
         11   -1    0    0    0    0 -0.00000000000E+00 -0.00000000000E+00 -0.45593999997E+02  0.45594000000E+02  0.51100000000E-03 0.  1.
    9900012    2    1    2    0    0  0.40203455651E+02  0.12768677150E+01  0.59343806767E+01  0.50528866814E+02  0.30000021167E+02 0.  0.
        -12    1    1    2    0    0 -0.40203455651E+02 -0.12768677150E+01 -0.59343806767E+01  0.40659133186E+02  0.00000000000E+00 0.  1.
         11    1    3    3    0    0  0.28934044140E+02  0.52758545198E+01  0.95897845853E+01  0.30935053255E+02  0.51100000000E-03 0. -1.
        -11    1    3    3    0    0  0.74398449561E+01  0.37904188752E+01  0.27669312901E+01  0.87962763284E+01  0.51100000000E-03 0.  1.
        -12    1    3    3    0    0  0.38295665550E+01 -0.77894056800E+01 -0.64223351987E+01  0.10797537231E+02  0.00000000000E+00 0.  1.
</event>
<event>
 7    1  0.2937071E-011  0.5052886E+02  0.7816164E-02  0.1300439E+00
        -11   -1    0    0    0    0  0.00000000000E+00  0.00000000000E+00  0.45593999997E+02  0.45594000000E+02  0.51100000000E-03 0.  1.
         11   -1    0    0    0    0 -0.00000000000E+00 -0.00000000000E+00 -0.45593999997E+02  0.45594000000E+02  0.51100000000E-03 0. -1.
    9900012    2    1    2    0    0 -0.39927533652E+02  0.50799270511E+01 -0.57577579807E+01  0.50528863520E+02  0.30000011155E+02 0.  0.
        -12    1    1    2    0    0  0.39927533652E+02 -0.50799270511E+01  0.57577579807E+01  0.40659136480E+02  0.00000000000E+00 0.  1.
         11    1    3    3    0    0 -0.16615556345E+02 -0.48203227419E+01 -0.74882179250E+01  0.18851674513E+02  0.51100000000E-03 0. -1.
        -11    1    3    3    0    0 -0.36448116127E+01 -0.51242743310E+01 -0.21072522502E+01  0.66319945279E+01  0.51100000000E-03 0.  1.
         12    1    3    3    0    0 -0.19667165694E+02  0.15024524124E+02  0.38377121945E+01  0.25045194479E+02  0.00000000000E+00 0. -1.
</event>
<event>
 7    1  0.2937071E-011  0.5052890E+02  0.7816164E-02  0.1300439E+00
        -11   -1    0    0    0    0  0.00000000000E+00  0.00000000000E+00  0.45593999997E+02  0.45594000000E+02  0.51100000000E-03 0.  1.
         11   -1    0    0    0    0 -0.00000000000E+00 -0.00000000000E+00 -0.45593999997E+02  0.45594000000E+02  0.51100000000E-03 0. -1.
    9900012    2    1    2    0    0 -0.27381962345E+02 -0.30041854531E+02  0.93688375688E+00  0.50528897247E+02  0.30000113671E+02 0.  0.
        -12    1    1    2    0    0  0.27381962345E+02  0.30041854531E+02 -0.93688375688E+00  0.40659102753E+02  0.00000000000E+00 0.  1.
         11    1    3    3    0    0 -0.49779780054E+01 -0.85201078855E+01 -0.57619252269E+01  0.11426823092E+02  0.51100000000E-03 0. -1.
        -11    1    3    3    0    0  0.23817538778E+01  0.59549321639E+00 -0.35694350292E+01  0.43322315720E+01  0.51100000000E-03 0.  1.
         12    1    3    3    0    0 -0.24785738218E+02 -0.22117239862E+02  0.10268244013E+02  0.34769842582E+02  0.00000000000E+00 0. -1.
</event>
<event>
 7    1  0.2937071E-011  0.5052886E+02  0.7816164E-02  0.1300439E+00
        -11   -1    0    0    0    0  0.00000000000E+00  0.00000000000E+00  0.45593999997E+02  0.45594000000E+02  0.51100000000E-03 0.  1.
         11   -1    0    0    0    0 -0.00000000000E+00 -0.00000000000E+00 -0.45593999997E+02  0.45594000000E+02  0.51100000000E-03 0. -1.
    9900012    2    1    2    0    0  0.21836750568E+02  0.18290192404E+02 -0.29013637900E+02  0.50528855915E+02  0.29999988039E+02 0.  0.
        -12    1    1    2    0    0 -0.21836750568E+02 -0.18290192404E+02  0.29013637900E+02  0.40659144085E+02  0.00000000000E+00 0.  1.
         11    1    3    3    0    0 -0.10266530224E+01  0.16484139969E+01  0.21076573218E+01  0.28659212796E+01  0.51100000000E-03 0. -1.
        -11    1    3    3    0    0  0.28345329704E+01  0.20421573797E+01  0.35911791743E+01  0.50101449127E+01  0.51100000000E-03 0.  1.
         12    1    3    3    0    0  0.20028870620E+02  0.14599621028E+02 -0.34712474396E+02  0.42652789723E+02  0.00000000000E+00 0. -1.
</event>
<event>
 7    1  0.2937071E-011  0.5052887E+02  0.7816164E-02  0.1300439E+00
        -11   -1    0    0    0    0  0.00000000000E+00  0.00000000000E+00  0.45593999997E+02  0.45594000000E+02  0.51100000000E-03 0. -1.
         11   -1    0    0    0    0 -0.00000000000E+00 -0.00000000000E+00 -0.45593999997E+02  0.45594000000E+02  0.51100000000E-03 0.  1.
    9900012    2    1    2    0    0 -0.29031842959E+02  0.10494451520E+02  0.26460985139E+02  0.50528866305E+02  0.30000019622E+02 0.  0.
        -12    1    1    2    0    0  0.29031842959E+02 -0.10494451520E+02 -0.26460985139E+02  0.40659133695E+02  0.00000000000E+00 0.  1.
         11    1    3    3    0    0 -0.10229980637E+02  0.95028176506E+01  0.56285370848E+01  0.15054450409E+02  0.51100000000E-03 0.  1.
        -11    1    3    3    0    0 -0.17960204274E+02  0.39436461875E+01  0.46006001641E+01  0.18954862304E+02  0.51100000000E-03 0. -1.
        -12    1    3    3    0    0 -0.84165804709E+00 -0.29520123177E+01  0.16231847890E+02  0.16519553593E+02  0.00000000000E+00 0.  1.
</event>
<event>
 7    1  0.2937071E-011  0.5052886E+02  0.7816164E-02  0.1300439E+00
        -11   -1    0    0    0    0  0.00000000000E+00  0.00000000000E+00  0.45593999997E+02  0.45594000000E+02  0.51100000000E-03 0.  1.
         11   -1    0    0    0    0 -0.00000000000E+00 -0.00000000000E+00 -0.45593999997E+02  0.45594000000E+02  0.51100000000E-03 0. -1.
    9900012    2    1    2    0    0 -0.30233497001E+02  0.21573337375E+02 -0.16543656870E+02  0.50528858235E+02  0.29999995090E+02 0.  0.
        -12    1    1    2    0    0  0.30233497001E+02 -0.21573337375E+02  0.16543656870E+02  0.40659141765E+02  0.00000000000E+00 0.  1.
         11    1    3    3    0    0 -0.17755518988E+02  0.40820053495E+01 -0.30251349174E+01  0.18468152688E+02  0.51100000000E-03 0. -1.
        -11    1    3    3    0    0 -0.17510637158E+02  0.11830804485E+02 -0.12110115036E+02  0.24356626098E+02  0.51100000000E-03 0.  1.
        -12    1    3    3    0    0  0.50326591440E+01  0.56605275407E+01 -0.14084069164E+01  0.77040794480E+01  0.00000000000E+00 0.  1.
</event>
<event>
 7    1  0.2937071E-011  0.5052883E+02  0.7816164E-02  0.1300439E+00
        -11   -1    0    0    0    0  0.00000000000E+00  0.00000000000E+00  0.45593999997E+02  0.45594000000E+02  0.51100000000E-03 0. -1.
         11   -1    0    0    0    0 -0.00000000000E+00 -0.00000000000E+00 -0.45593999997E+02  0.45594000000E+02  0.51100000000E-03 0.  1.
    9900012    2    1    2    0    0  0.57814507559E+01 -0.93402447628E+01  0.39147193312E+02  0.50528830194E+02  0.29999909859E+02 0.  0.
        -12    1    1    2    0    0 -0.57814507559E+01  0.93402447628E+01 -0.39147193312E+02  0.40659169806E+02  0.00000000000E+00 0.  1.
         11    1    3    3    0    0  0.91859669010E+01 -0.16246570161E+02  0.19275871983E+02  0.26830808241E+02  0.51100000000E-03 0. -1.
        -11    1    3    3    0    0  0.25300029394E+01 -0.25100924582E+00  0.11404245202E+01  0.27864832428E+01  0.51100000000E-03 0.  1.
         12    1    3    3    0    0 -0.59345190845E+01  0.71573346443E+01  0.18730896809E+02  0.20911538710E+02  0.00000000000E+00 0. -1.
</event>
<event>
 7    1  0.2937071E-011  0.5052887E+02  0.7816164E-02  0.1300439E+00
        -11   -1    0    0    0    0  0.00000000000E+00  0.00000000000E+00  0.45593999997E+02  0.45594000000E+02  0.51100000000E-03 0.  1.
         11   -1    0    0    0    0 -0.00000000000E+00 -0.00000000000E+00 -0.45593999997E+02  0.45594000000E+02  0.51100000000E-03 0. -1.
    9900012    2    1    2    0    0  0.10461574079E+02 -0.38675633449E+02 -0.69221367150E+01  0.50528866566E+02  0.30000020414E+02 0.  0.
        -12    1    1    2    0    0 -0.10461574079E+02  0.38675633449E+02  0.69221367150E+01  0.40659133434E+02  0.00000000000E+00 0.  1.
         11    1    3    3    0    0 -0.69621774333E-02 -0.16765904022E+02 -0.42042494179E+01  0.17285002157E+02  0.51100000000E-03 0. -1.
        -11    1    3    3    0    0 -0.65997461733E+01 -0.26733355787E+01 -0.24344411806E+01  0.75252825057E+01  0.51100000000E-03 0.  1.
         12    1    3    3    0    0  0.17068282430E+02 -0.19236393849E+02 -0.28344611651E+00  0.25718581903E+02  0.00000000000E+00 0. -1.
</event>
<event>
 7    1  0.2937071E-011  0.5052886E+02  0.7816164E-02  0.1300439E+00
        -11   -1    0    0    0    0  0.00000000000E+00  0.00000000000E+00  0.45593999997E+02  0.45594000000E+02  0.51100000000E-03 0. -1.
         11   -1    0    0    0    0 -0.00000000000E+00 -0.00000000000E+00 -0.45593999997E+02  0.45594000000E+02  0.51100000000E-03 0.  1.
    9900012    2    1    2    0    0 -0.18513196570E+02 -0.27916365615E+02  0.23045686878E+02  0.50528860805E+02  0.30000002903E+02 0.  0.
        -12    1    1    2    0    0  0.18513196570E+02  0.27916365615E+02 -0.23045686878E+02  0.40659139195E+02  0.00000000000E+00 0.  1.
         11    1    3    3    0    0  0.51639525934E+00  0.43799174711E+01  0.15126172187E+01  0.46624405872E+01  0.51100000000E-03 0. -1.
        -11    1    3    3    0    0 -0.74859355316E+01 -0.15354192156E+01  0.39968699680E+01  0.86239035682E+01  0.51100000000E-03 0.  1.
         12    1    3    3    0    0 -0.11543656298E+02 -0.30760863870E+02  0.17536199692E+02  0.37242516650E+02  0.00000000000E+00 0. -1.
</event>
<event>
 7    1  0.2937071E-011  0.5052886E+02  0.7816164E-02  0.1300439E+00
        -11   -1    0    0    0    0  0.00000000000E+00  0.00000000000E+00  0.45593999997E+02  0.45594000000E+02  0.51100000000E-03 0. -1.
         11   -1    0    0    0    0 -0.00000000000E+00 -0.00000000000E+00 -0.45593999997E+02  0.45594000000E+02  0.51100000000E-03 0.  1.
    9900012    2    1    2    0    0 -0.25919453665E+02 -0.25209831035E+02  0.18596016973E+02  0.50528861957E+02  0.30000006406E+02 0.  0.
        -12    1    1    2    0    0  0.25919453665E+02  0.25209831035E+02 -0.18596016973E+02  0.40659138043E+02  0.00000000000E+00 0.  1.
         11    1    3    3    0    0 -0.93224029204E+01 -0.12493187903E+02  0.78259286534E+00  0.15607670936E+02  0.51100000000E-03 0. -1.
        -11    1    3    3    0    0 -0.11520335292E+02 -0.77514403571E+01 -0.18563067311E+01  0.14008883888E+02  0.51100000000E-03 0.  1.
        -12    1    3    3    0    0 -0.50767154525E+01 -0.49652027752E+01  0.19669730839E+02  0.20912307134E+02  0.00000000000E+00 0.  1.
</event>
<event>
 7    1  0.2937071E-011  0.5052886E+02  0.7816164E-02  0.1300439E+00
        -11   -1    0    0    0    0  0.00000000000E+00  0.00000000000E+00  0.45593999997E+02  0.45594000000E+02  0.51100000000E-03 0.  1.
         11   -1    0    0    0    0 -0.00000000000E+00 -0.00000000000E+00 -0.45593999997E+02  0.45594000000E+02  0.51100000000E-03 0. -1.
    9900012    2    1    2    0    0  0.23668315633E+02  0.13388841148E+02 -0.30227724638E+02  0.50528861187E+02  0.30000004064E+02 0.  0.
        -12    1    1    2    0    0 -0.23668315633E+02 -0.13388841148E+02  0.30227724638E+02  0.40659138813E+02  0.00000000000E+00 0.  1.
         11    1    3    3    0    0  0.10276558892E+02  0.17685123888E+02 -0.71826740718E+01  0.21678608735E+02  0.51100000000E-03 0. -1.
        -11    1    3    3    0    0  0.42806439266E+01  0.19941483271E+01 -0.13254596064E+02  0.14070709188E+02  0.51100000000E-03 0.  1.
        -12    1    3    3    0    0  0.91111128141E+01 -0.62904310674E+01 -0.97904545030E+01  0.14779543264E+02  0.00000000000E+00 0.  1.
</event>
<event>
 7    1  0.2937071E-011  0.5052887E+02  0.7816164E-02  0.1300439E+00
        -11   -1    0    0    0    0  0.00000000000E+00  0.00000000000E+00  0.45593999997E+02  0.45594000000E+02  0.51100000000E-03 0.  1.
         11   -1    0    0    0    0 -0.00000000000E+00 -0.00000000000E+00 -0.45593999997E+02  0.45594000000E+02  0.51100000000E-03 0. -1.
    9900012    2    1    2    0    0  0.17438642311E+02  0.14353637283E+02 -0.33808746821E+02  0.50528874204E+02  0.30000043630E+02 0.  0.
        -12    1    1    2    0    0 -0.17438642311E+02 -0.14353637283E+02  0.33808746821E+02  0.40659125796E+02  0.00000000000E+00 0.  1.
         11    1    3    3    0    0  0.14783386458E+02  0.70844648137E+01 -0.10825257859E+02  0.19644957746E+02  0.51100000000E-03 0. -1.
        -11    1    3    3    0    0  0.91856737421E+01  0.42206189360E+01 -0.45385737671E+01  0.11081014322E+02  0.51100000000E-03 0.  1.
        -12    1    3    3    0    0 -0.65304178891E+01  0.30485535329E+01 -0.18444915195E+02  0.19802902136E+02  0.00000000000E+00 0.  1.
</event>
<event>
 7    1  0.2937071E-011  0.5052886E+02  0.7816164E-02  0.1300439E+00
        -11   -1    0    0    0    0  0.00000000000E+00  0.00000000000E+00  0.45593999997E+02  0.45594000000E+02  0.51100000000E-03 0.  1.
         11   -1    0    0    0    0 -0.00000000000E+00 -0.00000000000E+00 -0.45593999997E+02  0.45594000000E+02  0.51100000000E-03 0. -1.
    9900012    2    1    2    0    0 -0.13515579686E+02 -0.15414371559E+02 -0.35112565071E+02  0.50528856248E+02  0.29999989051E+02 0.  0.
        -12    1    1    2    0    0  0.13515579686E+02  0.15414371559E+02  0.35112565071E+02  0.40659143752E+02  0.00000000000E+00 0.  1.
         11    1    3    3    0    0 -0.14254180244E+02 -0.11767743006E+02 -0.22650222310E+02  0.29235150091E+02  0.51100000000E-03 0. -1.
        -11    1    3    3    0    0 -0.73321485292E+00 -0.68904195602E+01  0.13239482083E+01  0.70546668848E+01  0.51100000000E-03 0.  1.
         12    1    3    3    0    0  0.14718154111E+01  0.32437910075E+01 -0.13786290970E+02  0.14239039272E+02  0.00000000000E+00 0. -1.
</event>
<event>
 7    1  0.2937071E-011  0.5052886E+02  0.7816164E-02  0.1300439E+00
        -11   -1    0    0    0    0  0.00000000000E+00  0.00000000000E+00  0.45593999997E+02  0.45594000000E+02  0.51100000000E-03 0.  1.
         11   -1    0    0    0    0 -0.00000000000E+00 -0.00000000000E+00 -0.45593999997E+02  0.45594000000E+02  0.51100000000E-03 0. -1.
    9900012    2    1    2    0    0 -0.25366068851E+02 -0.17946853452E+02 -0.26222871730E+02  0.50528855893E+02  0.29999987972E+02 0.  0.
        -12    1    1    2    0    0  0.25366068851E+02  0.17946853452E+02  0.26222871730E+02  0.40659144107E+02  0.00000000000E+00 0.  1.
         11    1    3    3    0    0 -0.15250801919E+02 -0.49633903320E+01 -0.14767017325E+02  0.21801078040E+02  0.51100000000E-03 0. -1.
        -11    1    3    3    0    0 -0.91592643751E+01  0.30803689712E+01 -0.72908701207E+01  0.12105270929E+02  0.51100000000E-03 0.  1.
         12    1    3    3    0    0 -0.95600255659E+00 -0.16063832091E+02 -0.41649842847E+01  0.16622506924E+02  0.00000000000E+00 0. -1.
</event>
<event>
 7    1  0.2937071E-011  0.5052882E+02  0.7816164E-02  0.1300439E+00
        -11   -1    0    0    0    0  0.00000000000E+00  0.00000000000E+00  0.45593999997E+02  0.45594000000E+02  0.51100000000E-03 0.  1.
         11   -1    0    0    0    0 -0.00000000000E+00 -0.00000000000E+00 -0.45593999997E+02  0.45594000000E+02  0.51100000000E-03 0. -1.
    9900012    2    1    2    0    0  0.33759966606E+02 -0.22617371823E+02  0.13740215304E+01  0.50528821594E+02  0.29999883718E+02 0.  0.
        -12    1    1    2    0    0 -0.33759966606E+02  0.22617371823E+02 -0.13740215304E+01  0.40659178406E+02  0.00000000000E+00 0.  1.
         11    1    3    3    0    0  0.20424732632E+02 -0.22009543467E+02  0.23594867960E+01  0.30119045219E+02  0.51100000000E-03 0. -1.
        -11    1    3    3    0    0  0.68893645611E+01 -0.57423387993E+01  0.49592160391E+01  0.10248493691E+02  0.51100000000E-03 0.  1.
        -12    1    3    3    0    0  0.64458694129E+01  0.51345104431E+01 -0.59446813047E+01  0.10161282684E+02  0.00000000000E+00 0.  1.
</event>
<event>
 7    1  0.2937071E-011  0.5052882E+02  0.7816164E-02  0.1300439E+00
        -11   -1    0    0    0    0  0.00000000000E+00  0.00000000000E+00  0.45593999997E+02  0.45594000000E+02  0.51100000000E-03 0. -1.
         11   -1    0    0    0    0 -0.00000000000E+00 -0.00000000000E+00 -0.45593999997E+02  0.45594000000E+02  0.51100000000E-03 0.  1.
    9900012    2    1    2    0    0  0.11175425108E+02 -0.20511241590E+02  0.33280135246E+02  0.50528824407E+02  0.29999892267E+02 0.  0.
        -12    1    1    2    0    0 -0.11175425108E+02  0.20511241590E+02 -0.33280135246E+02  0.40659175593E+02  0.00000000000E+00 0.  1.
         11    1    3    3    0    0 -0.50193126494E+01 -0.11158783813E+02  0.28228535689E+02  0.30766250715E+02  0.51100000000E-03 0. -1.
        -11    1    3    3    0    0  0.68985322739E+00 -0.16575460276E+01  0.54307295458E+00  0.18757091470E+01  0.51100000000E-03 0.  1.
         12    1    3    3    0    0  0.15504884530E+02 -0.76949117494E+01  0.45085266028E+01  0.17886864545E+02  0.00000000000E+00 0. -1.
</event>
<event>
 7    1  0.2937071E-011  0.5052886E+02  0.7816164E-02  0.1300439E+00
        -11   -1    0    0    0    0  0.00000000000E+00  0.00000000000E+00  0.45593999997E+02  0.45594000000E+02  0.51100000000E-03 0.  1.
         11   -1    0    0    0    0 -0.00000000000E+00 -0.00000000000E+00 -0.45593999997E+02  0.45594000000E+02  0.51100000000E-03 0. -1.
    9900012    2    1    2    0    0 -0.88852682414E+01  0.23047862852E+01 -0.39609414352E+02  0.50528859123E+02  0.29999997791E+02 0.  0.
        -12    1    1    2    0    0  0.88852682414E+01 -0.23047862852E+01  0.39609414352E+02  0.40659140877E+02  0.00000000000E+00 0.  1.
         11    1    3    3    0    0 -0.50242071852E+01  0.10956097158E+02 -0.27385490042E+02  0.29920624791E+02  0.51100000000E-03 0. -1.
        -11    1    3    3    0    0 -0.19770229764E+01  0.35540258603E+01 -0.43846891894E+01  0.59804029307E+01  0.51100000000E-03 0.  1.
        -12    1    3    3    0    0 -0.18840380798E+01 -0.12205336733E+02 -0.78392351205E+01  0.14627831402E+02  0.00000000000E+00 0.  1.
</event>
<event>
 7    1  0.2937071E-011  0.5052886E+02  0.7816164E-02  0.1300439E+00
        -11   -1    0    0    0    0  0.00000000000E+00  0.00000000000E+00  0.45593999997E+02  0.45594000000E+02  0.51100000000E-03 0. -1.
         11   -1    0    0    0    0 -0.00000000000E+00 -0.00000000000E+00 -0.45593999997E+02  0.45594000000E+02  0.51100000000E-03 0.  1.
    9900012    2    1    2    0    0  0.29538780319E+02  0.93764637528E+01  0.26319344111E+02  0.50528862163E+02  0.30000007029E+02 0.  0.
        -12    1    1    2    0    0 -0.29538780319E+02 -0.93764637528E+01 -0.26319344111E+02  0.40659137837E+02  0.00000000000E+00 0.  1.
         11    1    3    3    0    0  0.79463050421E+01 -0.55973568628E+01  0.11161475656E+02  0.14800429276E+02  0.51100000000E-03 0. -1.
        -11    1    3    3    0    0 -0.99402404352E+00  0.16899127658E+00  0.76249881520E+01  0.76913644062E+01  0.51100000000E-03 0.  1.
         12    1    3    3    0    0  0.22586499321E+02  0.14804829339E+02  0.75328803032E+01  0.28037068481E+02  0.00000000000E+00 0. -1.
</event>
<event>
 7    1  0.2937071E-011  0.5052886E+02  0.7816164E-02  0.1300439E+00
        -11   -1    0    0    0    0  0.00000000000E+00  0.00000000000E+00  0.45593999997E+02  0.45594000000E+02  0.51100000000E-03 0. -1.
         11   -1    0    0    0    0 -0.00000000000E+00 -0.00000000000E+00 -0.45593999997E+02  0.45594000000E+02  0.51100000000E-03 0.  1.
    9900012    2    1    2    0    0  0.14130777595E+02 -0.15614250506E+02  0.34780481881E+02  0.50528860631E+02  0.30000002375E+02 0.  0.
        -12    1    1    2    0    0 -0.14130777595E+02  0.15614250506E+02 -0.34780481881E+02  0.40659139369E+02  0.00000000000E+00 0.  1.
         11    1    3    3    0    0 -0.24037012236E+00 -0.12982429292E-01  0.11927579243E+02  0.11930008098E+02  0.51100000000E-03 0. -1.
        -11    1    3    3    0    0 -0.30483485568E+01 -0.13150420280E+02  0.93037790838E+01  0.16394703046E+02  0.51100000000E-03 0.  1.
        -12    1    3    3    0    0  0.17419496275E+02 -0.24508477963E+01  0.13549123554E+02  0.22204149487E+02  0.00000000000E+00 0.  1.
</event>
<event>
 7    1  0.2937071E-011  0.5052885E+02  0.7816164E-02  0.1300439E+00
        -11   -1    0    0    0    0  0.00000000000E+00  0.00000000000E+00  0.45593999997E+02  0.45594000000E+02  0.51100000000E-03 0.  1.
         11   -1    0    0    0    0 -0.00000000000E+00 -0.00000000000E+00 -0.45593999997E+02  0.45594000000E+02  0.51100000000E-03 0. -1.
    9900012    2    1    2    0    0 -0.31872484866E+02  0.23903324340E+02  0.81204788974E+01  0.50528851171E+02  0.29999973618E+02 0.  0.
        -12    1    1    2    0    0  0.31872484866E+02 -0.23903324340E+02 -0.81204788974E+01  0.40659148829E+02  0.00000000000E+00 0.  1.
         11    1    3    3    0    0  0.23711848524E+01  0.16462554046E+01  0.89008514371E+00  0.30207492920E+01  0.51100000000E-03 0. -1.
        -11    1    3    3    0    0 -0.53227629043E+01  0.67691012235E+01  0.11562038938E+02  0.14416424001E+02  0.51100000000E-03 0.  1.
        -12    1    3    3    0    0 -0.28920906814E+02  0.15487967712E+02 -0.43316451841E+01  0.33091677878E+02  0.00000000000E+00 0.  1.
</event>
<event>
 7    1  0.2937071E-011  0.5052886E+02  0.7816164E-02  0.1300439E+00
        -11   -1    0    0    0    0  0.00000000000E+00  0.00000000000E+00  0.45593999997E+02  0.45594000000E+02  0.51100000000E-03 0.  1.
         11   -1    0    0    0    0 -0.00000000000E+00 -0.00000000000E+00 -0.45593999997E+02  0.45594000000E+02  0.51100000000E-03 0. -1.
    9900012    2    1    2    0    0 -0.29929441954E+02  0.18246415757E+02 -0.20602488908E+02  0.50528859173E+02  0.29999997941E+02 0.  0.
        -12    1    1    2    0    0  0.29929441954E+02 -0.18246415757E+02  0.20602488908E+02  0.40659140827E+02  0.00000000000E+00 0.  1.
         11    1    3    3    0    0 -0.78170540363E+01  0.15193761539E+02 -0.39313534092E+01  0.17533176078E+02  0.51100000000E-03 0. -1.
        -11    1    3    3    0    0 -0.13435671270E+01  0.68488102075E+01 -0.65920058645E+01  0.96003080920E+01  0.51100000000E-03 0.  1.
        -12    1    3    3    0    0 -0.20768820790E+02 -0.37961559891E+01 -0.10079129634E+02  0.23395375002E+02  0.00000000000E+00 0.  1.
</event>
<event>
 7    1  0.2937071E-011  0.5052900E+02  0.7816164E-02  0.1300438E+00
        -11   -1    0    0    0    0  0.00000000000E+00  0.00000000000E+00  0.45593999997E+02  0.45594000000E+02  0.51100000000E-03 0. -1.
         11   -1    0    0    0    0 -0.00000000000E+00 -0.00000000000E+00 -0.45593999997E+02  0.45594000000E+02  0.51100000000E-03 0.  1.
    9900012    2    1    2    0    0 -0.10195945691E+02  0.29750408721E+02  0.25770327160E+02  0.50529004814E+02  0.30000440630E+02 0.  0.
        -12    1    1    2    0    0  0.10195945691E+02 -0.29750408721E+02 -0.25770327160E+02  0.40658995186E+02  0.00000000000E+00 0.  1.
         11    1    3    3    0    0 -0.34571415510E+01  0.43788901617E+01  0.19635735214E+02  0.20412951879E+02  0.51100000000E-03 0. -1.
        -11    1    3    3    0    0 -0.16881734439E+01 -0.14128023023E+01  0.80238333191E+00  0.23430235156E+01  0.51100000000E-03 0.  1.
         12    1    3    3    0    0 -0.50506306962E+01  0.26784320861E+02  0.53322086133E+01  0.27773029419E+02  0.00000000000E+00 0. -1.
</event>
<event>
 7    1  0.2937071E-011  0.5052883E+02  0.7816164E-02  0.1300439E+00
        -11   -1    0    0    0    0  0.00000000000E+00  0.00000000000E+00  0.45593999997E+02  0.45594000000E+02  0.51100000000E-03 0.  1.
         11   -1    0    0    0    0 -0.00000000000E+00 -0.00000000000E+00 -0.45593999997E+02  0.45594000000E+02  0.51100000000E-03 0. -1.
    9900012    2    1    2    0    0  0.22292364711E+02 -0.31414270621E+02 -0.13013908830E+02  0.50528834415E+02  0.29999922687E+02 0.  0.
        -12    1    1    2    0    0 -0.22292364711E+02  0.31414270621E+02  0.13013908830E+02  0.40659165585E+02  0.00000000000E+00 0.  1.
         11    1    3    3    0    0  0.16066984694E+00 -0.11873531247E+02  0.93394042017E+00  0.11911288933E+02  0.51100000000E-03 0. -1.
        -11    1    3    3    0    0 -0.38008733253E+01 -0.36663646714E+01 -0.40041529295E+01  0.66273757161E+01  0.51100000000E-03 0.  1.
        -12    1    3    3    0    0  0.25932568190E+02 -0.15874374702E+02 -0.99436963202E+01  0.31990169765E+02  0.00000000000E+00 0.  1.
</event>
<event>
 7    1  0.2937071E-011  0.5052886E+02  0.7816164E-02  0.1300439E+00
        -11   -1    0    0    0    0  0.00000000000E+00  0.00000000000E+00  0.45593999997E+02  0.45594000000E+02  0.51100000000E-03 0.  1.
         11   -1    0    0    0    0 -0.00000000000E+00 -0.00000000000E+00 -0.45593999997E+02  0.45594000000E+02  0.51100000000E-03 0. -1.
    9900012    2    1    2    0    0  0.28995592316E+02 -0.26963380655E+01 -0.28375179178E+02  0.50528863190E+02  0.30000010153E+02 0.  0.
        -12    1    1    2    0    0 -0.28995592316E+02  0.26963380655E+01  0.28375179178E+02  0.40659136810E+02  0.00000000000E+00 0.  1.
         11    1    3    3    0    0  0.17228302338E+02  0.78514712652E+01 -0.23440788700E+02  0.30131886394E+02  0.51100000000E-03 0. -1.
        -11    1    3    3    0    0  0.39186505016E+01  0.24392341649E+01 -0.12307296065E+01  0.47770682108E+01  0.51100000000E-03 0.  1.
        -12    1    3    3    0    0  0.78486394757E+01 -0.12987043496E+02 -0.37036608719E+01  0.15619908586E+02  0.00000000000E+00 0.  1.
</event>
<event>
 7    1  0.2937071E-011  0.5052886E+02  0.7816164E-02  0.1300439E+00
        -11   -1    0    0    0    0  0.00000000000E+00  0.00000000000E+00  0.45593999997E+02  0.45594000000E+02  0.51100000000E-03 0. -1.
         11   -1    0    0    0    0 -0.00000000000E+00 -0.00000000000E+00 -0.45593999997E+02  0.45594000000E+02  0.51100000000E-03 0.  1.
    9900012    2    1    2    0    0 -0.18284866230E+02 -0.32903134596E+02 -0.15369228185E+02  0.50528858662E+02  0.29999996390E+02 0.  0.
        -12    1    1    2    0    0  0.18284866230E+02  0.32903134596E+02  0.15369228185E+02  0.40659141338E+02  0.00000000000E+00 0.  1.
         11    1    3    3    0    0 -0.18538365210E+02 -0.18146089159E+02 -0.21119112557E+02  0.33450985814E+02  0.51100000000E-03 0. -1.
        -11    1    3    3    0    0  0.92555054543E+00 -0.23421896821E+01 -0.12480641573E+01  0.28107224553E+01  0.51100000000E-03 0.  1.
         12    1    3    3    0    0 -0.67205156578E+00 -0.12414855755E+02  0.69979485301E+01  0.14267150394E+02  0.00000000000E+00 0. -1.
</event>
<event>
 7    1  0.2937071E-011  0.5052885E+02  0.7816164E-02  0.1300439E+00
        -11   -1    0    0    0    0  0.00000000000E+00  0.00000000000E+00  0.45593999997E+02  0.45594000000E+02  0.51100000000E-03 0.  1.
         11   -1    0    0    0    0 -0.00000000000E+00 -0.00000000000E+00 -0.45593999997E+02  0.45594000000E+02  0.51100000000E-03 0. -1.
    9900012    2    1    2    0    0  0.31604515871E+02  0.24326564464E+02  0.79081805579E+01  0.50528849962E+02  0.29999969945E+02 0.  0.
        -12    1    1    2    0    0 -0.31604515871E+02 -0.24326564464E+02 -0.79081805579E+01  0.40659150038E+02  0.00000000000E+00 0.  1.
         11    1    3    3    0    0  0.39536043734E+01 -0.51950168117E+01  0.25963408911E+01  0.70256795756E+01  0.51100000000E-03 0. -1.
        -11    1    3    3    0    0 -0.18938399177E+01  0.11544267876E+01  0.34855437673E+00  0.22451773330E+01  0.51100000000E-03 0.  1.
         12    1    3    3    0    0  0.29544751415E+02  0.28367154488E+02  0.49632852902E+01  0.41257993054E+02  0.00000000000E+00 0. -1.
</event>
<event>
 7    1  0.2937071E-011  0.5052886E+02  0.7816164E-02  0.1300439E+00
        -11   -1    0    0    0    0  0.00000000000E+00  0.00000000000E+00  0.45593999997E+02  0.45594000000E+02  0.51100000000E-03 0. -1.
         11   -1    0    0    0    0 -0.00000000000E+00 -0.00000000000E+00 -0.45593999997E+02  0.45594000000E+02  0.51100000000E-03 0.  1.
    9900012    2    1    2    0    0  0.30766082696E+02 -0.86349658056E+00  0.26568179746E+02  0.50528860243E+02  0.30000001194E+02 0.  0.
        -12    1    1    2    0    0 -0.30766082696E+02  0.86349658056E+00 -0.26568179746E+02  0.40659139757E+02  0.00000000000E+00 0.  1.
         11    1    3    3    0    0  0.10692040945E+01  0.15581889647E+00 -0.29727869319E+01  0.31630585401E+01  0.51100000000E-03 0. -1.
        -11    1    3    3    0    0  0.19877121381E+02  0.92915709467E+01  0.12853531269E+02  0.25429245199E+02  0.51100000000E-03 0.  1.
         12    1    3    3    0    0  0.98197572204E+01 -0.10310886424E+02  0.16687435409E+02  0.21936556504E+02  0.00000000000E+00 0. -1.
</event>
<event>
 7    1  0.2937071E-011  0.5052885E+02  0.7816164E-02  0.1300439E+00
        -11   -1    0    0    0    0  0.00000000000E+00  0.00000000000E+00  0.45593999997E+02  0.45594000000E+02  0.51100000000E-03 0. -1.
         11   -1    0    0    0    0 -0.00000000000E+00 -0.00000000000E+00 -0.45593999997E+02  0.45594000000E+02  0.51100000000E-03 0.  1.
    9900012    2    1    2    0    0  0.22061703812E+02  0.78257600497E+01 -0.33244625421E+02  0.50528850786E+02  0.29999972448E+02 0.  0.
        -12    1    1    2    0    0 -0.22061703812E+02 -0.78257600497E+01  0.33244625421E+02  0.40659149214E+02  0.00000000000E+00 0.  1.
         11    1    3    3    0    0  0.16941615939E+02  0.10034343136E+02 -0.11810618087E+02  0.22960772911E+02  0.51100000000E-03 0. -1.
        -11    1    3    3    0    0  0.37996628070E+01  0.36224092627E+00 -0.23631289067E+02  0.23937553742E+02  0.51100000000E-03 0.  1.
         12    1    3    3    0    0  0.13204250663E+01 -0.25708240127E+01  0.21972817334E+01  0.36305241324E+01  0.00000000000E+00 0. -1.
</event>
<event>
 7    1  0.2937071E-011  0.5052876E+02  0.7816164E-02  0.1300439E+00
        -11   -1    0    0    0    0  0.00000000000E+00  0.00000000000E+00  0.45593999997E+02  0.45594000000E+02  0.51100000000E-03 0. -1.
         11   -1    0    0    0    0 -0.00000000000E+00 -0.00000000000E+00 -0.45593999997E+02  0.45594000000E+02  0.51100000000E-03 0.  1.
    9900012    2    1    2    0    0 -0.48652661534E+01  0.39446880639E+02  0.85701087450E+01  0.50528757867E+02  0.29999690012E+02 0.  0.
        -12    1    1    2    0    0  0.48652661534E+01 -0.39446880639E+02 -0.85701087450E+01  0.40659242133E+02  0.00000000000E+00 0.  1.
         11    1    3    3    0    0  0.79628863145E+01  0.16846921300E+02  0.14390843398E-01  0.18634015217E+02  0.51100000000E-03 0. -1.
        -11    1    3    3    0    0 -0.31002991277E+01  0.17194419155E+02  0.10802299978E+02  0.20541411584E+02  0.51100000000E-03 0.  1.
        -12    1    3    3    0    0 -0.97278533401E+01  0.54055401843E+01 -0.22465820766E+01  0.11353331067E+02  0.00000000000E+00 0.  1.
</event>
<event>
 7    1  0.2937071E-011  0.5052886E+02  0.7816164E-02  0.1300439E+00
        -11   -1    0    0    0    0  0.00000000000E+00  0.00000000000E+00  0.45593999997E+02  0.45594000000E+02  0.51100000000E-03 0. -1.
         11   -1    0    0    0    0 -0.00000000000E+00 -0.00000000000E+00 -0.45593999997E+02  0.45594000000E+02  0.51100000000E-03 0.  1.
    9900012    2    1    2    0    0  0.24095731514E+02 -0.20214341872E+02  0.25767062753E+02  0.50528863051E+02  0.30000009729E+02 0.  0.
        -12    1    1    2    0    0 -0.24095731514E+02  0.20214341872E+02 -0.25767062753E+02  0.40659136949E+02  0.00000000000E+00 0.  1.
         11    1    3    3    0    0 -0.61695495472E+00 -0.24019210984E+01  0.10818418541E+02  0.11099010694E+02  0.51100000000E-03 0. -1.
        -11    1    3    3    0    0  0.61803517050E+01 -0.10362500614E+02  0.15260052368E+02  0.19453723672E+02  0.51100000000E-03 0.  1.
        -12    1    3    3    0    0  0.18532334764E+02 -0.74499201599E+01 -0.31140815663E+00  0.19976128685E+02  0.00000000000E+00 0.  1.
</event>
<event>
 7    1  0.2937071E-011  0.5052887E+02  0.7816164E-02  0.1300439E+00
        -11   -1    0    0    0    0  0.00000000000E+00  0.00000000000E+00  0.45593999997E+02  0.45594000000E+02  0.51100000000E-03 0.  1.
         11   -1    0    0    0    0 -0.00000000000E+00 -0.00000000000E+00 -0.45593999997E+02  0.45594000000E+02  0.51100000000E-03 0. -1.
    9900012    2    1    2    0    0  0.31288749299E+00 -0.37324044970E+02 -0.16123984422E+02  0.50528866891E+02  0.30000021402E+02 0.  0.
        -12    1    1    2    0    0 -0.31288749299E+00  0.37324044970E+02  0.16123984422E+02  0.40659133109E+02  0.00000000000E+00 0.  1.
         11    1    3    3    0    0 -0.22893842967E+01 -0.36688609611E+01  0.55506448505E-01  0.43249164659E+01  0.51100000000E-03 0.  1.
        -11    1    3    3    0    0  0.10569259350E+02 -0.27745366386E+02 -0.31917748602E+01  0.29861380177E+02  0.51100000000E-03 0. -1.
         12    1    3    3    0    0 -0.79669875608E+01 -0.59098176236E+01 -0.12987716010E+02  0.16342570248E+02  0.00000000000E+00 0. -1.
</event>
<event>
 7    1  0.2937071E-011  0.5052886E+02  0.7816164E-02  0.1300439E+00
        -11   -1    0    0    0    0  0.00000000000E+00  0.00000000000E+00  0.45593999997E+02  0.45594000000E+02  0.51100000000E-03 0.  1.
         11   -1    0    0    0    0 -0.00000000000E+00 -0.00000000000E+00 -0.45593999997E+02  0.45594000000E+02  0.51100000000E-03 0. -1.
    9900012    2    1    2    0    0 -0.31732338712E+02 -0.25403484320E+02  0.94199529379E+00  0.50528859688E+02  0.29999999508E+02 0.  0.
        -12    1    1    2    0    0  0.31732338712E+02  0.25403484320E+02 -0.94199529379E+00  0.40659140312E+02  0.00000000000E+00 0.  1.
         11    1    3    3    0    0 -0.19563834525E+02 -0.12413328258E+02 -0.39195120536E+01  0.23498870500E+02  0.51100000000E-03 0. -1.
        -11    1    3    3    0    0 -0.15890959369E+02 -0.86763709859E+01 -0.18805626366E+01  0.18202706371E+02  0.51100000000E-03 0.  1.
        -12    1    3    3    0    0  0.37224551817E+01 -0.43137850766E+01  0.67420699840E+01  0.88272828173E+01  0.00000000000E+00 0.  1.
</event>
<event>
 7    1  0.2937071E-011  0.5052886E+02  0.7816164E-02  0.1300439E+00
        -11   -1    0    0    0    0  0.00000000000E+00  0.00000000000E+00  0.45593999997E+02  0.45594000000E+02  0.51100000000E-03 0.  1.
         11   -1    0    0    0    0 -0.00000000000E+00 -0.00000000000E+00 -0.45593999997E+02  0.45594000000E+02  0.51100000000E-03 0. -1.
    9900012    2    1    2    0    0 -0.22581402813E+02 -0.28061934916E+02  0.18861973412E+02  0.50528856069E+02  0.29999988507E+02 0.  0.
        -12    1    1    2    0    0  0.22581402813E+02  0.28061934916E+02 -0.18861973412E+02  0.40659143931E+02  0.00000000000E+00 0.  1.
         11    1    3    3    0    0 -0.32628039755E+01 -0.52581561460E+01 -0.38772872215E+01  0.73025647754E+01  0.51100000000E-03 0. -1.
        -11    1    3    3    0    0 -0.88059127334E+01  0.26269190299E+01  0.67300708695E+01  0.11390287829E+02  0.51100000000E-03 0.  1.
         12    1    3    3    0    0 -0.10512686104E+02 -0.25430697799E+02  0.16009189764E+02  0.31836003465E+02  0.00000000000E+00 0. -1.
</event>
<event>
 7    1  0.2937071E-011  0.5052886E+02  0.7816164E-02  0.1300439E+00
        -11   -1    0    0    0    0  0.00000000000E+00  0.00000000000E+00  0.45593999997E+02  0.45594000000E+02  0.51100000000E-03 0.  1.
         11   -1    0    0    0    0 -0.00000000000E+00 -0.00000000000E+00 -0.45593999997E+02  0.45594000000E+02  0.51100000000E-03 0. -1.
    9900012    2    1    2    0    0 -0.21156754468E+02 -0.33649602639E+02 -0.85593106547E+01  0.50528858147E+02  0.29999994823E+02 0.  0.
        -12    1    1    2    0    0  0.21156754468E+02  0.33649602639E+02  0.85593106547E+01  0.40659141853E+02  0.00000000000E+00 0.  1.
         11    1    3    3    0    0 -0.81975936652E+01 -0.99674483685E+01 -0.79473243125E+01  0.15156204435E+02  0.51100000000E-03 0. -1.
        -11    1    3    3    0    0 -0.45033664590E+01 -0.37026114961E+01 -0.10124896285E+02  0.11683456954E+02  0.51100000000E-03 0.  1.
        -12    1    3    3    0    0 -0.84557943437E+01 -0.19979542774E+02  0.95129099432E+01  0.23689196758E+02  0.00000000000E+00 0.  1.
</event>
<event>
 7    1  0.2937071E-011  0.5052888E+02  0.7816164E-02  0.1300439E+00
        -11   -1    0    0    0    0  0.00000000000E+00  0.00000000000E+00  0.45593999997E+02  0.45594000000E+02  0.51100000000E-03 0. -1.
         11   -1    0    0    0    0 -0.00000000000E+00 -0.00000000000E+00 -0.45593999997E+02  0.45594000000E+02  0.51100000000E-03 0.  1.
    9900012    2    1    2    0    0  0.32938797277E+02 -0.47751503492E-01  0.23836888659E+02  0.50528881623E+02  0.30000066181E+02 0.  0.
        -12    1    1    2    0    0 -0.32938797277E+02  0.47751503492E-01 -0.23836888659E+02  0.40659118377E+02  0.00000000000E+00 0.  1.
         11    1    3    3    0    0  0.11845696541E+02 -0.12655302040E+02  0.11298034073E+02  0.20691127819E+02  0.51100000000E-03 0. -1.
        -11    1    3    3    0    0  0.31264814754E+01 -0.10714222721E+01 -0.10686201412E+01  0.34734394148E+01  0.51100000000E-03 0.  1.
         12    1    3    3    0    0  0.17966619261E+02  0.13678972808E+02  0.13607474727E+02  0.26364314389E+02  0.00000000000E+00 0. -1.
</event>
<event>
 7    1  0.2937071E-011  0.5052886E+02  0.7816164E-02  0.1300439E+00
        -11   -1    0    0    0    0  0.00000000000E+00  0.00000000000E+00  0.45593999997E+02  0.45594000000E+02  0.51100000000E-03 0.  1.
         11   -1    0    0    0    0 -0.00000000000E+00 -0.00000000000E+00 -0.45593999997E+02  0.45594000000E+02  0.51100000000E-03 0. -1.
    9900012    2    1    2    0    0  0.34287875390E+01 -0.29983842569E+02 -0.27246625380E+02  0.50528855963E+02  0.29999988186E+02 0.  0.
        -12    1    1    2    0    0 -0.34287875390E+01  0.29983842569E+02  0.27246625380E+02  0.40659144037E+02  0.00000000000E+00 0.  1.
         11    1    3    3    0    0 -0.56375895870E+01 -0.11404692265E+02 -0.11274419308E+02  0.16998880934E+02  0.51100000000E-03 0. -1.
        -11    1    3    3    0    0 -0.40192435361E+01 -0.34051692945E+01 -0.11996768734E+02  0.13102364552E+02  0.51100000000E-03 0.  1.
        -12    1    3    3    0    0  0.13085620662E+02 -0.15173981009E+02 -0.39754373379E+01  0.20427610477E+02  0.00000000000E+00 0.  1.
</event>
<event>
 7    1  0.2937071E-011  0.5052886E+02  0.7816164E-02  0.1300439E+00
        -11   -1    0    0    0    0  0.00000000000E+00  0.00000000000E+00  0.45593999997E+02  0.45594000000E+02  0.51100000000E-03 0. -1.
         11   -1    0    0    0    0 -0.00000000000E+00 -0.00000000000E+00 -0.45593999997E+02  0.45594000000E+02  0.51100000000E-03 0.  1.
    9900012    2    1    2    0    0  0.16642197280E+02  0.31635425893E+02  0.19375313966E+02  0.50528859662E+02  0.29999999430E+02 0.  0.
        -12    1    1    2    0    0 -0.16642197280E+02 -0.31635425893E+02 -0.19375313966E+02  0.40659140338E+02  0.00000000000E+00 0.  1.
         11    1    3    3    0    0  0.55757448016E+01  0.13937924530E+02  0.21964065385E+01  0.15171646985E+02  0.51100000000E-03 0. -1.
        -11    1    3    3    0    0  0.40812263450E+01  0.19802021000E+02  0.44749287025E+01  0.20707521129E+02  0.51100000000E-03 0.  1.
        -12    1    3    3    0    0  0.69852261329E+01 -0.21045196365E+01  0.12703978725E+02  0.14649691549E+02  0.00000000000E+00 0.  1.
</event>
<event>
 7    1  0.2937071E-011  0.5052886E+02  0.7816164E-02  0.1300439E+00
        -11   -1    0    0    0    0  0.00000000000E+00  0.00000000000E+00  0.45593999997E+02  0.45594000000E+02  0.51100000000E-03 0.  1.
         11   -1    0    0    0    0 -0.00000000000E+00 -0.00000000000E+00 -0.45593999997E+02  0.45594000000E+02  0.51100000000E-03 0. -1.
    9900012    2    1    2    0    0  0.32924258125E+02 -0.13209525762E+02 -0.19866234217E+02  0.50528860733E+02  0.30000002685E+02 0.  0.
        -12    1    1    2    0    0 -0.32924258125E+02  0.13209525762E+02  0.19866234217E+02  0.40659139267E+02  0.00000000000E+00 0.  1.
         11    1    3    3    0    0  0.17316268344E+02 -0.12106799629E+01 -0.14603796332E+01  0.17419862349E+02  0.51100000000E-03 0. -1.
        -11    1    3    3    0    0  0.94512013319E+01 -0.98022792504E+00  0.14187949880E+01  0.96072385668E+01  0.51100000000E-03 0.  1.
        -12    1    3    3    0    0  0.61567884494E+01 -0.11018617874E+02 -0.19824649572E+02  0.23501759817E+02  0.00000000000E+00 0.  1.
</event>
<event>
 7    1  0.2937071E-011  0.5052886E+02  0.7816164E-02  0.1300439E+00
        -11   -1    0    0    0    0  0.00000000000E+00  0.00000000000E+00  0.45593999997E+02  0.45594000000E+02  0.51100000000E-03 0.  1.
         11   -1    0    0    0    0 -0.00000000000E+00 -0.00000000000E+00 -0.45593999997E+02  0.45594000000E+02  0.51100000000E-03 0. -1.
    9900012    2    1    2    0    0 -0.30052764115E+02 -0.15208979536E+02 -0.22774637267E+02  0.50528858444E+02  0.29999995725E+02 0.  0.
        -12    1    1    2    0    0  0.30052764115E+02  0.15208979536E+02  0.22774637267E+02  0.40659141556E+02  0.00000000000E+00 0.  1.
         11    1    3    3    0    0 -0.19366008695E+02  0.37033730806E+01 -0.18075864448E+02  0.26748722227E+02  0.51100000000E-03 0. -1.
        -11    1    3    3    0    0 -0.91592001467E+01 -0.91116079639E+01 -0.50082829660E+01  0.13856234898E+02  0.51100000000E-03 0.  1.
        -12    1    3    3    0    0 -0.15275552729E+01 -0.98007446523E+01  0.30951014732E+00  0.99239013186E+01  0.00000000000E+00 0.  1.
</event>
<event>
 7    1  0.2937071E-011  0.5052886E+02  0.7816164E-02  0.1300439E+00
        -11   -1    0    0    0    0  0.00000000000E+00  0.00000000000E+00  0.45593999997E+02  0.45594000000E+02  0.51100000000E-03 0.  1.
         11   -1    0    0    0    0 -0.00000000000E+00 -0.00000000000E+00 -0.45593999997E+02  0.45594000000E+02  0.51100000000E-03 0. -1.
    9900012    2    1    2    0    0  0.35682349231E+02  0.56290101864E+01 -0.18661464011E+02  0.50528855379E+02  0.29999986409E+02 0.  0.
        -12    1    1    2    0    0 -0.35682349231E+02 -0.56290101864E+01  0.18661464011E+02  0.40659144621E+02  0.00000000000E+00 0.  1.
         11    1    3    3    0    0  0.22598289176E+02  0.49463699479E+01 -0.32097875081E+01  0.23354913519E+02  0.51100000000E-03 0. -1.
        -11    1    3    3    0    0  0.32996009817E+00  0.64185252117E+01 -0.12799410631E+00  0.64282752206E+01  0.51100000000E-03 0.  1.
        -12    1    3    3    0    0  0.12754099956E+02 -0.57358849732E+01 -0.15323682397E+02  0.20745666639E+02  0.00000000000E+00 0.  1.
</event>
<event>
 7    1  0.2937071E-011  0.5052885E+02  0.7816164E-02  0.1300439E+00
        -11   -1    0    0    0    0  0.00000000000E+00  0.00000000000E+00  0.45593999997E+02  0.45594000000E+02  0.51100000000E-03 0.  1.
         11   -1    0    0    0    0 -0.00000000000E+00 -0.00000000000E+00 -0.45593999997E+02  0.45594000000E+02  0.51100000000E-03 0. -1.
    9900012    2    1    2    0    0 -0.10869621410E+02  0.13873925073E+02 -0.36640580754E+02  0.50528848207E+02  0.29999964611E+02 0.  0.
        -12    1    1    2    0    0  0.10869621410E+02 -0.13873925073E+02  0.36640580754E+02  0.40659151793E+02  0.00000000000E+00 0.  1.
         11    1    3    3    0    0 -0.65586899776E+01  0.10306602557E+02 -0.47197371587E+01  0.13096502953E+02  0.51100000000E-03 0. -1.
        -11    1    3    3    0    0  0.13061700181E+01 -0.40529411277E+01 -0.12816195832E+00  0.42601452615E+01  0.51100000000E-03 0.  1.
         12    1    3    3    0    0 -0.56171014503E+01  0.76202636434E+01 -0.31792681637E+02  0.33172199993E+02  0.00000000000E+00 0. -1.
</event>
<event>
 7    1  0.2937071E-011  0.5052886E+02  0.7816164E-02  0.1300439E+00
        -11   -1    0    0    0    0  0.00000000000E+00  0.00000000000E+00  0.45593999997E+02  0.45594000000E+02  0.51100000000E-03 0.  1.
         11   -1    0    0    0    0 -0.00000000000E+00 -0.00000000000E+00 -0.45593999997E+02  0.45594000000E+02  0.51100000000E-03 0. -1.
    9900012    2    1    2    0    0  0.11273877999E+02 -0.27793743578E+02 -0.27451287839E+02  0.50528859438E+02  0.29999998749E+02 0.  0.
        -12    1    1    2    0    0 -0.11273877999E+02  0.27793743578E+02  0.27451287839E+02  0.40659140562E+02  0.00000000000E+00 0.  1.
         11    1    3    3    0    0 -0.49621499015E+01 -0.57747759921E+01 -0.39273486944E+01  0.85670903714E+01  0.51100000000E-03 0. -1.
        -11    1    3    3    0    0 -0.17054185673E+01  0.31228188890E+01 -0.88513422333E+00  0.36665942178E+01  0.51100000000E-03 0.  1.
        -12    1    3    3    0    0  0.17941446467E+02 -0.25141786475E+02 -0.22638804921E+02  0.38295174849E+02  0.00000000000E+00 0.  1.
</event>
<event>
 7    1  0.2937071E-011  0.5052886E+02  0.7816164E-02  0.1300439E+00
        -11   -1    0    0    0    0  0.00000000000E+00  0.00000000000E+00  0.45593999997E+02  0.45594000000E+02  0.51100000000E-03 0.  1.
         11   -1    0    0    0    0 -0.00000000000E+00 -0.00000000000E+00 -0.45593999997E+02  0.45594000000E+02  0.51100000000E-03 0. -1.
    9900012    2    1    2    0    0 -0.35876652840E+02  0.80190751018E+01 -0.17370249388E+02  0.50528863901E+02  0.30000012314E+02 0.  0.
        -12    1    1    2    0    0  0.35876652840E+02 -0.80190751018E+01  0.17370249388E+02  0.40659136099E+02  0.00000000000E+00 0.  1.
         11    1    3    3    0    0 -0.44255458640E+01 -0.76788501090E+01 -0.99982747644E+01  0.13360976526E+02  0.51100000000E-03 0.  1.
        -11    1    3    3    0    0 -0.11319156262E+02  0.42696735814E+01 -0.70787783024E+01  0.14016508606E+02  0.51100000000E-03 0. -1.
        -12    1    3    3    0    0 -0.20131950714E+02  0.11428251629E+02 -0.29319632094E+00  0.23151378770E+02  0.00000000000E+00 0.  1.
</event>
<event>
 7    1  0.2937071E-011  0.5052882E+02  0.7816164E-02  0.1300439E+00
        -11   -1    0    0    0    0  0.00000000000E+00  0.00000000000E+00  0.45593999997E+02  0.45594000000E+02  0.51100000000E-03 0. -1.
         11   -1    0    0    0    0 -0.00000000000E+00 -0.00000000000E+00 -0.45593999997E+02  0.45594000000E+02  0.51100000000E-03 0.  1.
    9900012    2    1    2    0    0 -0.17214789369E+02 -0.22088928170E+02  0.29477094316E+02  0.50528821331E+02  0.29999882918E+02 0.  0.
        -12    1    1    2    0    0  0.17214789369E+02  0.22088928170E+02 -0.29477094316E+02  0.40659178669E+02  0.00000000000E+00 0.  1.
         11    1    3    3    0    0 -0.92690674555E+01 -0.10058951061E+02  0.85511428134E+01  0.16131340664E+02  0.51100000000E-03 0. -1.
        -11    1    3    3    0    0 -0.11082304181E+02 -0.43729429910E+01  0.22968505462E+02  0.25874550040E+02  0.51100000000E-03 0.  1.
        -12    1    3    3    0    0  0.31365822673E+01 -0.76570341178E+01 -0.20425539594E+01  0.85229306274E+01  0.00000000000E+00 0.  1.
</event>
<event>
 7    1  0.2937071E-011  0.5052887E+02  0.7816164E-02  0.1300439E+00
        -11   -1    0    0    0    0  0.00000000000E+00  0.00000000000E+00  0.45593999997E+02  0.45594000000E+02  0.51100000000E-03 0.  1.
         11   -1    0    0    0    0 -0.00000000000E+00 -0.00000000000E+00 -0.45593999997E+02  0.45594000000E+02  0.51100000000E-03 0. -1.
    9900012    2    1    2    0    0 -0.40476174229E+02 -0.27805874750E+00 -0.38427515816E+01  0.50528871424E+02  0.30000035179E+02 0.  0.
        -12    1    1    2    0    0  0.40476174229E+02  0.27805874750E+00  0.38427515816E+01  0.40659128576E+02  0.00000000000E+00 0.  1.
         11    1    3    3    0    0 -0.56115922966E+01 -0.77771398493E+01 -0.23396956394E+01  0.98715778012E+01  0.51100000000E-03 0. -1.
        -11    1    3    3    0    0 -0.37089510060E+01 -0.44502741191E+01  0.37166880303E+01  0.68829519449E+01  0.51100000000E-03 0.  1.
        -12    1    3    3    0    0 -0.31155630926E+02  0.11949355221E+02 -0.52197439725E+01  0.33774341677E+02  0.00000000000E+00 0.  1.
</event>
<event>
 7    1  0.2937071E-011  0.5052886E+02  0.7816164E-02  0.1300439E+00
        -11   -1    0    0    0    0  0.00000000000E+00  0.00000000000E+00  0.45593999997E+02  0.45594000000E+02  0.51100000000E-03 0.  1.
         11   -1    0    0    0    0 -0.00000000000E+00 -0.00000000000E+00 -0.45593999997E+02  0.45594000000E+02  0.51100000000E-03 0. -1.
    9900012    2    1    2    0    0  0.82051505554E+01 -0.34206805084E+02  0.20389594769E+02  0.50528860996E+02  0.30000003485E+02 0.  0.
        -12    1    1    2    0    0 -0.82051505554E+01  0.34206805084E+02 -0.20389594769E+02  0.40659139004E+02  0.00000000000E+00 0.  1.
         11    1    3    3    0    0 -0.37317194245E+01 -0.74035439461E+01  0.77462368376E+01  0.11346469858E+02  0.51100000000E-03 0. -1.
        -11    1    3    3    0    0 -0.27820414444E+01 -0.14320532894E+02  0.13483035845E+02  0.19864784741E+02  0.51100000000E-03 0.  1.
         12    1    3    3    0    0  0.14718911424E+02 -0.12482728244E+02 -0.83967791365E+00  0.19317606397E+02  0.00000000000E+00 0. -1.
</event>
<event>
 7    1  0.2937071E-011  0.5052886E+02  0.7816164E-02  0.1300439E+00
        -11   -1    0    0    0    0  0.00000000000E+00  0.00000000000E+00  0.45593999997E+02  0.45594000000E+02  0.51100000000E-03 0.  1.
         11   -1    0    0    0    0 -0.00000000000E+00 -0.00000000000E+00 -0.45593999997E+02  0.45594000000E+02  0.51100000000E-03 0. -1.
    9900012    2    1    2    0    0 -0.18772985531E+02 -0.17477567067E+02 -0.31547981944E+02  0.50528862023E+02  0.30000006604E+02 0.  0.
        -12    1    1    2    0    0  0.18772985531E+02  0.17477567067E+02  0.31547981944E+02  0.40659137977E+02  0.00000000000E+00 0.  1.
         11    1    3    3    0    0  0.11245361322E+01  0.22069029906E+01  0.16609202721E+01  0.29822237900E+01  0.51100000000E-03 0. -1.
        -11    1    3    3    0    0  0.23418980067E+01 -0.69586375422E+01 -0.29917799887E+01  0.79282955595E+01  0.51100000000E-03 0.  1.
         12    1    3    3    0    0 -0.22239419670E+02 -0.12725832516E+02 -0.30217122227E+02  0.39618342673E+02  0.00000000000E+00 0. -1.
</event>
<event>
 7    1  0.2937071E-011  0.5052886E+02  0.7816164E-02  0.1300439E+00
        -11   -1    0    0    0    0  0.00000000000E+00  0.00000000000E+00  0.45593999997E+02  0.45594000000E+02  0.51100000000E-03 0.  1.
         11   -1    0    0    0    0 -0.00000000000E+00 -0.00000000000E+00 -0.45593999997E+02  0.45594000000E+02  0.51100000000E-03 0. -1.
    9900012    2    1    2    0    0  0.17947949162E+02 -0.26552153630E+02  0.25020382244E+02  0.50528864875E+02  0.30000015273E+02 0.  0.
        -12    1    1    2    0    0 -0.17947949162E+02  0.26552153630E+02 -0.25020382244E+02  0.40659135125E+02  0.00000000000E+00 0.  1.
         11    1    3    3    0    0  0.11076942499E+02  0.13936891190E+01  0.57673608470E+01  0.12565964980E+02  0.51100000000E-03 0. -1.
        -11    1    3    3    0    0  0.72552459327E+01 -0.64438537751E+01  0.11629547292E+02  0.15146227765E+02  0.51100000000E-03 0.  1.
         12    1    3    3    0    0 -0.38423926993E+00 -0.21501988974E+02  0.76234741047E+01  0.22816672130E+02  0.00000000000E+00 0. -1.
</event>
<event>
 7    1  0.2937071E-011  0.5052886E+02  0.7816164E-02  0.1300439E+00
        -11   -1    0    0    0    0  0.00000000000E+00  0.00000000000E+00  0.45593999997E+02  0.45594000000E+02  0.51100000000E-03 0. -1.
         11   -1    0    0    0    0 -0.00000000000E+00 -0.00000000000E+00 -0.45593999997E+02  0.45594000000E+02  0.51100000000E-03 0.  1.
    9900012    2    1    2    0    0 -0.12638407834E+02  0.26508918201E+02  0.28119624345E+02  0.50528863633E+02  0.30000011500E+02 0.  0.
        -12    1    1    2    0    0  0.12638407834E+02 -0.26508918201E+02 -0.28119624345E+02  0.40659136367E+02  0.00000000000E+00 0.  1.
         11    1    3    3    0    0 -0.67686417660E+01  0.88992835794E+01  0.72690335805E+01  0.13336064226E+02  0.51100000000E-03 0. -1.
        -11    1    3    3    0    0 -0.11831461028E+02  0.20077520162E+02  0.11921942545E+02  0.26176764511E+02  0.51100000000E-03 0.  1.
         12    1    3    3    0    0  0.59616949597E+01 -0.24678855405E+01  0.89286482187E+01  0.11016034897E+02  0.00000000000E+00 0. -1.
</event>
<event>
 7    1  0.4890857E-011  0.5052886E+02  0.7816164E-02  0.1300439E+00
        -11   -1    0    0    0    0  0.00000000000E+00  0.00000000000E+00  0.45593999997E+02  0.45594000000E+02  0.51100000000E-03 0.  1.
         11   -1    0    0    0    0 -0.00000000000E+00 -0.00000000000E+00 -0.45593999997E+02  0.45594000000E+02  0.51100000000E-03 0. -1.
    9900012    2    1    2    0    0 -0.27831205216E+02 -0.29202945429E+02  0.50771452880E+01  0.50528863145E+02  0.30000010015E+02 0.  0.
        -12    1    1    2    0    0  0.27831205216E+02  0.29202945429E+02 -0.50771452880E+01  0.40659136855E+02  0.00000000000E+00 0.  1.
         11    1    3    3    0    0 -0.20915644928E+02 -0.19375628035E+02 -0.69630726451E+00  0.28519537313E+02  0.51100000000E-03 0. -1.
        -11    1    3    3    0    0 -0.48541103354E+01 -0.11964579965E+02 -0.25595941750E+01  0.13163019543E+02  0.51100000000E-03 0.  1.
        -12    1    3    3    0    0 -0.20614499529E+01  0.21372625700E+01  0.83330467275E+01  0.88463062893E+01  0.00000000000E+00 0.  1.
</event>
<event>
 7    1  0.2937071E-011  0.5052887E+02  0.7816164E-02  0.1300439E+00
        -11   -1    0    0    0    0  0.00000000000E+00  0.00000000000E+00  0.45593999997E+02  0.45594000000E+02  0.51100000000E-03 0.  1.
         11   -1    0    0    0    0 -0.00000000000E+00 -0.00000000000E+00 -0.45593999997E+02  0.45594000000E+02  0.51100000000E-03 0. -1.
    9900012    2    1    2    0    0  0.40632962622E+02 -0.26441221790E+00 -0.14344622713E+01  0.50528865144E+02  0.30000016091E+02 0.  0.
        -12    1    1    2    0    0 -0.40632962622E+02  0.26441221790E+00  0.14344622713E+01  0.40659134856E+02  0.00000000000E+00 0.  1.
         11    1    3    3    0    0  0.37628102006E+02  0.54769281462E-01  0.45577885417E+01  0.37903172649E+02  0.51100000000E-03 0. -1.
        -11    1    3    3    0    0  0.67164203964E+01  0.15906627229E+01 -0.32316978178E+01  0.76213110346E+01  0.51100000000E-03 0.  1.
        -12    1    3    3    0    0 -0.37115597804E+01 -0.19098442223E+01 -0.27605529952E+01  0.50043814599E+01  0.00000000000E+00 0.  1.
</event>
<event>
 7    1  0.2937071E-011  0.5052887E+02  0.7816164E-02  0.1300439E+00
        -11   -1    0    0    0    0  0.00000000000E+00  0.00000000000E+00  0.45593999997E+02  0.45594000000E+02  0.51100000000E-03 0.  1.
         11   -1    0    0    0    0 -0.00000000000E+00 -0.00000000000E+00 -0.45593999997E+02  0.45594000000E+02  0.51100000000E-03 0. -1.
    9900012    2    1    2    0    0  0.36936245178E+02 -0.12899161777E+01 -0.16947422649E+02  0.50528865405E+02  0.30000016885E+02 0.  0.
        -12    1    1    2    0    0 -0.36936245178E+02  0.12899161777E+01  0.16947422649E+02  0.40659134595E+02  0.00000000000E+00 0.  1.
         11    1    3    3    0    0  0.11395525089E+02 -0.75503550991E+01 -0.11188253982E+02  0.17664735537E+02  0.51100000000E-03 0. -1.
        -11    1    3    3    0    0  0.13640980408E+02  0.84371675784E+01 -0.11237525468E+02  0.19584282528E+02  0.51100000000E-03 0.  1.
         12    1    3    3    0    0  0.11899739681E+02 -0.21767286570E+01  0.54783568013E+01  0.13279847340E+02  0.00000000000E+00 0. -1.
</event>
<event>
 7    1  0.2937071E-011  0.5052886E+02  0.7816164E-02  0.1300439E+00
        -11   -1    0    0    0    0  0.00000000000E+00  0.00000000000E+00  0.45593999997E+02  0.45594000000E+02  0.51100000000E-03 0.  1.
         11   -1    0    0    0    0 -0.00000000000E+00 -0.00000000000E+00 -0.45593999997E+02  0.45594000000E+02  0.51100000000E-03 0. -1.
    9900012    2    1    2    0    0 -0.31249043447E+02 -0.31210142071E+00 -0.26010876080E+02  0.50528858370E+02  0.29999995501E+02 0.  0.
        -12    1    1    2    0    0  0.31249043447E+02  0.31210142071E+00  0.26010876080E+02  0.40659141630E+02  0.00000000000E+00 0.  1.
         11    1    3    3    0    0 -0.14347000523E+02  0.10903406721E+01 -0.15116981882E+02  0.20869796556E+02  0.51100000000E-03 0. -1.
        -11    1    3    3    0    0  0.41909698740E+01 -0.46283852592E+01 -0.26717387228E+01  0.67914922260E+01  0.51100000000E-03 0.  1.
         12    1    3    3    0    0 -0.21093012798E+02  0.32259431664E+01 -0.82221554750E+01  0.22867569588E+02  0.00000000000E+00 0. -1.
</event>
<event>
 7    1  0.2937071E-011  0.5052882E+02  0.7816164E-02  0.1300439E+00
        -11   -1    0    0    0    0  0.00000000000E+00  0.00000000000E+00  0.45593999997E+02  0.45594000000E+02  0.51100000000E-03 0.  1.
         11   -1    0    0    0    0 -0.00000000000E+00 -0.00000000000E+00 -0.45593999997E+02  0.45594000000E+02  0.51100000000E-03 0. -1.
    9900012    2    1    2    0    0 -0.39990998274E+02 -0.71933701078E+01 -0.14645038666E+01  0.50528815453E+02  0.29999865050E+02 0.  0.
        -12    1    1    2    0    0  0.39990998274E+02  0.71933701078E+01  0.14645038666E+01  0.40659184547E+02  0.00000000000E+00 0.  1.
         11    1    3    3    0    0 -0.15967870831E+01  0.25795304455E+01  0.57469645123E+01  0.64985619697E+01  0.51100000000E-03 0. -1.
        -11    1    3    3    0    0  0.13736353212E+01  0.14619011602E+01 -0.10008302571E+01  0.22418051794E+01  0.51100000000E-03 0.  1.
         12    1    3    3    0    0 -0.39767846512E+02 -0.11234801714E+02 -0.62106381217E+01  0.41788448304E+02  0.00000000000E+00 0. -1.
</event>
<event>
 7    1  0.2937071E-011  0.5052886E+02  0.7816164E-02  0.1300439E+00
        -11   -1    0    0    0    0  0.00000000000E+00  0.00000000000E+00  0.45593999997E+02  0.45594000000E+02  0.51100000000E-03 0.  1.
         11   -1    0    0    0    0 -0.00000000000E+00 -0.00000000000E+00 -0.45593999997E+02  0.45594000000E+02  0.51100000000E-03 0. -1.
    9900012    2    1    2    0    0  0.89298934984E+00 -0.22755049287E+02 -0.33683464473E+02  0.50528862319E+02  0.30000007506E+02 0.  0.
        -12    1    1    2    0    0 -0.89298934984E+00  0.22755049287E+02  0.33683464473E+02  0.40659137681E+02  0.00000000000E+00 0.  1.
         11    1    3    3    0    0 -0.58342865908E+01 -0.96258079237E+01 -0.15829542057E+02  0.19423426068E+02  0.51100000000E-03 0. -1.
        -11    1    3    3    0    0 -0.49941209461E+01 -0.12550987071E+02 -0.11611728994E+02  0.17812938303E+02  0.51100000000E-03 0.  1.
        -12    1    3    3    0    0  0.11721396887E+02 -0.57825429199E+00 -0.62421934210E+01  0.13292497948E+02  0.00000000000E+00 0.  1.
</event>
<event>
 7    1  0.2937071E-011  0.5052886E+02  0.7816164E-02  0.1300439E+00
        -11   -1    0    0    0    0  0.00000000000E+00  0.00000000000E+00  0.45593999997E+02  0.45594000000E+02  0.51100000000E-03 0. -1.
         11   -1    0    0    0    0 -0.00000000000E+00 -0.00000000000E+00 -0.45593999997E+02  0.45594000000E+02  0.51100000000E-03 0.  1.
    9900012    2    1    2    0    0  0.22057189688E+02  0.34137999390E+02 -0.11149720844E+01  0.50528858567E+02  0.29999996101E+02 0.  0.
        -12    1    1    2    0    0 -0.22057189688E+02 -0.34137999390E+02  0.11149720844E+01  0.40659141433E+02  0.00000000000E+00 0.  1.
         11    1    3    3    0    0 -0.42300821168E+01  0.19015910078E+01 -0.24376142909E+01  0.52394280955E+01  0.51100000000E-03 0. -1.
        -11    1    3    3    0    0  0.14129758308E+02  0.11262029395E+02 -0.73991414869E+01  0.19525129217E+02  0.51100000000E-03 0.  1.
         12    1    3    3    0    0  0.12157513497E+02  0.20974378988E+02  0.87217836933E+01  0.25764301255E+02  0.00000000000E+00 0. -1.
</event>
<event>
 7    1  0.2937071E-011  0.5052886E+02  0.7816164E-02  0.1300439E+00
        -11   -1    0    0    0    0  0.00000000000E+00  0.00000000000E+00  0.45593999997E+02  0.45594000000E+02  0.51100000000E-03 0.  1.
         11   -1    0    0    0    0 -0.00000000000E+00 -0.00000000000E+00 -0.45593999997E+02  0.45594000000E+02  0.51100000000E-03 0. -1.
    9900012    2    1    2    0    0 -0.13353266725E+02 -0.36468023179E+02 -0.12039067662E+02  0.50528860843E+02  0.30000003017E+02 0.  0.
        -12    1    1    2    0    0  0.13353266725E+02  0.36468023179E+02  0.12039067662E+02  0.40659139157E+02  0.00000000000E+00 0.  1.
         11    1    3    3    0    0  0.43197202727E+01 -0.13019970955E+02 -0.38945835460E+01  0.14259993273E+02  0.51100000000E-03 0. -1.
        -11    1    3    3    0    0 -0.98535117509E+01 -0.19278297548E+01  0.34335764552E+01  0.10611204876E+02  0.51100000000E-03 0.  1.
         12    1    3    3    0    0 -0.78194752472E+01 -0.21520222470E+02 -0.11578060571E+02  0.25657662693E+02  0.00000000000E+00 0. -1.
</event>
<event>
 7    1  0.2937071E-011  0.5052884E+02  0.7816164E-02  0.1300439E+00
        -11   -1    0    0    0    0  0.00000000000E+00  0.00000000000E+00  0.45593999997E+02  0.45594000000E+02  0.51100000000E-03 0.  1.
         11   -1    0    0    0    0 -0.00000000000E+00 -0.00000000000E+00 -0.45593999997E+02  0.45594000000E+02  0.51100000000E-03 0. -1.
    9900012    2    1    2    0    0 -0.13242512961E+02 -0.31753613546E+02 -0.21668212175E+02  0.50528836929E+02  0.29999930329E+02 0.  0.
        -12    1    1    2    0    0  0.13242512961E+02  0.31753613546E+02  0.21668212175E+02  0.40659163071E+02  0.00000000000E+00 0.  1.
         11    1    3    3    0    0 -0.15541681389E+01 -0.23453279783E+01  0.18934387717E+01  0.33913290275E+01  0.51100000000E-03 0. -1.
        -11    1    3    3    0    0 -0.13823130841E+02 -0.58375377173E+01 -0.20308583704E+01  0.15142000489E+02  0.51100000000E-03 0.  1.
         12    1    3    3    0    0  0.21347860184E+01 -0.23570747851E+02 -0.21530792576E+02  0.31995507412E+02  0.00000000000E+00 0. -1.
</event>
<event>
 7    1  0.2937071E-011  0.5052887E+02  0.7816164E-02  0.1300439E+00
        -11   -1    0    0    0    0  0.00000000000E+00  0.00000000000E+00  0.45593999997E+02  0.45594000000E+02  0.51100000000E-03 0.  1.
         11   -1    0    0    0    0 -0.00000000000E+00 -0.00000000000E+00 -0.45593999997E+02  0.45594000000E+02  0.51100000000E-03 0. -1.
    9900012    2    1    2    0    0 -0.19510029969E+02 -0.35627125090E+02 -0.17977530019E+01  0.50528865388E+02  0.30000016833E+02 0.  0.
        -12    1    1    2    0    0  0.19510029969E+02  0.35627125090E+02  0.17977530019E+01  0.40659134612E+02  0.00000000000E+00 0.  1.
         11    1    3    3    0    0  0.46395751907E+01 -0.78852366908E+01 -0.48164203303E+01  0.10339270800E+02  0.51100000000E-03 0. -1.
        -11    1    3    3    0    0 -0.40196531451E+00 -0.62725948990E+01 -0.39534514956E+01  0.74254159392E+01  0.51100000000E-03 0.  1.
        -12    1    3    3    0    0 -0.23747639845E+02 -0.21469293500E+02  0.69721188240E+01  0.32764178648E+02  0.00000000000E+00 0.  1.
</event>
<event>
 7    1  0.3022005E-011  0.5052884E+02  0.7816164E-02  0.1300439E+00
        -11   -1    0    0    0    0  0.00000000000E+00  0.00000000000E+00  0.45593999997E+02  0.45594000000E+02  0.51100000000E-03 0.  1.
         11   -1    0    0    0    0 -0.00000000000E+00 -0.00000000000E+00 -0.45593999997E+02  0.45594000000E+02  0.51100000000E-03 0. -1.
    9900012    2    1    2    0    0 -0.13589275607E+02 -0.15951231321E+02 -0.34843324317E+02  0.50528838158E+02  0.29999934065E+02 0.  0.
        -12    1    1    2    0    0  0.13589275607E+02  0.15951231321E+02  0.34843324317E+02  0.40659161842E+02  0.00000000000E+00 0.  1.
         11    1    3    3    0    0 -0.88721890011E+01 -0.62817393775E+01 -0.21720618694E+02  0.24289118222E+02  0.51100000000E-03 0. -1.
        -11    1    3    3    0    0  0.15497077079E+01 -0.75296452754E+01 -0.16935383839E+02  0.18598504724E+02  0.51100000000E-03 0.  1.
        -12    1    3    3    0    0 -0.62667943143E+01 -0.21398466683E+01  0.38126782155E+01  0.76412152120E+01  0.00000000000E+00 0.  1.
</event>
<event>
 7    1  0.2937071E-011  0.5052885E+02  0.7816164E-02  0.1300439E+00
        -11   -1    0    0    0    0  0.00000000000E+00  0.00000000000E+00  0.45593999997E+02  0.45594000000E+02  0.51100000000E-03 0. -1.
         11   -1    0    0    0    0 -0.00000000000E+00 -0.00000000000E+00 -0.45593999997E+02  0.45594000000E+02  0.51100000000E-03 0.  1.
    9900012    2    1    2    0    0 -0.14942800611E+02 -0.49802525293E+01  0.37484345327E+02  0.50528851584E+02  0.29999974874E+02 0.  0.
        -12    1    1    2    0    0  0.14942800611E+02  0.49802525293E+01 -0.37484345327E+02  0.40659148416E+02  0.00000000000E+00 0.  1.
         11    1    3    3    0    0  0.25752590121E+01  0.21569696605E+01  0.34220621721E+01  0.47953088395E+01  0.51100000000E-03 0. -1.
        -11    1    3    3    0    0 -0.77066056671E+01  0.70297749878E+01  0.41783539729E+01  0.11236910139E+02  0.51100000000E-03 0.  1.
         12    1    3    3    0    0 -0.98114539559E+01 -0.14166997177E+02  0.29883929182E+02  0.34496632605E+02  0.00000000000E+00 0. -1.
</event>
<event>
 7    1  0.2937071E-011  0.5052886E+02  0.7816164E-02  0.1300439E+00
        -11   -1    0    0    0    0  0.00000000000E+00  0.00000000000E+00  0.45593999997E+02  0.45594000000E+02  0.51100000000E-03 0.  1.
         11   -1    0    0    0    0 -0.00000000000E+00 -0.00000000000E+00 -0.45593999997E+02  0.45594000000E+02  0.51100000000E-03 0. -1.
    9900012    2    1    2    0    0 -0.16860776421E+02  0.36828777897E+02  0.35384615328E+01  0.50528863598E+02  0.30000011393E+02 0.  0.
        -12    1    1    2    0    0  0.16860776421E+02 -0.36828777897E+02 -0.35384615328E+01  0.40659136402E+02  0.00000000000E+00 0.  1.
         11    1    3    3    0    0 -0.67028213909E+01  0.21376460852E+02  0.81518368101E+01  0.23839742801E+02  0.51100000000E-03 0. -1.
        -11    1    3    3    0    0 -0.67533576239E+01 -0.24241823138E+01  0.17941808780E+01  0.73961871509E+01  0.51100000000E-03 0.  1.
         12    1    3    3    0    0 -0.34045974064E+01  0.17876499359E+02 -0.64075561552E+01  0.19292933647E+02  0.00000000000E+00 0. -1.
</event>
<event>
 7    1  0.2937071E-011  0.5052891E+02  0.7816164E-02  0.1300439E+00
        -11   -1    0    0    0    0  0.00000000000E+00  0.00000000000E+00  0.45593999997E+02  0.45594000000E+02  0.51100000000E-03 0.  1.
         11   -1    0    0    0    0 -0.00000000000E+00 -0.00000000000E+00 -0.45593999997E+02  0.45594000000E+02  0.51100000000E-03 0. -1.
    9900012    2    1    2    0    0 -0.31188075497E+02  0.20829030191E+02 -0.15704037253E+02  0.50528913218E+02  0.30000162218E+02 0.  0.
        -12    1    1    2    0    0  0.31188075497E+02 -0.20829030191E+02  0.15704037253E+02  0.40659086782E+02  0.00000000000E+00 0.  1.
         11    1    3    3    0    0 -0.57876098252E+01  0.17740140977E+01 -0.22993861850E+01  0.64753942425E+01  0.51100000000E-03 0. -1.
        -11    1    3    3    0    0 -0.44025338046E+01 -0.64532112668E+01 -0.68082136485E+01  0.10362336266E+02  0.51100000000E-03 0.  1.
         12    1    3    3    0    0 -0.20997931867E+02  0.25508227360E+02 -0.65964374194E+01  0.33691182709E+02  0.00000000000E+00 0. -1.
</event>
<event>
 7    1  0.2937071E-011  0.5052887E+02  0.7816164E-02  0.1300439E+00
        -11   -1    0    0    0    0  0.00000000000E+00  0.00000000000E+00  0.45593999997E+02  0.45594000000E+02  0.51100000000E-03 0. -1.
         11   -1    0    0    0    0 -0.00000000000E+00 -0.00000000000E+00 -0.45593999997E+02  0.45594000000E+02  0.51100000000E-03 0.  1.
    9900012    2    1    2    0    0 -0.53684609533E+01  0.23826740409E+01  0.40232669700E+02  0.50528865482E+02  0.30000017118E+02 0.  0.
        -12    1    1    2    0    0  0.53684609533E+01 -0.23826740409E+01 -0.40232669700E+02  0.40659134518E+02  0.00000000000E+00 0.  1.
         11    1    3    3    0    0 -0.63629187305E+01  0.76635585643E+00  0.27421818789E+02  0.28160791573E+02  0.51100000000E-03 0. -1.
        -11    1    3    3    0    0 -0.80708627935E+00 -0.62010539192E+00 -0.46054599634E+01  0.47165857031E+01  0.51100000000E-03 0.  1.
         12    1    3    3    0    0  0.18015440565E+01  0.22364235764E+01  0.17416310874E+02  0.17651488205E+02  0.00000000000E+00 0. -1.
</event>
<event>
 7    1  0.2937071E-011  0.5052886E+02  0.7816164E-02  0.1300439E+00
        -11   -1    0    0    0    0  0.00000000000E+00  0.00000000000E+00  0.45593999997E+02  0.45594000000E+02  0.51100000000E-03 0.  1.
         11   -1    0    0    0    0 -0.00000000000E+00 -0.00000000000E+00 -0.45593999997E+02  0.45594000000E+02  0.51100000000E-03 0. -1.
    9900012    2    1    2    0    0 -0.13537493749E+02  0.23715985898E+02 -0.30123972233E+02  0.50528862931E+02  0.30000009366E+02 0.  0.
        -12    1    1    2    0    0  0.13537493749E+02 -0.23715985898E+02  0.30123972233E+02  0.40659137069E+02  0.00000000000E+00 0.  1.
         11    1    3    3    0    0 -0.89891466359E+00  0.13788805088E+01  0.14699304777E+01  0.22068200879E+01  0.51100000000E-03 0. -1.
        -11    1    3    3    0    0 -0.82313443889E+01 -0.31537412427E+01 -0.20442082890E+01  0.90487514091E+01  0.51100000000E-03 0.  1.
         12    1    3    3    0    0 -0.44072346963E+01  0.25490846631E+02 -0.29549694422E+02  0.39273291434E+02  0.00000000000E+00 0. -1.
</event>
<event>
 7    1  0.2937071E-011  0.5052886E+02  0.7816164E-02  0.1300439E+00
        -11   -1    0    0    0    0  0.00000000000E+00  0.00000000000E+00  0.45593999997E+02  0.45594000000E+02  0.51100000000E-03 0.  1.
         11   -1    0    0    0    0 -0.00000000000E+00 -0.00000000000E+00 -0.45593999997E+02  0.45594000000E+02  0.51100000000E-03 0. -1.
    9900012    2    1    2    0    0 -0.33293440441E+01  0.62922471107E+01 -0.40031101963E+02  0.50528855520E+02  0.29999986838E+02 0.  0.
        -12    1    1    2    0    0  0.33293440441E+01 -0.62922471107E+01  0.40031101963E+02  0.40659144480E+02  0.00000000000E+00 0.  1.
         11    1    3    3    0    0  0.11541621629E+01  0.18049714589E+01 -0.29243697172E+02  0.29322070814E+02  0.51100000000E-03 0. -1.
        -11    1    3    3    0    0 -0.37434785522E+00 -0.64487879947E+01 -0.27175060200E+01  0.70079841714E+01  0.51100000000E-03 0.  1.
        -12    1    3    3    0    0 -0.41091583518E+01  0.10936063646E+02 -0.80698987707E+01  0.14198800534E+02  0.00000000000E+00 0.  1.
</event>
<event>
 7    1  0.2937071E-011  0.5052884E+02  0.7816164E-02  0.1300439E+00
        -11   -1    0    0    0    0  0.00000000000E+00  0.00000000000E+00  0.45593999997E+02  0.45594000000E+02  0.51100000000E-03 0.  1.
         11   -1    0    0    0    0 -0.00000000000E+00 -0.00000000000E+00 -0.45593999997E+02  0.45594000000E+02  0.51100000000E-03 0. -1.
    9900012    2    1    2    0    0  0.36601390368E+02 -0.83643529026E+01 -0.15605874171E+02  0.50528837625E+02  0.29999932446E+02 0.  0.
        -12    1    1    2    0    0 -0.36601390368E+02  0.83643529026E+01  0.15605874171E+02  0.40659162375E+02  0.00000000000E+00 0.  1.
         11    1    3    3    0    0  0.30495137180E+02  0.11779707565E+01 -0.10930684397E+02  0.32416367292E+02  0.51100000000E-03 0. -1.
        -11    1    3    3    0    0  0.78625669919E+01 -0.80080492140E+00 -0.47020447619E+01  0.91962206057E+01  0.51100000000E-03 0.  1.
        -12    1    3    3    0    0 -0.17563138038E+01 -0.87415187378E+01  0.26854988349E-01  0.89162497279E+01  0.00000000000E+00 0.  1.
</event>
<event>
 7    1  0.2937071E-011  0.5052886E+02  0.7816164E-02  0.1300439E+00
        -11   -1    0    0    0    0  0.00000000000E+00  0.00000000000E+00  0.45593999997E+02  0.45594000000E+02  0.51100000000E-03 0.  1.
         11   -1    0    0    0    0 -0.00000000000E+00 -0.00000000000E+00 -0.45593999997E+02  0.45594000000E+02  0.51100000000E-03 0. -1.
    9900012    2    1    2    0    0  0.27422479790E+02 -0.29272960939E+02 -0.66533411229E+01  0.50528860953E+02  0.30000003353E+02 0.  0.
        -12    1    1    2    0    0 -0.27422479790E+02  0.29272960939E+02  0.66533411229E+01  0.40659139047E+02  0.00000000000E+00 0.  1.
         11    1    3    3    0    0  0.70284951530E+01 -0.18469151886E+02  0.16760047505E+01  0.19832254226E+02  0.51100000000E-03 0. -1.
        -11    1    3    3    0    0 -0.35477826103E+01 -0.16246955370E+01 -0.12144166438E+01  0.40867107903E+01  0.51100000000E-03 0.  1.
         12    1    3    3    0    0  0.23941767247E+02 -0.91791135164E+01 -0.71149292296E+01  0.26609895937E+02  0.00000000000E+00 0. -1.
</event>
<event>
 7    1  0.2937071E-011  0.5052887E+02  0.7816164E-02  0.1300439E+00
        -11   -1    0    0    0    0  0.00000000000E+00  0.00000000000E+00  0.45593999997E+02  0.45594000000E+02  0.51100000000E-03 0. -1.
         11   -1    0    0    0    0 -0.00000000000E+00 -0.00000000000E+00 -0.45593999997E+02  0.45594000000E+02  0.51100000000E-03 0.  1.
    9900012    2    1    2    0    0  0.32489406446E+01  0.40502602170E+02 -0.14656227448E+01  0.50528874974E+02  0.30000045971E+02 0.  0.
        -12    1    1    2    0    0 -0.32489406446E+01 -0.40502602170E+02  0.14656227448E+01  0.40659125026E+02  0.00000000000E+00 0.  1.
         11    1    3    3    0    0  0.93077270068E+01  0.18989521343E+02  0.85880492616E-01  0.21148122342E+02  0.51100000000E-03 0. -1.
        -11    1    3    3    0    0 -0.27136754404E+01  0.17135471555E+02 -0.94460232625E+01  0.19753880012E+02  0.51100000000E-03 0.  1.
        -12    1    3    3    0    0 -0.33451109218E+01  0.43776092726E+01  0.78945200251E+01  0.96268726204E+01  0.00000000000E+00 0.  1.
</event>
<event>
 7    1  0.2937071E-011  0.5052885E+02  0.7816164E-02  0.1300439E+00
        -11   -1    0    0    0    0  0.00000000000E+00  0.00000000000E+00  0.45593999997E+02  0.45594000000E+02  0.51100000000E-03 0. -1.
         11   -1    0    0    0    0 -0.00000000000E+00 -0.00000000000E+00 -0.45593999997E+02  0.45594000000E+02  0.51100000000E-03 0.  1.
    9900012    2    1    2    0    0 -0.13364698730E+02 -0.38397332810E+02  0.44241992456E+00  0.50528854972E+02  0.29999985172E+02 0.  0.
        -12    1    1    2    0    0  0.13364698730E+02  0.38397332810E+02 -0.44241992456E+00  0.40659145028E+02  0.00000000000E+00 0.  1.
         11    1    3    3    0    0  0.51708483188E+01 -0.36564980181E+01 -0.56575122215E+00  0.63582800189E+01  0.51100000000E-03 0. -1.
        -11    1    3    3    0    0 -0.14347156349E+02 -0.67490910557E+01  0.27329655396E+00  0.15857673747E+02  0.51100000000E-03 0.  1.
         12    1    3    3    0    0 -0.41883906993E+01 -0.27991743736E+02  0.73487459276E+00  0.28312901206E+02  0.00000000000E+00 0. -1.
</event>
<event>
 7    1  0.2937071E-011  0.5052886E+02  0.7816164E-02  0.1300439E+00
        -11   -1    0    0    0    0  0.00000000000E+00  0.00000000000E+00  0.45593999997E+02  0.45594000000E+02  0.51100000000E-03 0. -1.
         11   -1    0    0    0    0 -0.00000000000E+00 -0.00000000000E+00 -0.45593999997E+02  0.45594000000E+02  0.51100000000E-03 0.  1.
    9900012    2    1    2    0    0  0.13620633530E+02 -0.36395517098E+02  0.11958693659E+02  0.50528859864E+02  0.30000000041E+02 0.  0.
        -12    1    1    2    0    0 -0.13620633530E+02  0.36395517098E+02 -0.11958693659E+02  0.40659140136E+02  0.00000000000E+00 0.  1.
         11    1    3    3    0    0  0.10538936032E+02 -0.13255987400E+02 -0.56199923866E+01  0.17843057174E+02  0.51100000000E-03 0. -1.
        -11    1    3    3    0    0  0.57436460296E+00 -0.22185051630E+02  0.94408506306E+01  0.24117132322E+02  0.51100000000E-03 0.  1.
         12    1    3    3    0    0  0.25073328952E+01 -0.95447806812E+00  0.81378354151E+01  0.85686703679E+01  0.00000000000E+00 0. -1.
</event>
<event>
 7    1  0.2937071E-011  0.5052887E+02  0.7816164E-02  0.1300439E+00
        -11   -1    0    0    0    0  0.00000000000E+00  0.00000000000E+00  0.45593999997E+02  0.45594000000E+02  0.51100000000E-03 0.  1.
         11   -1    0    0    0    0 -0.00000000000E+00 -0.00000000000E+00 -0.45593999997E+02  0.45594000000E+02  0.51100000000E-03 0. -1.
    9900012    2    1    2    0    0  0.33485001165E+02  0.12758482450E+02  0.19213039837E+02  0.50528867235E+02  0.30000022446E+02 0.  0.
        -12    1    1    2    0    0 -0.33485001165E+02 -0.12758482450E+02 -0.19213039837E+02  0.40659132765E+02  0.00000000000E+00 0.  1.
         11    1    3    3    0    0  0.23678055987E+01  0.71291461975E+01  0.72438700757E+01  0.10435750227E+02  0.51100000000E-03 0. -1.
        -11    1    3    3    0    0  0.31924522821E+01  0.77258444137E+01 -0.22913869164E+01  0.86678069741E+01  0.51100000000E-03 0.  1.
        -12    1    3    3    0    0  0.27924743284E+02 -0.20965081610E+01  0.14260556678E+02  0.31425310034E+02  0.00000000000E+00 0.  1.
</event>
<event>
 7    1  0.2937071E-011  0.5052885E+02  0.7816164E-02  0.1300439E+00
        -11   -1    0    0    0    0  0.00000000000E+00  0.00000000000E+00  0.45593999997E+02  0.45594000000E+02  0.51100000000E-03 0.  1.
         11   -1    0    0    0    0 -0.00000000000E+00 -0.00000000000E+00 -0.45593999997E+02  0.45594000000E+02  0.51100000000E-03 0. -1.
    9900012    2    1    2    0    0  0.29705453274E+01  0.38034688721E+02  0.14060767623E+02  0.50528845167E+02  0.29999955369E+02 0.  0.
        -12    1    1    2    0    0 -0.29705453274E+01 -0.38034688721E+02 -0.14060767623E+02  0.40659154833E+02  0.00000000000E+00 0.  1.
         11    1    3    3    0    0 -0.40674004344E+01  0.11184425185E+02  0.29036644329E+01  0.12250158383E+02  0.51100000000E-03 0. -1.
        -11    1    3    3    0    0 -0.62443314785E+01  0.23578336817E+00 -0.63670282161E+00  0.62811352599E+01  0.51100000000E-03 0.  1.
        -12    1    3    3    0    0  0.13282277240E+02  0.26614480168E+02  0.11793806012E+02  0.31997551524E+02  0.00000000000E+00 0.  1.
</event>
<event>
 7    1  0.2937071E-011  0.5052886E+02  0.7816164E-02  0.1300439E+00
        -11   -1    0    0    0    0  0.00000000000E+00  0.00000000000E+00  0.45593999997E+02  0.45594000000E+02  0.51100000000E-03 0.  1.
         11   -1    0    0    0    0 -0.00000000000E+00 -0.00000000000E+00 -0.45593999997E+02  0.45594000000E+02  0.51100000000E-03 0. -1.
    9900012    2    1    2    0    0  0.84376166155E+01  0.11228080235E+02 -0.38156294558E+02  0.50528856203E+02  0.29999988913E+02 0.  0.
        -12    1    1    2    0    0 -0.84376166155E+01 -0.11228080235E+02  0.38156294558E+02  0.40659143797E+02  0.00000000000E+00 0.  1.
         11    1    3    3    0    0  0.63390290401E+01  0.47915211665E+01 -0.27866694166E+02  0.28977484505E+02  0.51100000000E-03 0. -1.
        -11    1    3    3    0    0  0.58473404025E+01  0.16341466918E+01 -0.13399781899E+02  0.14711083590E+02  0.51100000000E-03 0.  1.
        -12    1    3    3    0    0 -0.37487528271E+01  0.48024123769E+01  0.31101815061E+01  0.68402881077E+01  0.00000000000E+00 0.  1.
</event>
<event>
 7    1  0.2937071E-011  0.5052884E+02  0.7816164E-02  0.1300439E+00
        -11   -1    0    0    0    0  0.00000000000E+00  0.00000000000E+00  0.45593999997E+02  0.45594000000E+02  0.51100000000E-03 0.  1.
         11   -1    0    0    0    0 -0.00000000000E+00 -0.00000000000E+00 -0.45593999997E+02  0.45594000000E+02  0.51100000000E-03 0. -1.
    9900012    2    1    2    0    0 -0.26160333804E+01  0.25428935262E+02 -0.31617919948E+02  0.50528840625E+02  0.29999941564E+02 0.  0.
        -12    1    1    2    0    0  0.26160333804E+01 -0.25428935262E+02  0.31617919948E+02  0.40659159375E+02  0.00000000000E+00 0.  1.
         11    1    3    3    0    0 -0.33029120863E+01  0.14136342938E+02 -0.94182276129E+01  0.17304578340E+02  0.51100000000E-03 0. -1.
        -11    1    3    3    0    0 -0.94349343547E+01  0.23202745687E-01 -0.68535361895E+01  0.11661452877E+02  0.51100000000E-03 0.  1.
         12    1    3    3    0    0  0.10121813061E+02  0.11269389579E+02 -0.15346156146E+02  0.21562809408E+02  0.00000000000E+00 0. -1.
</event>
<event>
 7    1  0.2937071E-011  0.5052886E+02  0.7816164E-02  0.1300439E+00
        -11   -1    0    0    0    0  0.00000000000E+00  0.00000000000E+00  0.45593999997E+02  0.45594000000E+02  0.51100000000E-03 0.  1.
         11   -1    0    0    0    0 -0.00000000000E+00 -0.00000000000E+00 -0.45593999997E+02  0.45594000000E+02  0.51100000000E-03 0. -1.
    9900012    2    1    2    0    0  0.29955282315E+02 -0.17600370089E+02 -0.21120451981E+02  0.50528862555E+02  0.30000008224E+02 0.  0.
        -12    1    1    2    0    0 -0.29955282315E+02  0.17600370089E+02  0.21120451981E+02  0.40659137445E+02  0.00000000000E+00 0.  1.
         11    1    3    3    0    0  0.10894948946E+02 -0.71524772081E+01 -0.40875125502E+01  0.13658901927E+02  0.51100000000E-03 0. -1.
        -11    1    3    3    0    0  0.89483664303E+01 -0.15414933507E+02 -0.17872835194E+01  0.17913341939E+02  0.51100000000E-03 0.  1.
         12    1    3    3    0    0  0.10111966939E+02  0.49670406260E+01 -0.15245655911E+02  0.18956618689E+02  0.00000000000E+00 0. -1.
</event>
<event>
 7    1  0.2937071E-011  0.5052886E+02  0.7816164E-02  0.1300439E+00
        -11   -1    0    0    0    0  0.00000000000E+00  0.00000000000E+00  0.45593999997E+02  0.45594000000E+02  0.51100000000E-03 0.  1.
         11   -1    0    0    0    0 -0.00000000000E+00 -0.00000000000E+00 -0.45593999997E+02  0.45594000000E+02  0.51100000000E-03 0. -1.
    9900012    2    1    2    0    0 -0.57689003461E+01  0.35492423345E+02 -0.18978232385E+02  0.50528860430E+02  0.30000001764E+02 0.  0.
        -12    1    1    2    0    0  0.57689003461E+01 -0.35492423345E+02  0.18978232385E+02  0.40659139570E+02  0.00000000000E+00 0.  1.
         11    1    3    3    0    0 -0.91417189238E+01  0.10656449870E+02 -0.79251440810E+01  0.16122619443E+02  0.51100000000E-03 0. -1.
        -11    1    3    3    0    0  0.46977388308E+01  0.18194906653E+02 -0.17040227241E+02  0.25367158354E+02  0.51100000000E-03 0.  1.
         12    1    3    3    0    0 -0.13249202531E+01  0.66410668213E+01  0.59871389377E+01  0.90390826339E+01  0.00000000000E+00 0. -1.
</event>
<event>
 7    1  0.2937071E-011  0.5052886E+02  0.7816164E-02  0.1300439E+00
        -11   -1    0    0    0    0  0.00000000000E+00  0.00000000000E+00  0.45593999997E+02  0.45594000000E+02  0.51100000000E-03 0.  1.
         11   -1    0    0    0    0 -0.00000000000E+00 -0.00000000000E+00 -0.45593999997E+02  0.45594000000E+02  0.51100000000E-03 0. -1.
    9900012    2    1    2    0    0  0.29659049822E+02  0.70710203132E+01 -0.26898091006E+02  0.50528857555E+02  0.29999993023E+02 0.  0.
        -12    1    1    2    0    0 -0.29659049822E+02 -0.70710203132E+01  0.26898091006E+02  0.40659142445E+02  0.00000000000E+00 0.  1.
         11    1    3    3    0    0  0.11447669110E+02  0.73953115549E+00 -0.18850640774E+01  0.11625381767E+02  0.51100000000E-03 0. -1.
        -11    1    3    3    0    0  0.97194845679E+01 -0.75705491965E+01 -0.55213313769E+01  0.13500618350E+02  0.51100000000E-03 0.  1.
         12    1    3    3    0    0  0.84918961441E+01  0.13902038354E+02 -0.19491695552E+02  0.25402857438E+02  0.00000000000E+00 0. -1.
</event>
<event>
 7    1  0.2937071E-011  0.5052883E+02  0.7816164E-02  0.1300439E+00
        -11   -1    0    0    0    0  0.00000000000E+00  0.00000000000E+00  0.45593999997E+02  0.45594000000E+02  0.51100000000E-03 0.  1.
         11   -1    0    0    0    0 -0.00000000000E+00 -0.00000000000E+00 -0.45593999997E+02  0.45594000000E+02  0.51100000000E-03 0. -1.
    9900012    2    1    2    0    0 -0.18758014561E+02  0.11847525416E+02 -0.34072590892E+02  0.50528826142E+02  0.29999897540E+02 0.  0.
        -12    1    1    2    0    0  0.18758014561E+02 -0.11847525416E+02  0.34072590892E+02  0.40659173858E+02  0.00000000000E+00 0.  1.
         11    1    3    3    0    0 -0.34528861666E+01 -0.58434761700E+00  0.41209266142E+01  0.54079498368E+01  0.51100000000E-03 0.  1.
        -11    1    3    3    0    0 -0.93519708688E+01 -0.32796111731E+00 -0.20290015370E+02  0.22343939707E+02  0.51100000000E-03 0. -1.
        -12    1    3    3    0    0 -0.59531575252E+01  0.12759834150E+02 -0.17903502136E+02  0.22776936598E+02  0.00000000000E+00 0.  1.
</event>
<event>
 7    1  0.2937071E-011  0.5052886E+02  0.7816164E-02  0.1300439E+00
        -11   -1    0    0    0    0  0.00000000000E+00  0.00000000000E+00  0.45593999997E+02  0.45594000000E+02  0.51100000000E-03 0.  1.
         11   -1    0    0    0    0 -0.00000000000E+00 -0.00000000000E+00 -0.45593999997E+02  0.45594000000E+02  0.51100000000E-03 0. -1.
    9900012    2    1    2    0    0 -0.96382219919E+01  0.18925398913E+02 -0.34671305242E+02  0.50528862597E+02  0.30000008349E+02 0.  0.
        -12    1    1    2    0    0  0.96382219919E+01 -0.18925398913E+02  0.34671305242E+02  0.40659137403E+02  0.00000000000E+00 0.  1.
         11    1    3    3    0    0  0.72466789052E+01  0.74330156896E+01 -0.96069092215E+01  0.14144143044E+02  0.51100000000E-03 0. -1.
        -11    1    3    3    0    0  0.29551929482E+01  0.12224961817E+01 -0.68508500026E+01  0.75605428571E+01  0.51100000000E-03 0.  1.
        -12    1    3    3    0    0 -0.19840093845E+02  0.10269887041E+02 -0.18213546018E+02  0.28824176696E+02  0.00000000000E+00 0.  1.
</event>
<event>
 7    1  0.2937071E-011  0.5052886E+02  0.7816164E-02  0.1300439E+00
        -11   -1    0    0    0    0  0.00000000000E+00  0.00000000000E+00  0.45593999997E+02  0.45594000000E+02  0.51100000000E-03 0. -1.
         11   -1    0    0    0    0 -0.00000000000E+00 -0.00000000000E+00 -0.45593999997E+02  0.45594000000E+02  0.51100000000E-03 0.  1.
    9900012    2    1    2    0    0 -0.22880330814E+02  0.19476767137E+02  0.27391816625E+02  0.50528860631E+02  0.30000002373E+02 0.  0.
        -12    1    1    2    0    0  0.22880330814E+02 -0.19476767137E+02 -0.27391816625E+02  0.40659139369E+02  0.00000000000E+00 0.  1.
         11    1    3    3    0    0 -0.44241040492E+01  0.15932997043E+02  0.17231877150E+02  0.23882434587E+02  0.51100000000E-03 0. -1.
        -11    1    3    3    0    0  0.27874762900E+01  0.12611623276E+01  0.24926401710E+01  0.39463666539E+01  0.51100000000E-03 0.  1.
         12    1    3    3    0    0 -0.21243703055E+02  0.22826077657E+01  0.76672993042E+01  0.22700059390E+02  0.00000000000E+00 0. -1.
</event>
<event>
 7    1  0.2937071E-011  0.5052883E+02  0.7816164E-02  0.1300439E+00
        -11   -1    0    0    0    0  0.00000000000E+00  0.00000000000E+00  0.45593999997E+02  0.45594000000E+02  0.51100000000E-03 0.  1.
         11   -1    0    0    0    0 -0.00000000000E+00 -0.00000000000E+00 -0.45593999997E+02  0.45594000000E+02  0.51100000000E-03 0. -1.
    9900012    2    1    2    0    0  0.25753871029E+02 -0.14687979587E+02 -0.27823899806E+02  0.50528831074E+02  0.29999912533E+02 0.  0.
        -12    1    1    2    0    0 -0.25753871029E+02  0.14687979587E+02  0.27823899806E+02  0.40659168926E+02  0.00000000000E+00 0.  1.
         11    1    3    3    0    0  0.39731550667E+01 -0.55903290847E+01 -0.29032202047E+01  0.74475786855E+01  0.51100000000E-03 0.  1.
        -11    1    3    3    0    0  0.21918122478E+02 -0.11690728453E+02 -0.29037893809E+02  0.38213564370E+02  0.51100000000E-03 0. -1.
         12    1    3    3    0    0 -0.13740651616E+00  0.25930779511E+01  0.41172142080E+01  0.48676880185E+01  0.00000000000E+00 0. -1.
</event>
<event>
 7    1  0.2937071E-011  0.5052887E+02  0.7816164E-02  0.1300439E+00
        -11   -1    0    0    0    0  0.00000000000E+00  0.00000000000E+00  0.45593999997E+02  0.45594000000E+02  0.51100000000E-03 0. -1.
         11   -1    0    0    0    0 -0.00000000000E+00 -0.00000000000E+00 -0.45593999997E+02  0.45594000000E+02  0.51100000000E-03 0.  1.
    9900012    2    1    2    0    0 -0.19384489125E+02 -0.34132064343E+02  0.10602278047E+02  0.50528873906E+02  0.30000042724E+02 0.  0.
        -12    1    1    2    0    0  0.19384489125E+02  0.34132064343E+02 -0.10602278047E+02  0.40659126094E+02  0.00000000000E+00 0.  1.
         11    1    3    3    0    0 -0.23762011396E+01 -0.97652580909E+01  0.12470959624E+02  0.16016598629E+02  0.51100000000E-03 0. -1.
        -11    1    3    3    0    0 -0.15214708617E+02 -0.25841718239E+02  0.19408773101E+01  0.30050769788E+02  0.51100000000E-03 0.  1.
        -12    1    3    3    0    0 -0.17935793683E+01  0.14749119866E+01 -0.38095588869E+01  0.44615054893E+01  0.00000000000E+00 0.  1.
</event>
<event>
 7    1  0.2937071E-011  0.5052887E+02  0.7816164E-02  0.1300439E+00
        -11   -1    0    0    0    0  0.00000000000E+00  0.00000000000E+00  0.45593999997E+02  0.45594000000E+02  0.51100000000E-03 0.  1.
         11   -1    0    0    0    0 -0.00000000000E+00 -0.00000000000E+00 -0.45593999997E+02  0.45594000000E+02  0.51100000000E-03 0. -1.
    9900012    2    1    2    0    0 -0.29410533614E+02  0.27567691801E+02 -0.53110638442E+01  0.50528874114E+02  0.30000043356E+02 0.  0.
        -12    1    1    2    0    0  0.29410533614E+02 -0.27567691801E+02  0.53110638442E+01  0.40659125886E+02  0.00000000000E+00 0.  1.
         11    1    3    3    0    0 -0.12256972698E+01 -0.10181119068E+01  0.15552411950E+01  0.22265805819E+01  0.51100000000E-03 0. -1.
        -11    1    3    3    0    0 -0.90546564419E+01 -0.36006981829E+01  0.17023911127E+01  0.98919141953E+01  0.51100000000E-03 0.  1.
         12    1    3    3    0    0 -0.19130179902E+02  0.32186501890E+02 -0.85686961519E+01  0.38410379337E+02  0.00000000000E+00 0. -1.
</event>
<event>
 7    1  0.2937071E-011  0.5052885E+02  0.7816164E-02  0.1300439E+00
        -11   -1    0    0    0    0  0.00000000000E+00  0.00000000000E+00  0.45593999997E+02  0.45594000000E+02  0.51100000000E-03 0.  1.
         11   -1    0    0    0    0 -0.00000000000E+00 -0.00000000000E+00 -0.45593999997E+02  0.45594000000E+02  0.51100000000E-03 0. -1.
    9900012    2    1    2    0    0 -0.11576891093E+02 -0.20238202467E+02 -0.33310016182E+02  0.50528850667E+02  0.29999972086E+02 0.  0.
        -12    1    1    2    0    0  0.11576891093E+02  0.20238202467E+02  0.33310016182E+02  0.40659149333E+02  0.00000000000E+00 0.  1.
         11    1    3    3    0    0  0.41731472416E+01  0.98723214436E+00 -0.33862375241E+00  0.43016800803E+01  0.51100000000E-03 0.  1.
        -11    1    3    3    0    0 -0.76920333196E+01 -0.53492164571E+01 -0.73125836453E+00  0.93976716453E+01  0.51100000000E-03 0. -1.
        -12    1    3    3    0    0 -0.80580050148E+01 -0.15876218154E+02 -0.32240134065E+02  0.36829498941E+02  0.00000000000E+00 0.  1.
</event>
<event>
 7    1  0.2937071E-011  0.5052887E+02  0.7816164E-02  0.1300439E+00
        -11   -1    0    0    0    0  0.00000000000E+00  0.00000000000E+00  0.45593999997E+02  0.45594000000E+02  0.51100000000E-03 0.  1.
         11   -1    0    0    0    0 -0.00000000000E+00 -0.00000000000E+00 -0.45593999997E+02  0.45594000000E+02  0.51100000000E-03 0. -1.
    9900012    2    1    2    0    0 -0.48719863292E+01 -0.45898509810E+01 -0.40104389926E+02  0.50528867273E+02  0.30000022563E+02 0.  0.
        -12    1    1    2    0    0  0.48719863292E+01  0.45898509810E+01  0.40104389926E+02  0.40659132727E+02  0.00000000000E+00 0.  1.
         11    1    3    3    0    0  0.29396811004E+01 -0.19600716464E+01 -0.30599932372E+02  0.30803237935E+02  0.51100000000E-03 0. -1.
        -11    1    3    3    0    0  0.13691582670E+01 -0.42908032059E+01 -0.93683232931E+01  0.10394761570E+02  0.51100000000E-03 0.  1.
        -12    1    3    3    0    0 -0.91808256966E+01  0.16610238713E+01 -0.13613426052E+00  0.93308677683E+01  0.00000000000E+00 0.  1.
</event>
<event>
 7    1  0.2937071E-011  0.5052886E+02  0.7816164E-02  0.1300439E+00
        -11   -1    0    0    0    0  0.00000000000E+00  0.00000000000E+00  0.45593999997E+02  0.45594000000E+02  0.51100000000E-03 0. -1.
         11   -1    0    0    0    0 -0.00000000000E+00 -0.00000000000E+00 -0.45593999997E+02  0.45594000000E+02  0.51100000000E-03 0.  1.
    9900012    2    1    2    0    0 -0.38237053025E+02  0.12195574178E+02 -0.65085347749E+01  0.50528864760E+02  0.30000014924E+02 0.  0.
        -12    1    1    2    0    0  0.38237053025E+02 -0.12195574178E+02  0.65085347749E+01  0.40659135240E+02  0.00000000000E+00 0.  1.
         11    1    3    3    0    0 -0.12945619395E+02  0.57353772995E+00 -0.56441917845E+01  0.14134175187E+02  0.51100000000E-03 0. -1.
        -11    1    3    3    0    0 -0.24135625260E+02  0.63479433242E+01 -0.90857109897E+01  0.26558895602E+02  0.51100000000E-03 0.  1.
        -12    1    3    3    0    0 -0.11558083697E+01  0.52740931240E+01  0.82213679992E+01  0.98357939714E+01  0.00000000000E+00 0.  1.
</event>
<event>
 7    1  0.2937071E-011  0.5052886E+02  0.7816164E-02  0.1300439E+00
        -11   -1    0    0    0    0  0.00000000000E+00  0.00000000000E+00  0.45593999997E+02  0.45594000000E+02  0.51100000000E-03 0.  1.
         11   -1    0    0    0    0 -0.00000000000E+00 -0.00000000000E+00 -0.45593999997E+02  0.45594000000E+02  0.51100000000E-03 0. -1.
    9900012    2    1    2    0    0 -0.10398730974E+02  0.22005306880E+02 -0.32569901108E+02  0.50528860869E+02  0.30000003097E+02 0.  0.
        -12    1    1    2    0    0  0.10398730974E+02 -0.22005306880E+02  0.32569901108E+02  0.40659139131E+02  0.00000000000E+00 0.  1.
         11    1    3    3    0    0 -0.19712539447E+01 -0.37317041176E+01 -0.44976905150E+01  0.61677125391E+01  0.51100000000E-03 0. -1.
        -11    1    3    3    0    0  0.42402351764E+00 -0.28382722547E+01  0.59187785621E+00  0.29301714955E+01  0.51100000000E-03 0.  1.
         12    1    3    3    0    0 -0.88515005465E+01  0.28575283252E+02 -0.28664088449E+02  0.41430976834E+02  0.00000000000E+00 0. -1.
</event>
<event>
 7    1  0.2937071E-011  0.5052886E+02  0.7816164E-02  0.1300439E+00
        -11   -1    0    0    0    0  0.00000000000E+00  0.00000000000E+00  0.45593999997E+02  0.45594000000E+02  0.51100000000E-03 0. -1.
         11   -1    0    0    0    0 -0.00000000000E+00 -0.00000000000E+00 -0.45593999997E+02  0.45594000000E+02  0.51100000000E-03 0.  1.
    9900012    2    1    2    0    0 -0.50079356771E+01 -0.38604041397E+02  0.11739425055E+02  0.50528861636E+02  0.30000005428E+02 0.  0.
        -12    1    1    2    0    0  0.50079356771E+01  0.38604041397E+02 -0.11739425055E+02  0.40659138364E+02  0.00000000000E+00 0.  1.
         11    1    3    3    0    0  0.68294573567E+00 -0.23240598146E+01 -0.70856564193E+01  0.74882705649E+01  0.51100000000E-03 0. -1.
        -11    1    3    3    0    0  0.34980851041E+01 -0.55412538455E+01  0.22458024060E+01  0.69271727483E+01  0.51100000000E-03 0.  1.
         12    1    3    3    0    0 -0.91889665169E+01 -0.30738727737E+02  0.16579279068E+02  0.36113418323E+02  0.00000000000E+00 0. -1.
</event>
<event>
 7    1  0.2937071E-011  0.5052885E+02  0.7816164E-02  0.1300439E+00
        -11   -1    0    0    0    0  0.00000000000E+00  0.00000000000E+00  0.45593999997E+02  0.45594000000E+02  0.51100000000E-03 0.  1.
         11   -1    0    0    0    0 -0.00000000000E+00 -0.00000000000E+00 -0.45593999997E+02  0.45594000000E+02  0.51100000000E-03 0. -1.
    9900012    2    1    2    0    0 -0.16016740465E+00 -0.33470725003E+02 -0.23083575644E+02  0.50528849119E+02  0.29999967382E+02 0.  0.
        -12    1    1    2    0    0  0.16016740465E+00  0.33470725003E+02  0.23083575644E+02  0.40659150881E+02  0.00000000000E+00 0.  1.
         11    1    3    3    0    0 -0.24197382178E+01 -0.40467151142E+01 -0.69497308120E+01  0.83982018836E+01  0.51100000000E-03 0. -1.
        -11    1    3    3    0    0  0.54542411036E+01 -0.16726749505E+02 -0.21672206813E+02  0.27914466562E+02  0.51100000000E-03 0.  1.
        -12    1    3    3    0    0 -0.31946702905E+01 -0.12697260384E+02  0.55383619806E+01  0.14216180674E+02  0.00000000000E+00 0.  1.
</event>
<event>
 7    1  0.2937071E-011  0.5052887E+02  0.7816164E-02  0.1300439E+00
        -11   -1    0    0    0    0  0.00000000000E+00  0.00000000000E+00  0.45593999997E+02  0.45594000000E+02  0.51100000000E-03 0.  1.
         11   -1    0    0    0    0 -0.00000000000E+00 -0.00000000000E+00 -0.45593999997E+02  0.45594000000E+02  0.51100000000E-03 0. -1.
    9900012    2    1    2    0    0  0.13029311261E+02 -0.32762111933E+02 -0.20249590748E+02  0.50528869959E+02  0.30000030727E+02 0.  0.
        -12    1    1    2    0    0 -0.13029311261E+02  0.32762111933E+02  0.20249590748E+02  0.40659130041E+02  0.00000000000E+00 0.  1.
         11    1    3    3    0    0  0.24575092830E+01  0.56632530881E+00 -0.54333752898E+01  0.59901288411E+01  0.51100000000E-03 0. -1.
        -11    1    3    3    0    0  0.87224507871E+01 -0.73000824893E+00 -0.63333193198E+01  0.10803934174E+02  0.51100000000E-03 0.  1.
        -12    1    3    3    0    0  0.18493511909E+01 -0.32598428993E+02 -0.84828961385E+01  0.33734806943E+02  0.00000000000E+00 0.  1.
</event>
<event>
 7    1  0.2937071E-011  0.5052886E+02  0.7816164E-02  0.1300439E+00
        -11   -1    0    0    0    0  0.00000000000E+00  0.00000000000E+00  0.45593999997E+02  0.45594000000E+02  0.51100000000E-03 0. -1.
         11   -1    0    0    0    0 -0.00000000000E+00 -0.00000000000E+00 -0.45593999997E+02  0.45594000000E+02  0.51100000000E-03 0.  1.
    9900012    2    1    2    0    0 -0.35956198602E+01  0.39275431073E+02 -0.98832179904E+01  0.50528856305E+02  0.29999989225E+02 0.  0.
        -12    1    1    2    0    0  0.35956198602E+01 -0.39275431073E+02  0.98832179904E+01  0.40659143695E+02  0.00000000000E+00 0.  1.
         11    1    3    3    0    0  0.61649175927E+01  0.52561403846E+01  0.34000335991E+01  0.87859802756E+01  0.51100000000E-03 0. -1.
        -11    1    3    3    0    0 -0.20566936234E+01 -0.41316418305E+00  0.23506738174E+01  0.31506127911E+01  0.51100000000E-03 0.  1.
         12    1    3    3    0    0 -0.77038438295E+01  0.34432454872E+02 -0.15633925407E+02  0.38592263238E+02  0.00000000000E+00 0. -1.
</event>
<event>
 7    1  0.2937071E-011  0.5052887E+02  0.7816164E-02  0.1300439E+00
        -11   -1    0    0    0    0  0.00000000000E+00  0.00000000000E+00  0.45593999997E+02  0.45594000000E+02  0.51100000000E-03 0. -1.
         11   -1    0    0    0    0 -0.00000000000E+00 -0.00000000000E+00 -0.45593999997E+02  0.45594000000E+02  0.51100000000E-03 0.  1.
    9900012    2    1    2    0    0 -0.39364368156E+02  0.39469996962E+01  0.93825629329E+01  0.50528870962E+02  0.30000033776E+02 0.  0.
        -12    1    1    2    0    0  0.39364368156E+02 -0.39469996962E+01 -0.93825629329E+01  0.40659129038E+02  0.00000000000E+00 0.  1.
         11    1    3    3    0    0 -0.80484593878E+01  0.10709509698E+02  0.83018628351E+01  0.15760463930E+02  0.51100000000E-03 0. -1.
        -11    1    3    3    0    0 -0.61094570148E+01  0.18266316907E+01 -0.41793297646E+01  0.76242275603E+01  0.51100000000E-03 0.  1.
         12    1    3    3    0    0 -0.25206451754E+02 -0.85891416928E+01  0.52600298623E+01  0.27144179472E+02  0.00000000000E+00 0. -1.
</event>
<event>
 7    1  0.2937071E-011  0.5052886E+02  0.7816164E-02  0.1300439E+00
        -11   -1    0    0    0    0  0.00000000000E+00  0.00000000000E+00  0.45593999997E+02  0.45594000000E+02  0.51100000000E-03 0. -1.
         11   -1    0    0    0    0 -0.00000000000E+00 -0.00000000000E+00 -0.45593999997E+02  0.45594000000E+02  0.51100000000E-03 0.  1.
    9900012    2    1    2    0    0  0.30328858057E+02  0.10425306365E+02  0.24992784878E+02  0.50528856627E+02  0.29999990204E+02 0.  0.
        -12    1    1    2    0    0 -0.30328858057E+02 -0.10425306365E+02 -0.24992784878E+02  0.40659143373E+02  0.00000000000E+00 0.  1.
         11    1    3    3    0    0  0.20239235112E+02 -0.27409665799E+01  0.13224880565E+02  0.24331810494E+02  0.51100000000E-03 0. -1.
        -11    1    3    3    0    0  0.85410732168E+01  0.27411827299E+01 -0.16645864606E+01  0.91233142442E+01  0.51100000000E-03 0.  1.
        -12    1    3    3    0    0  0.15485497289E+01  0.10425090215E+02  0.13432490773E+02  0.17073731889E+02  0.00000000000E+00 0.  1.
</event>
<event>
 7    1  0.2937071E-011  0.5052886E+02  0.7816164E-02  0.1300439E+00
        -11   -1    0    0    0    0  0.00000000000E+00  0.00000000000E+00  0.45593999997E+02  0.45594000000E+02  0.51100000000E-03 0. -1.
         11   -1    0    0    0    0 -0.00000000000E+00 -0.00000000000E+00 -0.45593999997E+02  0.45594000000E+02  0.51100000000E-03 0.  1.
    9900012    2    1    2    0    0  0.15421190154E+02 -0.14104514649E+02  0.34877148755E+02  0.50528856569E+02  0.29999990028E+02 0.  0.
        -12    1    1    2    0    0 -0.15421190154E+02  0.14104514649E+02 -0.34877148755E+02  0.40659143431E+02  0.00000000000E+00 0.  1.
         11    1    3    3    0    0  0.60278626671E+01 -0.13225215470E+02  0.17969524306E+02  0.23111582736E+02  0.51100000000E-03 0. -1.
        -11    1    3    3    0    0  0.12566994543E+02  0.28858915815E+01  0.18220097133E+02  0.22321058709E+02  0.51100000000E-03 0.  1.
         12    1    3    3    0    0 -0.31736670556E+01 -0.37651907605E+01 -0.13124726842E+01  0.50962151240E+01  0.00000000000E+00 0. -1.
</event>
<event>
 7    1  0.2937071E-011  0.5052886E+02  0.7816164E-02  0.1300439E+00
        -11   -1    0    0    0    0  0.00000000000E+00  0.00000000000E+00  0.45593999997E+02  0.45594000000E+02  0.51100000000E-03 0.  1.
         11   -1    0    0    0    0 -0.00000000000E+00 -0.00000000000E+00 -0.45593999997E+02  0.45594000000E+02  0.51100000000E-03 0. -1.
    9900012    2    1    2    0    0  0.21156573936E+02 -0.17556416869E+02 -0.29955589385E+02  0.50528859215E+02  0.29999998069E+02 0.  0.
        -12    1    1    2    0    0 -0.21156573936E+02  0.17556416869E+02  0.29955589385E+02  0.40659140785E+02  0.00000000000E+00 0.  1.
         11    1    3    3    0    0  0.16681366751E+02 -0.36027296615E+01 -0.16207617313E+02  0.23535813496E+02  0.51100000000E-03 0. -1.
        -11    1    3    3    0    0 -0.50126743407E+01  0.13286299311E+01 -0.38754239080E+01  0.64738761393E+01  0.51100000000E-03 0.  1.
        -12    1    3    3    0    0  0.94878815260E+01 -0.15282317138E+02 -0.98725481637E+01  0.20519169579E+02  0.00000000000E+00 0.  1.
</event>
<event>
 7    1  0.2937071E-011  0.5052887E+02  0.7816164E-02  0.1300439E+00
        -11   -1    0    0    0    0  0.00000000000E+00  0.00000000000E+00  0.45593999997E+02  0.45594000000E+02  0.51100000000E-03 0.  1.
         11   -1    0    0    0    0 -0.00000000000E+00 -0.00000000000E+00 -0.45593999997E+02  0.45594000000E+02  0.51100000000E-03 0. -1.
    9900012    2    1    2    0    0 -0.30287172336E+02  0.21405407834E+02 -0.16663156321E+02  0.50528867309E+02  0.30000022672E+02 0.  0.
        -12    1    1    2    0    0  0.30287172336E+02 -0.21405407834E+02  0.16663156321E+02  0.40659132691E+02  0.00000000000E+00 0.  1.
         11    1    3    3    0    0 -0.43153660694E+01  0.30583887851E+01 -0.46325022052E+01  0.70310883379E+01  0.51100000000E-03 0.  1.
        -11    1    3    3    0    0 -0.27812741014E+02  0.57839990277E+01 -0.45760651668E+01  0.28774008760E+02  0.51100000000E-03 0. -1.
        -12    1    3    3    0    0  0.18409347481E+01  0.12563020022E+02 -0.74545889488E+01  0.14723770210E+02  0.00000000000E+00 0.  1.
</event>
<event>
 7    1  0.2937071E-011  0.5052889E+02  0.7816164E-02  0.1300439E+00
        -11   -1    0    0    0    0  0.00000000000E+00  0.00000000000E+00  0.45593999997E+02  0.45594000000E+02  0.51100000000E-03 0. -1.
         11   -1    0    0    0    0 -0.00000000000E+00 -0.00000000000E+00 -0.45593999997E+02  0.45594000000E+02  0.51100000000E-03 0.  1.
    9900012    2    1    2    0    0 -0.36861060842E+02  0.15165981173E+02  0.80261177650E+01  0.50528888381E+02  0.30000086721E+02 0.  0.
        -12    1    1    2    0    0  0.36861060842E+02 -0.15165981173E+02 -0.80261177650E+01  0.40659111619E+02  0.00000000000E+00 0.  1.
         11    1    3    3    0    0 -0.23368501281E+01 -0.26242046035E+01  0.69767634877E+01  0.78116929885E+01  0.51100000000E-03 0. -1.
        -11    1    3    3    0    0 -0.22321241257E+01 -0.31292708801E+01 -0.15701747722E+01  0.41521275787E+01  0.51100000000E-03 0.  1.
         12    1    3    3    0    0 -0.32292086588E+02  0.20919456657E+02  0.26195290495E+01  0.38565067813E+02  0.00000000000E+00 0. -1.
</event>
<event>
 7    1  0.2937071E-011  0.5052886E+02  0.7816164E-02  0.1300439E+00
        -11   -1    0    0    0    0  0.00000000000E+00  0.00000000000E+00  0.45593999997E+02  0.45594000000E+02  0.51100000000E-03 0.  1.
         11   -1    0    0    0    0 -0.00000000000E+00 -0.00000000000E+00 -0.45593999997E+02  0.45594000000E+02  0.51100000000E-03 0. -1.
    9900012    2    1    2    0    0 -0.57905249251E+01  0.40199425089E+02  0.19082546305E+01  0.50528863363E+02  0.30000010677E+02 0.  0.
        -12    1    1    2    0    0  0.57905249251E+01 -0.40199425089E+02 -0.19082546305E+01  0.40659136637E+02  0.00000000000E+00 0.  1.
         11    1    3    3    0    0 -0.73224123351E+01  0.16450244993E+02 -0.22291881147E+01  0.18143802321E+02  0.51100000000E-03 0. -1.
        -11    1    3    3    0    0 -0.53763057954E+01  0.21864416966E+02  0.84233172854E+01  0.24039751821E+02  0.51100000000E-03 0.  1.
        -12    1    3    3    0    0  0.69081932055E+01  0.18847631295E+01 -0.42858745402E+01  0.83453092209E+01  0.00000000000E+00 0.  1.
</event>
<event>
 7    1  0.2937071E-011  0.5052886E+02  0.7816164E-02  0.1300439E+00
        -11   -1    0    0    0    0  0.00000000000E+00  0.00000000000E+00  0.45593999997E+02  0.45594000000E+02  0.51100000000E-03 0.  1.
         11   -1    0    0    0    0 -0.00000000000E+00 -0.00000000000E+00 -0.45593999997E+02  0.45594000000E+02  0.51100000000E-03 0. -1.
    9900012    2    1    2    0    0  0.20633341020E+02  0.16329830840E+02 -0.30996252002E+02  0.50528858653E+02  0.29999996363E+02 0.  0.
        -12    1    1    2    0    0 -0.20633341020E+02 -0.16329830840E+02  0.30996252002E+02  0.40659141347E+02  0.00000000000E+00 0.  1.
         11    1    3    3    0    0  0.82691145857E+01  0.18995994270E+02 -0.17548709394E+02  0.27151118872E+02  0.51100000000E-03 0. -1.
        -11    1    3    3    0    0 -0.70396539336E+00 -0.40306219426E+01 -0.83233261949E+01  0.92746557741E+01  0.51100000000E-03 0.  1.
         12    1    3    3    0    0  0.13068191827E+02  0.13644585126E+01 -0.51242164126E+01  0.14103084007E+02  0.00000000000E+00 0. -1.
</event>
<event>
 7    1  0.2937071E-011  0.5052876E+02  0.7816164E-02  0.1300439E+00
        -11   -1    0    0    0    0  0.00000000000E+00  0.00000000000E+00  0.45593999997E+02  0.45594000000E+02  0.51100000000E-03 0.  1.
         11   -1    0    0    0    0 -0.00000000000E+00 -0.00000000000E+00 -0.45593999997E+02  0.45594000000E+02  0.51100000000E-03 0. -1.
    9900012    2    1    2    0    0  0.31814664530E+01 -0.28204776241E+02 -0.29112590702E+02  0.50528756660E+02  0.29999686343E+02 0.  0.
        -12    1    1    2    0    0 -0.31814664530E+01  0.28204776241E+02  0.29112590702E+02  0.40659243340E+02  0.00000000000E+00 0.  1.
         11    1    3    3    0    0 -0.13353465968E+01 -0.16639919794E+02 -0.15713198708E+01  0.16767203931E+02  0.51100000000E-03 0.  1.
        -11    1    3    3    0    0 -0.37390910808E+01 -0.87449132151E+01 -0.82541699871E+01  0.12593078722E+02  0.51100000000E-03 0. -1.
         12    1    3    3    0    0  0.82559041306E+01 -0.28199432322E+01 -0.19287100844E+02  0.21168474008E+02  0.00000000000E+00 0. -1.
</event>
<event>
 7    1  0.2937071E-011  0.5052886E+02  0.7816164E-02  0.1300439E+00
        -11   -1    0    0    0    0  0.00000000000E+00  0.00000000000E+00  0.45593999997E+02  0.45594000000E+02  0.51100000000E-03 0.  1.
         11   -1    0    0    0    0 -0.00000000000E+00 -0.00000000000E+00 -0.45593999997E+02  0.45594000000E+02  0.51100000000E-03 0. -1.
    9900012    2    1    2    0    0 -0.34919737733E+02 -0.20825352996E+02 -0.28635209869E+00  0.50528863164E+02  0.30000010072E+02 0.  0.
        -12    1    1    2    0    0  0.34919737733E+02  0.20825352996E+02  0.28635209869E+00  0.40659136836E+02  0.00000000000E+00 0.  1.
         11    1    3    3    0    0 -0.58344859452E+01  0.21606885098E+01  0.34343551057E+01  0.71066585913E+01  0.51100000000E-03 0. -1.
        -11    1    3    3    0    0 -0.41504441987E+01 -0.15391344979E+02  0.36108895603E+01  0.16344975099E+02  0.51100000000E-03 0.  1.
         12    1    3    3    0    0 -0.24934807589E+02 -0.75946965273E+01 -0.73315967646E+01  0.27077229473E+02  0.00000000000E+00 0. -1.
</event>
<event>
 7    1  0.2937071E-011  0.5052886E+02  0.7816164E-02  0.1300439E+00
        -11   -1    0    0    0    0  0.00000000000E+00  0.00000000000E+00  0.45593999997E+02  0.45594000000E+02  0.51100000000E-03 0.  1.
         11   -1    0    0    0    0 -0.00000000000E+00 -0.00000000000E+00 -0.45593999997E+02  0.45594000000E+02  0.51100000000E-03 0. -1.
    9900012    2    1    2    0    0 -0.58634600132E+01  0.43121617662E+01 -0.40002385919E+02  0.50528858572E+02  0.29999996117E+02 0.  0.
        -12    1    1    2    0    0  0.58634600132E+01 -0.43121617662E+01  0.40002385919E+02  0.40659141428E+02  0.00000000000E+00 0.  1.
         11    1    3    3    0    0 -0.66553546025E+01 -0.14775166713E+00 -0.94098358044E+00  0.67231708144E+01  0.51100000000E-03 0. -1.
        -11    1    3    3    0    0 -0.53630271873E+00  0.12070193272E+02 -0.22847018321E+02  0.25844988540E+02  0.51100000000E-03 0.  1.
        -12    1    3    3    0    0  0.13281973080E+01 -0.76102798389E+01 -0.16214384018E+02  0.17960699218E+02  0.00000000000E+00 0.  1.
</event>
<event>
 7    1  0.2937071E-011  0.5052888E+02  0.7816164E-02  0.1300439E+00
        -11   -1    0    0    0    0  0.00000000000E+00  0.00000000000E+00  0.45593999997E+02  0.45594000000E+02  0.51100000000E-03 0. -1.
         11   -1    0    0    0    0 -0.00000000000E+00 -0.00000000000E+00 -0.45593999997E+02  0.45594000000E+02  0.51100000000E-03 0.  1.
    9900012    2    1    2    0    0 -0.34008531311E+02  0.12621482588E+02 -0.18365249836E+02  0.50528875241E+02  0.30000046783E+02 0.  0.
        -12    1    1    2    0    0  0.34008531311E+02 -0.12621482588E+02  0.18365249836E+02  0.40659124759E+02  0.00000000000E+00 0.  1.
         11    1    3    3    0    0 -0.15263979510E+02  0.43462513665E+01 -0.10672296879E+02  0.19125294569E+02  0.51100000000E-03 0. -1.
        -11    1    3    3    0    0 -0.13247361501E+02  0.10217066138E+02 -0.14712512099E+02  0.22278667818E+02  0.51100000000E-03 0.  1.
         12    1    3    3    0    0 -0.54971902998E+01 -0.19418349166E+01  0.70195591428E+01  0.91249128541E+01  0.00000000000E+00 0. -1.
</event>
<event>
 7    1  0.2937071E-011  0.5052887E+02  0.7816164E-02  0.1300439E+00
        -11   -1    0    0    0    0  0.00000000000E+00  0.00000000000E+00  0.45593999997E+02  0.45594000000E+02  0.51100000000E-03 0.  1.
         11   -1    0    0    0    0 -0.00000000000E+00 -0.00000000000E+00 -0.45593999997E+02  0.45594000000E+02  0.51100000000E-03 0. -1.
    9900012    2    1    2    0    0  0.48683736793E+01 -0.10953755241E+02 -0.38852016052E+02  0.50528868584E+02  0.30000026548E+02 0.  0.
        -12    1    1    2    0    0 -0.48683736793E+01  0.10953755241E+02  0.38852016052E+02  0.40659131416E+02  0.00000000000E+00 0.  1.
         11    1    3    3    0    0 -0.73370074426E+01  0.40203394698E+01 -0.30178705361E+01  0.88939502190E+01  0.51100000000E-03 0. -1.
        -11    1    3    3    0    0  0.92119306884E+01 -0.44257710954E+01 -0.16537024683E+02  0.19440172387E+02  0.51100000000E-03 0.  1.
        -12    1    3    3    0    0  0.29934504335E+01 -0.10548323616E+02 -0.19297120833E+02  0.22194745979E+02  0.00000000000E+00 0.  1.
</event>
<event>
 7    1  0.2937071E-011  0.5052884E+02  0.7816164E-02  0.1300439E+00
        -11   -1    0    0    0    0  0.00000000000E+00  0.00000000000E+00  0.45593999997E+02  0.45594000000E+02  0.51100000000E-03 0. -1.
         11   -1    0    0    0    0 -0.00000000000E+00 -0.00000000000E+00 -0.45593999997E+02  0.45594000000E+02  0.51100000000E-03 0.  1.
    9900012    2    1    2    0    0  0.13621129327E+02 -0.21100722289E+02  0.31974857671E+02  0.50528841520E+02  0.29999944284E+02 0.  0.
        -12    1    1    2    0    0 -0.13621129327E+02  0.21100722289E+02 -0.31974857671E+02  0.40659158480E+02  0.00000000000E+00 0.  1.
         11    1    3    3    0    0  0.14282859667E+02 -0.18126956684E+02  0.11382043032E+02  0.25732033397E+02  0.51100000000E-03 0. -1.
        -11    1    3    3    0    0  0.44151073793E+01 -0.43539037937E+01  0.39735844068E+01  0.73647148427E+01  0.51100000000E-03 0.  1.
        -12    1    3    3    0    0 -0.50768377192E+01  0.13801381885E+01  0.16619230232E+02  0.17432093281E+02  0.00000000000E+00 0.  1.
</event>
<event>
 7    1  0.2937071E-011  0.5052886E+02  0.7816164E-02  0.1300439E+00
        -11   -1    0    0    0    0  0.00000000000E+00  0.00000000000E+00  0.45593999997E+02  0.45594000000E+02  0.51100000000E-03 0.  1.
         11   -1    0    0    0    0 -0.00000000000E+00 -0.00000000000E+00 -0.45593999997E+02  0.45594000000E+02  0.51100000000E-03 0. -1.
    9900012    2    1    2    0    0  0.10854927495E+02  0.33091678294E+02  0.20982772014E+02  0.50528863946E+02  0.30000012452E+02 0.  0.
        -12    1    1    2    0    0 -0.10854927495E+02 -0.33091678294E+02 -0.20982772014E+02  0.40659136054E+02  0.00000000000E+00 0.  1.
         11    1    3    3    0    0  0.12372602142E+00  0.21031135231E+02 -0.32026044045E+00  0.21033937440E+02  0.51100000000E-03 0. -1.
        -11    1    3    3    0    0  0.53593067770E+01  0.40208639506E+01  0.70081067853E+00  0.67365163035E+01  0.51100000000E-03 0.  1.
        -12    1    3    3    0    0  0.53718946966E+01  0.80396791128E+01  0.20602221776E+02  0.22758410203E+02  0.00000000000E+00 0.  1.
</event>
<event>
 7    1  0.2937071E-011  0.5052885E+02  0.7816164E-02  0.1300439E+00
        -11   -1    0    0    0    0  0.00000000000E+00  0.00000000000E+00  0.45593999997E+02  0.45594000000E+02  0.51100000000E-03 0.  1.
         11   -1    0    0    0    0 -0.00000000000E+00 -0.00000000000E+00 -0.45593999997E+02  0.45594000000E+02  0.51100000000E-03 0. -1.
    9900012    2    1    2    0    0  0.24677464117E+01  0.35974066721E+02 -0.18786778212E+02  0.50528852390E+02  0.29999977324E+02 0.  0.
        -12    1    1    2    0    0 -0.24677464117E+01 -0.35974066721E+02  0.18786778212E+02  0.40659147610E+02  0.00000000000E+00 0.  1.
         11    1    3    3    0    0 -0.64961970279E+01  0.25152567762E+02 -0.36882153445E+01  0.26238429327E+02  0.51100000000E-03 0. -1.
        -11    1    3    3    0    0 -0.52677348071E+00  0.58349358248E+00  0.20396692641E+01  0.21859108008E+01  0.51100000000E-03 0.  1.
         12    1    3    3    0    0  0.94907169203E+01  0.10238005376E+02 -0.17138232132E+02  0.22104512262E+02  0.00000000000E+00 0. -1.
</event>
<event>
 7    1  0.2937071E-011  0.5052886E+02  0.7816164E-02  0.1300439E+00
        -11   -1    0    0    0    0  0.00000000000E+00  0.00000000000E+00  0.45593999997E+02  0.45594000000E+02  0.51100000000E-03 0.  1.
         11   -1    0    0    0    0 -0.00000000000E+00 -0.00000000000E+00 -0.45593999997E+02  0.45594000000E+02  0.51100000000E-03 0. -1.
    9900012    2    1    2    0    0 -0.33021345941E+02 -0.13695070405E+02 -0.19370121003E+02  0.50528857992E+02  0.29999994353E+02 0.  0.
        -12    1    1    2    0    0  0.33021345941E+02  0.13695070405E+02  0.19370121003E+02  0.40659142008E+02  0.00000000000E+00 0.  1.
         11    1    3    3    0    0 -0.27667413407E+02 -0.10429710335E+01 -0.22795582783E+01  0.27780747640E+02  0.51100000000E-03 0. -1.
        -11    1    3    3    0    0 -0.10107387163E+01 -0.12596564416E+01  0.16103175756E+00  0.16230399230E+01  0.51100000000E-03 0.  1.
         12    1    3    3    0    0 -0.43431938168E+01 -0.11392442930E+02 -0.17251594483E+02  0.21125070429E+02  0.00000000000E+00 0. -1.
</event>
<event>
 7    1  0.2937071E-011  0.5052886E+02  0.7816164E-02  0.1300439E+00
        -11   -1    0    0    0    0  0.00000000000E+00  0.00000000000E+00  0.45593999997E+02  0.45594000000E+02  0.51100000000E-03 0.  1.
         11   -1    0    0    0    0 -0.00000000000E+00 -0.00000000000E+00 -0.45593999997E+02  0.45594000000E+02  0.51100000000E-03 0. -1.
    9900012    2    1    2    0    0  0.16054833434E+01 -0.97175286653E+01 -0.39448164058E+02  0.50528860958E+02  0.30000003367E+02 0.  0.
        -12    1    1    2    0    0 -0.16054833434E+01  0.97175286653E+01  0.39448164058E+02  0.40659139042E+02  0.00000000000E+00 0.  1.
         11    1    3    3    0    0 -0.26015954196E+00  0.66391140321E+01 -0.16856316690E+02  0.18118524518E+02  0.51100000000E-03 0. -1.
        -11    1    3    3    0    0 -0.29426667537E+01 -0.20188998221E+01  0.15759690935E+01  0.39011438015E+01  0.51100000000E-03 0.  1.
         12    1    3    3    0    0  0.48083096391E+01 -0.14337742875E+02 -0.24167816462E+02  0.28509192638E+02  0.00000000000E+00 0. -1.
</event>
<event>
 7    1  0.2937071E-011  0.5052886E+02  0.7816164E-02  0.1300439E+00
        -11   -1    0    0    0    0  0.00000000000E+00  0.00000000000E+00  0.45593999997E+02  0.45594000000E+02  0.51100000000E-03 0.  1.
         11   -1    0    0    0    0 -0.00000000000E+00 -0.00000000000E+00 -0.45593999997E+02  0.45594000000E+02  0.51100000000E-03 0. -1.
    9900012    2    1    2    0    0  0.82463671768E+01 -0.62134284517E+01 -0.39326281795E+02  0.50528859520E+02  0.29999998998E+02 0.  0.
        -12    1    1    2    0    0 -0.82463671768E+01  0.62134284517E+01  0.39326281795E+02  0.40659140480E+02  0.00000000000E+00 0.  1.
         11    1    3    3    0    0  0.54781437484E+01 -0.32514085670E+01 -0.23974608201E+02  0.24806522434E+02  0.51100000000E-03 0. -1.
        -11    1    3    3    0    0  0.79348610066E+01 -0.68507406048E+01 -0.16100559509E+02  0.19212565753E+02  0.51100000000E-03 0.  1.
        -12    1    3    3    0    0 -0.51666375781E+01  0.38887207200E+01  0.74888591602E+00  0.65097713337E+01  0.00000000000E+00 0.  1.
</event>
<event>
 7    1  0.2937071E-011  0.5052888E+02  0.7816164E-02  0.1300439E+00
        -11   -1    0    0    0    0  0.00000000000E+00  0.00000000000E+00  0.45593999997E+02  0.45594000000E+02  0.51100000000E-03 0. -1.
         11   -1    0    0    0    0 -0.00000000000E+00 -0.00000000000E+00 -0.45593999997E+02  0.45594000000E+02  0.51100000000E-03 0.  1.
    9900012    2    1    2    0    0 -0.27310403388E+02 -0.29406039722E+02  0.65261423031E+01  0.50528882465E+02  0.30000068741E+02 0.  0.
        -12    1    1    2    0    0  0.27310403388E+02  0.29406039722E+02 -0.65261423031E+01  0.40659117535E+02  0.00000000000E+00 0.  1.
         11    1    3    3    0    0 -0.82817127374E+00 -0.34668610360E+01 -0.53214338296E+01  0.64048927677E+01  0.51100000000E-03 0. -1.
        -11    1    3    3    0    0 -0.41542557566E+01 -0.10568010487E+02 -0.47832595770E+01  0.12321536389E+02  0.51100000000E-03 0.  1.
         12    1    3    3    0    0 -0.22327976358E+02 -0.15371168199E+02  0.16630835710E+02  0.31802453308E+02  0.00000000000E+00 0. -1.
</event>
<event>
 7    1  0.2937071E-011  0.5052886E+02  0.7816164E-02  0.1300439E+00
        -11   -1    0    0    0    0  0.00000000000E+00  0.00000000000E+00  0.45593999997E+02  0.45594000000E+02  0.51100000000E-03 0. -1.
         11   -1    0    0    0    0 -0.00000000000E+00 -0.00000000000E+00 -0.45593999997E+02  0.45594000000E+02  0.51100000000E-03 0.  1.
    9900012    2    1    2    0    0  0.12432056158E+02  0.14339244965E+01  0.38685312944E+02  0.50528860838E+02  0.30000003005E+02 0.  0.
        -12    1    1    2    0    0 -0.12432056158E+02 -0.14339244965E+01 -0.38685312944E+02  0.40659139162E+02  0.00000000000E+00 0.  1.
         11    1    3    3    0    0 -0.58607202620E+01 -0.27139244121E+01  0.10656158707E+02  0.12460623835E+02  0.51100000000E-03 0. -1.
        -11    1    3    3    0    0  0.82424645046E+01  0.45900172459E+00  0.25858812068E+02  0.27144558673E+02  0.51100000000E-03 0.  1.
        -12    1    3    3    0    0  0.10050311916E+02  0.36888471841E+01  0.21703421689E+01  0.10923678331E+02  0.00000000000E+00 0.  1.
</event>
<event>
 7    1  0.2937071E-011  0.5052886E+02  0.7816164E-02  0.1300439E+00
        -11   -1    0    0    0    0  0.00000000000E+00  0.00000000000E+00  0.45593999997E+02  0.45594000000E+02  0.51100000000E-03 0.  1.
         11   -1    0    0    0    0 -0.00000000000E+00 -0.00000000000E+00 -0.45593999997E+02  0.45594000000E+02  0.51100000000E-03 0. -1.
    9900012    2    1    2    0    0 -0.18693173992E+02 -0.29508678583E+02 -0.20807905568E+02  0.50528858350E+02  0.29999995439E+02 0.  0.
        -12    1    1    2    0    0  0.18693173992E+02  0.29508678583E+02  0.20807905568E+02  0.40659141650E+02  0.00000000000E+00 0.  1.
         11    1    3    3    0    0 -0.12458135948E+02 -0.58941501414E+01 -0.89711469585E+00  0.13811262514E+02  0.51100000000E-03 0.  1.
        -11    1    3    3    0    0 -0.62596259338E+01 -0.81099928938E+01 -0.18502254308E+02  0.21149191859E+02  0.51100000000E-03 0. -1.
         12    1    3    3    0    0  0.24587889165E-01 -0.15504535548E+02 -0.14085365638E+01  0.15568403976E+02  0.00000000000E+00 0. -1.
</event>
<event>
 7    1  0.2937071E-011  0.5052885E+02  0.7816164E-02  0.1300439E+00
        -11   -1    0    0    0    0  0.00000000000E+00  0.00000000000E+00  0.45593999997E+02  0.45594000000E+02  0.51100000000E-03 0.  1.
         11   -1    0    0    0    0 -0.00000000000E+00 -0.00000000000E+00 -0.45593999997E+02  0.45594000000E+02  0.51100000000E-03 0. -1.
    9900012    2    1    2    0    0 -0.38787580866E+02  0.76472160110E-01  0.12193613941E+02  0.50528849759E+02  0.29999969327E+02 0.  0.
        -12    1    1    2    0    0  0.38787580866E+02 -0.76472160110E-01 -0.12193613941E+02  0.40659150241E+02  0.00000000000E+00 0.  1.
         11    1    3    3    0    0 -0.30138459604E+02  0.10454207392E+02  0.78851130963E+01  0.32860191848E+02  0.51100000000E-03 0. -1.
        -11    1    3    3    0    0 -0.38289632688E+01  0.43719350981E+00  0.43719282417E+01  0.58280232232E+01  0.51100000000E-03 0.  1.
        -12    1    3    3    0    0 -0.48201579929E+01 -0.10814928742E+02 -0.63427397351E-01  0.11840634688E+02  0.00000000000E+00 0.  1.
</event>
<event>
 7    1  0.2937071E-011  0.5052887E+02  0.7816164E-02  0.1300439E+00
        -11   -1    0    0    0    0  0.00000000000E+00  0.00000000000E+00  0.45593999997E+02  0.45594000000E+02  0.51100000000E-03 0. -1.
         11   -1    0    0    0    0 -0.00000000000E+00 -0.00000000000E+00 -0.45593999997E+02  0.45594000000E+02  0.51100000000E-03 0.  1.
    9900012    2    1    2    0    0  0.37927603816E+02 -0.38899331519E+01  0.14125507782E+02  0.50528872105E+02  0.30000037249E+02 0.  0.
        -12    1    1    2    0    0 -0.37927603816E+02  0.38899331519E+01 -0.14125507782E+02  0.40659127895E+02  0.00000000000E+00 0.  1.
         11    1    3    3    0    0  0.23454498836E+02 -0.91891597805E+01  0.10839467938E+02  0.27423497927E+02  0.51100000000E-03 0.  1.
        -11    1    3    3    0    0  0.46188544272E+01  0.19029105280E+01  0.96689330360E+01  0.10883159055E+02  0.51100000000E-03 0. -1.
        -12    1    3    3    0    0  0.98542505525E+01  0.33963161006E+01 -0.63828931919E+01  0.12222215123E+02  0.00000000000E+00 0.  1.
</event>
<event>
 7    1  0.3107359E-011  0.5052886E+02  0.7816164E-02  0.1300439E+00
        -11   -1    0    0    0    0  0.00000000000E+00  0.00000000000E+00  0.45593999997E+02  0.45594000000E+02  0.51100000000E-03 0.  1.
         11   -1    0    0    0    0 -0.00000000000E+00 -0.00000000000E+00 -0.45593999997E+02  0.45594000000E+02  0.51100000000E-03 0. -1.
    9900012    2    1    2    0    0  0.36582098120E+02 -0.68467246026E+01 -0.16371879247E+02  0.50528856247E+02  0.29999989048E+02 0.  0.
        -12    1    1    2    0    0 -0.36582098120E+02  0.68467246026E+01  0.16371879247E+02  0.40659143753E+02  0.00000000000E+00 0.  1.
         11    1    3    3    0    0  0.15367607591E+02 -0.27624570502E+01 -0.84950402770E+01  0.17775270507E+02  0.51100000000E-03 0. -1.
        -11    1    3    3    0    0  0.11395580092E+02 -0.61044879237E+01 -0.15482686306E+02  0.20170215516E+02  0.51100000000E-03 0.  1.
        -12    1    3    3    0    0  0.98189104372E+01  0.20202203713E+01  0.76058473353E+01  0.12583370225E+02  0.00000000000E+00 0.  1.
</event>
<event>
 7    1  0.2937071E-011  0.5052887E+02  0.7816164E-02  0.1300439E+00
        -11   -1    0    0    0    0  0.00000000000E+00  0.00000000000E+00  0.45593999997E+02  0.45594000000E+02  0.51100000000E-03 0.  1.
         11   -1    0    0    0    0 -0.00000000000E+00 -0.00000000000E+00 -0.45593999997E+02  0.45594000000E+02  0.51100000000E-03 0. -1.
    9900012    2    1    2    0    0  0.18386938812E+02 -0.19608480645E+02 -0.30505624662E+02  0.50528866117E+02  0.30000019048E+02 0.  0.
        -12    1    1    2    0    0 -0.18386938812E+02  0.19608480645E+02  0.30505624662E+02  0.40659133883E+02  0.00000000000E+00 0.  1.
         11    1    3    3    0    0 -0.79598099025E+00 -0.92734430010E+01  0.19357734007E+01  0.95067107745E+01  0.51100000000E-03 0. -1.
        -11    1    3    3    0    0  0.28037703621E+01 -0.17180980361E+01  0.41239244177E+00  0.33140695364E+01  0.51100000000E-03 0.  1.
         12    1    3    3    0    0  0.16379149440E+02 -0.86169396083E+01 -0.32853790505E+02  0.37708085806E+02  0.00000000000E+00 0. -1.
</event>
<event>
 7    1  0.2937071E-011  0.5052886E+02  0.7816164E-02  0.1300439E+00
        -11   -1    0    0    0    0  0.00000000000E+00  0.00000000000E+00  0.45593999997E+02  0.45594000000E+02  0.51100000000E-03 0.  1.
         11   -1    0    0    0    0 -0.00000000000E+00 -0.00000000000E+00 -0.45593999997E+02  0.45594000000E+02  0.51100000000E-03 0. -1.
    9900012    2    1    2    0    0 -0.73417213391E+01 -0.14729154285E+02 -0.37179521055E+02  0.50528860264E+02  0.30000001259E+02 0.  0.
        -12    1    1    2    0    0  0.73417213391E+01  0.14729154285E+02  0.37179521055E+02  0.40659139736E+02  0.00000000000E+00 0.  1.
         11    1    3    3    0    0 -0.28857266615E+01 -0.60706019281E+01 -0.10604185045E+01  0.68047126170E+01  0.51100000000E-03 0.  1.
        -11    1    3    3    0    0 -0.79212151963E+01 -0.30159580256E+01 -0.16630017803E+01  0.86375475791E+01  0.51100000000E-03 0. -1.
         12    1    3    3    0    0  0.34652205188E+01 -0.56425943315E+01 -0.34456100770E+02  0.35086600068E+02  0.00000000000E+00 0. -1.
</event>
<event>
 7    1  0.2937071E-011  0.5052886E+02  0.7816164E-02  0.1300439E+00
        -11   -1    0    0    0    0  0.00000000000E+00  0.00000000000E+00  0.45593999997E+02  0.45594000000E+02  0.51100000000E-03 0.  1.
         11   -1    0    0    0    0 -0.00000000000E+00 -0.00000000000E+00 -0.45593999997E+02  0.45594000000E+02  0.51100000000E-03 0. -1.
    9900012    2    1    2    0    0 -0.10014526464E+02  0.32693112817E+02 -0.22000806531E+02  0.50528857683E+02  0.29999993412E+02 0.  0.
        -12    1    1    2    0    0  0.10014526464E+02 -0.32693112817E+02  0.22000806531E+02  0.40659142317E+02  0.00000000000E+00 0.  1.
         11    1    3    3    0    0  0.10154146986E+00  0.86811085739E+01 -0.89812665464E+01  0.12491401274E+02  0.51100000000E-03 0. -1.
        -11    1    3    3    0    0 -0.40830691382E+01  0.96665218889E+01 -0.18722765381E+02  0.21462875921E+02  0.51100000000E-03 0.  1.
        -12    1    3    3    0    0 -0.60329987955E+01  0.14345482354E+02  0.57032253963E+01  0.16574580488E+02  0.00000000000E+00 0.  1.
</event>
<event>
 7    1  0.2937071E-011  0.5052884E+02  0.7816164E-02  0.1300439E+00
        -11   -1    0    0    0    0  0.00000000000E+00  0.00000000000E+00  0.45593999997E+02  0.45594000000E+02  0.51100000000E-03 0. -1.
         11   -1    0    0    0    0 -0.00000000000E+00 -0.00000000000E+00 -0.45593999997E+02  0.45594000000E+02  0.51100000000E-03 0.  1.
    9900012    2    1    2    0    0 -0.33442436455E+02 -0.20264934465E+02  0.11140142172E+02  0.50528844911E+02  0.29999954592E+02 0.  0.
        -12    1    1    2    0    0  0.33442436455E+02  0.20264934465E+02 -0.11140142172E+02  0.40659155089E+02  0.00000000000E+00 0.  1.
         11    1    3    3    0    0 -0.12440615556E+02 -0.82510979496E+01  0.44871296360E+01  0.15587939742E+02  0.51100000000E-03 0. -1.
        -11    1    3    3    0    0 -0.18892760589E+02 -0.12345545872E+02 -0.49816092953E+01  0.23112017155E+02  0.51100000000E-03 0.  1.
         12    1    3    3    0    0 -0.21090603104E+01  0.33170935680E+00  0.11634621831E+02  0.11828888014E+02  0.00000000000E+00 0. -1.
</event>
<event>
 7    1  0.2937071E-011  0.5052886E+02  0.7816164E-02  0.1300439E+00
        -11   -1    0    0    0    0  0.00000000000E+00  0.00000000000E+00  0.45593999997E+02  0.45594000000E+02  0.51100000000E-03 0. -1.
         11   -1    0    0    0    0 -0.00000000000E+00 -0.00000000000E+00 -0.45593999997E+02  0.45594000000E+02  0.51100000000E-03 0.  1.
    9900012    2    1    2    0    0  0.37583870813E+02 -0.15474159128E+02  0.10811666939E+01  0.50528857517E+02  0.29999992909E+02 0.  0.
        -12    1    1    2    0    0 -0.37583870813E+02  0.15474159128E+02 -0.10811666939E+01  0.40659142483E+02  0.00000000000E+00 0.  1.
         11    1    3    3    0    0 -0.24795460697E+00 -0.36233419431E+01  0.47563083873E+01  0.59843594527E+01  0.51100000000E-03 0. -1.
        -11    1    3    3    0    0  0.58553701790E+01  0.23769663946E+01  0.54837786853E+01  0.83670280330E+01  0.51100000000E-03 0.  1.
         12    1    3    3    0    0  0.31976455241E+02 -0.14227783579E+02 -0.91589203787E+01  0.36177470031E+02  0.00000000000E+00 0. -1.
</event>
<event>
 7    1  0.2937071E-011  0.5052886E+02  0.7816164E-02  0.1300439E+00
        -11   -1    0    0    0    0  0.00000000000E+00  0.00000000000E+00  0.45593999997E+02  0.45594000000E+02  0.51100000000E-03 0.  1.
         11   -1    0    0    0    0 -0.00000000000E+00 -0.00000000000E+00 -0.45593999997E+02  0.45594000000E+02  0.51100000000E-03 0. -1.
    9900012    2    1    2    0    0 -0.28769361692E+02  0.10480324921E+02 -0.26751681121E+02  0.50528858034E+02  0.29999994481E+02 0.  0.
        -12    1    1    2    0    0  0.28769361692E+02 -0.10480324921E+02  0.26751681121E+02  0.40659141966E+02  0.00000000000E+00 0.  1.
         11    1    3    3    0    0 -0.72257200719E+01  0.12234055436E+02 -0.83076124322E+01  0.16459026932E+02  0.51100000000E-03 0. -1.
        -11    1    3    3    0    0 -0.15305696917E+02 -0.27173423661E+01 -0.10666576217E+01  0.15581593834E+02  0.51100000000E-03 0.  1.
         12    1    3    3    0    0 -0.62379447027E+01  0.96361185151E+00 -0.17377411067E+02  0.18488237269E+02  0.00000000000E+00 0. -1.
</event>
<event>
 7    1  0.2937071E-011  0.5052886E+02  0.7816164E-02  0.1300439E+00
        -11   -1    0    0    0    0  0.00000000000E+00  0.00000000000E+00  0.45593999997E+02  0.45594000000E+02  0.51100000000E-03 0.  1.
         11   -1    0    0    0    0 -0.00000000000E+00 -0.00000000000E+00 -0.45593999997E+02  0.45594000000E+02  0.51100000000E-03 0. -1.
    9900012    2    1    2    0    0 -0.16314028449E+02 -0.36296309236E+02  0.83424129714E+01  0.50528862741E+02  0.30000008788E+02 0.  0.
        -12    1    1    2    0    0  0.16314028449E+02  0.36296309236E+02 -0.83424129714E+01  0.40659137259E+02  0.00000000000E+00 0.  1.
         11    1    3    3    0    0 -0.17158053911E+02 -0.17063713766E+02  0.12396504638E+02  0.27189013756E+02  0.51100000000E-03 0. -1.
        -11    1    3    3    0    0 -0.49722170366E+01 -0.80045321811E+01  0.14766624059E+01  0.95381345042E+01  0.51100000000E-03 0.  1.
        -12    1    3    3    0    0  0.58162424978E+01 -0.11228063289E+02 -0.55307540727E+01  0.13801714481E+02  0.00000000000E+00 0.  1.
</event>
<event>
 7    1  0.2937071E-011  0.5052892E+02  0.7816164E-02  0.1300439E+00
        -11   -1    0    0    0    0  0.00000000000E+00  0.00000000000E+00  0.45593999997E+02  0.45594000000E+02  0.51100000000E-03 0. -1.
         11   -1    0    0    0    0 -0.00000000000E+00 -0.00000000000E+00 -0.45593999997E+02  0.45594000000E+02  0.51100000000E-03 0.  1.
    9900012    2    1    2    0    0  0.18193354020E+02  0.35095690618E+02  0.95108119008E+01  0.50528915241E+02  0.30000168366E+02 0.  0.
        -12    1    1    2    0    0 -0.18193354020E+02 -0.35095690618E+02 -0.95108119008E+01  0.40659084759E+02  0.00000000000E+00 0.  1.
         11    1    3    3    0    0  0.78726990543E+01  0.38230659941E+01 -0.63119786375E+01  0.10790565258E+02  0.51100000000E-03 0. -1.
        -11    1    3    3    0    0 -0.76913279419E+00 -0.15867825690E+01  0.95552979635E+00  0.20056125322E+01  0.51100000000E-03 0.  1.
         12    1    3    3    0    0  0.11089787760E+02  0.32859407192E+02  0.14867260742E+02  0.37732737451E+02  0.00000000000E+00 0. -1.
</event>
<event>
 7    1  0.2937071E-011  0.5052886E+02  0.7816164E-02  0.1300439E+00
        -11   -1    0    0    0    0  0.00000000000E+00  0.00000000000E+00  0.45593999997E+02  0.45594000000E+02  0.51100000000E-03 0.  1.
         11   -1    0    0    0    0 -0.00000000000E+00 -0.00000000000E+00 -0.45593999997E+02  0.45594000000E+02  0.51100000000E-03 0. -1.
    9900012    2    1    2    0    0 -0.23401469999E+02 -0.28803323223E+02 -0.16610391388E+02  0.50528864141E+02  0.30000013042E+02 0.  0.
        -12    1    1    2    0    0  0.23401469999E+02  0.28803323223E+02  0.16610391388E+02  0.40659135859E+02  0.00000000000E+00 0.  1.
         11    1    3    3    0    0 -0.15131845469E+02 -0.78105802370E+01  0.39507031339E+00  0.17033320045E+02  0.51100000000E-03 0. -1.
        -11    1    3    3    0    0 -0.64931742983E+01 -0.28986586279E+01  0.18034151024E+01  0.73359280668E+01  0.51100000000E-03 0.  1.
         12    1    3    3    0    0 -0.17764502316E+01 -0.18094084358E+02 -0.18808876803E+02  0.26159616029E+02  0.00000000000E+00 0. -1.
</event>
<event>
 7    1  0.2937071E-011  0.5052886E+02  0.7816164E-02  0.1300439E+00
        -11   -1    0    0    0    0  0.00000000000E+00  0.00000000000E+00  0.45593999997E+02  0.45594000000E+02  0.51100000000E-03 0. -1.
         11   -1    0    0    0    0 -0.00000000000E+00 -0.00000000000E+00 -0.45593999997E+02  0.45594000000E+02  0.51100000000E-03 0.  1.
    9900012    2    1    2    0    0 -0.36306043811E+02 -0.18051468670E+02  0.30301030127E+01  0.50528857576E+02  0.29999993089E+02 0.  0.
        -12    1    1    2    0    0  0.36306043811E+02  0.18051468670E+02 -0.30301030127E+01  0.40659142424E+02  0.00000000000E+00 0.  1.
         11    1    3    3    0    0 -0.19657733015E+02 -0.14438820235E+02  0.12224887667E+02  0.27282849481E+02  0.51100000000E-03 0. -1.
        -11    1    3    3    0    0 -0.17241183287E+01 -0.14011730003E+01  0.30790286280E+01  0.37968786314E+01  0.51100000000E-03 0.  1.
         12    1    3    3    0    0 -0.14924192467E+02 -0.22114754343E+01 -0.12273813282E+02  0.19449129464E+02  0.00000000000E+00 0. -1.
</event>
<event>
 7    1  0.2937071E-011  0.5052886E+02  0.7816164E-02  0.1300439E+00
        -11   -1    0    0    0    0  0.00000000000E+00  0.00000000000E+00  0.45593999997E+02  0.45594000000E+02  0.51100000000E-03 0.  1.
         11   -1    0    0    0    0 -0.00000000000E+00 -0.00000000000E+00 -0.45593999997E+02  0.45594000000E+02  0.51100000000E-03 0. -1.
    9900012    2    1    2    0    0  0.10849171697E+02 -0.30969307314E+02  0.24007562461E+02  0.50528861084E+02  0.30000003752E+02 0.  0.
        -12    1    1    2    0    0 -0.10849171697E+02  0.30969307314E+02 -0.24007562461E+02  0.40659138916E+02  0.00000000000E+00 0.  1.
         11    1    3    3    0    0  0.37553533139E+01 -0.70288547123E+01  0.54708864069E+01  0.96663372286E+01  0.51100000000E-03 0. -1.
        -11    1    3    3    0    0  0.87706853132E+01 -0.10875247933E+02  0.23037066312E+02  0.26942575285E+02  0.51100000000E-03 0.  1.
        -12    1    3    3    0    0 -0.16768669303E+01 -0.13065204668E+02 -0.45003902580E+01  0.13919948570E+02  0.00000000000E+00 0.  1.
</event>
<event>
 7    1  0.2937071E-011  0.5052886E+02  0.7816164E-02  0.1300439E+00
        -11   -1    0    0    0    0  0.00000000000E+00  0.00000000000E+00  0.45593999997E+02  0.45594000000E+02  0.51100000000E-03 0. -1.
         11   -1    0    0    0    0 -0.00000000000E+00 -0.00000000000E+00 -0.45593999997E+02  0.45594000000E+02  0.51100000000E-03 0.  1.
    9900012    2    1    2    0    0  0.39298048705E+02  0.21353646723E+01 -0.10211241093E+02  0.50528857622E+02  0.29999993227E+02 0.  0.
        -12    1    1    2    0    0 -0.39298048705E+02 -0.21353646723E+01  0.10211241093E+02  0.40659142378E+02  0.00000000000E+00 0.  1.
         11    1    3    3    0    0  0.47754326383E+01 -0.22835709359E+01 -0.14755561879E+01  0.54951541768E+01  0.51100000000E-03 0. -1.
        -11    1    3    3    0    0  0.27741732178E+02 -0.43007638143E+01 -0.15513135447E+02  0.32074252061E+02  0.51100000000E-03 0.  1.
         12    1    3    3    0    0  0.67808838881E+01  0.87196994225E+01  0.67774505413E+01  0.12959451384E+02  0.00000000000E+00 0. -1.
</event>
<event>
 7    1  0.2937071E-011  0.5052886E+02  0.7816164E-02  0.1300439E+00
        -11   -1    0    0    0    0  0.00000000000E+00  0.00000000000E+00  0.45593999997E+02  0.45594000000E+02  0.51100000000E-03 0.  1.
         11   -1    0    0    0    0 -0.00000000000E+00 -0.00000000000E+00 -0.45593999997E+02  0.45594000000E+02  0.51100000000E-03 0. -1.
    9900012    2    1    2    0    0 -0.16263389358E+02 -0.87575630011E+01 -0.36221167787E+02  0.50528859097E+02  0.29999997711E+02 0.  0.
        -12    1    1    2    0    0  0.16263389358E+02  0.87575630011E+01  0.36221167787E+02  0.40659140903E+02  0.00000000000E+00 0.  1.
         11    1    3    3    0    0 -0.12895017719E+02 -0.56230445417E+01 -0.21884968679E+02  0.26016378807E+02  0.51100000000E-03 0. -1.
        -11    1    3    3    0    0 -0.11468879696E+02 -0.17744917631E+01 -0.74201226783E+01  0.13774695761E+02  0.51100000000E-03 0.  1.
         12    1    3    3    0    0  0.81005080570E+01 -0.13600266963E+01 -0.69160764291E+01  0.10737784528E+02  0.00000000000E+00 0. -1.
</event>
<event>
 7    1  0.2937071E-011  0.5052885E+02  0.7816164E-02  0.1300439E+00
        -11   -1    0    0    0    0  0.00000000000E+00  0.00000000000E+00  0.45593999997E+02  0.45594000000E+02  0.51100000000E-03 0.  1.
         11   -1    0    0    0    0 -0.00000000000E+00 -0.00000000000E+00 -0.45593999997E+02  0.45594000000E+02  0.51100000000E-03 0. -1.
    9900012    2    1    2    0    0  0.15399073708E+02  0.10787827538E+02 -0.36050763358E+02  0.50528853024E+02  0.29999979253E+02 0.  0.
        -12    1    1    2    0    0 -0.15399073708E+02 -0.10787827538E+02  0.36050763358E+02  0.40659146976E+02  0.00000000000E+00 0.  1.
         11    1    3    3    0    0  0.98790707761E+01 -0.37383495315E-01  0.51548036866E+00  0.98925809169E+01  0.51100000000E-03 0. -1.
        -11    1    3    3    0    0  0.58455292156E+00 -0.24896539307E+01 -0.19354386557E+01  0.32071797367E+01  0.51100000000E-03 0.  1.
         12    1    3    3    0    0  0.49354500103E+01  0.13314864964E+02 -0.34630805071E+02  0.37429092371E+02  0.00000000000E+00 0. -1.
</event>
<event>
 7    1  0.2937071E-011  0.5052881E+02  0.7816164E-02  0.1300439E+00
        -11   -1    0    0    0    0  0.00000000000E+00  0.00000000000E+00  0.45593999997E+02  0.45594000000E+02  0.51100000000E-03 0.  1.
         11   -1    0    0    0    0 -0.00000000000E+00 -0.00000000000E+00 -0.45593999997E+02  0.45594000000E+02  0.51100000000E-03 0. -1.
    9900012    2    1    2    0    0  0.32210579846E+02 -0.19084559125E+02 -0.15856472739E+02  0.50528811878E+02  0.29999854184E+02 0.  0.
        -12    1    1    2    0    0 -0.32210579846E+02  0.19084559125E+02  0.15856472739E+02  0.40659188122E+02  0.00000000000E+00 0.  1.
         11    1    3    3    0    0 -0.47137316281E+01 -0.48553657187E+01 -0.38147670972E+01  0.77682874813E+01  0.51100000000E-03 0. -1.
        -11    1    3    3    0    0  0.79533153454E+01 -0.56051959074E+01 -0.72989058917E+01  0.12163366048E+02  0.51100000000E-03 0.  1.
        -12    1    3    3    0    0  0.28970996129E+02 -0.86239974985E+01 -0.47427997503E+01  0.30597158349E+02  0.00000000000E+00 0.  1.
</event>
<event>
 7    1  0.2937071E-011  0.5052888E+02  0.7816164E-02  0.1300439E+00
        -11   -1    0    0    0    0  0.00000000000E+00  0.00000000000E+00  0.45593999997E+02  0.45594000000E+02  0.51100000000E-03 0. -1.
         11   -1    0    0    0    0 -0.00000000000E+00 -0.00000000000E+00 -0.45593999997E+02  0.45594000000E+02  0.51100000000E-03 0.  1.
    9900012    2    1    2    0    0  0.73755764890E+01  0.22368646380E+02  0.33142241690E+02  0.50528884741E+02  0.30000075658E+02 0.  0.
        -12    1    1    2    0    0 -0.73755764890E+01 -0.22368646380E+02 -0.33142241690E+02  0.40659115259E+02  0.00000000000E+00 0.  1.
         11    1    3    3    0    0  0.58809556183E+00  0.64483875625E+01  0.55915026720E+01  0.85552592560E+01  0.51100000000E-03 0. -1.
        -11    1    3    3    0    0 -0.11055050506E+01  0.12699589484E+02 -0.39787242854E+00  0.12753823631E+02  0.51100000000E-03 0.  1.
        -12    1    3    3    0    0  0.78929859778E+01  0.32206693340E+01  0.27948611447E+02  0.29219801854E+02  0.00000000000E+00 0.  1.
</event>
<event>
 7    1  0.2937071E-011  0.5052885E+02  0.7816164E-02  0.1300439E+00
        -11   -1    0    0    0    0  0.00000000000E+00  0.00000000000E+00  0.45593999997E+02  0.45594000000E+02  0.51100000000E-03 0. -1.
         11   -1    0    0    0    0 -0.00000000000E+00 -0.00000000000E+00 -0.45593999997E+02  0.45594000000E+02  0.51100000000E-03 0.  1.
    9900012    2    1    2    0    0 -0.33333030721E+02 -0.84204436261E+01  0.21706494026E+02  0.50528847391E+02  0.29999962131E+02 0.  0.
        -12    1    1    2    0    0  0.33333030721E+02  0.84204436261E+01 -0.21706494026E+02  0.40659152609E+02  0.00000000000E+00 0.  1.
         11    1    3    3    0    0 -0.80679131554E+00 -0.29968767642E+01 -0.11015172889E+01  0.32932541909E+01  0.51100000000E-03 0. -1.
        -11    1    3    3    0    0 -0.34010412126E+01  0.52417006234E+01 -0.29578061618E+01  0.69131124905E+01  0.51100000000E-03 0.  1.
         12    1    3    3    0    0 -0.29125198193E+02 -0.10665267485E+02  0.25765817477E+02  0.40322480710E+02  0.00000000000E+00 0. -1.
</event>
<event>
 7    1  0.2937071E-011  0.5052886E+02  0.7816164E-02  0.1300439E+00
        -11   -1    0    0    0    0  0.00000000000E+00  0.00000000000E+00  0.45593999997E+02  0.45594000000E+02  0.51100000000E-03 0.  1.
         11   -1    0    0    0    0 -0.00000000000E+00 -0.00000000000E+00 -0.45593999997E+02  0.45594000000E+02  0.51100000000E-03 0. -1.
    9900012    2    1    2    0    0  0.28288339487E+02  0.11671933607E+02 -0.26771284505E+02  0.50528857620E+02  0.29999993221E+02 0.  0.
        -12    1    1    2    0    0 -0.28288339487E+02 -0.11671933607E+02  0.26771284505E+02  0.40659142380E+02  0.00000000000E+00 0.  1.
         11    1    3    3    0    0  0.20577953320E+01 -0.25574363364E+01 -0.81598441094E+01  0.87953429947E+01  0.51100000000E-03 0. -1.
        -11    1    3    3    0    0  0.12641664184E+02  0.37724802527E+01 -0.20610186558E+02  0.24470861669E+02  0.51100000000E-03 0.  1.
        -12    1    3    3    0    0  0.13588879971E+02  0.10456889691E+02  0.19987461627E+01  0.17262652956E+02  0.00000000000E+00 0.  1.
</event>
<event>
 7    1  0.2937071E-011  0.5052886E+02  0.7816164E-02  0.1300439E+00
        -11   -1    0    0    0    0  0.00000000000E+00  0.00000000000E+00  0.45593999997E+02  0.45594000000E+02  0.51100000000E-03 0. -1.
         11   -1    0    0    0    0 -0.00000000000E+00 -0.00000000000E+00 -0.45593999997E+02  0.45594000000E+02  0.51100000000E-03 0.  1.
    9900012    2    1    2    0    0 -0.28572622934E+02 -0.27728107014E+01  0.28793794910E+02  0.50528857290E+02  0.29999992220E+02 0.  0.
        -12    1    1    2    0    0  0.28572622934E+02  0.27728107014E+01 -0.28793794910E+02  0.40659142710E+02  0.00000000000E+00 0.  1.
         11    1    3    3    0    0 -0.49882945834E+01  0.11444652814E+01  0.18327850042E+02  0.19029003417E+02  0.51100000000E-03 0. -1.
        -11    1    3    3    0    0 -0.22216325306E+01 -0.74458338787E+01  0.47457681156E+01  0.91048563151E+01  0.51100000000E-03 0.  1.
         12    1    3    3    0    0 -0.21362695820E+02  0.35285578959E+01  0.57201767527E+01  0.22394997558E+02  0.00000000000E+00 0. -1.
</event>
<event>
 7    1  0.2937071E-011  0.5052885E+02  0.7816164E-02  0.1300439E+00
        -11   -1    0    0    0    0  0.00000000000E+00  0.00000000000E+00  0.45593999997E+02  0.45594000000E+02  0.51100000000E-03 0.  1.
         11   -1    0    0    0    0 -0.00000000000E+00 -0.00000000000E+00 -0.45593999997E+02  0.45594000000E+02  0.51100000000E-03 0. -1.
    9900012    2    1    2    0    0 -0.10860034798E+02  0.22949716687E+02 -0.31757465435E+02  0.50528850197E+02  0.29999970660E+02 0.  0.
        -12    1    1    2    0    0  0.10860034798E+02 -0.22949716687E+02  0.31757465435E+02  0.40659149803E+02  0.00000000000E+00 0.  1.
         11    1    3    3    0    0 -0.50941074123E+01 -0.20284945763E+00 -0.18646966623E+01  0.54284594624E+01  0.51100000000E-03 0. -1.
        -11    1    3    3    0    0  0.90404571734E+00 -0.27053908945E+01  0.20149911669E+01  0.34923671363E+01  0.51100000000E-03 0.  1.
        -12    1    3    3    0    0 -0.66699731033E+01  0.25857957039E+02 -0.31907759939E+02  0.41608023599E+02  0.00000000000E+00 0.  1.
</event>
<event>
 7    1  0.2937071E-011  0.5052886E+02  0.7816164E-02  0.1300439E+00
        -11   -1    0    0    0    0  0.00000000000E+00  0.00000000000E+00  0.45593999997E+02  0.45594000000E+02  0.51100000000E-03 0. -1.
         11   -1    0    0    0    0 -0.00000000000E+00 -0.00000000000E+00 -0.45593999997E+02  0.45594000000E+02  0.51100000000E-03 0.  1.
    9900012    2    1    2    0    0 -0.16866537625E+02 -0.33298939091E+02  0.16120366904E+02  0.50528860004E+02  0.30000000469E+02 0.  0.
        -12    1    1    2    0    0  0.16866537625E+02  0.33298939091E+02 -0.16120366904E+02  0.40659139996E+02  0.00000000000E+00 0.  1.
         11    1    3    3    0    0 -0.39953450610E+01 -0.31569325154E+01 -0.55499878795E+01  0.75320230208E+01  0.51100000000E-03 0. -1.
        -11    1    3    3    0    0 -0.65462511561E+01 -0.13460270799E+02  0.52266483390E-01  0.14967799646E+02  0.51100000000E-03 0.  1.
         12    1    3    3    0    0 -0.63249414084E+01 -0.16681735777E+02  0.21618088300E+02  0.28029037338E+02  0.00000000000E+00 0. -1.
</event>
<event>
 7    1  0.2937071E-011  0.5052886E+02  0.7816164E-02  0.1300439E+00
        -11   -1    0    0    0    0  0.00000000000E+00  0.00000000000E+00  0.45593999997E+02  0.45594000000E+02  0.51100000000E-03 0.  1.
         11   -1    0    0    0    0 -0.00000000000E+00 -0.00000000000E+00 -0.45593999997E+02  0.45594000000E+02  0.51100000000E-03 0. -1.
    9900012    2    1    2    0    0 -0.18908508091E+02  0.35541086991E+02  0.56977851638E+01  0.50528864513E+02  0.30000014175E+02 0.  0.
        -12    1    1    2    0    0  0.18908508091E+02 -0.35541086991E+02 -0.56977851638E+01  0.40659135487E+02  0.00000000000E+00 0.  1.
         11    1    3    3    0    0 -0.76819513816E+01  0.15033449713E+01 -0.19568540816E+01  0.80685625293E+01  0.51100000000E-03 0. -1.
        -11    1    3    3    0    0  0.30973268452E+01 -0.11710661273E+01 -0.10338791089E+01  0.34689675313E+01  0.51100000000E-03 0.  1.
         12    1    3    3    0    0 -0.14323883555E+02  0.35208808147E+02  0.86885183543E+01  0.38991334453E+02  0.00000000000E+00 0. -1.
</event>
<event>
 7    1  0.2937071E-011  0.5052886E+02  0.7816164E-02  0.1300439E+00
        -11   -1    0    0    0    0  0.00000000000E+00  0.00000000000E+00  0.45593999997E+02  0.45594000000E+02  0.51100000000E-03 0. -1.
         11   -1    0    0    0    0 -0.00000000000E+00 -0.00000000000E+00 -0.45593999997E+02  0.45594000000E+02  0.51100000000E-03 0.  1.
    9900012    2    1    2    0    0  0.40400201425E+02  0.43886257447E+01  0.13150986732E+01  0.50528858401E+02  0.29999995595E+02 0.  0.
        -12    1    1    2    0    0 -0.40400201425E+02 -0.43886257447E+01 -0.13150986732E+01  0.40659141599E+02  0.00000000000E+00 0.  1.
         11    1    3    3    0    0  0.10854762076E+02  0.21301676127E+01  0.57135285004E+01  0.12450216142E+02  0.51100000000E-03 0. -1.
        -11    1    3    3    0    0  0.76498992774E+01 -0.68400792633E+01  0.63262513264E+01  0.12055251942E+02  0.51100000000E-03 0.  1.
        -12    1    3    3    0    0  0.21895540071E+02  0.90985373953E+01 -0.10724681154E+02  0.26023390317E+02  0.00000000000E+00 0.  1.
</event>
<event>
 7    1  0.2937071E-011  0.5052885E+02  0.7816164E-02  0.1300439E+00
        -11   -1    0    0    0    0  0.00000000000E+00  0.00000000000E+00  0.45593999997E+02  0.45594000000E+02  0.51100000000E-03 0.  1.
         11   -1    0    0    0    0 -0.00000000000E+00 -0.00000000000E+00 -0.45593999997E+02  0.45594000000E+02  0.51100000000E-03 0. -1.
    9900012    2    1    2    0    0 -0.30795032362E+02  0.18615225383E+02 -0.18928967534E+02  0.50528850401E+02  0.29999971278E+02 0.  0.
        -12    1    1    2    0    0  0.30795032362E+02 -0.18615225383E+02  0.18928967534E+02  0.40659149599E+02  0.00000000000E+00 0.  1.
         11    1    3    3    0    0 -0.12961630259E+02  0.13344256484E+02 -0.56862352269E+01  0.19452668490E+02  0.51100000000E-03 0. -1.
        -11    1    3    3    0    0 -0.12107991350E+02 -0.52926081988E+01 -0.26080387189E-01  0.13214228564E+02  0.51100000000E-03 0.  1.
         12    1    3    3    0    0 -0.57254107523E+01  0.10563577098E+02 -0.13216651920E+02  0.17861953347E+02  0.00000000000E+00 0. -1.
</event>
<event>
 7    1  0.2937071E-011  0.5052885E+02  0.7816164E-02  0.1300439E+00
        -11   -1    0    0    0    0  0.00000000000E+00  0.00000000000E+00  0.45593999997E+02  0.45594000000E+02  0.51100000000E-03 0.  1.
         11   -1    0    0    0    0 -0.00000000000E+00 -0.00000000000E+00 -0.45593999997E+02  0.45594000000E+02  0.51100000000E-03 0. -1.
    9900012    2    1    2    0    0  0.33488067349E+02 -0.72545300484E+00 -0.23047551163E+02  0.50528849105E+02  0.29999967341E+02 0.  0.
        -12    1    1    2    0    0 -0.33488067349E+02  0.72545300484E+00  0.23047551163E+02  0.40659150895E+02  0.00000000000E+00 0.  1.
         11    1    3    3    0    0  0.25033833989E+01  0.79657313747E+01 -0.11851270444E+02  0.14497324449E+02  0.51100000000E-03 0. -1.
        -11    1    3    3    0    0 -0.10540910055E+01 -0.38405629191E+00 -0.63519071974E+00  0.12892147202E+01  0.51100000000E-03 0.  1.
        -12    1    3    3    0    0  0.32038774956E+02 -0.83071280876E+01 -0.10561089999E+02  0.34742309936E+02  0.00000000000E+00 0.  1.
</event>
<event>
 7    1  0.2937071E-011  0.5052886E+02  0.7816164E-02  0.1300439E+00
        -11   -1    0    0    0    0  0.00000000000E+00  0.00000000000E+00  0.45593999997E+02  0.45594000000E+02  0.51100000000E-03 0. -1.
         11   -1    0    0    0    0 -0.00000000000E+00 -0.00000000000E+00 -0.45593999997E+02  0.45594000000E+02  0.51100000000E-03 0.  1.
    9900012    2    1    2    0    0  0.36405091578E+02  0.98071974026E+01  0.15220174120E+02  0.50528861864E+02  0.30000006122E+02 0.  0.
        -12    1    1    2    0    0 -0.36405091578E+02 -0.98071974026E+01 -0.15220174120E+02  0.40659138136E+02  0.00000000000E+00 0.  1.
         11    1    3    3    0    0  0.18588836588E+02  0.41869515454E+01  0.13498373287E+02  0.23351263148E+02  0.51100000000E-03 0. -1.
        -11    1    3    3    0    0  0.21441540526E+02  0.53626472860E+01 -0.17242968118E+01  0.22169141747E+02  0.51100000000E-03 0.  1.
        -12    1    3    3    0    0 -0.36252855356E+01  0.25759857126E+00  0.34460976448E+01  0.50084569696E+01  0.00000000000E+00 0.  1.
</event>
<event>
 7    1  0.2937071E-011  0.5052886E+02  0.7816164E-02  0.1300439E+00
        -11   -1    0    0    0    0  0.00000000000E+00  0.00000000000E+00  0.45593999997E+02  0.45594000000E+02  0.51100000000E-03 0.  1.
         11   -1    0    0    0    0 -0.00000000000E+00 -0.00000000000E+00 -0.45593999997E+02  0.45594000000E+02  0.51100000000E-03 0. -1.
    9900012    2    1    2    0    0 -0.84959601032E+00  0.13755511489E+02 -0.38252181630E+02  0.50528864382E+02  0.30000013777E+02 0.  0.
        -12    1    1    2    0    0  0.84959601032E+00 -0.13755511489E+02  0.38252181630E+02  0.40659135618E+02  0.00000000000E+00 0.  1.
         11    1    3    3    0    0  0.37894150641E+01  0.77301015455E+01 -0.77676201394E+01  0.11595260209E+02  0.51100000000E-03 0.  1.
        -11    1    3    3    0    0  0.89251533806E+01  0.41506160502E+01 -0.17416073473E+02  0.20005139138E+02  0.51100000000E-03 0. -1.
        -12    1    3    3    0    0 -0.13564164455E+02  0.18747938936E+01 -0.13068488017E+02  0.18928465035E+02  0.00000000000E+00 0.  1.
</event>
<event>
 7    1  0.2937071E-011  0.5052886E+02  0.7816164E-02  0.1300439E+00
        -11   -1    0    0    0    0  0.00000000000E+00  0.00000000000E+00  0.45593999997E+02  0.45594000000E+02  0.51100000000E-03 0.  1.
         11   -1    0    0    0    0 -0.00000000000E+00 -0.00000000000E+00 -0.45593999997E+02  0.45594000000E+02  0.51100000000E-03 0. -1.
    9900012    2    1    2    0    0  0.77608609328E+01  0.22434304018E+02 -0.33009647089E+02  0.50528858837E+02  0.29999996920E+02 0.  0.
        -12    1    1    2    0    0 -0.77608609328E+01 -0.22434304018E+02  0.33009647089E+02  0.40659141163E+02  0.00000000000E+00 0.  1.
         11    1    3    3    0    0  0.37406181226E+01  0.83179825674E+01 -0.12072665050E+02  0.15130442809E+02  0.51100000000E-03 0.  1.
        -11    1    3    3    0    0  0.35236194552E+01  0.10504788770E+02 -0.26513770875E+02  0.28735805669E+02  0.51100000000E-03 0. -1.
        -12    1    3    3    0    0  0.49662335502E+00  0.36115326806E+01  0.55767888363E+01  0.66626103581E+01  0.00000000000E+00 0.  1.
</event>
<event>
 7    1  0.2937071E-011  0.5052886E+02  0.7816164E-02  0.1300439E+00
        -11   -1    0    0    0    0  0.00000000000E+00  0.00000000000E+00  0.45593999997E+02  0.45594000000E+02  0.51100000000E-03 0.  1.
         11   -1    0    0    0    0 -0.00000000000E+00 -0.00000000000E+00 -0.45593999997E+02  0.45594000000E+02  0.51100000000E-03 0. -1.
    9900012    2    1    2    0    0 -0.23468634900E+02 -0.31034774199E+02  0.11799631373E+02  0.50528864075E+02  0.30000012842E+02 0.  0.
        -12    1    1    2    0    0  0.23468634900E+02  0.31034774199E+02 -0.11799631373E+02  0.40659135925E+02  0.00000000000E+00 0.  1.
         11    1    3    3    0    0  0.25461962892E+00 -0.12260265372E+02 -0.20417807822E+01  0.12431725832E+02  0.51100000000E-03 0. -1.
        -11    1    3    3    0    0 -0.14434142115E+01 -0.19327788861E+01 -0.42029819466E+01  0.48460433668E+01  0.51100000000E-03 0.  1.
         12    1    3    3    0    0 -0.22279840318E+02 -0.16841729941E+02  0.18044394102E+02  0.33251094876E+02  0.00000000000E+00 0. -1.
</event>
<event>
 7    1  0.2937071E-011  0.5052885E+02  0.7816164E-02  0.1300439E+00
        -11   -1    0    0    0    0  0.00000000000E+00  0.00000000000E+00  0.45593999997E+02  0.45594000000E+02  0.51100000000E-03 0.  1.
         11   -1    0    0    0    0 -0.00000000000E+00 -0.00000000000E+00 -0.45593999997E+02  0.45594000000E+02  0.51100000000E-03 0. -1.
    9900012    2    1    2    0    0 -0.12009390465E+02 -0.36181214170E+02 -0.14137199202E+02  0.50528854418E+02  0.29999983490E+02 0.  0.
        -12    1    1    2    0    0  0.12009390465E+02  0.36181214170E+02  0.14137199202E+02  0.40659145582E+02  0.00000000000E+00 0.  1.
         11    1    3    3    0    0 -0.10974735859E+02 -0.13108333024E+02 -0.35232719522E+01  0.17455276204E+02  0.51100000000E-03 0. -1.
        -11    1    3    3    0    0 -0.95939690067E+01 -0.43591813997E+01 -0.18146684431E+01  0.10692975526E+02  0.51100000000E-03 0.  1.
        -12    1    3    3    0    0  0.85593143998E+01 -0.18713699746E+02 -0.87992588062E+01  0.22380602689E+02  0.00000000000E+00 0.  1.
</event>
<event>
 7    1  0.2937071E-011  0.5052887E+02  0.7816164E-02  0.1300439E+00
        -11   -1    0    0    0    0  0.00000000000E+00  0.00000000000E+00  0.45593999997E+02  0.45594000000E+02  0.51100000000E-03 0. -1.
         11   -1    0    0    0    0 -0.00000000000E+00 -0.00000000000E+00 -0.45593999997E+02  0.45594000000E+02  0.51100000000E-03 0.  1.
    9900012    2    1    2    0    0 -0.73498352647E+01  0.39983875033E+02  0.65893171520E+00  0.50528873938E+02  0.30000042823E+02 0.  0.
        -12    1    1    2    0    0  0.73498352647E+01 -0.39983875033E+02 -0.65893171520E+00  0.40659126062E+02  0.00000000000E+00 0.  1.
         11    1    3    3    0    0 -0.53561042143E+01  0.21680805129E+02 -0.34574206987E+01  0.22598648667E+02  0.51100000000E-03 0. -1.
        -11    1    3    3    0    0 -0.71042249860E+01  0.93076341507E+01 -0.62600358128E+01  0.13277428771E+02  0.51100000000E-03 0.  1.
         12    1    3    3    0    0  0.51104939355E+01  0.89954357531E+01  0.10376388227E+02  0.14652796500E+02  0.00000000000E+00 0. -1.
</event>
<event>
 7    1  0.2937071E-011  0.5052886E+02  0.7816164E-02  0.1300439E+00
        -11   -1    0    0    0    0  0.00000000000E+00  0.00000000000E+00  0.45593999997E+02  0.45594000000E+02  0.51100000000E-03 0.  1.
         11   -1    0    0    0    0 -0.00000000000E+00 -0.00000000000E+00 -0.45593999997E+02  0.45594000000E+02  0.51100000000E-03 0. -1.
    9900012    2    1    2    0    0 -0.36833810838E+02 -0.19447852526E+01 -0.17107134033E+02  0.50528857789E+02  0.29999993735E+02 0.  0.
        -12    1    1    2    0    0  0.36833810838E+02  0.19447852526E+01  0.17107134033E+02  0.40659142211E+02  0.00000000000E+00 0.  1.
         11    1    3    3    0    0 -0.21173671788E+01 -0.31737792975E+01  0.13238820744E-01  0.38152711996E+01  0.51100000000E-03 0.  1.
        -11    1    3    3    0    0 -0.42386408720E+01 -0.78201798007E+01 -0.11318870485E+02  0.14395767360E+02  0.51100000000E-03 0. -1.
         12    1    3    3    0    0 -0.30477802787E+02  0.90491738457E+01 -0.58015023687E+01  0.32317819230E+02  0.00000000000E+00 0. -1.
</event>
<event>
 7    1  0.2937071E-011  0.5052886E+02  0.7816164E-02  0.1300439E+00
        -11   -1    0    0    0    0  0.00000000000E+00  0.00000000000E+00  0.45593999997E+02  0.45594000000E+02  0.51100000000E-03 0.  1.
         11   -1    0    0    0    0 -0.00000000000E+00 -0.00000000000E+00 -0.45593999997E+02  0.45594000000E+02  0.51100000000E-03 0. -1.
    9900012    2    1    2    0    0 -0.85867253443E+01 -0.89312407323E+01 -0.38725536064E+02  0.50528855191E+02  0.29999985838E+02 0.  0.
        -12    1    1    2    0    0  0.85867253443E+01  0.89312407323E+01  0.38725536064E+02  0.40659144809E+02  0.00000000000E+00 0.  1.
         11    1    3    3    0    0  0.79578339780E+00  0.31413683711E+01 -0.40151279279E-01  0.32408453905E+01  0.51100000000E-03 0. -1.
        -11    1    3    3    0    0  0.59696387635E+01 -0.58822296823E+01 -0.23017027173E+02  0.24495321046E+02  0.51100000000E-03 0.  1.
         12    1    3    3    0    0 -0.15352147506E+02 -0.61903794211E+01 -0.15668357612E+02  0.22792688755E+02  0.00000000000E+00 0. -1.
</event>
<event>
 7    1  0.2937071E-011  0.5052888E+02  0.7816164E-02  0.1300439E+00
        -11   -1    0    0    0    0  0.00000000000E+00  0.00000000000E+00  0.45593999997E+02  0.45594000000E+02  0.51100000000E-03 0.  1.
         11   -1    0    0    0    0 -0.00000000000E+00 -0.00000000000E+00 -0.45593999997E+02  0.45594000000E+02  0.51100000000E-03 0. -1.
    9900012    2    1    2    0    0  0.98040837752E+01  0.36963768249E+02 -0.13810290757E+02  0.50528876146E+02  0.30000049532E+02 0.  0.
        -12    1    1    2    0    0 -0.98040837752E+01 -0.36963768249E+02  0.13810290757E+02  0.40659123854E+02  0.00000000000E+00 0.  1.
         11    1    3    3    0    0  0.89886934517E+01  0.20993580703E+02  0.76838849884E+00  0.22849889756E+02  0.51100000000E-03 0. -1.
        -11    1    3    3    0    0  0.84109383866E+01  0.10267614481E+02 -0.49825210459E+01  0.14177210865E+02  0.51100000000E-03 0.  1.
        -12    1    3    3    0    0 -0.75955480630E+01  0.57025730645E+01 -0.95961582101E+01  0.13501775525E+02  0.00000000000E+00 0.  1.
</event>
<event>
 7    1  0.2937071E-011  0.5052886E+02  0.7816164E-02  0.1300439E+00
        -11   -1    0    0    0    0  0.00000000000E+00  0.00000000000E+00  0.45593999997E+02  0.45594000000E+02  0.51100000000E-03 0.  1.
         11   -1    0    0    0    0 -0.00000000000E+00 -0.00000000000E+00 -0.45593999997E+02  0.45594000000E+02  0.51100000000E-03 0. -1.
    9900012    2    1    2    0    0  0.13628951939E+02  0.38265716991E+02  0.17754187126E+01  0.50528861551E+02  0.30000005171E+02 0.  0.
        -12    1    1    2    0    0 -0.13628951939E+02 -0.38265716991E+02 -0.17754187126E+01  0.40659138449E+02  0.00000000000E+00 0.  1.
         11    1    3    3    0    0 -0.51927930065E+01  0.12486987109E+01  0.14944577218E+01  0.55459671674E+01  0.51100000000E-03 0. -1.
        -11    1    3    3    0    0  0.14105053744E+01  0.72556419617E+01  0.66225068111E+01  0.99242864939E+01  0.51100000000E-03 0.  1.
         12    1    3    3    0    0  0.17411239571E+02  0.29761376319E+02 -0.63415458203E+01  0.35058607890E+02  0.00000000000E+00 0. -1.
</event>
<event>
 7    1  0.2937071E-011  0.5052886E+02  0.7816164E-02  0.1300439E+00
        -11   -1    0    0    0    0  0.00000000000E+00  0.00000000000E+00  0.45593999997E+02  0.45594000000E+02  0.51100000000E-03 0.  1.
         11   -1    0    0    0    0 -0.00000000000E+00 -0.00000000000E+00 -0.45593999997E+02  0.45594000000E+02  0.51100000000E-03 0. -1.
    9900012    2    1    2    0    0  0.19845535563E+02 -0.35363070690E+02 -0.29620892979E+01  0.50528855599E+02  0.29999987077E+02 0.  0.
        -12    1    1    2    0    0 -0.19845535563E+02  0.35363070690E+02  0.29620892979E+01  0.40659144401E+02  0.00000000000E+00 0.  1.
         11    1    3    3    0    0  0.20043848149E+01 -0.28958558277E+02  0.45653086896E+00  0.29031432563E+02  0.51100000000E-03 0. -1.
        -11    1    3    3    0    0  0.15785805945E+01 -0.44859195351E+01  0.63269851473E-01  0.47559850824E+01  0.51100000000E-03 0.  1.
        -12    1    3    3    0    0  0.16262570154E+02 -0.19185928786E+01 -0.34818900184E+01  0.16741437953E+02  0.00000000000E+00 0.  1.
</event>
<event>
 7    1  0.2937071E-011  0.5052886E+02  0.7816164E-02  0.1300439E+00
        -11   -1    0    0    0    0  0.00000000000E+00  0.00000000000E+00  0.45593999997E+02  0.45594000000E+02  0.51100000000E-03 0.  1.
         11   -1    0    0    0    0 -0.00000000000E+00 -0.00000000000E+00 -0.45593999997E+02  0.45594000000E+02  0.51100000000E-03 0. -1.
    9900012    2    1    2    0    0 -0.38170095202E+02  0.59774168286E+01 -0.12668081570E+02  0.50528856252E+02  0.29999989062E+02 0.  0.
        -12    1    1    2    0    0  0.38170095202E+02 -0.59774168286E+01  0.12668081570E+02  0.40659143748E+02  0.00000000000E+00 0.  1.
         11    1    3    3    0    0 -0.36214645335E+02  0.38602159759E+01 -0.93672502308E+01  0.37605148335E+02  0.51100000000E-03 0. -1.
        -11    1    3    3    0    0 -0.60550975638E+01 -0.87663491054E+00 -0.46340811037E+01  0.76751158434E+01  0.51100000000E-03 0.  1.
        -12    1    3    3    0    0  0.40996476968E+01  0.29938357632E+01  0.13332497649E+01  0.52485920732E+01  0.00000000000E+00 0.  1.
</event>
<event>
 7    1  0.2937071E-011  0.5052886E+02  0.7816164E-02  0.1300439E+00
        -11   -1    0    0    0    0  0.00000000000E+00  0.00000000000E+00  0.45593999997E+02  0.45594000000E+02  0.51100000000E-03 0. -1.
         11   -1    0    0    0    0 -0.00000000000E+00 -0.00000000000E+00 -0.45593999997E+02  0.45594000000E+02  0.51100000000E-03 0.  1.
    9900012    2    1    2    0    0 -0.29825167536E+02  0.27034033416E+02  0.57259032918E+01  0.50528861423E+02  0.30000004781E+02 0.  0.
        -12    1    1    2    0    0  0.29825167536E+02 -0.27034033416E+02 -0.57259032918E+01  0.40659138577E+02  0.00000000000E+00 0.  1.
         11    1    3    3    0    0 -0.43210632953E+01  0.13916586810E+02 -0.33266943830E+01  0.14946901760E+02  0.51100000000E-03 0. -1.
        -11    1    3    3    0    0 -0.19195207668E-01 -0.30159196676E+01  0.39838149611E+01  0.49966910854E+01  0.51100000000E-03 0.  1.
         12    1    3    3    0    0 -0.25484909033E+02  0.16133366273E+02  0.50687827137E+01  0.30585268577E+02  0.00000000000E+00 0. -1.
</event>
<event>
 7    1  0.2937071E-011  0.5052887E+02  0.7816164E-02  0.1300439E+00
        -11   -1    0    0    0    0  0.00000000000E+00  0.00000000000E+00  0.45593999997E+02  0.45594000000E+02  0.51100000000E-03 0.  1.
         11   -1    0    0    0    0 -0.00000000000E+00 -0.00000000000E+00 -0.45593999997E+02  0.45594000000E+02  0.51100000000E-03 0. -1.
    9900012    2    1    2    0    0 -0.23080406081E+02 -0.20418904143E+02 -0.26524104371E+02  0.50528869365E+02  0.30000028923E+02 0.  0.
        -12    1    1    2    0    0  0.23080406081E+02  0.20418904143E+02  0.26524104371E+02  0.40659130635E+02  0.00000000000E+00 0.  1.
         11    1    3    3    0    0 -0.45127838128E+01 -0.47165773412E+01 -0.93950653681E+01  0.11440217353E+02  0.51100000000E-03 0. -1.
        -11    1    3    3    0    0 -0.95142882503E+01 -0.10338129707E+02  0.47331191078E+01  0.14825687960E+02  0.51100000000E-03 0.  1.
         12    1    3    3    0    0 -0.90533340184E+01 -0.53641970951E+01 -0.21862158111E+02  0.24262964052E+02  0.00000000000E+00 0. -1.
</event>
<event>
 7    1  0.2937071E-011  0.5052886E+02  0.7816164E-02  0.1300439E+00
        -11   -1    0    0    0    0  0.00000000000E+00  0.00000000000E+00  0.45593999997E+02  0.45594000000E+02  0.51100000000E-03 0.  1.
         11   -1    0    0    0    0 -0.00000000000E+00 -0.00000000000E+00 -0.45593999997E+02  0.45594000000E+02  0.51100000000E-03 0. -1.
    9900012    2    1    2    0    0 -0.38391659855E+02  0.22744906781E+01 -0.13193678345E+02  0.50528855856E+02  0.29999987860E+02 0.  0.
        -12    1    1    2    0    0  0.38391659855E+02 -0.22744906781E+01  0.13193678345E+02  0.40659144144E+02  0.00000000000E+00 0.  1.
         11    1    3    3    0    0 -0.22245976044E+02  0.41721586288E+01 -0.97445423612E+01  0.24642371312E+02  0.51100000000E-03 0. -1.
        -11    1    3    3    0    0 -0.19550575073E+02  0.20025132513E+01  0.22631644079E-01  0.19652876570E+02  0.51100000000E-03 0.  1.
        -12    1    3    3    0    0  0.34048912626E+01 -0.39001812020E+01 -0.34717676276E+01  0.62336079744E+01  0.00000000000E+00 0.  1.
</event>
<event>
 7    1  0.2937071E-011  0.5052881E+02  0.7816164E-02  0.1300439E+00
        -11   -1    0    0    0    0  0.00000000000E+00  0.00000000000E+00  0.45593999997E+02  0.45594000000E+02  0.51100000000E-03 0. -1.
         11   -1    0    0    0    0 -0.00000000000E+00 -0.00000000000E+00 -0.45593999997E+02  0.45594000000E+02  0.51100000000E-03 0.  1.
    9900012    2    1    2    0    0 -0.35325180934E+02  0.11534374754E+02  0.16500280208E+02  0.50528813388E+02  0.29999858775E+02 0.  0.
        -12    1    1    2    0    0  0.35325180934E+02 -0.11534374754E+02 -0.16500280208E+02  0.40659186612E+02  0.00000000000E+00 0.  1.
         11    1    3    3    0    0 -0.25825438372E+01 -0.28550886205E+01  0.26427176432E+01  0.46695846180E+01  0.51100000000E-03 0. -1.
        -11    1    3    3    0    0 -0.70574076428E+00 -0.57176606543E+01  0.65951176675E+00  0.57986782473E+01  0.51100000000E-03 0.  1.
         12    1    3    3    0    0 -0.32036896333E+02  0.20107124029E+02  0.13198050798E+02  0.40060550523E+02  0.00000000000E+00 0. -1.
</event>
<event>
 7    1  0.2937071E-011  0.5052886E+02  0.7816164E-02  0.1300439E+00
        -11   -1    0    0    0    0  0.00000000000E+00  0.00000000000E+00  0.45593999997E+02  0.45594000000E+02  0.51100000000E-03 0.  1.
         11   -1    0    0    0    0 -0.00000000000E+00 -0.00000000000E+00 -0.45593999997E+02  0.45594000000E+02  0.51100000000E-03 0. -1.
    9900012    2    1    2    0    0  0.45916372909E+01 -0.17333625380E+02 -0.36491482469E+02  0.50528855953E+02  0.29999988155E+02 0.  0.
        -12    1    1    2    0    0 -0.45916372909E+01  0.17333625380E+02  0.36491482469E+02  0.40659144047E+02  0.00000000000E+00 0.  1.
         11    1    3    3    0    0  0.79405218115E+00 -0.74830907220E+00 -0.10455289146E+00  0.10960916486E+01  0.51100000000E-03 0. -1.
        -11    1    3    3    0    0  0.30973887109E+01  0.29727960024E+01  0.31449011306E+01  0.53218170093E+01  0.51100000000E-03 0.  1.
         12    1    3    3    0    0  0.70019639882E+00 -0.19558112310E+02 -0.39531830708E+02  0.44110947295E+02  0.00000000000E+00 0. -1.
</event>
<event>
 7    1  0.3443384E-011  0.5052886E+02  0.7816164E-02  0.1300439E+00
        -11   -1    0    0    0    0  0.00000000000E+00  0.00000000000E+00  0.45593999997E+02  0.45594000000E+02  0.51100000000E-03 0. -1.
         11   -1    0    0    0    0 -0.00000000000E+00 -0.00000000000E+00 -0.45593999997E+02  0.45594000000E+02  0.51100000000E-03 0.  1.
    9900012    2    1    2    0    0  0.21454627868E+02 -0.17783865990E+01  0.34492053674E+02  0.50528862250E+02  0.30000007296E+02 0.  0.
        -12    1    1    2    0    0 -0.21454627868E+02  0.17783865990E+01 -0.34492053674E+02  0.40659137750E+02  0.00000000000E+00 0.  1.
         11    1    3    3    0    0  0.99683810147E+01 -0.69119878138E+01  0.15816502400E+02  0.19932534812E+02  0.51100000000E-03 0. -1.
        -11    1    3    3    0    0  0.10802264662E+02 -0.49685975257E+01  0.35762059659E+01  0.12416325245E+02  0.51100000000E-03 0.  1.
        -12    1    3    3    0    0  0.68398219142E+00  0.10102198741E+02  0.15099345309E+02  0.18180002194E+02  0.00000000000E+00 0.  1.
</event>
<event>
 7    1  0.2937071E-011  0.5052886E+02  0.7816164E-02  0.1300439E+00
        -11   -1    0    0    0    0  0.00000000000E+00  0.00000000000E+00  0.45593999997E+02  0.45594000000E+02  0.51100000000E-03 0. -1.
         11   -1    0    0    0    0 -0.00000000000E+00 -0.00000000000E+00 -0.45593999997E+02  0.45594000000E+02  0.51100000000E-03 0.  1.
    9900012    2    1    2    0    0  0.35707274294E+02  0.34300446767E+01  0.19141342455E+02  0.50528860376E+02  0.30000001599E+02 0.  0.
        -12    1    1    2    0    0 -0.35707274294E+02 -0.34300446767E+01 -0.19141342455E+02  0.40659139624E+02  0.00000000000E+00 0.  1.
         11    1    3    3    0    0  0.17762497031E+01 -0.62209154519E+01  0.48881501170E+01  0.81085673145E+01  0.51100000000E-03 0. -1.
        -11    1    3    3    0    0 -0.13778155743E+01  0.32953507926E+00 -0.19977693247E+01  0.24490920075E+01  0.51100000000E-03 0.  1.
         12    1    3    3    0    0  0.35308840165E+02  0.93214250493E+01  0.16250961663E+02  0.39971201054E+02  0.00000000000E+00 0. -1.
</event>
<event>
 7    1  0.2937071E-011  0.5052887E+02  0.7816164E-02  0.1300439E+00
        -11   -1    0    0    0    0  0.00000000000E+00  0.00000000000E+00  0.45593999997E+02  0.45594000000E+02  0.51100000000E-03 0. -1.
         11   -1    0    0    0    0 -0.00000000000E+00 -0.00000000000E+00 -0.45593999997E+02  0.45594000000E+02  0.51100000000E-03 0.  1.
    9900012    2    1    2    0    0 -0.11361610890E+01  0.40641924988E+02 -0.32903358466E+00  0.50528865825E+02  0.30000018162E+02 0.  0.
        -12    1    1    2    0    0  0.11361610890E+01 -0.40641924988E+02  0.32903358466E+00  0.40659134175E+02  0.00000000000E+00 0.  1.
         11    1    3    3    0    0  0.13148229114E+02  0.20709246320E+02 -0.17319787803E+01  0.24591636032E+02  0.51100000000E-03 0. -1.
        -11    1    3    3    0    0 -0.43483554609E+00 -0.83244217272E+00  0.36606648100E-01  0.93988415823E+00  0.51100000000E-03 0.  1.
         12    1    3    3    0    0 -0.13849554657E+02  0.20765120841E+02  0.13663385475E+01  0.24997345634E+02  0.00000000000E+00 0. -1.
</event>
<event>
 7    1  0.2937071E-011  0.5052886E+02  0.7816164E-02  0.1300439E+00
        -11   -1    0    0    0    0  0.00000000000E+00  0.00000000000E+00  0.45593999997E+02  0.45594000000E+02  0.51100000000E-03 0.  1.
         11   -1    0    0    0    0 -0.00000000000E+00 -0.00000000000E+00 -0.45593999997E+02  0.45594000000E+02  0.51100000000E-03 0. -1.
    9900012    2    1    2    0    0  0.35737361726E+01  0.23240930825E+02 -0.33170062729E+02  0.50528861823E+02  0.30000005996E+02 0.  0.
        -12    1    1    2    0    0 -0.35737361726E+01 -0.23240930825E+02  0.33170062729E+02  0.40659138177E+02  0.00000000000E+00 0.  1.
         11    1    3    3    0    0  0.68483881559E+01 -0.14213907299E+01 -0.12303589990E+02  0.14152706414E+02  0.51100000000E-03 0. -1.
        -11    1    3    3    0    0  0.29777612874E+00 -0.21330345607E+01  0.11477174582E+00  0.21567753417E+01  0.51100000000E-03 0.  1.
        -12    1    3    3    0    0 -0.35724281120E+01  0.26795356116E+02 -0.20981244485E+02  0.34219380067E+02  0.00000000000E+00 0.  1.
</event>
<event>
 7    1  0.2937071E-011  0.5052885E+02  0.7816164E-02  0.1300439E+00
        -11   -1    0    0    0    0  0.00000000000E+00  0.00000000000E+00  0.45593999997E+02  0.45594000000E+02  0.51100000000E-03 0. -1.
         11   -1    0    0    0    0 -0.00000000000E+00 -0.00000000000E+00 -0.45593999997E+02  0.45594000000E+02  0.51100000000E-03 0.  1.
    9900012    2    1    2    0    0 -0.21140917909E+02  0.34730783784E+02  0.31043787370E-01  0.50528847082E+02  0.29999961190E+02 0.  0.
        -12    1    1    2    0    0  0.21140917909E+02 -0.34730783784E+02 -0.31043787370E-01  0.40659152918E+02  0.00000000000E+00 0.  1.
         11    1    3    3    0    0 -0.34503546149E+01  0.48200762656E+01 -0.49846707845E+01  0.77450000172E+01  0.51100000000E-03 0. -1.
        -11    1    3    3    0    0 -0.11865217495E+02  0.28106618449E+02 -0.51394447200E+01  0.30938314097E+02  0.51100000000E-03 0.  1.
         12    1    3    3    0    0 -0.58253457994E+01  0.18040890694E+01  0.10155159292E+02  0.11845532968E+02  0.00000000000E+00 0. -1.
</event>
<event>
 7    1  0.2937071E-011  0.5052886E+02  0.7816164E-02  0.1300439E+00
        -11   -1    0    0    0    0  0.00000000000E+00  0.00000000000E+00  0.45593999997E+02  0.45594000000E+02  0.51100000000E-03 0. -1.
         11   -1    0    0    0    0 -0.00000000000E+00 -0.00000000000E+00 -0.45593999997E+02  0.45594000000E+02  0.51100000000E-03 0.  1.
    9900012    2    1    2    0    0  0.63274097971E+01  0.31399035940E+02  0.25044560884E+02  0.50528860774E+02  0.30000002809E+02 0.  0.
        -12    1    1    2    0    0 -0.63274097971E+01 -0.31399035940E+02 -0.25044560884E+02  0.40659139226E+02  0.00000000000E+00 0.  1.
         11    1    3    3    0    0  0.65490623933E+00  0.23706976565E+02  0.86316220202E+01  0.25237958297E+02  0.51100000000E-03 0. -1.
        -11    1    3    3    0    0 -0.49779069410E+00  0.11805262804E+02  0.10487036217E+02  0.15798416196E+02  0.51100000000E-03 0.  1.
        -12    1    3    3    0    0  0.61702942519E+01 -0.41132034292E+01  0.59259026473E+01  0.94924862808E+01  0.00000000000E+00 0.  1.
</event>
<event>
 7    1  0.2937071E-011  0.5052891E+02  0.7816164E-02  0.1300439E+00
        -11   -1    0    0    0    0  0.00000000000E+00  0.00000000000E+00  0.45593999997E+02  0.45594000000E+02  0.51100000000E-03 0. -1.
         11   -1    0    0    0    0 -0.00000000000E+00 -0.00000000000E+00 -0.45593999997E+02  0.45594000000E+02  0.51100000000E-03 0.  1.
    9900012    2    1    2    0    0 -0.26879174154E+02  0.21874788965E+02  0.21264180505E+02  0.50528907930E+02  0.30000146143E+02 0.  0.
        -12    1    1    2    0    0  0.26879174154E+02 -0.21874788965E+02 -0.21264180505E+02  0.40659092070E+02  0.00000000000E+00 0.  1.
         11    1    3    3    0    0 -0.20439416039E+02  0.77545149498E+01  0.13678837683E+02  0.25787842693E+02  0.51100000000E-03 0. -1.
        -11    1    3    3    0    0 -0.60055385293E+01 -0.20345990510E+00 -0.31978106032E+01  0.68068995787E+01  0.51100000000E-03 0.  1.
        -12    1    3    3    0    0 -0.43421958493E+00  0.14323733920E+02  0.10783153424E+02  0.17934165658E+02  0.00000000000E+00 0.  1.
</event>
<event>
 7    1  0.2937071E-011  0.5052885E+02  0.7816164E-02  0.1300439E+00
        -11   -1    0    0    0    0  0.00000000000E+00  0.00000000000E+00  0.45593999997E+02  0.45594000000E+02  0.51100000000E-03 0.  1.
         11   -1    0    0    0    0 -0.00000000000E+00 -0.00000000000E+00 -0.45593999997E+02  0.45594000000E+02  0.51100000000E-03 0. -1.
    9900012    2    1    2    0    0  0.16420461644E+02  0.24860119828E+02 -0.27667835309E+02  0.50528853069E+02  0.29999979387E+02 0.  0.
        -12    1    1    2    0    0 -0.16420461644E+02 -0.24860119828E+02  0.27667835309E+02  0.40659146931E+02  0.00000000000E+00 0.  1.
         11    1    3    3    0    0  0.17430889928E+02  0.38235779607E+01 -0.16281103691E+02  0.24156365823E+02  0.51100000000E-03 0.  1.
        -11    1    3    3    0    0  0.26926529039E+01  0.11420570346E+02 -0.10964840436E+02  0.16059499767E+02  0.51100000000E-03 0. -1.
        -12    1    3    3    0    0 -0.37030811876E+01  0.96159715212E+01 -0.42189118204E+00  0.10312987479E+02  0.00000000000E+00 0.  1.
</event>
<event>
 7    1  0.2937071E-011  0.5052885E+02  0.7816164E-02  0.1300439E+00
        -11   -1    0    0    0    0  0.00000000000E+00  0.00000000000E+00  0.45593999997E+02  0.45594000000E+02  0.51100000000E-03 0.  1.
         11   -1    0    0    0    0 -0.00000000000E+00 -0.00000000000E+00 -0.45593999997E+02  0.45594000000E+02  0.51100000000E-03 0. -1.
    9900012    2    1    2    0    0  0.17342867473E+02  0.23337762375E+02 -0.28420766600E+02  0.50528853686E+02  0.29999981263E+02 0.  0.
        -12    1    1    2    0    0 -0.17342867473E+02 -0.23337762375E+02  0.28420766600E+02  0.40659146314E+02  0.00000000000E+00 0.  1.
         11    1    3    3    0    0 -0.11309245004E+01 -0.29119240428E-01 -0.43020958464E+01  0.44483555488E+01  0.51100000000E-03 0. -1.
        -11    1    3    3    0    0  0.15893323235E+00 -0.34955235377E+01 -0.10074628282E+02  0.10664993196E+02  0.51100000000E-03 0.  1.
        -12    1    3    3    0    0  0.18314858741E+02  0.26862405153E+02 -0.14044042472E+02  0.35415504942E+02  0.00000000000E+00 0.  1.
</event>
<event>
 7    1  0.2937071E-011  0.5052885E+02  0.7816164E-02  0.1300439E+00
        -11   -1    0    0    0    0  0.00000000000E+00  0.00000000000E+00  0.45593999997E+02  0.45594000000E+02  0.51100000000E-03 0.  1.
         11   -1    0    0    0    0 -0.00000000000E+00 -0.00000000000E+00 -0.45593999997E+02  0.45594000000E+02  0.51100000000E-03 0. -1.
    9900012    2    1    2    0    0  0.89742567377E+01 -0.11445301761E+02 -0.37968853949E+02  0.50528854822E+02  0.29999984716E+02 0.  0.
        -12    1    1    2    0    0 -0.89742567377E+01  0.11445301761E+02  0.37968853949E+02  0.40659145178E+02  0.00000000000E+00 0.  1.
         11    1    3    3    0    0  0.28053309724E+01 -0.14147480163E+01 -0.37558548315E+01  0.48967172259E+01  0.51100000000E-03 0. -1.
        -11    1    3    3    0    0 -0.14685796803E+01 -0.14744232862E+02 -0.59308250153E+01  0.15960069380E+02  0.51100000000E-03 0.  1.
        -12    1    3    3    0    0  0.76375054456E+01  0.47136791174E+01 -0.28282174103E+02  0.29672068216E+02  0.00000000000E+00 0.  1.
</event>
<event>
 7    1  0.2937071E-011  0.5052886E+02  0.7816164E-02  0.1300439E+00
        -11   -1    0    0    0    0  0.00000000000E+00  0.00000000000E+00  0.45593999997E+02  0.45594000000E+02  0.51100000000E-03 0. -1.
         11   -1    0    0    0    0 -0.00000000000E+00 -0.00000000000E+00 -0.45593999997E+02  0.45594000000E+02  0.51100000000E-03 0.  1.
    9900012    2    1    2    0    0 -0.33748139122E+02  0.21742077305E+02 -0.64428941608E+01  0.50528859516E+02  0.29999998985E+02 0.  0.
        -12    1    1    2    0    0  0.33748139122E+02 -0.21742077305E+02  0.64428941608E+01  0.40659140484E+02  0.00000000000E+00 0.  1.
         11    1    3    3    0    0 -0.30340979337E+02  0.68230203454E+01  0.47786252593E+01  0.31463691668E+02  0.51100000000E-03 0.  1.
        -11    1    3    3    0    0 -0.80291291442E+00  0.42742056197E+01 -0.22167249861E+01  0.48813289945E+01  0.51100000000E-03 0. -1.
        -12    1    3    3    0    0 -0.26042468699E+01  0.10644851340E+02 -0.90047944340E+01  0.14183838853E+02  0.00000000000E+00 0.  1.
</event>
<event>
 7    1  0.2937071E-011  0.5052886E+02  0.7816164E-02  0.1300439E+00
        -11   -1    0    0    0    0  0.00000000000E+00  0.00000000000E+00  0.45593999997E+02  0.45594000000E+02  0.51100000000E-03 0.  1.
         11   -1    0    0    0    0 -0.00000000000E+00 -0.00000000000E+00 -0.45593999997E+02  0.45594000000E+02  0.51100000000E-03 0. -1.
    9900012    2    1    2    0    0  0.13430929409E+02 -0.28507095894E+02 -0.25692831186E+02  0.50528856435E+02  0.29999989620E+02 0.  0.
        -12    1    1    2    0    0 -0.13430929409E+02  0.28507095894E+02  0.25692831186E+02  0.40659143565E+02  0.00000000000E+00 0.  1.
         11    1    3    3    0    0  0.18219012382E+01  0.27219142531E+01 -0.12663657150E+02  0.13080380499E+02  0.51100000000E-03 0. -1.
        -11    1    3    3    0    0  0.18784625164E+01  0.47196598536E+00 -0.50635141581E+00  0.20019403923E+01  0.51100000000E-03 0.  1.
         12    1    3    3    0    0  0.97305656545E+01 -0.31700976132E+02 -0.12522822620E+02  0.35446535544E+02  0.00000000000E+00 0. -1.
</event>
<event>
 7    1  0.2937071E-011  0.5052885E+02  0.7816164E-02  0.1300439E+00
        -11   -1    0    0    0    0  0.00000000000E+00  0.00000000000E+00  0.45593999997E+02  0.45594000000E+02  0.51100000000E-03 0. -1.
         11   -1    0    0    0    0 -0.00000000000E+00 -0.00000000000E+00 -0.45593999997E+02  0.45594000000E+02  0.51100000000E-03 0.  1.
    9900012    2    1    2    0    0  0.36622310747E+02 -0.38640548254E+01 -0.17234901514E+02  0.50528851038E+02  0.29999973216E+02 0.  0.
        -12    1    1    2    0    0 -0.36622310747E+02  0.38640548254E+01  0.17234901514E+02  0.40659148962E+02  0.00000000000E+00 0.  1.
         11    1    3    3    0    0 -0.92800968101E+00 -0.52717239960E+00 -0.56142590763E+01  0.57148069035E+01  0.51100000000E-03 0. -1.
        -11    1    3    3    0    0  0.76927468784E+01  0.81626615265E+01 -0.41366497790E+01  0.11954884750E+02  0.51100000000E-03 0.  1.
         12    1    3    3    0    0  0.29857573549E+02 -0.11499543952E+02 -0.74839926586E+01  0.32859159385E+02  0.00000000000E+00 0. -1.
</event>
<event>
 7    1  0.2937071E-011  0.5052887E+02  0.7816164E-02  0.1300439E+00
        -11   -1    0    0    0    0  0.00000000000E+00  0.00000000000E+00  0.45593999997E+02  0.45594000000E+02  0.51100000000E-03 0.  1.
         11   -1    0    0    0    0 -0.00000000000E+00 -0.00000000000E+00 -0.45593999997E+02  0.45594000000E+02  0.51100000000E-03 0. -1.
    9900012    2    1    2    0    0  0.31216877253E+02  0.67233165087E+01 -0.25168793215E+02  0.50528873568E+02  0.30000041696E+02 0.  0.
        -12    1    1    2    0    0 -0.31216877253E+02 -0.67233165087E+01  0.25168793215E+02  0.40659126432E+02  0.00000000000E+00 0.  1.
         11    1    3    3    0    0  0.18905936088E+02  0.35154576971E+00 -0.40059972959E+01  0.19328890770E+02  0.51100000000E-03 0. -1.
        -11    1    3    3    0    0  0.56476119502E+01  0.40911542746E+01  0.17826762733E+01  0.71979857596E+01  0.51100000000E-03 0.  1.
        -12    1    3    3    0    0  0.66633292155E+01  0.22806164644E+01 -0.22945472193E+02  0.24001997038E+02  0.00000000000E+00 0.  1.
</event>
<event>
 7    1  0.2937071E-011  0.5052886E+02  0.7816164E-02  0.1300439E+00
        -11   -1    0    0    0    0  0.00000000000E+00  0.00000000000E+00  0.45593999997E+02  0.45594000000E+02  0.51100000000E-03 0. -1.
         11   -1    0    0    0    0 -0.00000000000E+00 -0.00000000000E+00 -0.45593999997E+02  0.45594000000E+02  0.51100000000E-03 0.  1.
    9900012    2    1    2    0    0 -0.74959777996E+01 -0.16024090435E+02  0.36608802830E+02  0.50528860780E+02  0.30000002827E+02 0.  0.
        -12    1    1    2    0    0  0.74959777996E+01  0.16024090435E+02 -0.36608802830E+02  0.40659139220E+02  0.00000000000E+00 0.  1.
         11    1    3    3    0    0 -0.54127597512E+01 -0.82105678836E+01  0.16818987710E+02  0.19483062925E+02  0.51100000000E-03 0. -1.
        -11    1    3    3    0    0  0.21310517528E+01 -0.66459481941E+01  0.23988667550E+02  0.24983318036E+02  0.51100000000E-03 0.  1.
        -12    1    3    3    0    0 -0.42142698011E+01 -0.11675743572E+01 -0.41988524295E+01  0.60624798195E+01  0.00000000000E+00 0.  1.
</event>
<event>
 7    1  0.2937071E-011  0.5052880E+02  0.7816164E-02  0.1300439E+00
        -11   -1    0    0    0    0  0.00000000000E+00  0.00000000000E+00  0.45593999997E+02  0.45594000000E+02  0.51100000000E-03 0. -1.
         11   -1    0    0    0    0 -0.00000000000E+00 -0.00000000000E+00 -0.45593999997E+02  0.45594000000E+02  0.51100000000E-03 0.  1.
    9900012    2    1    2    0    0 -0.34098013344E+02 -0.21304319206E+02 -0.60515896131E+01  0.50528803406E+02  0.29999828434E+02 0.  0.
        -12    1    1    2    0    0  0.34098013344E+02  0.21304319206E+02  0.60515896131E+01  0.40659196594E+02  0.00000000000E+00 0.  1.
         11    1    3    3    0    0 -0.16893308900E+02 -0.15625329928E+02 -0.87126581545E+01  0.24605796743E+02  0.51100000000E-03 0. -1.
        -11    1    3    3    0    0 -0.11872642819E+02 -0.34973205361E+01 -0.73337908746E+01  0.14386639194E+02  0.51100000000E-03 0.  1.
        -12    1    3    3    0    0 -0.53320616246E+01 -0.21816687412E+01  0.99948594159E+01  0.11536367470E+02  0.00000000000E+00 0.  1.
</event>
<event>
 7    1  0.2937071E-011  0.5052885E+02  0.7816164E-02  0.1300439E+00
        -11   -1    0    0    0    0  0.00000000000E+00  0.00000000000E+00  0.45593999997E+02  0.45594000000E+02  0.51100000000E-03 0. -1.
         11   -1    0    0    0    0 -0.00000000000E+00 -0.00000000000E+00 -0.45593999997E+02  0.45594000000E+02  0.51100000000E-03 0.  1.
    9900012    2    1    2    0    0 -0.16343352936E+02  0.70598154113E+01  0.36554345511E+02  0.50528851527E+02  0.29999974702E+02 0.  0.
        -12    1    1    2    0    0  0.16343352936E+02 -0.70598154113E+01 -0.36554345511E+02  0.40659148473E+02  0.00000000000E+00 0.  1.
         11    1    3    3    0    0 -0.11759746609E+02  0.96542364404E+01  0.25104960136E+02  0.29355662916E+02  0.51100000000E-03 0. -1.
        -11    1    3    3    0    0 -0.11085758109E+02 -0.11710811029E+01  0.74546555085E+01  0.13410344992E+02  0.51100000000E-03 0.  1.
        -12    1    3    3    0    0  0.65021517822E+01 -0.14233399261E+01  0.39947298660E+01  0.77628436186E+01  0.00000000000E+00 0.  1.
</event>
<event>
 7    1  0.2937071E-011  0.5052882E+02  0.7816164E-02  0.1300439E+00
        -11   -1    0    0    0    0  0.00000000000E+00  0.00000000000E+00  0.45593999997E+02  0.45594000000E+02  0.51100000000E-03 0.  1.
         11   -1    0    0    0    0 -0.00000000000E+00 -0.00000000000E+00 -0.45593999997E+02  0.45594000000E+02  0.51100000000E-03 0. -1.
    9900012    2    1    2    0    0  0.31033943414E+02  0.53637045728E+01 -0.25715642215E+02  0.50528816227E+02  0.29999867403E+02 0.  0.
        -12    1    1    2    0    0 -0.31033943414E+02 -0.53637045728E+01  0.25715642215E+02  0.40659183773E+02  0.00000000000E+00 0.  1.
         11    1    3    3    0    0  0.12061329681E+02 -0.35463785366E+00 -0.65324722351E+01  0.13721320471E+02  0.51100000000E-03 0. -1.
        -11    1    3    3    0    0  0.30303583284E+01  0.12104161851E+02 -0.22295245231E+01  0.12675353469E+02  0.51100000000E-03 0.  1.
         12    1    3    3    0    0  0.15942255404E+02 -0.63858194242E+01 -0.16953645457E+02  0.24132142287E+02  0.00000000000E+00 0. -1.
</event>
<event>
 7    1  0.2937071E-011  0.5052885E+02  0.7816164E-02  0.1300439E+00
        -11   -1    0    0    0    0  0.00000000000E+00  0.00000000000E+00  0.45593999997E+02  0.45594000000E+02  0.51100000000E-03 0.  1.
         11   -1    0    0    0    0 -0.00000000000E+00 -0.00000000000E+00 -0.45593999997E+02  0.45594000000E+02  0.51100000000E-03 0. -1.
    9900012    2    1    2    0    0 -0.85415572614E+01  0.36611859662E+02 -0.15484828653E+02  0.50528851131E+02  0.29999973497E+02 0.  0.
        -12    1    1    2    0    0  0.85415572614E+01 -0.36611859662E+02  0.15484828653E+02  0.40659148869E+02  0.00000000000E+00 0.  1.
         11    1    3    3    0    0 -0.53386700778E+01  0.27703366533E+02 -0.95734793752E+01  0.29793110328E+02  0.51100000000E-03 0. -1.
        -11    1    3    3    0    0 -0.92922835013E+01  0.73169603998E+01 -0.77961928859E+01  0.14165629740E+02  0.51100000000E-03 0.  1.
        -12    1    3    3    0    0  0.60893963176E+01  0.15915327296E+01  0.18848436083E+01  0.65701110622E+01  0.00000000000E+00 0.  1.
</event>
<event>
 7    1  0.2937071E-011  0.5052884E+02  0.7816164E-02  0.1300439E+00
        -11   -1    0    0    0    0  0.00000000000E+00  0.00000000000E+00  0.45593999997E+02  0.45594000000E+02  0.51100000000E-03 0. -1.
         11   -1    0    0    0    0 -0.00000000000E+00 -0.00000000000E+00 -0.45593999997E+02  0.45594000000E+02  0.51100000000E-03 0.  1.
    9900012    2    1    2    0    0  0.50133423973E+01 -0.31021003834E+02  0.25801756623E+02  0.50528844504E+02  0.29999953353E+02 0.  0.
        -12    1    1    2    0    0 -0.50133423973E+01  0.31021003834E+02 -0.25801756623E+02  0.40659155496E+02  0.00000000000E+00 0.  1.
         11    1    3    3    0    0 -0.31994000100E+01 -0.17539522503E+02  0.70116686972E+01  0.19158144697E+02  0.51100000000E-03 0. -1.
        -11    1    3    3    0    0  0.59821316530E+01 -0.87287165812E+01 -0.12489210128E+01  0.10655336514E+02  0.51100000000E-03 0.  1.
        -12    1    3    3    0    0  0.22306107543E+01 -0.47527647495E+01  0.20039008939E+02  0.20715363293E+02  0.00000000000E+00 0.  1.
</event>
<event>
 7    1  0.2937071E-011  0.5052886E+02  0.7816164E-02  0.1300439E+00
        -11   -1    0    0    0    0  0.00000000000E+00  0.00000000000E+00  0.45593999997E+02  0.45594000000E+02  0.51100000000E-03 0. -1.
         11   -1    0    0    0    0 -0.00000000000E+00 -0.00000000000E+00 -0.45593999997E+02  0.45594000000E+02  0.51100000000E-03 0.  1.
    9900012    2    1    2    0    0 -0.26427148533E+02 -0.17943123345E+02  0.25155829342E+02  0.50528860746E+02  0.30000002725E+02 0.  0.
        -12    1    1    2    0    0  0.26427148533E+02  0.17943123345E+02 -0.25155829342E+02  0.40659139254E+02  0.00000000000E+00 0.  1.
         11    1    3    3    0    0 -0.11639308748E+02  0.30591586208E+01  0.18810099214E+02  0.22330512585E+02  0.51100000000E-03 0.  1.
        -11    1    3    3    0    0 -0.62893120008E+01 -0.22611372908E+01  0.67042821926E-01  0.66837625850E+01  0.51100000000E-03 0. -1.
        -12    1    3    3    0    0 -0.84985277842E+01 -0.18741144675E+02  0.62786873059E+01  0.21514585577E+02  0.00000000000E+00 0.  1.
</event>
<event>
 7    1  0.2937071E-011  0.5052886E+02  0.7816164E-02  0.1300439E+00
        -11   -1    0    0    0    0  0.00000000000E+00  0.00000000000E+00  0.45593999997E+02  0.45594000000E+02  0.51100000000E-03 0. -1.
         11   -1    0    0    0    0 -0.00000000000E+00 -0.00000000000E+00 -0.45593999997E+02  0.45594000000E+02  0.51100000000E-03 0.  1.
    9900012    2    1    2    0    0  0.11730520408E+02  0.22440092000E+02  0.31811991235E+02  0.50528860506E+02  0.30000001995E+02 0.  0.
        -12    1    1    2    0    0 -0.11730520408E+02 -0.22440092000E+02 -0.31811991235E+02  0.40659139494E+02  0.00000000000E+00 0.  1.
         11    1    3    3    0    0  0.98451073655E+01  0.96020868512E+01  0.24740554782E+02  0.28305852082E+02  0.51100000000E-03 0. -1.
        -11    1    3    3    0    0 -0.27437248429E+01 -0.32854694169E+01  0.11306243257E+01  0.44272617869E+01  0.51100000000E-03 0.  1.
         12    1    3    3    0    0  0.46291378852E+01  0.16123474566E+02  0.59408121278E+01  0.17795746637E+02  0.00000000000E+00 0. -1.
</event>
<event>
 7    1  0.2937071E-011  0.5052886E+02  0.7816164E-02  0.1300439E+00
        -11   -1    0    0    0    0  0.00000000000E+00  0.00000000000E+00  0.45593999997E+02  0.45594000000E+02  0.51100000000E-03 0. -1.
         11   -1    0    0    0    0 -0.00000000000E+00 -0.00000000000E+00 -0.45593999997E+02  0.45594000000E+02  0.51100000000E-03 0.  1.
    9900012    2    1    2    0    0 -0.12556366827E+02  0.20638787710E+02  0.32703879696E+02  0.50528860152E+02  0.30000000918E+02 0.  0.
        -12    1    1    2    0    0  0.12556366827E+02 -0.20638787710E+02 -0.32703879696E+02  0.40659139848E+02  0.00000000000E+00 0.  1.
         11    1    3    3    0    0  0.39583477502E+01  0.12938446177E+02  0.12594844078E+02  0.18485183364E+02  0.51100000000E-03 0. -1.
        -11    1    3    3    0    0 -0.38625116787E+01 -0.51280574158E+01  0.26210379238E+01  0.69343932241E+01  0.51100000000E-03 0.  1.
        -12    1    3    3    0    0 -0.12652202898E+02  0.12828398949E+02  0.17487997694E+02  0.25109283564E+02  0.00000000000E+00 0.  1.
</event>
<event>
 7    1  0.2937071E-011  0.5052886E+02  0.7816164E-02  0.1300439E+00
        -11   -1    0    0    0    0  0.00000000000E+00  0.00000000000E+00  0.45593999997E+02  0.45594000000E+02  0.51100000000E-03 0.  1.
         11   -1    0    0    0    0 -0.00000000000E+00 -0.00000000000E+00 -0.45593999997E+02  0.45594000000E+02  0.51100000000E-03 0. -1.
    9900012    2    1    2    0    0  0.37346930344E+02  0.11011172842E+02 -0.11710103174E+02  0.50528860194E+02  0.30000001044E+02 0.  0.
        -12    1    1    2    0    0 -0.37346930344E+02 -0.11011172842E+02  0.11710103174E+02  0.40659139806E+02  0.00000000000E+00 0.  1.
         11    1    3    3    0    0  0.21205688521E+02  0.19925994284E+02 -0.93026609531E+01  0.30549402203E+02  0.51100000000E-03 0.  1.
        -11    1    3    3    0    0  0.93652480928E+01 -0.56165480847E+01 -0.49990968331E+01  0.12010181249E+02  0.51100000000E-03 0. -1.
        -12    1    3    3    0    0  0.67759937294E+01 -0.32982733570E+01  0.25916546121E+01  0.79692767417E+01  0.00000000000E+00 0.  1.
</event>
<event>
 7    1  0.2937071E-011  0.5052887E+02  0.7816164E-02  0.1300439E+00
        -11   -1    0    0    0    0  0.00000000000E+00  0.00000000000E+00  0.45593999997E+02  0.45594000000E+02  0.51100000000E-03 0. -1.
         11   -1    0    0    0    0 -0.00000000000E+00 -0.00000000000E+00 -0.45593999997E+02  0.45594000000E+02  0.51100000000E-03 0.  1.
    9900012    2    1    2    0    0 -0.26362558277E+02 -0.28813250689E+02 -0.11312679018E+02  0.50528873095E+02  0.30000040259E+02 0.  0.
        -12    1    1    2    0    0  0.26362558277E+02  0.28813250689E+02  0.11312679018E+02  0.40659126905E+02  0.00000000000E+00 0.  1.
         11    1    3    3    0    0 -0.20924558981E+01 -0.62079851453E+01 -0.81773166072E+01  0.10477879480E+02  0.51100000000E-03 0. -1.
        -11    1    3    3    0    0  0.46984345388E-01 -0.64657332794E+01 -0.81858881493E+01  0.10431523351E+02  0.51100000000E-03 0.  1.
         12    1    3    3    0    0 -0.24317086724E+02 -0.16139532264E+02  0.50505257385E+01  0.29619470263E+02  0.00000000000E+00 0. -1.
</event>
<event>
 7    1  0.2937071E-011  0.5052884E+02  0.7816164E-02  0.1300439E+00
        -11   -1    0    0    0    0  0.00000000000E+00  0.00000000000E+00  0.45593999997E+02  0.45594000000E+02  0.51100000000E-03 0. -1.
         11   -1    0    0    0    0 -0.00000000000E+00 -0.00000000000E+00 -0.45593999997E+02  0.45594000000E+02  0.51100000000E-03 0.  1.
    9900012    2    1    2    0    0  0.35890260120E+02  0.90578571271E+01  0.16822945992E+02  0.50528842864E+02  0.29999948368E+02 0.  0.
        -12    1    1    2    0    0 -0.35890260120E+02 -0.90578571271E+01 -0.16822945992E+02  0.40659157136E+02  0.00000000000E+00 0.  1.
         11    1    3    3    0    0  0.18170339773E+02  0.38989947226E+01  0.10984596840E+02  0.21587606984E+02  0.51100000000E-03 0. -1.
        -11    1    3    3    0    0  0.20768734581E+02  0.39728260318E+01 -0.12004677973E+01  0.21179348573E+02  0.51100000000E-03 0.  1.
        -12    1    3    3    0    0 -0.30488142342E+01  0.11860363726E+01  0.70388169494E+01  0.77618873065E+01  0.00000000000E+00 0.  1.
</event>
<event>
 7    1  0.2937071E-011  0.5052886E+02  0.7816164E-02  0.1300439E+00
        -11   -1    0    0    0    0  0.00000000000E+00  0.00000000000E+00  0.45593999997E+02  0.45594000000E+02  0.51100000000E-03 0. -1.
         11   -1    0    0    0    0 -0.00000000000E+00 -0.00000000000E+00 -0.45593999997E+02  0.45594000000E+02  0.51100000000E-03 0.  1.
    9900012    2    1    2    0    0 -0.31785105189E+02  0.12826802428E+02 -0.21871116836E+02  0.50528861740E+02  0.30000005744E+02 0.  0.
        -12    1    1    2    0    0  0.31785105189E+02 -0.12826802428E+02  0.21871116836E+02  0.40659138260E+02  0.00000000000E+00 0.  1.
         11    1    3    3    0    0 -0.52866074674E+01  0.14399879758E+00 -0.45076354632E+01  0.69489374655E+01  0.51100000000E-03 0. -1.
        -11    1    3    3    0    0 -0.31456324369E+02  0.14056839728E+02 -0.17006464069E+02  0.38422843548E+02  0.51100000000E-03 0.  1.
         12    1    3    3    0    0  0.49578266470E+01 -0.13740360980E+01 -0.35701730407E+00  0.51570807261E+01  0.00000000000E+00 0. -1.
</event>
<event>
 7    1  0.2937071E-011  0.5052886E+02  0.7816164E-02  0.1300439E+00
        -11   -1    0    0    0    0  0.00000000000E+00  0.00000000000E+00  0.45593999997E+02  0.45594000000E+02  0.51100000000E-03 0.  1.
         11   -1    0    0    0    0 -0.00000000000E+00 -0.00000000000E+00 -0.45593999997E+02  0.45594000000E+02  0.51100000000E-03 0. -1.
    9900012    2    1    2    0    0 -0.11359074841E+02  0.29192936251E+02  0.25921221155E+02  0.50528858170E+02  0.29999994894E+02 0.  0.
        -12    1    1    2    0    0  0.11359074841E+02 -0.29192936251E+02 -0.25921221155E+02  0.40659141830E+02  0.00000000000E+00 0.  1.
         11    1    3    3    0    0 -0.10237640599E+02  0.71522629846E+01  0.48786152327E+01  0.13407648477E+02  0.51100000000E-03 0. -1.
        -11    1    3    3    0    0 -0.91854231487E+01  0.78955779116E+01  0.23619869637E+01  0.12340629306E+02  0.51100000000E-03 0.  1.
        -12    1    3    3    0    0  0.80639889064E+01  0.14145095355E+02  0.18680618958E+02  0.24780580388E+02  0.00000000000E+00 0.  1.
</event>
<event>
 7    1  0.2937071E-011  0.5052886E+02  0.7816164E-02  0.1300439E+00
        -11   -1    0    0    0    0  0.00000000000E+00  0.00000000000E+00  0.45593999997E+02  0.45594000000E+02  0.51100000000E-03 0.  1.
         11   -1    0    0    0    0 -0.00000000000E+00 -0.00000000000E+00 -0.45593999997E+02  0.45594000000E+02  0.51100000000E-03 0. -1.
    9900012    2    1    2    0    0  0.36463005107E+02 -0.28682217962E+01 -0.17759170907E+02  0.50528860942E+02  0.30000003318E+02 0.  0.
        -12    1    1    2    0    0 -0.36463005107E+02  0.28682217962E+01  0.17759170907E+02  0.40659139058E+02  0.00000000000E+00 0.  1.
         11    1    3    3    0    0  0.23776419608E+02 -0.11502450875E+02 -0.14118055710E+02  0.29949023403E+02  0.51100000000E-03 0. -1.
        -11    1    3    3    0    0 -0.42628998748E+00 -0.19515750757E+01 -0.31379533006E+01  0.37198279003E+01  0.51100000000E-03 0.  1.
        -12    1    3    3    0    0  0.13112875486E+02  0.10585804154E+02 -0.50316189610E+00  0.16860009638E+02  0.00000000000E+00 0.  1.
</event>
<event>
 7    1  0.2937071E-011  0.5052886E+02  0.7816164E-02  0.1300439E+00
        -11   -1    0    0    0    0  0.00000000000E+00  0.00000000000E+00  0.45593999997E+02  0.45594000000E+02  0.51100000000E-03 0.  1.
         11   -1    0    0    0    0 -0.00000000000E+00 -0.00000000000E+00 -0.45593999997E+02  0.45594000000E+02  0.51100000000E-03 0. -1.
    9900012    2    1    2    0    0  0.25654704860E+02 -0.85335799296E+01 -0.30367412697E+02  0.50528860539E+02  0.30000002093E+02 0.  0.
        -12    1    1    2    0    0 -0.25654704860E+02  0.85335799296E+01  0.30367412697E+02  0.40659139461E+02  0.00000000000E+00 0.  1.
         11    1    3    3    0    0  0.14573560484E+02 -0.10530779492E+02 -0.27474726945E+02  0.32835142802E+02  0.51100000000E-03 0. -1.
        -11    1    3    3    0    0  0.32602875305E+01 -0.43704908621E+01 -0.49915776898E+01  0.73923279994E+01  0.51100000000E-03 0.  1.
        -12    1    3    3    0    0  0.78208568455E+01  0.63676904249E+01  0.20988919379E+01  0.10301389737E+02  0.00000000000E+00 0.  1.
</event>
<event>
 7    1  0.2937071E-011  0.5052890E+02  0.7816164E-02  0.1300439E+00
        -11   -1    0    0    0    0  0.00000000000E+00  0.00000000000E+00  0.45593999997E+02  0.45594000000E+02  0.51100000000E-03 0.  1.
         11   -1    0    0    0    0 -0.00000000000E+00 -0.00000000000E+00 -0.45593999997E+02  0.45594000000E+02  0.51100000000E-03 0. -1.
    9900012    2    1    2    0    0  0.27988654463E+02  0.65253522920E+01 -0.28761391519E+02  0.50528897165E+02  0.30000113423E+02 0.  0.
        -12    1    1    2    0    0 -0.27988654463E+02 -0.65253522920E+01  0.28761391519E+02  0.40659102835E+02  0.00000000000E+00 0.  1.
         11    1    3    3    0    0 -0.15358999860E+00 -0.27218195911E+01 -0.11080731847E+02  0.11411157272E+02  0.51100000000E-03 0. -1.
        -11    1    3    3    0    0  0.26697420947E+02  0.32152596827E+01 -0.18805978894E+02  0.32813945549E+02  0.51100000000E-03 0.  1.
        -12    1    3    3    0    0  0.14448235153E+01  0.60319122003E+01  0.11253192214E+01  0.63037943441E+01  0.00000000000E+00 0.  1.
</event>
<event>
 7    1  0.3894485E-011  0.5052888E+02  0.7816164E-02  0.1300439E+00
        -11   -1    0    0    0    0  0.00000000000E+00  0.00000000000E+00  0.45593999997E+02  0.45594000000E+02  0.51100000000E-03 0.  1.
         11   -1    0    0    0    0 -0.00000000000E+00 -0.00000000000E+00 -0.45593999997E+02  0.45594000000E+02  0.51100000000E-03 0. -1.
    9900012    2    1    2    0    0 -0.16760088010E+02 -0.58097983553E+01 -0.36585649259E+02  0.50528880005E+02  0.30000061265E+02 0.  0.
        -12    1    1    2    0    0  0.16760088010E+02  0.58097983553E+01  0.36585649259E+02  0.40659119995E+02  0.00000000000E+00 0.  1.
         11    1    3    3    0    0 -0.35916059798E+01  0.13408358939E+01 -0.55108180069E+01  0.67131654065E+01  0.51100000000E-03 0. -1.
        -11    1    3    3    0    0 -0.19220446015E+01  0.43651541482E+01  0.33399017368E+01  0.58226943987E+01  0.51100000000E-03 0.  1.
        -12    1    3    3    0    0 -0.11246437429E+02 -0.11515788397E+02 -0.34414732989E+02  0.37993020200E+02  0.00000000000E+00 0.  1.
</event>
<event>
 7    1  0.2937071E-011  0.5052887E+02  0.7816164E-02  0.1300439E+00
        -11   -1    0    0    0    0  0.00000000000E+00  0.00000000000E+00  0.45593999997E+02  0.45594000000E+02  0.51100000000E-03 0.  1.
         11   -1    0    0    0    0 -0.00000000000E+00 -0.00000000000E+00 -0.45593999997E+02  0.45594000000E+02  0.51100000000E-03 0. -1.
    9900012    2    1    2    0    0  0.86336448932E+01 -0.67568121487E+01 -0.39153167643E+02  0.50528869770E+02  0.30000030153E+02 0.  0.
        -12    1    1    2    0    0 -0.86336448932E+01  0.67568121487E+01  0.39153167643E+02  0.40659130230E+02  0.00000000000E+00 0.  1.
         11    1    3    3    0    0 -0.37603676110E+01 -0.43632035920E+01 -0.93801824270E+01  0.11007530730E+02  0.51100000000E-03 0. -1.
        -11    1    3    3    0    0 -0.49963296766E+01  0.71580625140E+00 -0.16967324670E+02  0.17702140987E+02  0.51100000000E-03 0.  1.
         12    1    3    3    0    0  0.17390342181E+02 -0.31094148081E+01 -0.12805660547E+02  0.21819198052E+02  0.00000000000E+00 0. -1.
</event>
<event>
 7    1  0.2937071E-011  0.5052887E+02  0.7816164E-02  0.1300439E+00
        -11   -1    0    0    0    0  0.00000000000E+00  0.00000000000E+00  0.45593999997E+02  0.45594000000E+02  0.51100000000E-03 0.  1.
         11   -1    0    0    0    0 -0.00000000000E+00 -0.00000000000E+00 -0.45593999997E+02  0.45594000000E+02  0.51100000000E-03 0. -1.
    9900012    2    1    2    0    0 -0.25378725182E+02 -0.17822719387E+02 -0.26295167019E+02  0.50528870315E+02  0.30000031808E+02 0.  0.
        -12    1    1    2    0    0  0.25378725182E+02  0.17822719387E+02  0.26295167019E+02  0.40659129685E+02  0.00000000000E+00 0.  1.
         11    1    3    3    0    0 -0.27450691394E+02 -0.22984138475E+02 -0.21368478717E+02  0.41694399652E+02  0.51100000000E-03 0. -1.
        -11    1    3    3    0    0  0.12442936221E+01  0.33235573473E+00 -0.35031202673E+01  0.37323690628E+01  0.51100000000E-03 0.  1.
        -12    1    3    3    0    0  0.82767258953E+00  0.48290633529E+01 -0.14235680345E+01  0.51021015994E+01  0.00000000000E+00 0.  1.
</event>
<event>
 7    1  0.2937071E-011  0.5052886E+02  0.7816164E-02  0.1300439E+00
        -11   -1    0    0    0    0  0.00000000000E+00  0.00000000000E+00  0.45593999997E+02  0.45594000000E+02  0.51100000000E-03 0.  1.
         11   -1    0    0    0    0 -0.00000000000E+00 -0.00000000000E+00 -0.45593999997E+02  0.45594000000E+02  0.51100000000E-03 0. -1.
    9900012    2    1    2    0    0 -0.21063776280E+02 -0.10675864705E+02 -0.33098469698E+02  0.50528862593E+02  0.30000008336E+02 0.  0.
        -12    1    1    2    0    0  0.21063776280E+02  0.10675864705E+02  0.33098469698E+02  0.40659137407E+02  0.00000000000E+00 0.  1.
         11    1    3    3    0    0  0.21006863012E+01 -0.30712291466E+01 -0.71519199320E+01  0.80619656649E+01  0.51100000000E-03 0. -1.
        -11    1    3    3    0    0 -0.50940511993E+01 -0.13643346264E+02 -0.11503894532E+02  0.18558821206E+02  0.51100000000E-03 0.  1.
        -12    1    3    3    0    0 -0.18070411382E+02  0.60387107056E+01 -0.14442655234E+02  0.23908075722E+02  0.00000000000E+00 0.  1.
</event>
<event>
 7    1  0.2937071E-011  0.5052886E+02  0.7816164E-02  0.1300439E+00
        -11   -1    0    0    0    0  0.00000000000E+00  0.00000000000E+00  0.45593999997E+02  0.45594000000E+02  0.51100000000E-03 0. -1.
         11   -1    0    0    0    0 -0.00000000000E+00 -0.00000000000E+00 -0.45593999997E+02  0.45594000000E+02  0.51100000000E-03 0.  1.
    9900012    2    1    2    0    0  0.17397344123E+02 -0.12288059604E+01  0.36728570354E+02  0.50528862935E+02  0.30000009377E+02 0.  0.
        -12    1    1    2    0    0 -0.17397344123E+02  0.12288059604E+01 -0.36728570354E+02  0.40659137065E+02  0.00000000000E+00 0.  1.
         11    1    3    3    0    0  0.36212280512E+01  0.52593809021E+01  0.37607666148E+01  0.74106508395E+01  0.51100000000E-03 0. -1.
        -11    1    3    3    0    0 -0.65501751735E+00  0.48222751562E+01 -0.56574161098E+00  0.48993315322E+01  0.51100000000E-03 0.  1.
         12    1    3    3    0    0  0.14431133589E+02 -0.11310462019E+02  0.33533545350E+02  0.38218880563E+02  0.00000000000E+00 0. -1.
</event>
<event>
 7    1  0.2937071E-011  0.5052886E+02  0.7816164E-02  0.1300439E+00
        -11   -1    0    0    0    0  0.00000000000E+00  0.00000000000E+00  0.45593999997E+02  0.45594000000E+02  0.51100000000E-03 0. -1.
         11   -1    0    0    0    0 -0.00000000000E+00 -0.00000000000E+00 -0.45593999997E+02  0.45594000000E+02  0.51100000000E-03 0.  1.
    9900012    2    1    2    0    0 -0.38179860443E+02  0.93149174808E+01  0.10425758576E+02  0.50528857448E+02  0.29999992700E+02 0.  0.
        -12    1    1    2    0    0  0.38179860443E+02 -0.93149174808E+01 -0.10425758576E+02  0.40659142552E+02  0.00000000000E+00 0.  1.
         11    1    3    3    0    0 -0.18797153526E+02  0.19107021670E+01  0.10563618527E+02  0.21646565549E+02  0.51100000000E-03 0. -1.
        -11    1    3    3    0    0 -0.14724082289E+02 -0.31120312202E+01  0.55635619493E+01  0.16044829678E+02  0.51100000000E-03 0.  1.
        -12    1    3    3    0    0 -0.46586246285E+01  0.10516246534E+02 -0.57014219004E+01  0.12837462221E+02  0.00000000000E+00 0.  1.
</event>
<event>
 7    1  0.2937071E-011  0.5052887E+02  0.7816164E-02  0.1300439E+00
        -11   -1    0    0    0    0  0.00000000000E+00  0.00000000000E+00  0.45593999997E+02  0.45594000000E+02  0.51100000000E-03 0.  1.
         11   -1    0    0    0    0 -0.00000000000E+00 -0.00000000000E+00 -0.45593999997E+02  0.45594000000E+02  0.51100000000E-03 0. -1.
    9900012    2    1    2    0    0  0.42505879995E+01 -0.14864754832E+02 -0.37605009188E+02  0.50528866332E+02  0.30000019704E+02 0.  0.
        -12    1    1    2    0    0 -0.42505879995E+01  0.14864754832E+02  0.37605009188E+02  0.40659133668E+02  0.00000000000E+00 0.  1.
         11    1    3    3    0    0 -0.11234797433E+01  0.15957995743E+01 -0.24626266716E+00  0.19670863166E+01  0.51100000000E-03 0.  1.
        -11    1    3    3    0    0  0.90095091817E+01 -0.75713619663E+01 -0.20191088644E+01  0.11940417856E+02  0.51100000000E-03 0. -1.
         12    1    3    3    0    0 -0.36354414388E+01 -0.88891924403E+01 -0.35339637657E+02  0.36621362159E+02  0.00000000000E+00 0. -1.
</event>
<event>
 7    1  0.2937071E-011  0.5052888E+02  0.7816164E-02  0.1300439E+00
        -11   -1    0    0    0    0  0.00000000000E+00  0.00000000000E+00  0.45593999997E+02  0.45594000000E+02  0.51100000000E-03 0.  1.
         11   -1    0    0    0    0 -0.00000000000E+00 -0.00000000000E+00 -0.45593999997E+02  0.45594000000E+02  0.51100000000E-03 0. -1.
    9900012    2    1    2    0    0  0.99334550388E+01  0.25549973916E+02 -0.30028139209E+02  0.50528882443E+02  0.30000068675E+02 0.  0.
        -12    1    1    2    0    0 -0.99334550388E+01 -0.25549973916E+02  0.30028139209E+02  0.40659117557E+02  0.00000000000E+00 0.  1.
         11    1    3    3    0    0 -0.31943896043E+00  0.81834146071E+01 -0.94863797651E+01  0.12532426628E+02  0.51100000000E-03 0. -1.
        -11    1    3    3    0    0 -0.40392225914E+01  0.10191535207E+02 -0.18992706621E+02  0.21929560280E+02  0.51100000000E-03 0.  1.
        -12    1    3    3    0    0  0.14292116591E+02  0.71750241021E+01 -0.15490528232E+01  0.16066895536E+02  0.00000000000E+00 0.  1.
</event>
<event>
 7    1  0.2937071E-011  0.5052883E+02  0.7816164E-02  0.1300439E+00
        -11   -1    0    0    0    0  0.00000000000E+00  0.00000000000E+00  0.45593999997E+02  0.45594000000E+02  0.51100000000E-03 0.  1.
         11   -1    0    0    0    0 -0.00000000000E+00 -0.00000000000E+00 -0.45593999997E+02  0.45594000000E+02  0.51100000000E-03 0. -1.
    9900012    2    1    2    0    0 -0.11604460559E+01 -0.26689821011E+02 -0.30650853236E+02  0.50528831480E+02  0.29999913766E+02 0.  0.
        -12    1    1    2    0    0  0.11604460559E+01  0.26689821011E+02  0.30650853236E+02  0.40659168520E+02  0.00000000000E+00 0.  1.
         11    1    3    3    0    0  0.36786766992E+00 -0.35395177633E+01 -0.16701206449E+02  0.17076118111E+02  0.51100000000E-03 0. -1.
        -11    1    3    3    0    0 -0.70752529474E+01 -0.35512627126E+01 -0.99156647636E+01  0.12688226002E+02  0.51100000000E-03 0.  1.
        -12    1    3    3    0    0  0.55469392216E+01 -0.19599040535E+02 -0.40339820234E+01  0.20764487366E+02  0.00000000000E+00 0.  1.
</event>
<event>
 7    1  0.2937071E-011  0.5052886E+02  0.7816164E-02  0.1300439E+00
        -11   -1    0    0    0    0  0.00000000000E+00  0.00000000000E+00  0.45593999997E+02  0.45594000000E+02  0.51100000000E-03 0. -1.
         11   -1    0    0    0    0 -0.00000000000E+00 -0.00000000000E+00 -0.45593999997E+02  0.45594000000E+02  0.51100000000E-03 0.  1.
    9900012    2    1    2    0    0  0.17376065069E+02  0.23067100495E+02  0.28620740089E+02  0.50528861719E+02  0.30000005680E+02 0.  0.
        -12    1    1    2    0    0 -0.17376065069E+02 -0.23067100495E+02 -0.28620740089E+02  0.40659138281E+02  0.00000000000E+00 0.  1.
         11    1    3    3    0    0  0.64589013035E+01  0.16518236179E+02  0.14715269761E+02  0.23045795645E+02  0.51100000000E-03 0. -1.
        -11    1    3    3    0    0 -0.36165006622E+01  0.23032416873E+01  0.11343451928E+02  0.12126743223E+02  0.51100000000E-03 0.  1.
        -12    1    3    3    0    0  0.14533664428E+02  0.42456226291E+01  0.25620184007E+01  0.15356322851E+02  0.00000000000E+00 0.  1.
</event>
<event>
 7    1  0.2937071E-011  0.5052886E+02  0.7816164E-02  0.1300439E+00
        -11   -1    0    0    0    0  0.00000000000E+00  0.00000000000E+00  0.45593999997E+02  0.45594000000E+02  0.51100000000E-03 0. -1.
         11   -1    0    0    0    0 -0.00000000000E+00 -0.00000000000E+00 -0.45593999997E+02  0.45594000000E+02  0.51100000000E-03 0.  1.
    9900012    2    1    2    0    0 -0.24440269587E+02 -0.20205732600E+02 -0.25447345032E+02  0.50528858635E+02  0.29999996306E+02 0.  0.
        -12    1    1    2    0    0  0.24440269587E+02  0.20205732600E+02  0.25447345032E+02  0.40659141365E+02  0.00000000000E+00 0.  1.
         11    1    3    3    0    0 -0.44457688579E+01 -0.41108527003E+01  0.29918263284E+01  0.67538874511E+01  0.51100000000E-03 0. -1.
        -11    1    3    3    0    0 -0.15794841911E+01 -0.23006565899E+01 -0.18503619381E+02  0.18712875821E+02  0.51100000000E-03 0.  1.
         12    1    3    3    0    0 -0.18415016538E+02 -0.13794223309E+02 -0.99355519798E+01  0.25062095362E+02  0.00000000000E+00 0. -1.
</event>
<event>
 7    1  0.2937071E-011  0.5052885E+02  0.7816164E-02  0.1300439E+00
        -11   -1    0    0    0    0  0.00000000000E+00  0.00000000000E+00  0.45593999997E+02  0.45594000000E+02  0.51100000000E-03 0.  1.
         11   -1    0    0    0    0 -0.00000000000E+00 -0.00000000000E+00 -0.45593999997E+02  0.45594000000E+02  0.51100000000E-03 0. -1.
    9900012    2    1    2    0    0  0.25158454517E+02 -0.26276917495E+02 -0.18158799874E+02  0.50528852941E+02  0.29999978999E+02 0.  0.
        -12    1    1    2    0    0 -0.25158454517E+02  0.26276917495E+02  0.18158799874E+02  0.40659147059E+02  0.00000000000E+00 0.  1.
         11    1    3    3    0    0  0.12097206755E+02 -0.54530278049E+01 -0.16649504585E+02  0.21290465629E+02  0.51100000000E-03 0. -1.
        -11    1    3    3    0    0 -0.26060528125E+00 -0.13864884618E+01 -0.51988125811E+01  0.53868281838E+01  0.51100000000E-03 0.  1.
        -12    1    3    3    0    0  0.13321853043E+02 -0.19437401228E+02  0.36895172914E+01  0.23851559128E+02  0.00000000000E+00 0.  1.
</event>
<event>
 7    1  0.2937071E-011  0.5052885E+02  0.7816164E-02  0.1300439E+00
        -11   -1    0    0    0    0  0.00000000000E+00  0.00000000000E+00  0.45593999997E+02  0.45594000000E+02  0.51100000000E-03 0. -1.
         11   -1    0    0    0    0 -0.00000000000E+00 -0.00000000000E+00 -0.45593999997E+02  0.45594000000E+02  0.51100000000E-03 0.  1.
    9900012    2    1    2    0    0 -0.84798891827E+00 -0.20164697109E+02  0.35296345204E+02  0.50528854909E+02  0.29999984982E+02 0.  0.
        -12    1    1    2    0    0  0.84798891827E+00  0.20164697109E+02 -0.35296345204E+02  0.40659145091E+02  0.00000000000E+00 0.  1.
         11    1    3    3    0    0 -0.14094803306E+01  0.12672855703E+01  0.40721754601E+01  0.44916879631E+01  0.51100000000E-03 0.  1.
        -11    1    3    3    0    0 -0.20703457904E+01 -0.17402585112E+01 -0.44480898565E+01  0.52057982106E+01  0.51100000000E-03 0. -1.
         12    1    3    3    0    0  0.26318372028E+01 -0.19691724168E+02  0.35672259601E+02  0.40831368736E+02  0.00000000000E+00 0. -1.
</event>
<event>
 7    1  0.2937071E-011  0.5052885E+02  0.7816164E-02  0.1300439E+00
        -11   -1    0    0    0    0  0.00000000000E+00  0.00000000000E+00  0.45593999997E+02  0.45594000000E+02  0.51100000000E-03 0. -1.
         11   -1    0    0    0    0 -0.00000000000E+00 -0.00000000000E+00 -0.45593999997E+02  0.45594000000E+02  0.51100000000E-03 0.  1.
    9900012    2    1    2    0    0  0.11686493178E+01  0.26725099376E+01  0.40554388348E+02  0.50528850171E+02  0.29999970579E+02 0.  0.
        -12    1    1    2    0    0 -0.11686493178E+01 -0.26725099376E+01 -0.40554388348E+02  0.40659149829E+02  0.00000000000E+00 0.  1.
         11    1    3    3    0    0  0.44562576265E+01 -0.43908039972E+01  0.85513442590E+00  0.63141624087E+01  0.51100000000E-03 0. -1.
        -11    1    3    3    0    0  0.17666158118E+01  0.48568582713E+01  0.11780694899E+01  0.53007406726E+01  0.51100000000E-03 0.  1.
         12    1    3    3    0    0 -0.50542241204E+01  0.22064556635E+01  0.38521184432E+02  0.38913947089E+02  0.00000000000E+00 0. -1.
</event>
<event>
 7    1  0.2937071E-011  0.5052886E+02  0.7816164E-02  0.1300439E+00
        -11   -1    0    0    0    0  0.00000000000E+00  0.00000000000E+00  0.45593999997E+02  0.45594000000E+02  0.51100000000E-03 0.  1.
         11   -1    0    0    0    0 -0.00000000000E+00 -0.00000000000E+00 -0.45593999997E+02  0.45594000000E+02  0.51100000000E-03 0. -1.
    9900012    2    1    2    0    0  0.20945971312E+02  0.80656247166E+01 -0.33902468227E+02  0.50528863657E+02  0.30000011572E+02 0.  0.
        -12    1    1    2    0    0 -0.20945971312E+02 -0.80656247166E+01  0.33902468227E+02  0.40659136343E+02  0.00000000000E+00 0.  1.
         11    1    3    3    0    0  0.62216940634E+01  0.49327809230E+01 -0.19473860757E+01  0.81752136023E+01  0.51100000000E-03 0. -1.
        -11    1    3    3    0    0  0.84134272349E+01  0.75010282034E+01 -0.20212235006E+01  0.11451485783E+02  0.51100000000E-03 0.  1.
        -12    1    3    3    0    0  0.63108500140E+01 -0.43681844099E+01 -0.29933858651E+02  0.30902164271E+02  0.00000000000E+00 0.  1.
</event>
<event>
 7    1  0.2937071E-011  0.5052886E+02  0.7816164E-02  0.1300439E+00
        -11   -1    0    0    0    0  0.00000000000E+00  0.00000000000E+00  0.45593999997E+02  0.45594000000E+02  0.51100000000E-03 0. -1.
         11   -1    0    0    0    0 -0.00000000000E+00 -0.00000000000E+00 -0.45593999997E+02  0.45594000000E+02  0.51100000000E-03 0.  1.
    9900012    2    1    2    0    0 -0.33511978755E+02 -0.88970221085E+01  0.21235728954E+02  0.50528857034E+02  0.29999991441E+02 0.  0.
        -12    1    1    2    0    0  0.33511978755E+02  0.88970221085E+01 -0.21235728954E+02  0.40659142966E+02  0.00000000000E+00 0.  1.
         11    1    3    3    0    0 -0.13309643772E+02 -0.14845832121E+02  0.96187998946E+01  0.22137449274E+02  0.51100000000E-03 0. -1.
        -11    1    3    3    0    0 -0.15395969571E+02 -0.60914442165E+00  0.12980765725E+02  0.20147139127E+02  0.51100000000E-03 0.  1.
        -12    1    3    3    0    0 -0.48063654121E+01  0.65579544340E+01 -0.13638366651E+01  0.82442686323E+01  0.00000000000E+00 0.  1.
</event>
<event>
 7    1  0.2937071E-011  0.5052886E+02  0.7816164E-02  0.1300439E+00
        -11   -1    0    0    0    0  0.00000000000E+00  0.00000000000E+00  0.45593999997E+02  0.45594000000E+02  0.51100000000E-03 0. -1.
         11   -1    0    0    0    0 -0.00000000000E+00 -0.00000000000E+00 -0.45593999997E+02  0.45594000000E+02  0.51100000000E-03 0.  1.
    9900012    2    1    2    0    0  0.51105043701E+01  0.39569047775E+02  0.78319344085E+01  0.50528855969E+02  0.29999988204E+02 0.  0.
        -12    1    1    2    0    0 -0.51105043701E+01 -0.39569047775E+02 -0.78319344085E+01  0.40659144031E+02  0.00000000000E+00 0.  1.
         11    1    3    3    0    0 -0.44584390144E+01  0.84810482441E+01 -0.62597176447E+01  0.11445082919E+02  0.51100000000E-03 0. -1.
        -11    1    3    3    0    0 -0.15211928097E+01  0.22646497582E+00  0.47392619481E+01  0.49825613919E+01  0.51100000000E-03 0.  1.
         12    1    3    3    0    0  0.11090136194E+02  0.30861534555E+02  0.93523901051E+01  0.34101211659E+02  0.00000000000E+00 0. -1.
</event>
<event>
 7    1  0.2937071E-011  0.5052886E+02  0.7816164E-02  0.1300439E+00
        -11   -1    0    0    0    0  0.00000000000E+00  0.00000000000E+00  0.45593999997E+02  0.45594000000E+02  0.51100000000E-03 0.  1.
         11   -1    0    0    0    0 -0.00000000000E+00 -0.00000000000E+00 -0.45593999997E+02  0.45594000000E+02  0.51100000000E-03 0. -1.
    9900012    2    1    2    0    0 -0.19934138813E+02 -0.30820970569E+02 -0.17488954587E+02  0.50528860196E+02  0.30000001051E+02 0.  0.
        -12    1    1    2    0    0  0.19934138813E+02  0.30820970569E+02  0.17488954587E+02  0.40659139804E+02  0.00000000000E+00 0.  1.
         11    1    3    3    0    0 -0.53206652283E+01 -0.66490228336E+01  0.12087562039E+01  0.86011670682E+01  0.51100000000E-03 0. -1.
        -11    1    3    3    0    0 -0.26991259242E+01 -0.16176579206E+00  0.53006255246E+01  0.59504689007E+01  0.51100000000E-03 0.  1.
         12    1    3    3    0    0 -0.11914347661E+02 -0.24010181944E+02 -0.23998336316E+02  0.35977224227E+02  0.00000000000E+00 0. -1.
</event>
<event>
 7    1  0.2937071E-011  0.5052886E+02  0.7816164E-02  0.1300439E+00
        -11   -1    0    0    0    0  0.00000000000E+00  0.00000000000E+00  0.45593999997E+02  0.45594000000E+02  0.51100000000E-03 0.  1.
         11   -1    0    0    0    0 -0.00000000000E+00 -0.00000000000E+00 -0.45593999997E+02  0.45594000000E+02  0.51100000000E-03 0. -1.
    9900012    2    1    2    0    0  0.34804664252E+02 -0.12891639956E+02 -0.16601395470E+02  0.50528863683E+02  0.30000011652E+02 0.  0.
        -12    1    1    2    0    0 -0.34804664252E+02  0.12891639956E+02  0.16601395470E+02  0.40659136317E+02  0.00000000000E+00 0.  1.
         11    1    3    3    0    0  0.38646014305E+01 -0.10843413041E+02 -0.57663489192E+01  0.12874996339E+02  0.51100000000E-03 0. -1.
        -11    1    3    3    0    0  0.14311964748E+02 -0.10025721810E+02 -0.35903124700E+01  0.17839220181E+02  0.51100000000E-03 0.  1.
        -12    1    3    3    0    0  0.16628098073E+02  0.79774948952E+01 -0.72447340812E+01  0.19814647164E+02  0.00000000000E+00 0.  1.
</event>
<event>
 7    1  0.2937071E-011  0.5052885E+02  0.7816164E-02  0.1300439E+00
        -11   -1    0    0    0    0  0.00000000000E+00  0.00000000000E+00  0.45593999997E+02  0.45594000000E+02  0.51100000000E-03 0.  1.
         11   -1    0    0    0    0 -0.00000000000E+00 -0.00000000000E+00 -0.45593999997E+02  0.45594000000E+02  0.51100000000E-03 0. -1.
    9900012    2    1    2    0    0 -0.20846147566E+02 -0.27721463513E+02 -0.21216159639E+02  0.50528845589E+02  0.29999956651E+02 0.  0.
        -12    1    1    2    0    0  0.20846147566E+02  0.27721463513E+02  0.21216159639E+02  0.40659154411E+02  0.00000000000E+00 0.  1.
         11    1    3    3    0    0 -0.23038856932E+01 -0.19366962629E+00  0.20846033285E+01  0.31130320445E+01  0.51100000000E-03 0. -1.
        -11    1    3    3    0    0 -0.12020312034E+02 -0.15737324391E+01 -0.29674605700E+00  0.12126524386E+02  0.51100000000E-03 0.  1.
         12    1    3    3    0    0 -0.65219498385E+01 -0.25954061447E+02 -0.23004016910E+02  0.35289289159E+02  0.00000000000E+00 0. -1.
</event>
<event>
 7    1  0.2937071E-011  0.5052885E+02  0.7816164E-02  0.1300439E+00
        -11   -1    0    0    0    0  0.00000000000E+00  0.00000000000E+00  0.45593999997E+02  0.45594000000E+02  0.51100000000E-03 0.  1.
         11   -1    0    0    0    0 -0.00000000000E+00 -0.00000000000E+00 -0.45593999997E+02  0.45594000000E+02  0.51100000000E-03 0. -1.
    9900012    2    1    2    0    0  0.37140918539E+02 -0.16531554962E+02  0.65265974696E+00  0.50528854606E+02  0.29999984061E+02 0.  0.
        -12    1    1    2    0    0 -0.37140918539E+02  0.16531554962E+02 -0.65265974696E+00  0.40659145394E+02  0.00000000000E+00 0.  1.
         11    1    3    3    0    0  0.33311741534E+02 -0.10382717152E+02 -0.15652642326E+01  0.34927396007E+02  0.51100000000E-03 0. -1.
        -11    1    3    3    0    0  0.33744202664E+01  0.20924986301E+01  0.54451837875E+01  0.67390866883E+01  0.51100000000E-03 0.  1.
        -12    1    3    3    0    0  0.45475673925E+00 -0.82413364402E+01 -0.32272598080E+01  0.88623719105E+01  0.00000000000E+00 0.  1.
</event>
<event>
 7    1  0.2937071E-011  0.5052878E+02  0.7816164E-02  0.1300439E+00
        -11   -1    0    0    0    0  0.00000000000E+00  0.00000000000E+00  0.45593999997E+02  0.45594000000E+02  0.51100000000E-03 0.  1.
         11   -1    0    0    0    0 -0.00000000000E+00 -0.00000000000E+00 -0.45593999997E+02  0.45594000000E+02  0.51100000000E-03 0. -1.
    9900012    2    1    2    0    0  0.39752998202E+02  0.41395956693E+01 -0.74655773991E+01  0.50528782542E+02  0.29999765015E+02 0.  0.
        -12    1    1    2    0    0 -0.39752998202E+02 -0.41395956693E+01  0.74655773991E+01  0.40659217458E+02  0.00000000000E+00 0.  1.
         11    1    3    3    0    0  0.72855825654E+01 -0.30257223700E+01  0.75715904117E+01  0.10934518316E+02  0.51100000000E-03 0. -1.
        -11    1    3    3    0    0  0.11559110475E+02 -0.35744749197E+01 -0.82702538491E+00  0.12127401914E+02  0.51100000000E-03 0.  1.
         12    1    3    3    0    0  0.20908305162E+02  0.10739792959E+02 -0.14210142426E+02  0.27466862313E+02  0.00000000000E+00 0. -1.
</event>
<event>
 7    1  0.2937071E-011  0.5052886E+02  0.7816164E-02  0.1300439E+00
        -11   -1    0    0    0    0  0.00000000000E+00  0.00000000000E+00  0.45593999997E+02  0.45594000000E+02  0.51100000000E-03 0.  1.
         11   -1    0    0    0    0 -0.00000000000E+00 -0.00000000000E+00 -0.45593999997E+02  0.45594000000E+02  0.51100000000E-03 0. -1.
    9900012    2    1    2    0    0  0.13648311000E+02  0.22680794235E+02 -0.30862130624E+02  0.50528856786E+02  0.29999990687E+02 0.  0.
        -12    1    1    2    0    0 -0.13648311000E+02 -0.22680794235E+02  0.30862130624E+02  0.40659143214E+02  0.00000000000E+00 0.  1.
         11    1    3    3    0    0  0.10978789585E+01  0.68721644689E+01 -0.11113289305E+02  0.13112481921E+02  0.51100000000E-03 0. -1.
        -11    1    3    3    0    0  0.55057679894E+01  0.21766027389E+02 -0.12605472479E+02  0.25748230350E+02  0.51100000000E-03 0.  1.
         12    1    3    3    0    0  0.70446640518E+01 -0.59573976233E+01 -0.71433688395E+01  0.11668144515E+02  0.00000000000E+00 0. -1.
</event>
<event>
 7    1  0.2937071E-011  0.5052888E+02  0.7816164E-02  0.1300439E+00
        -11   -1    0    0    0    0  0.00000000000E+00  0.00000000000E+00  0.45593999997E+02  0.45594000000E+02  0.51100000000E-03 0.  1.
         11   -1    0    0    0    0 -0.00000000000E+00 -0.00000000000E+00 -0.45593999997E+02  0.45594000000E+02  0.51100000000E-03 0. -1.
    9900012    2    1    2    0    0  0.35871214927E+02 -0.19121568966E+02 -0.88638378350E+00  0.50528878806E+02  0.30000057617E+02 0.  0.
        -12    1    1    2    0    0 -0.35871214927E+02  0.19121568966E+02  0.88638378350E+00  0.40659121194E+02  0.00000000000E+00 0.  1.
         11    1    3    3    0    0  0.10517097707E+01  0.30695271049E+01 -0.18804884388E+01  0.37502436079E+01  0.51100000000E-03 0.  1.
        -11    1    3    3    0    0  0.31523760098E+02 -0.23245191118E+02  0.70567481111E+01  0.39798040844E+02  0.51100000000E-03 0. -1.
         12    1    3    3    0    0  0.32957450584E+01  0.10540950474E+01 -0.60626434558E+01  0.69805943537E+01  0.00000000000E+00 0. -1.
</event>
<event>
 7    1  0.2937071E-011  0.5052886E+02  0.7816164E-02  0.1300439E+00
        -11   -1    0    0    0    0  0.00000000000E+00  0.00000000000E+00  0.45593999997E+02  0.45594000000E+02  0.51100000000E-03 0.  1.
         11   -1    0    0    0    0 -0.00000000000E+00 -0.00000000000E+00 -0.45593999997E+02  0.45594000000E+02  0.51100000000E-03 0. -1.
    9900012    2    1    2    0    0  0.94332598774E+01 -0.34111146202E+02  0.20015209009E+02  0.50528864756E+02  0.30000014911E+02 0.  0.
        -12    1    1    2    0    0 -0.94332598774E+01  0.34111146202E+02 -0.20015209009E+02  0.40659135244E+02  0.00000000000E+00 0.  1.
         11    1    3    3    0    0  0.96375345847E+01 -0.31996465291E+02  0.18153821722E+02  0.38029161276E+02  0.51100000000E-03 0. -1.
        -11    1    3    3    0    0  0.51398118614E+01 -0.28665443380E+01  0.35155005207E+01  0.68551795443E+01  0.51100000000E-03 0.  1.
        -12    1    3    3    0    0 -0.53440865687E+01  0.75186342654E+00 -0.16541132340E+01  0.56445239354E+01  0.00000000000E+00 0.  1.
</event>
<event>
 7    1  0.2937071E-011  0.5052886E+02  0.7816164E-02  0.1300439E+00
        -11   -1    0    0    0    0  0.00000000000E+00  0.00000000000E+00  0.45593999997E+02  0.45594000000E+02  0.51100000000E-03 0. -1.
         11   -1    0    0    0    0 -0.00000000000E+00 -0.00000000000E+00 -0.45593999997E+02  0.45594000000E+02  0.51100000000E-03 0.  1.
    9900012    2    1    2    0    0 -0.35050407541E+02  0.17748400566E+02  0.10470381238E+02  0.50528859887E+02  0.30000000114E+02 0.  0.
        -12    1    1    2    0    0  0.35050407541E+02 -0.17748400566E+02 -0.10470381238E+02  0.40659140113E+02  0.00000000000E+00 0.  1.
         11    1    3    3    0    0 -0.49195668816E+01 -0.34860921574E+00  0.63475220283E+01  0.80383271175E+01  0.51100000000E-03 0. -1.
        -11    1    3    3    0    0 -0.84070875426E+01 -0.36440061054E+01  0.71291807447E+01  0.11609613249E+02  0.51100000000E-03 0.  1.
        -12    1    3    3    0    0 -0.21723753117E+02  0.21741015887E+02 -0.30063215347E+01  0.30880919521E+02  0.00000000000E+00 0.  1.
</event>
<event>
 7    1  0.2937071E-011  0.5052885E+02  0.7816164E-02  0.1300439E+00
        -11   -1    0    0    0    0  0.00000000000E+00  0.00000000000E+00  0.45593999997E+02  0.45594000000E+02  0.51100000000E-03 0.  1.
         11   -1    0    0    0    0 -0.00000000000E+00 -0.00000000000E+00 -0.45593999997E+02  0.45594000000E+02  0.51100000000E-03 0. -1.
    9900012    2    1    2    0    0  0.41950938767E+01 -0.36392673723E+02 -0.17639183713E+02  0.50528852008E+02  0.29999976163E+02 0.  0.
        -12    1    1    2    0    0 -0.41950938767E+01  0.36392673723E+02  0.17639183713E+02  0.40659147992E+02  0.00000000000E+00 0.  1.
         11    1    3    3    0    0  0.17301836005E+01 -0.77511917163E+00 -0.52655304264E+01  0.55964413652E+01  0.51100000000E-03 0. -1.
        -11    1    3    3    0    0  0.59417189592E+01 -0.17090760322E+01 -0.86655735297E+01  0.10645051899E+02  0.51100000000E-03 0.  1.
        -12    1    3    3    0    0 -0.34768086830E+01 -0.33908478520E+02 -0.37080797573E+01  0.34287358744E+02  0.00000000000E+00 0.  1.
</event>
<event>
 7    1  0.2970013E-011  0.5052886E+02  0.7816164E-02  0.1300439E+00
        -11   -1    0    0    0    0  0.00000000000E+00  0.00000000000E+00  0.45593999997E+02  0.45594000000E+02  0.51100000000E-03 0. -1.
         11   -1    0    0    0    0 -0.00000000000E+00 -0.00000000000E+00 -0.45593999997E+02  0.45594000000E+02  0.51100000000E-03 0.  1.
    9900012    2    1    2    0    0 -0.18733672500E+02 -0.20920246835E+02  0.29403378303E+02  0.50528857503E+02  0.29999992866E+02 0.  0.
        -12    1    1    2    0    0  0.18733672500E+02  0.20920246835E+02 -0.29403378303E+02  0.40659142497E+02  0.00000000000E+00 0.  1.
         11    1    3    3    0    0 -0.20210513891E+02 -0.16551629546E+02  0.27030219436E+02  0.37590611532E+02  0.51100000000E-03 0. -1.
        -11    1    3    3    0    0 -0.22099850220E+01  0.27249777586E+00 -0.37847332113E+01  0.43911837331E+01  0.51100000000E-03 0.  1.
        -12    1    3    3    0    0  0.36868264129E+01 -0.46411150657E+01  0.61578920783E+01  0.85470622380E+01  0.00000000000E+00 0.  1.
</event>
<event>
 7    1  0.2937071E-011  0.5052892E+02  0.7816164E-02  0.1300439E+00
        -11   -1    0    0    0    0  0.00000000000E+00  0.00000000000E+00  0.45593999997E+02  0.45594000000E+02  0.51100000000E-03 0.  1.
         11   -1    0    0    0    0 -0.00000000000E+00 -0.00000000000E+00 -0.45593999997E+02  0.45594000000E+02  0.51100000000E-03 0. -1.
    9900012    2    1    2    0    0 -0.23312644340E+02  0.30860755071E+02 -0.12541749218E+02  0.50528916598E+02  0.30000172490E+02 0.  0.
        -12    1    1    2    0    0  0.23312644340E+02 -0.30860755071E+02  0.12541749218E+02  0.40659083402E+02  0.00000000000E+00 0.  1.
         11    1    3    3    0    0 -0.13111170510E+02  0.48863708901E+01  0.32978983702E+01  0.14375519001E+02  0.51100000000E-03 0. -1.
        -11    1    3    3    0    0 -0.75004757451E+01  0.89021932609E+01  0.14199570131E+01  0.11726997034E+02  0.51100000000E-03 0.  1.
         12    1    3    3    0    0 -0.27009980849E+01  0.17072190920E+02 -0.17259604601E+02  0.24426400563E+02  0.00000000000E+00 0. -1.
</event>
<event>
 7    1  0.2937071E-011  0.5052886E+02  0.7816164E-02  0.1300439E+00
        -11   -1    0    0    0    0  0.00000000000E+00  0.00000000000E+00  0.45593999997E+02  0.45594000000E+02  0.51100000000E-03 0.  1.
         11   -1    0    0    0    0 -0.00000000000E+00 -0.00000000000E+00 -0.45593999997E+02  0.45594000000E+02  0.51100000000E-03 0. -1.
    9900012    2    1    2    0    0 -0.19615784223E+02  0.47737181895E+01 -0.35293030405E+02  0.50528863620E+02  0.30000011459E+02 0.  0.
        -12    1    1    2    0    0  0.19615784223E+02 -0.47737181895E+01  0.35293030405E+02  0.40659136380E+02  0.00000000000E+00 0.  1.
         11    1    3    3    0    0  0.39893843069E+01  0.27214932186E+01  0.79576112829E+00  0.48943792784E+01  0.51100000000E-03 0. -1.
        -11    1    3    3    0    0 -0.64075879516E+01  0.33550563525E+00 -0.23210256621E+02  0.24080817263E+02  0.51100000000E-03 0.  1.
        -12    1    3    3    0    0 -0.17197580579E+02  0.17167193357E+01 -0.12878534912E+02  0.21553667078E+02  0.00000000000E+00 0.  1.
</event>
<event>
 7    1  0.2937071E-011  0.5052886E+02  0.7816164E-02  0.1300439E+00
        -11   -1    0    0    0    0  0.00000000000E+00  0.00000000000E+00  0.45593999997E+02  0.45594000000E+02  0.51100000000E-03 0.  1.
         11   -1    0    0    0    0 -0.00000000000E+00 -0.00000000000E+00 -0.45593999997E+02  0.45594000000E+02  0.51100000000E-03 0. -1.
    9900012    2    1    2    0    0 -0.16272476900E+02  0.10227573273E+02 -0.35829717725E+02  0.50528862875E+02  0.30000009195E+02 0.  0.
        -12    1    1    2    0    0  0.16272476900E+02 -0.10227573273E+02  0.35829717725E+02  0.40659137125E+02  0.00000000000E+00 0.  1.
         11    1    3    3    0    0 -0.13117820202E+02  0.64554066313E+01 -0.17912287374E+02  0.23121408280E+02  0.51100000000E-03 0. -1.
        -11    1    3    3    0    0 -0.51856434248E+01  0.80641397107E+01 -0.20033127399E+02  0.22209174695E+02  0.51100000000E-03 0.  1.
        -12    1    3    3    0    0  0.20309867269E+01 -0.42919730692E+01  0.21156970487E+01  0.51982798995E+01  0.00000000000E+00 0.  1.
</event>
<event>
 7    1  0.2937071E-011  0.5052886E+02  0.7816164E-02  0.1300439E+00
        -11   -1    0    0    0    0  0.00000000000E+00  0.00000000000E+00  0.45593999997E+02  0.45594000000E+02  0.51100000000E-03 0.  1.
         11   -1    0    0    0    0 -0.00000000000E+00 -0.00000000000E+00 -0.45593999997E+02  0.45594000000E+02  0.51100000000E-03 0. -1.
    9900012    2    1    2    0    0 -0.12911938358E+02  0.16964763280E+02 -0.34621438337E+02  0.50528864030E+02  0.30000012706E+02 0.  0.
        -12    1    1    2    0    0  0.12911938358E+02 -0.16964763280E+02  0.34621438337E+02  0.40659135970E+02  0.00000000000E+00 0.  1.
         11    1    3    3    0    0  0.31928440814E+00 -0.16176719044E+01  0.26660060937E+01  0.31347079092E+01  0.51100000000E-03 0. -1.
        -11    1    3    3    0    0 -0.28494760439E+01 -0.33372704348E+01 -0.27071107863E+01  0.51560970462E+01  0.51100000000E-03 0.  1.
         12    1    3    3    0    0 -0.10381746722E+02  0.21919705619E+02 -0.34580333644E+02  0.42238059075E+02  0.00000000000E+00 0. -1.
</event>
<event>
 7    1  0.2937071E-011  0.5052886E+02  0.7816164E-02  0.1300439E+00
        -11   -1    0    0    0    0  0.00000000000E+00  0.00000000000E+00  0.45593999997E+02  0.45594000000E+02  0.51100000000E-03 0.  1.
         11   -1    0    0    0    0 -0.00000000000E+00 -0.00000000000E+00 -0.45593999997E+02  0.45594000000E+02  0.51100000000E-03 0. -1.
    9900012    2    1    2    0    0 -0.88857126185E+01 -0.14804864606E+02 -0.36810673751E+02  0.50528860723E+02  0.30000002655E+02 0.  0.
        -12    1    1    2    0    0  0.88857126185E+01  0.14804864606E+02  0.36810673751E+02  0.40659139277E+02  0.00000000000E+00 0.  1.
         11    1    3    3    0    0 -0.14613797386E+02 -0.28493155823E+01 -0.11489823432E+02  0.18806852903E+02  0.51100000000E-03 0. -1.
        -11    1    3    3    0    0 -0.20308174392E+01 -0.46050172543E+01 -0.96543315784E+00  0.51246916812E+01  0.51100000000E-03 0.  1.
        -12    1    3    3    0    0  0.77589022071E+01 -0.73505317694E+01 -0.24355417161E+02  0.26597316140E+02  0.00000000000E+00 0.  1.
</event>
<event>
 7    1  0.2937071E-011  0.5052886E+02  0.7816164E-02  0.1300439E+00
        -11   -1    0    0    0    0  0.00000000000E+00  0.00000000000E+00  0.45593999997E+02  0.45594000000E+02  0.51100000000E-03 0.  1.
         11   -1    0    0    0    0 -0.00000000000E+00 -0.00000000000E+00 -0.45593999997E+02  0.45594000000E+02  0.51100000000E-03 0. -1.
    9900012    2    1    2    0    0  0.16064086697E+02 -0.34389187883E+02 -0.14577190042E+02  0.50528860878E+02  0.30000003124E+02 0.  0.
        -12    1    1    2    0    0 -0.16064086697E+02  0.34389187883E+02  0.14577190042E+02  0.40659139122E+02  0.00000000000E+00 0.  1.
         11    1    3    3    0    0  0.58455098722E+01 -0.17907406547E+02  0.52349406045E+01  0.19551209638E+02  0.51100000000E-03 0. -1.
        -11    1    3    3    0    0 -0.55704295905E-01 -0.25305180017E+01  0.19251203084E+01  0.31800491802E+01  0.51100000000E-03 0.  1.
        -12    1    3    3    0    0  0.10274281121E+02 -0.13951263333E+02 -0.21737250955E+02  0.27797602059E+02  0.00000000000E+00 0.  1.
</event>
<event>
 7    1  0.2937071E-011  0.5052886E+02  0.7816164E-02  0.1300439E+00
        -11   -1    0    0    0    0  0.00000000000E+00  0.00000000000E+00  0.45593999997E+02  0.45594000000E+02  0.51100000000E-03 0.  1.
         11   -1    0    0    0    0 -0.00000000000E+00 -0.00000000000E+00 -0.45593999997E+02  0.45594000000E+02  0.51100000000E-03 0. -1.
    9900012    2    1    2    0    0 -0.20670332491E+02  0.61411878300E+00 -0.35007509539E+02  0.50528861897E+02  0.30000006222E+02 0.  0.
        -12    1    1    2    0    0  0.20670332491E+02 -0.61411878300E+00  0.35007509539E+02  0.40659138103E+02  0.00000000000E+00 0.  1.
         11    1    3    3    0    0 -0.13698509909E+02  0.23001282321E+01 -0.31282982603E+02  0.34228128264E+02  0.51100000000E-03 0. -1.
        -11    1    3    3    0    0 -0.21081291937E+01 -0.47642802809E+01 -0.77060270777E+01  0.93019045832E+01  0.51100000000E-03 0.  1.
         12    1    3    3    0    0 -0.48636933885E+01  0.30782708318E+01  0.39815001423E+01  0.69988290502E+01  0.00000000000E+00 0. -1.
</event>
<event>
 7    1  0.2937071E-011  0.5052886E+02  0.7816164E-02  0.1300439E+00
        -11   -1    0    0    0    0  0.00000000000E+00  0.00000000000E+00  0.45593999997E+02  0.45594000000E+02  0.51100000000E-03 0. -1.
         11   -1    0    0    0    0 -0.00000000000E+00 -0.00000000000E+00 -0.45593999997E+02  0.45594000000E+02  0.51100000000E-03 0.  1.
    9900012    2    1    2    0    0  0.16468320269E+02  0.36290043915E+02 -0.80618116172E+01  0.50528859989E+02  0.30000000424E+02 0.  0.
        -12    1    1    2    0    0 -0.16468320269E+02 -0.36290043915E+02  0.80618116172E+01  0.40659140011E+02  0.00000000000E+00 0.  1.
         11    1    3    3    0    0  0.95988346769E+01  0.25732190934E+02 -0.48555157349E+01  0.27890129271E+02  0.51100000000E-03 0. -1.
        -11    1    3    3    0    0  0.66386875254E+01  0.15674099539E+02 -0.96802330316E+00  0.17049534826E+02  0.51100000000E-03 0.  1.
        -12    1    3    3    0    0  0.23079806664E+00 -0.51162465576E+01 -0.22382725792E+01  0.55891958925E+01  0.00000000000E+00 0.  1.
</event>
<event>
 7    1  0.2937071E-011  0.5052886E+02  0.7816164E-02  0.1300439E+00
        -11   -1    0    0    0    0  0.00000000000E+00  0.00000000000E+00  0.45593999997E+02  0.45594000000E+02  0.51100000000E-03 0.  1.
         11   -1    0    0    0    0 -0.00000000000E+00 -0.00000000000E+00 -0.45593999997E+02  0.45594000000E+02  0.51100000000E-03 0. -1.
    9900012    2    1    2    0    0  0.37878242795E+02 -0.13295113392E+02 -0.64532505013E+01  0.50528858846E+02  0.29999996948E+02 0.  0.
        -12    1    1    2    0    0 -0.37878242795E+02  0.13295113392E+02  0.64532505013E+01  0.40659141154E+02  0.00000000000E+00 0.  1.
         11    1    3    3    0    0  0.14036052611E+01 -0.58997662836E+01 -0.46865200760E+01  0.76642560378E+01  0.51100000000E-03 0. -1.
        -11    1    3    3    0    0 -0.12209780383E+01  0.32378255002E+01  0.99540033053E+00  0.36007115156E+01  0.51100000000E-03 0.  1.
         12    1    3    3    0    0  0.37695615572E+02 -0.10633172609E+02 -0.27621307559E+01  0.39263891292E+02  0.00000000000E+00 0. -1.
</event>
<event>
 7    1  0.2937071E-011  0.5052886E+02  0.7816164E-02  0.1300439E+00
        -11   -1    0    0    0    0  0.00000000000E+00  0.00000000000E+00  0.45593999997E+02  0.45594000000E+02  0.51100000000E-03 0. -1.
         11   -1    0    0    0    0 -0.00000000000E+00 -0.00000000000E+00 -0.45593999997E+02  0.45594000000E+02  0.51100000000E-03 0.  1.
    9900012    2    1    2    0    0 -0.29587925887E+01  0.35401826094E+02 -0.19776798440E+02  0.50528862025E+02  0.30000006611E+02 0.  0.
        -12    1    1    2    0    0  0.29587925887E+01 -0.35401826094E+02  0.19776798440E+02  0.40659137975E+02  0.00000000000E+00 0.  1.
         11    1    3    3    0    0  0.72584020242E+01  0.43836121064E+01 -0.47684657742E+01  0.97282434768E+01  0.51100000000E-03 0. -1.
        -11    1    3    3    0    0 -0.98217227895E+00  0.18619542916E+02 -0.16976086008E+02  0.25215858843E+02  0.51100000000E-03 0.  1.
        -12    1    3    3    0    0 -0.92350223339E+01  0.12398671072E+02  0.19677533425E+01  0.15584759705E+02  0.00000000000E+00 0.  1.
</event>
<event>
 7    1  0.2937071E-011  0.5052886E+02  0.7816164E-02  0.1300439E+00
        -11   -1    0    0    0    0  0.00000000000E+00  0.00000000000E+00  0.45593999997E+02  0.45594000000E+02  0.51100000000E-03 0. -1.
         11   -1    0    0    0    0 -0.00000000000E+00 -0.00000000000E+00 -0.45593999997E+02  0.45594000000E+02  0.51100000000E-03 0.  1.
    9900012    2    1    2    0    0  0.14670111689E+02 -0.20177140486E+02  0.32106647037E+02  0.50528856390E+02  0.29999989482E+02 0.  0.
        -12    1    1    2    0    0 -0.14670111689E+02  0.20177140486E+02 -0.32106647037E+02  0.40659143610E+02  0.00000000000E+00 0.  1.
         11    1    3    3    0    0  0.16034146225E+02 -0.50560772120E+01  0.74920286369E+01  0.18406201544E+02  0.51100000000E-03 0. -1.
        -11    1    3    3    0    0  0.44910308787E+01 -0.35686040418E+01  0.20241750416E+01  0.60828922415E+01  0.51100000000E-03 0.  1.
        -12    1    3    3    0    0 -0.58550654145E+01 -0.11552459232E+02  0.22590443359E+02  0.26039762604E+02  0.00000000000E+00 0.  1.
</event>
<event>
 7    1  0.2937071E-011  0.5052885E+02  0.7816164E-02  0.1300439E+00
        -11   -1    0    0    0    0  0.00000000000E+00  0.00000000000E+00  0.45593999997E+02  0.45594000000E+02  0.51100000000E-03 0.  1.
         11   -1    0    0    0    0 -0.00000000000E+00 -0.00000000000E+00 -0.45593999997E+02  0.45594000000E+02  0.51100000000E-03 0. -1.
    9900012    2    1    2    0    0  0.32195580656E+02  0.12898369757E+02 -0.21218928918E+02  0.50528852191E+02  0.29999976718E+02 0.  0.
        -12    1    1    2    0    0 -0.32195580656E+02 -0.12898369757E+02  0.21218928918E+02  0.40659147809E+02  0.00000000000E+00 0.  1.
         11    1    3    3    0    0  0.18547956144E+02  0.15712987767E+02 -0.16452561825E+02  0.29353218777E+02  0.51100000000E-03 0. -1.
        -11    1    3    3    0    0  0.92083271761E+01 -0.45136378296E+01 -0.98476323009E+01  0.14217667813E+02  0.51100000000E-03 0.  1.
        -12    1    3    3    0    0  0.44392973361E+01  0.16990198198E+01  0.50812652085E+01  0.69579656011E+01  0.00000000000E+00 0.  1.
</event>
<event>
 7    1  0.2937071E-011  0.5052886E+02  0.7816164E-02  0.1300439E+00
        -11   -1    0    0    0    0  0.00000000000E+00  0.00000000000E+00  0.45593999997E+02  0.45594000000E+02  0.51100000000E-03 0.  1.
         11   -1    0    0    0    0 -0.00000000000E+00 -0.00000000000E+00 -0.45593999997E+02  0.45594000000E+02  0.51100000000E-03 0. -1.
    9900012    2    1    2    0    0 -0.15971592151E+02 -0.16524673063E+02 -0.33541153381E+02  0.50528861472E+02  0.30000004931E+02 0.  0.
        -12    1    1    2    0    0  0.15971592151E+02  0.16524673063E+02  0.33541153381E+02  0.40659138528E+02  0.00000000000E+00 0.  1.
         11    1    3    3    0    0 -0.15064259126E+01  0.10543793259E+00  0.15589311159E+01  0.21704153227E+01  0.51100000000E-03 0. -1.
        -11    1    3    3    0    0 -0.16153985615E+01  0.64135450484E+01 -0.47469499661E+01  0.81410445792E+01  0.51100000000E-03 0.  1.
         12    1    3    3    0    0 -0.12849767677E+02 -0.23043656044E+02 -0.30353134531E+02  0.40217401570E+02  0.00000000000E+00 0. -1.
</event>
<event>
 7    1  0.2937071E-011  0.5052885E+02  0.7816164E-02  0.1300439E+00
        -11   -1    0    0    0    0  0.00000000000E+00  0.00000000000E+00  0.45593999997E+02  0.45594000000E+02  0.51100000000E-03 0.  1.
         11   -1    0    0    0    0 -0.00000000000E+00 -0.00000000000E+00 -0.45593999997E+02  0.45594000000E+02  0.51100000000E-03 0. -1.
    9900012    2    1    2    0    0 -0.16476375927E+02 -0.73004995620E+01 -0.36447196477E+02  0.50528851108E+02  0.29999973429E+02 0.  0.
        -12    1    1    2    0    0  0.16476375927E+02  0.73004995620E+01  0.36447196477E+02  0.40659148892E+02  0.00000000000E+00 0.  1.
         11    1    3    3    0    0 -0.70722243362E+01 -0.11928589306E+02 -0.12057877177E+02  0.18376615634E+02  0.51100000000E-03 0. -1.
        -11    1    3    3    0    0  0.50914840861E+01 -0.13298633284E+01 -0.55946871168E+01  0.76806426077E+01  0.51100000000E-03 0.  1.
        -12    1    3    3    0    0 -0.14495635677E+02  0.59579530725E+01 -0.18794632184E+02  0.24471592866E+02  0.00000000000E+00 0.  1.
</event>
<event>
 7    1  0.2937071E-011  0.5052886E+02  0.7816164E-02  0.1300439E+00
        -11   -1    0    0    0    0  0.00000000000E+00  0.00000000000E+00  0.45593999997E+02  0.45594000000E+02  0.51100000000E-03 0.  1.
         11   -1    0    0    0    0 -0.00000000000E+00 -0.00000000000E+00 -0.45593999997E+02  0.45594000000E+02  0.51100000000E-03 0. -1.
    9900012    2    1    2    0    0 -0.85747926300E+01  0.40993617786E+01 -0.39532694511E+02  0.50528858704E+02  0.29999996516E+02 0.  0.
        -12    1    1    2    0    0  0.85747926300E+01 -0.40993617786E+01  0.39532694511E+02  0.40659141296E+02  0.00000000000E+00 0.  1.
         11    1    3    3    0    0 -0.85645200652E+01  0.13557498555E+02 -0.30239535005E+02  0.34228442100E+02  0.51100000000E-03 0. -1.
        -11    1    3    3    0    0 -0.26376423740E+01  0.62411386885E+00 -0.71156666828E+00  0.28023209665E+01  0.51100000000E-03 0.  1.
         12    1    3    3    0    0  0.26273698092E+01 -0.10082250645E+02 -0.85815928377E+01  0.13498095637E+02  0.00000000000E+00 0. -1.
</event>
<event>
 7    1  0.2937071E-011  0.5052886E+02  0.7816164E-02  0.1300439E+00
        -11   -1    0    0    0    0  0.00000000000E+00  0.00000000000E+00  0.45593999997E+02  0.45594000000E+02  0.51100000000E-03 0.  1.
         11   -1    0    0    0    0 -0.00000000000E+00 -0.00000000000E+00 -0.45593999997E+02  0.45594000000E+02  0.51100000000E-03 0. -1.
    9900012    2    1    2    0    0 -0.43177581615E+00  0.36165971121E+02 -0.18574232264E+02  0.50528855866E+02  0.29999987892E+02 0.  0.
        -12    1    1    2    0    0  0.43177581615E+00 -0.36165971121E+02  0.18574232264E+02  0.40659144134E+02  0.00000000000E+00 0.  1.
         11    1    3    3    0    0 -0.48979464419E+00  0.56854287131E+01  0.19770219198E+01  0.60392561113E+01  0.51100000000E-03 0. -1.
        -11    1    3    3    0    0 -0.29503140543E+01  0.49129097158E+01  0.54437658407E+01  0.79041521799E+01  0.51100000000E-03 0.  1.
         12    1    3    3    0    0  0.30083328823E+01  0.25567632692E+02 -0.25995020025E+02  0.36585447575E+02  0.00000000000E+00 0. -1.
</event>
<event>
 7    1  0.2937071E-011  0.5052887E+02  0.7816164E-02  0.1300439E+00
        -11   -1    0    0    0    0  0.00000000000E+00  0.00000000000E+00  0.45593999997E+02  0.45594000000E+02  0.51100000000E-03 0.  1.
         11   -1    0    0    0    0 -0.00000000000E+00 -0.00000000000E+00 -0.45593999997E+02  0.45594000000E+02  0.51100000000E-03 0. -1.
    9900012    2    1    2    0    0  0.11362758465E+02 -0.29198082647E+02 -0.25913787418E+02  0.50528872014E+02  0.30000036975E+02 0.  0.
        -12    1    1    2    0    0 -0.11362758465E+02  0.29198082647E+02  0.25913787418E+02  0.40659127986E+02  0.00000000000E+00 0.  1.
         11    1    3    3    0    0 -0.27306362338E+01 -0.25719078926E+02 -0.16286624525E+02  0.30564383418E+02  0.51100000000E-03 0.  1.
        -11    1    3    3    0    0 -0.10711128747E+01 -0.14741147554E+01 -0.24883659757E+01  0.30841956152E+01  0.51100000000E-03 0. -1.
        -12    1    3    3    0    0  0.15164507573E+02 -0.20048889661E+01 -0.71387969173E+01  0.16880292981E+02  0.00000000000E+00 0.  1.
</event>
<event>
 7    1  0.2937071E-011  0.5052888E+02  0.7816164E-02  0.1300439E+00
        -11   -1    0    0    0    0  0.00000000000E+00  0.00000000000E+00  0.45593999997E+02  0.45594000000E+02  0.51100000000E-03 0. -1.
         11   -1    0    0    0    0 -0.00000000000E+00 -0.00000000000E+00 -0.45593999997E+02  0.45594000000E+02  0.51100000000E-03 0.  1.
    9900012    2    1    2    0    0 -0.39014915204E+02 -0.32084344572E+01 -0.10986654136E+02  0.50528877664E+02  0.30000054146E+02 0.  0.
        -12    1    1    2    0    0  0.39014915204E+02  0.32084344572E+01  0.10986654136E+02  0.40659122336E+02  0.00000000000E+00 0.  1.
         11    1    3    3    0    0 -0.14228666561E+02  0.46302139195E+01 -0.14260432383E+02  0.20670117683E+02  0.51100000000E-03 0. -1.
        -11    1    3    3    0    0 -0.31545409491E+01  0.27830639828E+01 -0.27407215764E+01  0.50207697370E+01  0.51100000000E-03 0.  1.
         12    1    3    3    0    0 -0.21631707694E+02 -0.10621712359E+02  0.60144998226E+01  0.24837990243E+02  0.00000000000E+00 0. -1.
</event>
<event>
 7    1  0.2937071E-011  0.5052885E+02  0.7816164E-02  0.1300439E+00
        -11   -1    0    0    0    0  0.00000000000E+00  0.00000000000E+00  0.45593999997E+02  0.45594000000E+02  0.51100000000E-03 0. -1.
         11   -1    0    0    0    0 -0.00000000000E+00 -0.00000000000E+00 -0.45593999997E+02  0.45594000000E+02  0.51100000000E-03 0.  1.
    9900012    2    1    2    0    0 -0.34655175021E+02 -0.15690075762E+02  0.14352928322E+02  0.50528853617E+02  0.29999981055E+02 0.  0.
        -12    1    1    2    0    0  0.34655175021E+02  0.15690075762E+02 -0.14352928322E+02  0.40659146383E+02  0.00000000000E+00 0.  1.
         11    1    3    3    0    0 -0.22326248114E+01  0.49576790304E+01 -0.19539077462E+01  0.57776250016E+01  0.51100000000E-03 0. -1.
        -11    1    3    3    0    0  0.45468802695E+00  0.17525617323E+01  0.16463948905E+00  0.18180539733E+01  0.51100000000E-03 0.  1.
         12    1    3    3    0    0 -0.32877238236E+02 -0.22400316525E+02  0.16142196579E+02  0.42933174642E+02  0.00000000000E+00 0. -1.
</event>
<event>
 7    1  0.2937071E-011  0.5052887E+02  0.7816164E-02  0.1300439E+00
        -11   -1    0    0    0    0  0.00000000000E+00  0.00000000000E+00  0.45593999997E+02  0.45594000000E+02  0.51100000000E-03 0.  1.
         11   -1    0    0    0    0 -0.00000000000E+00 -0.00000000000E+00 -0.45593999997E+02  0.45594000000E+02  0.51100000000E-03 0. -1.
    9900012    2    1    2    0    0 -0.34433963904E+02  0.51797299912E+01 -0.20991356552E+02  0.50528874053E+02  0.30000043170E+02 0.  0.
        -12    1    1    2    0    0  0.34433963904E+02 -0.51797299912E+01  0.20991356552E+02  0.40659125947E+02  0.00000000000E+00 0.  1.
         11    1    3    3    0    0 -0.20908531630E+02 -0.48849670712E+01 -0.17879633636E+02  0.27941204294E+02  0.51100000000E-03 0. -1.
        -11    1    3    3    0    0 -0.11279967962E+02  0.39622465622E+01  0.43205939536E+01  0.12712380085E+02  0.51100000000E-03 0.  1.
        -12    1    3    3    0    0 -0.22454643120E+01  0.61024505001E+01 -0.74323168699E+01  0.98752896736E+01  0.00000000000E+00 0.  1.
</event>
<event>
 7    1  0.2937071E-011  0.5052884E+02  0.7816164E-02  0.1300439E+00
        -11   -1    0    0    0    0  0.00000000000E+00  0.00000000000E+00  0.45593999997E+02  0.45594000000E+02  0.51100000000E-03 0. -1.
         11   -1    0    0    0    0 -0.00000000000E+00 -0.00000000000E+00 -0.45593999997E+02  0.45594000000E+02  0.51100000000E-03 0.  1.
    9900012    2    1    2    0    0 -0.97791927656E+01 -0.20113310074E+02  0.33955694809E+02  0.50528842812E+02  0.29999948211E+02 0.  0.
        -12    1    1    2    0    0  0.97791927656E+01  0.20113310074E+02 -0.33955694809E+02  0.40659157188E+02  0.00000000000E+00 0.  1.
         11    1    3    3    0    0 -0.15723991377E+01 -0.92394096593E+01  0.20918496485E+02  0.22922099061E+02  0.51100000000E-03 0. -1.
        -11    1    3    3    0    0 -0.34622060599E+01 -0.87464090754E+01  0.18069020049E+02  0.20370960417E+02  0.51100000000E-03 0.  1.
        -12    1    3    3    0    0 -0.47445875680E+01 -0.21274913391E+01 -0.50318217250E+01  0.72357833342E+01  0.00000000000E+00 0.  1.
</event>
<event>
 7    1  0.2937071E-011  0.5052886E+02  0.7816164E-02  0.1300439E+00
        -11   -1    0    0    0    0  0.00000000000E+00  0.00000000000E+00  0.45593999997E+02  0.45594000000E+02  0.51100000000E-03 0.  1.
         11   -1    0    0    0    0 -0.00000000000E+00 -0.00000000000E+00 -0.45593999997E+02  0.45594000000E+02  0.51100000000E-03 0. -1.
    9900012    2    1    2    0    0 -0.19768649888E+02  0.10504938605E+02 -0.33941312329E+02  0.50528856673E+02  0.29999990344E+02 0.  0.
        -12    1    1    2    0    0  0.19768649888E+02 -0.10504938605E+02  0.33941312329E+02  0.40659143327E+02  0.00000000000E+00 0.  1.
         11    1    3    3    0    0 -0.99798223640E+01  0.45478633845E+01 -0.25455089208E+02  0.27717169455E+02  0.51100000000E-03 0. -1.
        -11    1    3    3    0    0  0.35130487507E+00  0.10169931754E+02 -0.45517620495E+01  0.11147621496E+02  0.51100000000E-03 0.  1.
         12    1    3    3    0    0 -0.10140132399E+02 -0.42128565337E+01 -0.39344610712E+01  0.11664065722E+02  0.00000000000E+00 0. -1.
</event>
<event>
 7    1  0.2937071E-011  0.5052886E+02  0.7816164E-02  0.1300439E+00
        -11   -1    0    0    0    0  0.00000000000E+00  0.00000000000E+00  0.45593999997E+02  0.45594000000E+02  0.51100000000E-03 0. -1.
         11   -1    0    0    0    0 -0.00000000000E+00 -0.00000000000E+00 -0.45593999997E+02  0.45594000000E+02  0.51100000000E-03 0.  1.
    9900012    2    1    2    0    0  0.13085935043E+02 -0.16753683900E+01  0.38459291086E+02  0.50528860486E+02  0.30000001934E+02 0.  0.
        -12    1    1    2    0    0 -0.13085935043E+02  0.16753683900E+01 -0.38459291086E+02  0.40659139514E+02  0.00000000000E+00 0.  1.
         11    1    3    3    0    0  0.57288681018E+01 -0.91009561748E+01  0.21626968759E+02  0.24153118039E+02  0.51100000000E-03 0.  1.
        -11    1    3    3    0    0  0.28927471023E+01 -0.49409913993E+00  0.17031290347E+02  0.17282273314E+02  0.51100000000E-03 0. -1.
        -12    1    3    3    0    0  0.44643198391E+01  0.79196869247E+01 -0.19896802024E+00  0.90934691337E+01  0.00000000000E+00 0.  1.
</event>
<event>
 7    1  0.2937071E-011  0.5052899E+02  0.7816164E-02  0.1300438E+00
        -11   -1    0    0    0    0  0.00000000000E+00  0.00000000000E+00  0.45593999997E+02  0.45594000000E+02  0.51100000000E-03 0.  1.
         11   -1    0    0    0    0 -0.00000000000E+00 -0.00000000000E+00 -0.45593999997E+02  0.45594000000E+02  0.51100000000E-03 0. -1.
    9900012    2    1    2    0    0 -0.10317569245E+02 -0.91950803280E+01 -0.38238117305E+02  0.50528986824E+02  0.30000385949E+02 0.  0.
        -12    1    1    2    0    0  0.10317569245E+02  0.91950803280E+01  0.38238117305E+02  0.40659013176E+02  0.00000000000E+00 0.  1.
         11    1    3    3    0    0 -0.34493693944E+00  0.63949576621E+01 -0.42380971521E+01  0.76795789418E+01  0.51100000000E-03 0. -1.
        -11    1    3    3    0    0  0.32072173753E-01  0.74919272022E+00  0.19630035422E+01  0.21013570672E+01  0.51100000000E-03 0.  1.
         12    1    3    3    0    0 -0.10004704480E+02 -0.16339230710E+02 -0.35963023695E+02  0.40748050815E+02  0.00000000000E+00 0. -1.
</event>
<event>
 7    1  0.2937071E-011  0.5052883E+02  0.7816164E-02  0.1300439E+00
        -11   -1    0    0    0    0  0.00000000000E+00  0.00000000000E+00  0.45593999997E+02  0.45594000000E+02  0.51100000000E-03 0.  1.
         11   -1    0    0    0    0 -0.00000000000E+00 -0.00000000000E+00 -0.45593999997E+02  0.45594000000E+02  0.51100000000E-03 0. -1.
    9900012    2    1    2    0    0  0.26100673465E+02  0.14501878002E+02 -0.27597441127E+02  0.50528826648E+02  0.29999899079E+02 0.  0.
        -12    1    1    2    0    0 -0.26100673465E+02 -0.14501878002E+02  0.27597441127E+02  0.40659173352E+02  0.00000000000E+00 0.  1.
         11    1    3    3    0    0  0.60172234025E+01 -0.55412070178E+01 -0.56750156419E+01  0.99557900484E+01  0.51100000000E-03 0. -1.
        -11    1    3    3    0    0  0.57355606220E+01 -0.25808078707E+01 -0.85968852760E+01  0.10651932295E+02  0.51100000000E-03 0.  1.
         12    1    3    3    0    0  0.14347889441E+02  0.22623892890E+02 -0.13325540209E+02  0.29921104304E+02  0.00000000000E+00 0. -1.
</event>
<event>
 7    1  0.2937071E-011  0.5052886E+02  0.7816164E-02  0.1300439E+00
        -11   -1    0    0    0    0  0.00000000000E+00  0.00000000000E+00  0.45593999997E+02  0.45594000000E+02  0.51100000000E-03 0.  1.
         11   -1    0    0    0    0 -0.00000000000E+00 -0.00000000000E+00 -0.45593999997E+02  0.45594000000E+02  0.51100000000E-03 0. -1.
    9900012    2    1    2    0    0  0.30969425106E+02 -0.25064442737E+02  0.81138345547E+01  0.50528857212E+02  0.29999991980E+02 0.  0.
        -12    1    1    2    0    0 -0.30969425106E+02  0.25064442737E+02 -0.81138345547E+01  0.40659142788E+02  0.00000000000E+00 0.  1.
         11    1    3    3    0    0  0.21719176873E+02 -0.28221450124E+02  0.74375173004E+01  0.36379795973E+02  0.51100000000E-03 0. -1.
        -11    1    3    3    0    0 -0.14036857237E+01 -0.45832325544E+00  0.23491963137E+01  0.27747283469E+01  0.51100000000E-03 0.  1.
        -12    1    3    3    0    0  0.10653933956E+02  0.36153306422E+01 -0.16728790595E+01  0.11374332892E+02  0.00000000000E+00 0.  1.
</event>
<event>
 7    1  0.2937071E-011  0.5052887E+02  0.7816164E-02  0.1300439E+00
        -11   -1    0    0    0    0  0.00000000000E+00  0.00000000000E+00  0.45593999997E+02  0.45594000000E+02  0.51100000000E-03 0.  1.
         11   -1    0    0    0    0 -0.00000000000E+00 -0.00000000000E+00 -0.45593999997E+02  0.45594000000E+02  0.51100000000E-03 0. -1.
    9900012    2    1    2    0    0 -0.26655833926E+01 -0.15928077218E+02 -0.37314289706E+02  0.50528865787E+02  0.30000018046E+02 0.  0.
        -12    1    1    2    0    0  0.26655833926E+01  0.15928077218E+02  0.37314289706E+02  0.40659134213E+02  0.00000000000E+00 0.  1.
         11    1    3    3    0    0 -0.93374057517E+01 -0.87729265954E+01 -0.19533408366E+02  0.23360338822E+02  0.51100000000E-03 0. -1.
        -11    1    3    3    0    0 -0.31575807332E+01 -0.94260158008E+01 -0.58121142846E+01  0.11515240453E+02  0.51100000000E-03 0.  1.
        -12    1    3    3    0    0  0.98294030924E+01  0.22708651787E+01 -0.11968767056E+02  0.15653286513E+02  0.00000000000E+00 0.  1.
</event>
<event>
 7    1  0.2937071E-011  0.5052885E+02  0.7816164E-02  0.1300439E+00
        -11   -1    0    0    0    0  0.00000000000E+00  0.00000000000E+00  0.45593999997E+02  0.45594000000E+02  0.51100000000E-03 0.  1.
         11   -1    0    0    0    0 -0.00000000000E+00 -0.00000000000E+00 -0.45593999997E+02  0.45594000000E+02  0.51100000000E-03 0. -1.
    9900012    2    1    2    0    0 -0.15926185322E+02  0.10415508625E+02 -0.35931046894E+02  0.50528851832E+02  0.29999975629E+02 0.  0.
        -12    1    1    2    0    0  0.15926185322E+02 -0.10415508625E+02  0.35931046894E+02  0.40659148168E+02  0.00000000000E+00 0.  1.
         11    1    3    3    0    0 -0.11653629587E+02  0.89749604467E+01 -0.41008675282E+01  0.15270039696E+02  0.51100000000E-03 0. -1.
        -11    1    3    3    0    0 -0.35097867459E+01 -0.77569694942E-01 -0.12990920538E+00  0.35130466439E+01  0.51100000000E-03 0.  1.
        -12    1    3    3    0    0 -0.76276898845E+00  0.15181178730E+01 -0.31700270161E+02  0.31745765492E+02  0.00000000000E+00 0.  1.
</event>
<event>
 7    1  0.2937071E-011  0.5052881E+02  0.7816164E-02  0.1300439E+00
        -11   -1    0    0    0    0  0.00000000000E+00  0.00000000000E+00  0.45593999997E+02  0.45594000000E+02  0.51100000000E-03 0.  1.
         11   -1    0    0    0    0 -0.00000000000E+00 -0.00000000000E+00 -0.45593999997E+02  0.45594000000E+02  0.51100000000E-03 0. -1.
    9900012    2    1    2    0    0  0.33856037958E+02  0.22475156432E+02 -0.13438908538E+01  0.50528806630E+02  0.29999838233E+02 0.  0.
        -12    1    1    2    0    0 -0.33856037958E+02 -0.22475156432E+02  0.13438908538E+01  0.40659193370E+02  0.00000000000E+00 0.  1.
         11    1    3    3    0    0  0.16519181627E+02  0.19779691006E+02 -0.18422598645E+01  0.25836281845E+02  0.51100000000E-03 0. -1.
        -11    1    3    3    0    0  0.48705783337E+01  0.84443299542E+01 -0.35587615363E+01  0.10377573204E+02  0.51100000000E-03 0.  1.
        -12    1    3    3    0    0  0.12466277998E+02 -0.57488645284E+01  0.40571305469E+01  0.14314951581E+02  0.00000000000E+00 0.  1.
</event>
<event>
 7    1  0.2937071E-011  0.5052885E+02  0.7816164E-02  0.1300439E+00
        -11   -1    0    0    0    0  0.00000000000E+00  0.00000000000E+00  0.45593999997E+02  0.45594000000E+02  0.51100000000E-03 0.  1.
         11   -1    0    0    0    0 -0.00000000000E+00 -0.00000000000E+00 -0.45593999997E+02  0.45594000000E+02  0.51100000000E-03 0. -1.
    9900012    2    1    2    0    0  0.28887236149E+02 -0.28100336262E+02 -0.53912152027E+01  0.50528849594E+02  0.29999968826E+02 0.  0.
        -12    1    1    2    0    0 -0.28887236149E+02  0.28100336262E+02  0.53912152027E+01  0.40659150406E+02  0.00000000000E+00 0.  1.
         11    1    3    3    0    0  0.11203627522E+02 -0.10201013590E+02 -0.35942608612E+01  0.15572432672E+02  0.51100000000E-03 0. -1.
        -11    1    3    3    0    0  0.99415316389E+01 -0.21417275909E+02 -0.74329529039E+01  0.24754445012E+02  0.51100000000E-03 0.  1.
        -12    1    3    3    0    0  0.77420769878E+01  0.35179532370E+01  0.56359985625E+01  0.10201971910E+02  0.00000000000E+00 0.  1.
</event>
<event>
 7    1  0.2937071E-011  0.5052888E+02  0.7816164E-02  0.1300439E+00
        -11   -1    0    0    0    0  0.00000000000E+00  0.00000000000E+00  0.45593999997E+02  0.45594000000E+02  0.51100000000E-03 0.  1.
         11   -1    0    0    0    0 -0.00000000000E+00 -0.00000000000E+00 -0.45593999997E+02  0.45594000000E+02  0.51100000000E-03 0. -1.
    9900012    2    1    2    0    0 -0.39506196900E+02  0.86680450914E+01  0.41580746312E+01  0.50528878221E+02  0.30000055840E+02 0.  0.
        -12    1    1    2    0    0  0.39506196900E+02 -0.86680450914E+01 -0.41580746312E+01  0.40659121779E+02  0.00000000000E+00 0.  1.
         11    1    3    3    0    0 -0.11566644794E+02  0.65782285511E+01 -0.86825440273E+00  0.13334700170E+02  0.51100000000E-03 0. -1.
        -11    1    3    3    0    0 -0.53293006090E+00 -0.49565918899E+01 -0.51068347249E+01  0.71366363772E+01  0.51100000000E-03 0.  1.
         12    1    3    3    0    0 -0.27406622046E+02  0.70464084301E+01  0.10133163759E+02  0.30057541674E+02  0.00000000000E+00 0. -1.
</event>
<event>
 7    1  0.2937071E-011  0.5052886E+02  0.7816164E-02  0.1300439E+00
        -11   -1    0    0    0    0  0.00000000000E+00  0.00000000000E+00  0.45593999997E+02  0.45594000000E+02  0.51100000000E-03 0. -1.
         11   -1    0    0    0    0 -0.00000000000E+00 -0.00000000000E+00 -0.45593999997E+02  0.45594000000E+02  0.51100000000E-03 0.  1.
    9900012    2    1    2    0    0  0.15144831116E+02 -0.88794070836E+01  0.36673642591E+02  0.50528857847E+02  0.29999993912E+02 0.  0.
        -12    1    1    2    0    0 -0.15144831116E+02  0.88794070836E+01 -0.36673642591E+02  0.40659142153E+02  0.00000000000E+00 0.  1.
         11    1    3    3    0    0 -0.11908677767E+01 -0.73075106160E+00 -0.12689038780E+01  0.18874004579E+01  0.51100000000E-03 0.  1.
        -11    1    3    3    0    0 -0.75094800466E+00 -0.12725020358E+02  0.15857296809E+02  0.20345612018E+02  0.51100000000E-03 0. -1.
         12    1    3    3    0    0  0.17086646897E+02  0.45763643365E+01  0.22085249660E+02  0.28295845371E+02  0.00000000000E+00 0. -1.
</event>
<event>
 7    1  0.2937071E-011  0.5052886E+02  0.7816164E-02  0.1300439E+00
        -11   -1    0    0    0    0  0.00000000000E+00  0.00000000000E+00  0.45593999997E+02  0.45594000000E+02  0.51100000000E-03 0. -1.
         11   -1    0    0    0    0 -0.00000000000E+00 -0.00000000000E+00 -0.45593999997E+02  0.45594000000E+02  0.51100000000E-03 0.  1.
    9900012    2    1    2    0    0 -0.39019829769E+02  0.10209190975E+02  0.51372284843E+01  0.50528858198E+02  0.29999994979E+02 0.  0.
        -12    1    1    2    0    0  0.39019829769E+02 -0.10209190975E+02 -0.51372284843E+01  0.40659141802E+02  0.00000000000E+00 0.  1.
         11    1    3    3    0    0 -0.19805688679E+02 -0.34743217152E+01 -0.64875250538E+01  0.21128752851E+02  0.51100000000E-03 0. -1.
        -11    1    3    3    0    0  0.18417049689E+01  0.24819301829E+01  0.70959221018E+00  0.31710212852E+01  0.51100000000E-03 0.  1.
        -12    1    3    3    0    0 -0.21055846059E+02  0.11201582507E+02  0.10915161328E+02  0.26229084062E+02  0.00000000000E+00 0.  1.
</event>
<event>
 7    1  0.3544149E-011  0.5052886E+02  0.7816164E-02  0.1300439E+00
        -11   -1    0    0    0    0  0.00000000000E+00  0.00000000000E+00  0.45593999997E+02  0.45594000000E+02  0.51100000000E-03 0. -1.
         11   -1    0    0    0    0 -0.00000000000E+00 -0.00000000000E+00 -0.45593999997E+02  0.45594000000E+02  0.51100000000E-03 0.  1.
    9900012    2    1    2    0    0 -0.22249417263E+02 -0.96322766585E+01  0.32639671249E+02  0.50528862511E+02  0.30000008087E+02 0.  0.
        -12    1    1    2    0    0  0.22249417263E+02  0.96322766585E+01 -0.32639671249E+02  0.40659137489E+02  0.00000000000E+00 0.  1.
         11    1    3    3    0    0 -0.44947456717E+01 -0.46478723006E+01  0.18304343934E+02  0.19412739701E+02  0.51100000000E-03 0. -1.
        -11    1    3    3    0    0 -0.20585253796E+02 -0.19714255950E+01  0.16494685556E+02  0.26452104729E+02  0.51100000000E-03 0.  1.
        -12    1    3    3    0    0  0.28305822053E+01 -0.30129787629E+01 -0.21593582410E+01  0.46640180810E+01  0.00000000000E+00 0.  1.
</event>
<event>
 7    1  0.2937071E-011  0.5052887E+02  0.7816164E-02  0.1300439E+00
        -11   -1    0    0    0    0  0.00000000000E+00  0.00000000000E+00  0.45593999997E+02  0.45594000000E+02  0.51100000000E-03 0.  1.
         11   -1    0    0    0    0 -0.00000000000E+00 -0.00000000000E+00 -0.45593999997E+02  0.45594000000E+02  0.51100000000E-03 0. -1.
    9900012    2    1    2    0    0 -0.31547554357E+02 -0.20637017906E+02 -0.15232545684E+02  0.50528866438E+02  0.30000020026E+02 0.  0.
        -12    1    1    2    0    0  0.31547554357E+02  0.20637017906E+02  0.15232545684E+02  0.40659133562E+02  0.00000000000E+00 0.  1.
         11    1    3    3    0    0  0.27096188788E+00 -0.26498846501E+00  0.17747170014E+01  0.18147341203E+01  0.51100000000E-03 0.  1.
        -11    1    3    3    0    0 -0.33751840069E+01 -0.70843267068E+01  0.59280012309E+01  0.98346708548E+01  0.51100000000E-03 0. -1.
         12    1    3    3    0    0 -0.28443332238E+02 -0.13287702734E+02 -0.22935263917E+02  0.38879461463E+02  0.00000000000E+00 0. -1.
</event>
<event>
 7    1  0.2937071E-011  0.5052881E+02  0.7816164E-02  0.1300439E+00
        -11   -1    0    0    0    0  0.00000000000E+00  0.00000000000E+00  0.45593999997E+02  0.45594000000E+02  0.51100000000E-03 0. -1.
         11   -1    0    0    0    0 -0.00000000000E+00 -0.00000000000E+00 -0.45593999997E+02  0.45594000000E+02  0.51100000000E-03 0.  1.
    9900012    2    1    2    0    0 -0.27603703940E+02  0.28588315628E+02  0.85972756873E+01  0.50528813942E+02  0.29999860457E+02 0.  0.
        -12    1    1    2    0    0  0.27603703940E+02 -0.28588315628E+02 -0.85972756873E+01  0.40659186058E+02  0.00000000000E+00 0.  1.
         11    1    3    3    0    0 -0.21388591105E+02  0.12759843417E+02 -0.43318440927E+01  0.25279444357E+02  0.51100000000E-03 0. -1.
        -11    1    3    3    0    0 -0.13308458032E+01 -0.87423168686E+00 -0.18338917824E+01  0.24287014894E+01  0.51100000000E-03 0.  1.
         12    1    3    3    0    0 -0.48842670317E+01  0.16702703897E+02  0.14763011562E+02  0.22820668095E+02  0.00000000000E+00 0. -1.
</event>
<event>
 7    1  0.2937071E-011  0.5052889E+02  0.7816164E-02  0.1300439E+00
        -11   -1    0    0    0    0  0.00000000000E+00  0.00000000000E+00  0.45593999997E+02  0.45594000000E+02  0.51100000000E-03 0. -1.
         11   -1    0    0    0    0 -0.00000000000E+00 -0.00000000000E+00 -0.45593999997E+02  0.45594000000E+02  0.51100000000E-03 0.  1.
    9900012    2    1    2    0    0 -0.30059352892E+02 -0.27310674957E+02 -0.19302545277E+01  0.50528886072E+02  0.30000079705E+02 0.  0.
        -12    1    1    2    0    0  0.30059352892E+02  0.27310674957E+02  0.19302545277E+01  0.40659113928E+02  0.00000000000E+00 0.  1.
         11    1    3    3    0    0 -0.45184366785E+01 -0.16203078039E+02  0.18105416030E+01  0.16918453509E+02  0.51100000000E-03 0. -1.
        -11    1    3    3    0    0  0.13527587881E+01 -0.58253167008E+01 -0.30094870096E+00  0.59878912302E+01  0.51100000000E-03 0.  1.
        -12    1    3    3    0    0 -0.26893675001E+02 -0.52822802166E+01 -0.34398474297E+01  0.27622541333E+02  0.00000000000E+00 0.  1.
</event>
<event>
 7    1  0.2937071E-011  0.5052885E+02  0.7816164E-02  0.1300439E+00
        -11   -1    0    0    0    0  0.00000000000E+00  0.00000000000E+00  0.45593999997E+02  0.45594000000E+02  0.51100000000E-03 0.  1.
         11   -1    0    0    0    0 -0.00000000000E+00 -0.00000000000E+00 -0.45593999997E+02  0.45594000000E+02  0.51100000000E-03 0. -1.
    9900012    2    1    2    0    0 -0.29621914431E+02  0.12120560881E+02 -0.25075900153E+02  0.50528848765E+02  0.29999966307E+02 0.  0.
        -12    1    1    2    0    0  0.29621914431E+02 -0.12120560881E+02  0.25075900153E+02  0.40659151235E+02  0.00000000000E+00 0.  1.
         11    1    3    3    0    0 -0.25543259709E+01 -0.37672172850E+01  0.31240896460E+01  0.55205474019E+01  0.51100000000E-03 0. -1.
        -11    1    3    3    0    0 -0.33502141286E+01  0.41651539617E+01  0.11779181108E+01  0.54735668050E+01  0.51100000000E-03 0.  1.
         12    1    3    3    0    0 -0.23717374332E+02  0.11722624204E+02 -0.29377907910E+02  0.39534734558E+02  0.00000000000E+00 0. -1.
</event>
<event>
 7    1  0.2937071E-011  0.5052886E+02  0.7816164E-02  0.1300439E+00
        -11   -1    0    0    0    0  0.00000000000E+00  0.00000000000E+00  0.45593999997E+02  0.45594000000E+02  0.51100000000E-03 0.  1.
         11   -1    0    0    0    0 -0.00000000000E+00 -0.00000000000E+00 -0.45593999997E+02  0.45594000000E+02  0.51100000000E-03 0. -1.
    9900012    2    1    2    0    0 -0.13929866153E+02  0.80077587208E+01 -0.37349700367E+02  0.50528862180E+02  0.30000007082E+02 0.  0.
        -12    1    1    2    0    0  0.13929866153E+02 -0.80077587208E+01  0.37349700367E+02  0.40659137820E+02  0.00000000000E+00 0.  1.
         11    1    3    3    0    0 -0.95367272344E+01  0.44748585727E+00 -0.79873926975E+01  0.12447805120E+02  0.51100000000E-03 0. -1.
        -11    1    3    3    0    0  0.26370014156E+01  0.11368736929E+02 -0.54746655801E+01  0.12890846337E+02  0.51100000000E-03 0.  1.
         12    1    3    3    0    0 -0.70301403337E+01 -0.38084640652E+01 -0.23887642090E+02  0.25190210723E+02  0.00000000000E+00 0. -1.
</event>
<event>
 7    1  0.2937071E-011  0.5052886E+02  0.7816164E-02  0.1300439E+00
        -11   -1    0    0    0    0  0.00000000000E+00  0.00000000000E+00  0.45593999997E+02  0.45594000000E+02  0.51100000000E-03 0.  1.
         11   -1    0    0    0    0 -0.00000000000E+00 -0.00000000000E+00 -0.45593999997E+02  0.45594000000E+02  0.51100000000E-03 0. -1.
    9900012    2    1    2    0    0 -0.29896139240E+02  0.18092860713E+02 -0.20785456478E+02  0.50528856487E+02  0.29999989777E+02 0.  0.
        -12    1    1    2    0    0  0.29896139240E+02 -0.18092860713E+02  0.20785456478E+02  0.40659143513E+02  0.00000000000E+00 0.  1.
         11    1    3    3    0    0 -0.17895030120E+02  0.16998376527E+01 -0.54820532822E+01  0.18792936425E+02  0.51100000000E-03 0. -1.
        -11    1    3    3    0    0 -0.64363854899E+01  0.27665337407E+01  0.35205102619E+01  0.78405841542E+01  0.51100000000E-03 0.  1.
         12    1    3    3    0    0 -0.55647236303E+01  0.13626489319E+02 -0.18823913458E+02  0.23895335907E+02  0.00000000000E+00 0. -1.
</event>
<event>
 7    1  0.2937071E-011  0.5052886E+02  0.7816164E-02  0.1300439E+00
        -11   -1    0    0    0    0  0.00000000000E+00  0.00000000000E+00  0.45593999997E+02  0.45594000000E+02  0.51100000000E-03 0.  1.
         11   -1    0    0    0    0 -0.00000000000E+00 -0.00000000000E+00 -0.45593999997E+02  0.45594000000E+02  0.51100000000E-03 0. -1.
    9900012    2    1    2    0    0 -0.30498453092E+02  0.11572819385E+02 -0.24270965230E+02  0.50528861510E+02  0.30000005047E+02 0.  0.
        -12    1    1    2    0    0  0.30498453092E+02 -0.11572819385E+02  0.24270965230E+02  0.40659138490E+02  0.00000000000E+00 0.  1.
         11    1    3    3    0    0 -0.14808248179E+02  0.56457649145E+01 -0.25837871955E+02  0.30310963413E+02  0.51100000000E-03 0. -1.
        -11    1    3    3    0    0 -0.39989988648E+01 -0.23020256762E+01 -0.26384264007E+01  0.53153182659E+01  0.51100000000E-03 0.  1.
         12    1    3    3    0    0 -0.11691206048E+02  0.82290801470E+01  0.42053331259E+01  0.14902579831E+02  0.00000000000E+00 0. -1.
</event>
<event>
 7    1  0.2937071E-011  0.5052887E+02  0.7816164E-02  0.1300439E+00
        -11   -1    0    0    0    0  0.00000000000E+00  0.00000000000E+00  0.45593999997E+02  0.45594000000E+02  0.51100000000E-03 0.  1.
         11   -1    0    0    0    0 -0.00000000000E+00 -0.00000000000E+00 -0.45593999997E+02  0.45594000000E+02  0.51100000000E-03 0. -1.
    9900012    2    1    2    0    0 -0.29589646960E+02  0.13903758667E+02 -0.24172367947E+02  0.50528867146E+02  0.30000022178E+02 0.  0.
        -12    1    1    2    0    0  0.29589646960E+02 -0.13903758667E+02  0.24172367947E+02  0.40659132854E+02  0.00000000000E+00 0.  1.
         11    1    3    3    0    0 -0.15793055808E+02  0.50593908080E+01 -0.13589784097E+02  0.21440622173E+02  0.51100000000E-03 0. -1.
        -11    1    3    3    0    0 -0.10542815191E+02  0.82559022745E+01 -0.17136245343E+02  0.21747684457E+02  0.51100000000E-03 0.  1.
        -12    1    3    3    0    0 -0.32537759602E+01  0.58846558420E+00  0.65536614926E+01  0.73405605169E+01  0.00000000000E+00 0.  1.
</event>
<event>
 7    1  0.2937071E-011  0.5052886E+02  0.7816164E-02  0.1300439E+00
        -11   -1    0    0    0    0  0.00000000000E+00  0.00000000000E+00  0.45593999997E+02  0.45594000000E+02  0.51100000000E-03 0.  1.
         11   -1    0    0    0    0 -0.00000000000E+00 -0.00000000000E+00 -0.45593999997E+02  0.45594000000E+02  0.51100000000E-03 0. -1.
    9900012    2    1    2    0    0 -0.94408675922E+01 -0.39515297728E+02  0.16052337200E+01  0.50528861904E+02  0.30000006244E+02 0.  0.
        -12    1    1    2    0    0  0.94408675922E+01  0.39515297728E+02 -0.16052337200E+01  0.40659138096E+02  0.00000000000E+00 0.  1.
         11    1    3    3    0    0  0.14330507448E+01 -0.34672315828E+01  0.16844554312E+01  0.41125077078E+01  0.51100000000E-03 0. -1.
        -11    1    3    3    0    0 -0.24506676015E+01 -0.99618958916E+01  0.12571064265E+02  0.16225806558E+02  0.51100000000E-03 0.  1.
         12    1    3    3    0    0 -0.84232507354E+01 -0.26086170253E+02 -0.12650285976E+02  0.30190547638E+02  0.00000000000E+00 0. -1.
</event>
<event>
 7    1  0.2937071E-011  0.5052885E+02  0.7816164E-02  0.1300439E+00
        -11   -1    0    0    0    0  0.00000000000E+00  0.00000000000E+00  0.45593999997E+02  0.45594000000E+02  0.51100000000E-03 0. -1.
         11   -1    0    0    0    0 -0.00000000000E+00 -0.00000000000E+00 -0.45593999997E+02  0.45594000000E+02  0.51100000000E-03 0.  1.
    9900012    2    1    2    0    0 -0.33194765452E+02  0.22916836979E+02 -0.51080818274E+01  0.50528851331E+02  0.29999974106E+02 0.  0.
        -12    1    1    2    0    0  0.33194765452E+02 -0.22916836979E+02  0.51080818274E+01  0.40659148669E+02  0.00000000000E+00 0.  1.
         11    1    3    3    0    0  0.32120834574E+00  0.85273416376E+00 -0.29887634990E+01  0.31245860317E+01  0.51100000000E-03 0. -1.
        -11    1    3    3    0    0 -0.75009633486E+01  0.15847450556E+01 -0.10736335556E+02  0.13192602832E+02  0.51100000000E-03 0.  1.
         12    1    3    3    0    0 -0.26015010449E+02  0.20479357759E+02  0.86170172274E+01  0.34211662468E+02  0.00000000000E+00 0. -1.
</event>
<event>
 7    1  0.2937071E-011  0.5052885E+02  0.7816164E-02  0.1300439E+00
        -11   -1    0    0    0    0  0.00000000000E+00  0.00000000000E+00  0.45593999997E+02  0.45594000000E+02  0.51100000000E-03 0. -1.
         11   -1    0    0    0    0 -0.00000000000E+00 -0.00000000000E+00 -0.45593999997E+02  0.45594000000E+02  0.51100000000E-03 0.  1.
    9900012    2    1    2    0    0 -0.62829872534E+01 -0.35389650723E+02  0.19006917472E+02  0.50528853195E+02  0.29999979771E+02 0.  0.
        -12    1    1    2    0    0  0.62829872534E+01  0.35389650723E+02 -0.19006917472E+02  0.40659146805E+02  0.00000000000E+00 0.  1.
         11    1    3    3    0    0 -0.27296964613E+00 -0.44683700774E+01  0.74729456077E+01  0.87112433035E+01  0.51100000000E-03 0. -1.
        -11    1    3    3    0    0 -0.94994531703E+01 -0.58329044753E+00  0.42486585627E+01  0.10422616664E+02  0.51100000000E-03 0.  1.
         12    1    3    3    0    0  0.34894355631E+01 -0.30337990198E+02  0.72853133017E+01  0.31394993227E+02  0.00000000000E+00 0. -1.
</event>
<event>
 7    1  0.2937071E-011  0.5052888E+02  0.7816164E-02  0.1300439E+00
        -11   -1    0    0    0    0  0.00000000000E+00  0.00000000000E+00  0.45593999997E+02  0.45594000000E+02  0.51100000000E-03 0.  1.
         11   -1    0    0    0    0 -0.00000000000E+00 -0.00000000000E+00 -0.45593999997E+02  0.45594000000E+02  0.51100000000E-03 0. -1.
    9900012    2    1    2    0    0 -0.32672103501E+02  0.22296445241E+02 -0.94109619673E+01  0.50528880202E+02  0.30000061863E+02 0.  0.
        -12    1    1    2    0    0  0.32672103501E+02 -0.22296445241E+02  0.94109619673E+01  0.40659119798E+02  0.00000000000E+00 0.  1.
         11    1    3    3    0    0  0.87119673271E+00 -0.22927791569E+01  0.69710969024E+00  0.25498592492E+01  0.51100000000E-03 0. -1.
        -11    1    3    3    0    0 -0.14147031565E+02 -0.66770135797E+00  0.11326712524E+01  0.14208000269E+02  0.51100000000E-03 0.  1.
         12    1    3    3    0    0 -0.19396268668E+02  0.25256925756E+02 -0.11240742910E+02  0.33771020684E+02  0.00000000000E+00 0. -1.
</event>
<event>
 7    1  0.2937071E-011  0.5052885E+02  0.7816164E-02  0.1300439E+00
        -11   -1    0    0    0    0  0.00000000000E+00  0.00000000000E+00  0.45593999997E+02  0.45594000000E+02  0.51100000000E-03 0.  1.
         11   -1    0    0    0    0 -0.00000000000E+00 -0.00000000000E+00 -0.45593999997E+02  0.45594000000E+02  0.51100000000E-03 0. -1.
    9900012    2    1    2    0    0  0.40962526493E+01 -0.40365313506E+02 -0.26511265444E+01  0.50528852295E+02  0.29999977034E+02 0.  0.
        -12    1    1    2    0    0 -0.40962526493E+01  0.40365313506E+02  0.26511265444E+01  0.40659147705E+02  0.00000000000E+00 0.  1.
         11    1    3    3    0    0  0.11336474528E+02 -0.57147859189E+01  0.52261864503E+01  0.13729073454E+02  0.51100000000E-03 0. -1.
        -11    1    3    3    0    0 -0.12957434918E+01 -0.15614819894E+01 -0.16362227865E+01  0.26066074633E+01  0.51100000000E-03 0.  1.
         12    1    3    3    0    0 -0.59444783873E+01 -0.33089045597E+02 -0.62410902082E+01  0.34193171377E+02  0.00000000000E+00 0. -1.
</event>
<event>
 7    1  0.2937071E-011  0.5052886E+02  0.7816164E-02  0.1300439E+00
        -11   -1    0    0    0    0  0.00000000000E+00  0.00000000000E+00  0.45593999997E+02  0.45594000000E+02  0.51100000000E-03 0.  1.
         11   -1    0    0    0    0 -0.00000000000E+00 -0.00000000000E+00 -0.45593999997E+02  0.45594000000E+02  0.51100000000E-03 0. -1.
    9900012    2    1    2    0    0  0.13669717759E+02  0.21102930546E+02 -0.31952631379E+02  0.50528861872E+02  0.30000006146E+02 0.  0.
        -12    1    1    2    0    0 -0.13669717759E+02 -0.21102930546E+02  0.31952631379E+02  0.40659138128E+02  0.00000000000E+00 0.  1.
         11    1    3    3    0    0  0.11932922601E+02  0.26313505456E+01 -0.10128894570E+02  0.15871772206E+02  0.51100000000E-03 0. -1.
        -11    1    3    3    0    0  0.36772999280E+01 -0.33665667690E+01 -0.44687934616E+01  0.66952536795E+01  0.51100000000E-03 0.  1.
         12    1    3    3    0    0 -0.19405047699E+01  0.21838146770E+02 -0.17354943348E+02  0.27961835986E+02  0.00000000000E+00 0. -1.
</event>
<event>
 7    1  0.2937071E-011  0.5052887E+02  0.7816164E-02  0.1300439E+00
        -11   -1    0    0    0    0  0.00000000000E+00  0.00000000000E+00  0.45593999997E+02  0.45594000000E+02  0.51100000000E-03 0.  1.
         11   -1    0    0    0    0 -0.00000000000E+00 -0.00000000000E+00 -0.45593999997E+02  0.45594000000E+02  0.51100000000E-03 0. -1.
    9900012    2    1    2    0    0  0.37204295655E+02  0.37679975956E+01 -0.15962693383E+02  0.50528868171E+02  0.30000025292E+02 0.  0.
        -12    1    1    2    0    0 -0.37204295655E+02 -0.37679975956E+01  0.15962693383E+02  0.40659131829E+02  0.00000000000E+00 0.  1.
         11    1    3    3    0    0 -0.17745123220E+01  0.14901269284E+01  0.93155579095E+00  0.24974324208E+01  0.51100000000E-03 0. -1.
        -11    1    3    3    0    0 -0.17503563388E+01  0.62691193806E+00 -0.53526622396E+01  0.56663709024E+01  0.51100000000E-03 0.  1.
         12    1    3    3    0    0  0.40729164316E+02  0.16509587292E+01 -0.11541586934E+02  0.42365064848E+02  0.00000000000E+00 0. -1.
</event>
<event>
 7    1  0.2937071E-011  0.5052886E+02  0.7816164E-02  0.1300439E+00
        -11   -1    0    0    0    0  0.00000000000E+00  0.00000000000E+00  0.45593999997E+02  0.45594000000E+02  0.51100000000E-03 0.  1.
         11   -1    0    0    0    0 -0.00000000000E+00 -0.00000000000E+00 -0.45593999997E+02  0.45594000000E+02  0.51100000000E-03 0. -1.
    9900012    2    1    2    0    0 -0.12878320013E+02 -0.22959540124E+01 -0.38497315822E+02  0.50528857650E+02  0.29999993313E+02 0.  0.
        -12    1    1    2    0    0  0.12878320013E+02  0.22959540124E+01  0.38497315822E+02  0.40659142350E+02  0.00000000000E+00 0.  1.
         11    1    3    3    0    0 -0.13855800964E+02 -0.10110328849E+02 -0.16284117837E+02  0.23651098574E+02  0.51100000000E-03 0. -1.
        -11    1    3    3    0    0 -0.23915112596E+01 -0.25992949115E+01 -0.24912209384E+01  0.43222496650E+01  0.51100000000E-03 0.  1.
        -12    1    3    3    0    0  0.33689922107E+01  0.10413669749E+02 -0.19721977047E+02  0.22555509411E+02  0.00000000000E+00 0.  1.
</event>
<event>
 7    1  0.2937071E-011  0.5052886E+02  0.7816164E-02  0.1300439E+00
        -11   -1    0    0    0    0  0.00000000000E+00  0.00000000000E+00  0.45593999997E+02  0.45594000000E+02  0.51100000000E-03 0.  1.
         11   -1    0    0    0    0 -0.00000000000E+00 -0.00000000000E+00 -0.45593999997E+02  0.45594000000E+02  0.51100000000E-03 0. -1.
    9900012    2    1    2    0    0 -0.88954205196E+01  0.31078809595E+02 -0.24660593131E+02  0.50528858769E+02  0.29999996713E+02 0.  0.
        -12    1    1    2    0    0  0.88954205196E+01 -0.31078809595E+02  0.24660593131E+02  0.40659141231E+02  0.00000000000E+00 0.  1.
         11    1    3    3    0    0  0.10274609663E+01 -0.33547725824E+01 -0.13396140094E+01  0.37556279198E+01  0.51100000000E-03 0. -1.
        -11    1    3    3    0    0 -0.66027830901E+01  0.39684484886E+01  0.83948009034E+00  0.77491970568E+01  0.51100000000E-03 0.  1.
         12    1    3    3    0    0 -0.33200983957E+01  0.30465133689E+02 -0.24160459212E+02  0.39024033792E+02  0.00000000000E+00 0. -1.
</event>
<event>
 7    1  0.3110214E-011  0.5052886E+02  0.7816164E-02  0.1300439E+00
        -11   -1    0    0    0    0  0.00000000000E+00  0.00000000000E+00  0.45593999997E+02  0.45594000000E+02  0.51100000000E-03 0.  1.
         11   -1    0    0    0    0 -0.00000000000E+00 -0.00000000000E+00 -0.45593999997E+02  0.45594000000E+02  0.51100000000E-03 0. -1.
    9900012    2    1    2    0    0 -0.21913825807E+02 -0.23621822033E+02 -0.24798372813E+02  0.50528861645E+02  0.30000005455E+02 0.  0.
        -12    1    1    2    0    0  0.21913825807E+02  0.23621822033E+02  0.24798372813E+02  0.40659138355E+02  0.00000000000E+00 0.  1.
         11    1    3    3    0    0 -0.12876617701E+02 -0.43344876436E+01 -0.13806564499E+02  0.19370500512E+02  0.51100000000E-03 0. -1.
        -11    1    3    3    0    0  0.63097810248E+00 -0.11311310089E+02 -0.14253511514E+02  0.18207318859E+02  0.51100000000E-03 0.  1.
        -12    1    3    3    0    0 -0.96681862088E+01 -0.79760243002E+01  0.32617032007E+01  0.12951042274E+02  0.00000000000E+00 0.  1.
</event>
<event>
 7    1  0.2937071E-011  0.5052886E+02  0.7816164E-02  0.1300439E+00
        -11   -1    0    0    0    0  0.00000000000E+00  0.00000000000E+00  0.45593999997E+02  0.45594000000E+02  0.51100000000E-03 0.  1.
         11   -1    0    0    0    0 -0.00000000000E+00 -0.00000000000E+00 -0.45593999997E+02  0.45594000000E+02  0.51100000000E-03 0. -1.
    9900012    2    1    2    0    0 -0.68744556377E+01  0.15149173816E+02 -0.37100006178E+02  0.50528855076E+02  0.29999985488E+02 0.  0.
        -12    1    1    2    0    0  0.68744556377E+01 -0.15149173816E+02  0.37100006178E+02  0.40659144924E+02  0.00000000000E+00 0.  1.
         11    1    3    3    0    0 -0.48766380004E+01 -0.29800331303E+01 -0.18895350889E+02  0.19740731524E+02  0.51100000000E-03 0. -1.
        -11    1    3    3    0    0  0.26982696517E+01 -0.15313362194E+01 -0.70465187716E+01  0.76992906680E+01  0.51100000000E-03 0.  1.
        -12    1    3    3    0    0 -0.46960872890E+01  0.19660543165E+02 -0.11158136517E+02  0.23088832883E+02  0.00000000000E+00 0.  1.
</event>
<event>
 7    1  0.2937071E-011  0.5052886E+02  0.7816164E-02  0.1300439E+00
        -11   -1    0    0    0    0  0.00000000000E+00  0.00000000000E+00  0.45593999997E+02  0.45594000000E+02  0.51100000000E-03 0.  1.
         11   -1    0    0    0    0 -0.00000000000E+00 -0.00000000000E+00 -0.45593999997E+02  0.45594000000E+02  0.51100000000E-03 0. -1.
    9900012    2    1    2    0    0  0.32831226514E+02  0.45562891129E+00 -0.23980589069E+02  0.50528859771E+02  0.29999999759E+02 0.  0.
        -12    1    1    2    0    0 -0.32831226514E+02 -0.45562891129E+00  0.23980589069E+02  0.40659140229E+02  0.00000000000E+00 0.  1.
         11    1    3    3    0    0  0.19327237058E+02 -0.79575368170E+01 -0.21272928894E+02  0.29822843400E+02  0.51100000000E-03 0. -1.
        -11    1    3    3    0    0 -0.21669145431E+01  0.34451858439E+01 -0.18622574388E+00  0.40742489400E+01  0.51100000000E-03 0.  1.
        -12    1    3    3    0    0  0.15670903999E+02  0.49679798843E+01 -0.25214344315E+01  0.16631767430E+02  0.00000000000E+00 0.  1.
</event>
<event>
 7    1  0.2937071E-011  0.5052890E+02  0.7816164E-02  0.1300439E+00
        -11   -1    0    0    0    0  0.00000000000E+00  0.00000000000E+00  0.45593999997E+02  0.45594000000E+02  0.51100000000E-03 0.  1.
         11   -1    0    0    0    0 -0.00000000000E+00 -0.00000000000E+00 -0.45593999997E+02  0.45594000000E+02  0.51100000000E-03 0. -1.
    9900012    2    1    2    0    0  0.37457545058E+02 -0.17287704933E+01 -0.15719611084E+02  0.50528898906E+02  0.30000118713E+02 0.  0.
        -12    1    1    2    0    0 -0.37457545058E+02  0.17287704933E+01  0.15719611084E+02  0.40659101094E+02  0.00000000000E+00 0.  1.
         11    1    3    3    0    0  0.40045693243E+01  0.90389549953E+01 -0.45948396386E+01  0.10901918842E+02  0.51100000000E-03 0. -1.
        -11    1    3    3    0    0 -0.10624508683E+01 -0.12625737772E+01  0.87671293545E+00  0.18685610032E+01  0.51100000000E-03 0.  1.
         12    1    3    3    0    0  0.34515426602E+02 -0.95051517115E+01 -0.12001484381E+02  0.37758419060E+02  0.00000000000E+00 0. -1.
</event>
<event>
 7    1  0.2937071E-011  0.5052886E+02  0.7816164E-02  0.1300439E+00
        -11   -1    0    0    0    0  0.00000000000E+00  0.00000000000E+00  0.45593999997E+02  0.45594000000E+02  0.51100000000E-03 0.  1.
         11   -1    0    0    0    0 -0.00000000000E+00 -0.00000000000E+00 -0.45593999997E+02  0.45594000000E+02  0.51100000000E-03 0. -1.
    9900012    2    1    2    0    0 -0.34682668766E+02  0.11126620418E+02 -0.18068660388E+02  0.50528859787E+02  0.29999999809E+02 0.  0.
        -12    1    1    2    0    0  0.34682668766E+02 -0.11126620418E+02  0.18068660388E+02  0.40659140213E+02  0.00000000000E+00 0.  1.
         11    1    3    3    0    0 -0.32378902213E+01  0.44276289745E-01 -0.11522244983E+02  0.11968626621E+02  0.51100000000E-03 0. -1.
        -11    1    3    3    0    0 -0.85723862899E+01 -0.20483352415E+01  0.45836849387E+01  0.99343672090E+01  0.51100000000E-03 0.  1.
        -12    1    3    3    0    0 -0.22872392254E+02  0.13130679369E+02 -0.11130100344E+02  0.28625865957E+02  0.00000000000E+00 0.  1.
</event>
<event>
 7    1  0.2937071E-011  0.5052886E+02  0.7816164E-02  0.1300439E+00
        -11   -1    0    0    0    0  0.00000000000E+00  0.00000000000E+00  0.45593999997E+02  0.45594000000E+02  0.51100000000E-03 0.  1.
         11   -1    0    0    0    0 -0.00000000000E+00 -0.00000000000E+00 -0.45593999997E+02  0.45594000000E+02  0.51100000000E-03 0. -1.
    9900012    2    1    2    0    0 -0.59876999502E+01 -0.16979150047E+01 -0.40179977456E+02  0.50528855217E+02  0.29999985919E+02 0.  0.
        -12    1    1    2    0    0  0.59876999502E+01  0.16979150047E+01  0.40179977456E+02  0.40659144783E+02  0.00000000000E+00 0.  1.
         11    1    3    3    0    0  0.67696101556E+00  0.23398338609E+01  0.14612717045E+01  0.28404953738E+01  0.51100000000E-03 0.  1.
        -11    1    3    3    0    0 -0.77800055934E+01 -0.29994596579E+01 -0.27685288891E+01  0.87857838435E+01  0.51100000000E-03 0. -1.
         12    1    3    3    0    0  0.11153446277E+01 -0.10382892077E+01 -0.38872720272E+02  0.38902576000E+02  0.00000000000E+00 0. -1.
</event>
<event>
 7    1  0.2937071E-011  0.5052886E+02  0.7816164E-02  0.1300439E+00
        -11   -1    0    0    0    0  0.00000000000E+00  0.00000000000E+00  0.45593999997E+02  0.45594000000E+02  0.51100000000E-03 0.  1.
         11   -1    0    0    0    0 -0.00000000000E+00 -0.00000000000E+00 -0.45593999997E+02  0.45594000000E+02  0.51100000000E-03 0. -1.
    9900012    2    1    2    0    0 -0.34988741343E+02  0.20136196050E+02 -0.48463510128E+01  0.50528861664E+02  0.30000005513E+02 0.  0.
        -12    1    1    2    0    0  0.34988741343E+02 -0.20136196050E+02  0.48463510128E+01  0.40659138336E+02  0.00000000000E+00 0.  1.
         11    1    3    3    0    0  0.80767457454E+00 -0.27125673818E+00 -0.84159999949E+00  0.11975847597E+01  0.51100000000E-03 0. -1.
        -11    1    3    3    0    0 -0.53890199778E+01  0.16644890718E+02 -0.63262020164E+01  0.18604159631E+02  0.51100000000E-03 0.  1.
        -12    1    3    3    0    0 -0.30407395940E+02  0.37625620695E+01  0.23214510031E+01  0.30727117273E+02  0.00000000000E+00 0.  1.
</event>
<event>
 7    1  0.2937071E-011  0.5052884E+02  0.7816164E-02  0.1300439E+00
        -11   -1    0    0    0    0  0.00000000000E+00  0.00000000000E+00  0.45593999997E+02  0.45594000000E+02  0.51100000000E-03 0. -1.
         11   -1    0    0    0    0 -0.00000000000E+00 -0.00000000000E+00 -0.45593999997E+02  0.45594000000E+02  0.51100000000E-03 0.  1.
    9900012    2    1    2    0    0  0.36306911641E+02 -0.79327425013E+01 -0.16493854914E+02  0.50528837608E+02  0.29999932392E+02 0.  0.
        -12    1    1    2    0    0 -0.36306911641E+02  0.79327425013E+01  0.16493854914E+02  0.40659162392E+02  0.00000000000E+00 0.  1.
         11    1    3    3    0    0  0.14325590943E+02 -0.67120620820E+01 -0.69757927687E+01  0.17289766287E+02  0.51100000000E-03 0. -1.
        -11    1    3    3    0    0  0.79554268134E+01 -0.11819089377E+02 -0.36726725756E+01  0.14712858784E+02  0.51100000000E-03 0.  1.
        -12    1    3    3    0    0  0.14025893885E+02  0.10598408958E+02 -0.58453895693E+01  0.18526212536E+02  0.00000000000E+00 0.  1.
</event>
<event>
 7    1  0.2937071E-011  0.5052886E+02  0.7816164E-02  0.1300439E+00
        -11   -1    0    0    0    0  0.00000000000E+00  0.00000000000E+00  0.45593999997E+02  0.45594000000E+02  0.51100000000E-03 0.  1.
         11   -1    0    0    0    0 -0.00000000000E+00 -0.00000000000E+00 -0.45593999997E+02  0.45594000000E+02  0.51100000000E-03 0. -1.
    9900012    2    1    2    0    0 -0.13047455541E+02  0.79320097839E+01 -0.37683058485E+02  0.50528858689E+02  0.29999996472E+02 0.  0.
        -12    1    1    2    0    0  0.13047455541E+02 -0.79320097839E+01  0.37683058485E+02  0.40659141311E+02  0.00000000000E+00 0.  1.
         11    1    3    3    0    0 -0.55145950645E+01  0.30618164248E+01 -0.34520079272E+02  0.35091613696E+02  0.51100000000E-03 0. -1.
        -11    1    3    3    0    0  0.29345279926E+01 -0.35040094629E+00 -0.22314100865E+01  0.37031644033E+01  0.51100000000E-03 0.  1.
         12    1    3    3    0    0 -0.10467388469E+02  0.52205943054E+01 -0.93156912669E+00  0.11734080590E+02  0.00000000000E+00 0. -1.
</event>
<event>
 7    1  0.2937071E-011  0.5052886E+02  0.7816164E-02  0.1300439E+00
        -11   -1    0    0    0    0  0.00000000000E+00  0.00000000000E+00  0.45593999997E+02  0.45594000000E+02  0.51100000000E-03 0.  1.
         11   -1    0    0    0    0 -0.00000000000E+00 -0.00000000000E+00 -0.45593999997E+02  0.45594000000E+02  0.51100000000E-03 0. -1.
    9900012    2    1    2    0    0 -0.21826455573E+02  0.31468652163E+02  0.13656333273E+02  0.50528859941E+02  0.30000000277E+02 0.  0.
        -12    1    1    2    0    0  0.21826455573E+02 -0.31468652163E+02 -0.13656333273E+02  0.40659140059E+02  0.00000000000E+00 0.  1.
         11    1    3    3    0    0 -0.13702582198E+02  0.22567771206E+02  0.17892132723E+02  0.31893470644E+02  0.51100000000E-03 0. -1.
        -11    1    3    3    0    0  0.54758379018E+00  0.77574017004E+01  0.18327872207E+01  0.79897583447E+01  0.51100000000E-03 0.  1.
        -12    1    3    3    0    0 -0.86714571652E+01  0.11434792571E+01 -0.60685866713E+01  0.10645630952E+02  0.00000000000E+00 0.  1.
</event>
<event>
 7    1  0.2937071E-011  0.5052885E+02  0.7816164E-02  0.1300439E+00
        -11   -1    0    0    0    0  0.00000000000E+00  0.00000000000E+00  0.45593999997E+02  0.45594000000E+02  0.51100000000E-03 0.  1.
         11   -1    0    0    0    0 -0.00000000000E+00 -0.00000000000E+00 -0.45593999997E+02  0.45594000000E+02  0.51100000000E-03 0. -1.
    9900012    2    1    2    0    0  0.20365279084E+02  0.35186456973E+02 -0.57870611315E+00  0.50528852847E+02  0.29999978713E+02 0.  0.
        -12    1    1    2    0    0 -0.20365279084E+02 -0.35186456973E+02  0.57870611315E+00  0.40659147153E+02  0.00000000000E+00 0.  1.
         11    1    3    3    0    0  0.16908385287E+02  0.97902072711E+01  0.92435830141E+00  0.19560063649E+02  0.51100000000E-03 0. -1.
        -11    1    3    3    0    0 -0.29157113076E+01  0.68166923055E+00 -0.43570567703E+01  0.52867749460E+01  0.51100000000E-03 0.  1.
        -12    1    3    3    0    0  0.63726051052E+01  0.24714580471E+02  0.28539923558E+01  0.25682014252E+02  0.00000000000E+00 0.  1.
</event>
<event>
 7    1  0.2937071E-011  0.5052887E+02  0.7816164E-02  0.1300439E+00
        -11   -1    0    0    0    0  0.00000000000E+00  0.00000000000E+00  0.45593999997E+02  0.45594000000E+02  0.51100000000E-03 0. -1.
         11   -1    0    0    0    0 -0.00000000000E+00 -0.00000000000E+00 -0.45593999997E+02  0.45594000000E+02  0.51100000000E-03 0.  1.
    9900012    2    1    2    0    0 -0.33751042523E+02  0.71108585681E+01  0.21528292479E+02  0.50528873619E+02  0.30000041853E+02 0.  0.
        -12    1    1    2    0    0  0.33751042523E+02 -0.71108585681E+01 -0.21528292479E+02  0.40659126381E+02  0.00000000000E+00 0.  1.
         11    1    3    3    0    0 -0.68423222210E+01  0.78850664573E+01 -0.34342747022E+01  0.10990263391E+02  0.51100000000E-03 0. -1.
        -11    1    3    3    0    0  0.11011314837E+01  0.21902456088E+01  0.14493185531E+01  0.28478396902E+01  0.51100000000E-03 0.  1.
         12    1    3    3    0    0 -0.28009851786E+02 -0.29644534980E+01  0.23513248628E+02  0.36690770538E+02  0.00000000000E+00 0. -1.
</event>
<event>
 7    1  0.2937071E-011  0.5052886E+02  0.7816164E-02  0.1300439E+00
        -11   -1    0    0    0    0  0.00000000000E+00  0.00000000000E+00  0.45593999997E+02  0.45594000000E+02  0.51100000000E-03 0.  1.
         11   -1    0    0    0    0 -0.00000000000E+00 -0.00000000000E+00 -0.45593999997E+02  0.45594000000E+02  0.51100000000E-03 0. -1.
    9900012    2    1    2    0    0 -0.30826611403E+02  0.22596847666E+01 -0.26415509800E+02  0.50528864448E+02  0.30000013977E+02 0.  0.
        -12    1    1    2    0    0  0.30826611403E+02 -0.22596847666E+01  0.26415509800E+02  0.40659135552E+02  0.00000000000E+00 0.  1.
         11    1    3    3    0    0 -0.15701389617E+01  0.47163187641E+01 -0.46995635700E+01  0.68406795754E+01  0.51100000000E-03 0. -1.
        -11    1    3    3    0    0 -0.27985371647E+02 -0.61940352606E+01 -0.25393258731E+02  0.38293141530E+02  0.51100000000E-03 0.  1.
         12    1    3    3    0    0 -0.12711007946E+01  0.37374012632E+01  0.36773125016E+01  0.53950433424E+01  0.00000000000E+00 0. -1.
</event>
<event>
 7    1  0.2937071E-011  0.5052886E+02  0.7816164E-02  0.1300439E+00
        -11   -1    0    0    0    0  0.00000000000E+00  0.00000000000E+00  0.45593999997E+02  0.45594000000E+02  0.51100000000E-03 0.  1.
         11   -1    0    0    0    0 -0.00000000000E+00 -0.00000000000E+00 -0.45593999997E+02  0.45594000000E+02  0.51100000000E-03 0. -1.
    9900012    2    1    2    0    0 -0.49462957195E+01  0.28682007372E+02 -0.28390878578E+02  0.50528863577E+02  0.30000011328E+02 0.  0.
        -12    1    1    2    0    0  0.49462957195E+01 -0.28682007372E+02  0.28390878578E+02  0.40659136423E+02  0.00000000000E+00 0.  1.
         11    1    3    3    0    0 -0.39621708017E+01  0.10088097190E+02 -0.13564067756E+02  0.17362385686E+02  0.51100000000E-03 0. -1.
        -11    1    3    3    0    0  0.55148795913E+00  0.23349069204E+02 -0.15633284994E+02  0.28104853169E+02  0.51100000000E-03 0.  1.
        -12    1    3    3    0    0 -0.15356128770E+01 -0.47551590218E+01  0.80647417226E+00  0.50616247215E+01  0.00000000000E+00 0.  1.
</event>
<event>
 7    1  0.2937071E-011  0.5052886E+02  0.7816164E-02  0.1300439E+00
        -11   -1    0    0    0    0  0.00000000000E+00  0.00000000000E+00  0.45593999997E+02  0.45594000000E+02  0.51100000000E-03 0.  1.
         11   -1    0    0    0    0 -0.00000000000E+00 -0.00000000000E+00 -0.45593999997E+02  0.45594000000E+02  0.51100000000E-03 0. -1.
    9900012    2    1    2    0    0  0.12704941194E+02 -0.37803901007E+02 -0.79129623874E+01  0.50528862825E+02  0.30000009043E+02 0.  0.
        -12    1    1    2    0    0 -0.12704941194E+02  0.37803901007E+02  0.79129623874E+01  0.40659137175E+02  0.00000000000E+00 0.  1.
         11    1    3    3    0    0  0.61981218906E+01 -0.19686082718E+02  0.75698811408E+01  0.21983213334E+02  0.51100000000E-03 0. -1.
        -11    1    3    3    0    0  0.25449429698E+01 -0.54385830616E+01  0.22298218672E+01  0.64052342860E+01  0.51100000000E-03 0.  1.
         12    1    3    3    0    0  0.39618763334E+01 -0.12679235227E+02 -0.17712665396E+02  0.22140415205E+02  0.00000000000E+00 0. -1.
</event>
<event>
 7    1  0.2937071E-011  0.5052887E+02  0.7816164E-02  0.1300439E+00
        -11   -1    0    0    0    0  0.00000000000E+00  0.00000000000E+00  0.45593999997E+02  0.45594000000E+02  0.51100000000E-03 0.  1.
         11   -1    0    0    0    0 -0.00000000000E+00 -0.00000000000E+00 -0.45593999997E+02  0.45594000000E+02  0.51100000000E-03 0. -1.
    9900012    2    1    2    0    0  0.13709175157E+02 -0.13837838186E+02 -0.35689460590E+02  0.50528870074E+02  0.30000031077E+02 0.  0.
        -12    1    1    2    0    0 -0.13709175157E+02  0.13837838186E+02  0.35689460590E+02  0.40659129926E+02  0.00000000000E+00 0.  1.
         11    1    3    3    0    0  0.16015530450E+02 -0.56243601683E+01 -0.29151301853E+02  0.33733203864E+02  0.51100000000E-03 0. -1.
        -11    1    3    3    0    0  0.35690038364E+01 -0.68194296648E+01 -0.74224739055E+01  0.10692779268E+02  0.51100000000E-03 0.  1.
        -12    1    3    3    0    0 -0.58753591294E+01 -0.13940483533E+01  0.88431516909E+00  0.61028869422E+01  0.00000000000E+00 0.  1.
</event>
<event>
 7    1  0.2937071E-011  0.5052889E+02  0.7816164E-02  0.1300439E+00
        -11   -1    0    0    0    0  0.00000000000E+00  0.00000000000E+00  0.45593999997E+02  0.45594000000E+02  0.51100000000E-03 0.  1.
         11   -1    0    0    0    0 -0.00000000000E+00 -0.00000000000E+00 -0.45593999997E+02  0.45594000000E+02  0.51100000000E-03 0. -1.
    9900012    2    1    2    0    0  0.78307037793E+01  0.10170804114E+02 -0.38579767226E+02  0.50528885189E+02  0.30000077019E+02 0.  0.
        -12    1    1    2    0    0 -0.78307037793E+01 -0.10170804114E+02  0.38579767226E+02  0.40659114811E+02  0.00000000000E+00 0.  1.
         11    1    3    3    0    0  0.10329078015E+02 -0.18608079585E+01 -0.11206981513E+02  0.15354116510E+02  0.51100000000E-03 0. -1.
        -11    1    3    3    0    0  0.29618236836E+01 -0.39298132753E+01 -0.88142693025E+01  0.10094908395E+02  0.51100000000E-03 0.  1.
         12    1    3    3    0    0 -0.54601979196E+01  0.15961425348E+02 -0.18558516411E+02  0.25079860284E+02  0.00000000000E+00 0. -1.
</event>
<event>
 7    1  0.2937071E-011  0.5052886E+02  0.7816164E-02  0.1300439E+00
        -11   -1    0    0    0    0  0.00000000000E+00  0.00000000000E+00  0.45593999997E+02  0.45594000000E+02  0.51100000000E-03 0.  1.
         11   -1    0    0    0    0 -0.00000000000E+00 -0.00000000000E+00 -0.45593999997E+02  0.45594000000E+02  0.51100000000E-03 0. -1.
    9900012    2    1    2    0    0  0.55718014175E+01  0.39961643854E+02 -0.50187473214E+01  0.50528858651E+02  0.29999996357E+02 0.  0.
        -12    1    1    2    0    0 -0.55718014175E+01 -0.39961643854E+02  0.50187473214E+01  0.40659141349E+02  0.00000000000E+00 0.  1.
         11    1    3    3    0    0 -0.73099072088E+00  0.10616676962E+02 -0.76400595941E+00  0.10669202525E+02  0.51100000000E-03 0. -1.
        -11    1    3    3    0    0  0.88516329629E+01  0.28065517589E+02 -0.11866836785E+02  0.31730844603E+02  0.51100000000E-03 0.  1.
        -12    1    3    3    0    0 -0.25488408244E+01  0.12794493022E+01  0.76120954226E+01  0.81288115237E+01  0.00000000000E+00 0.  1.
</event>
<event>
 7    1  0.2937071E-011  0.5052887E+02  0.7816164E-02  0.1300439E+00
        -11   -1    0    0    0    0  0.00000000000E+00  0.00000000000E+00  0.45593999997E+02  0.45594000000E+02  0.51100000000E-03 0. -1.
         11   -1    0    0    0    0 -0.00000000000E+00 -0.00000000000E+00 -0.45593999997E+02  0.45594000000E+02  0.51100000000E-03 0.  1.
    9900012    2    1    2    0    0  0.33235354390E+02  0.11915876952E+02  0.20164022277E+02  0.50528871882E+02  0.30000036573E+02 0.  0.
        -12    1    1    2    0    0 -0.33235354390E+02 -0.11915876952E+02 -0.20164022277E+02  0.40659128118E+02  0.00000000000E+00 0.  1.
         11    1    3    3    0    0 -0.18042710243E+01  0.24232779728E+01 -0.17640659320E+01  0.34985138182E+01  0.51100000000E-03 0. -1.
        -11    1    3    3    0    0  0.16709967471E+01  0.78006544843E+01  0.61917421753E+01  0.10098520285E+02  0.51100000000E-03 0.  1.
        -12    1    3    3    0    0  0.33368628667E+02  0.16919444946E+01  0.15736346033E+02  0.36931837779E+02  0.00000000000E+00 0.  1.
</event>
<event>
 7    1  0.2937071E-011  0.5052886E+02  0.7816164E-02  0.1300439E+00
        -11   -1    0    0    0    0  0.00000000000E+00  0.00000000000E+00  0.45593999997E+02  0.45594000000E+02  0.51100000000E-03 0.  1.
         11   -1    0    0    0    0 -0.00000000000E+00 -0.00000000000E+00 -0.45593999997E+02  0.45594000000E+02  0.51100000000E-03 0. -1.
    9900012    2    1    2    0    0  0.22113494543E+02 -0.16811489748E+02 -0.29690615777E+02  0.50528862114E+02  0.30000006882E+02 0.  0.
        -12    1    1    2    0    0 -0.22113494543E+02  0.16811489748E+02  0.29690615777E+02  0.40659137886E+02  0.00000000000E+00 0.  1.
         11    1    3    3    0    0 -0.45028328657E+01 -0.22893173288E+01 -0.33483148393E+01  0.60603374636E+01  0.51100000000E-03 0.  1.
        -11    1    3    3    0    0 -0.20315935097E+01 -0.45950319795E+01 -0.65743338703E+01  0.82742707945E+01  0.51100000000E-03 0. -1.
        -12    1    3    3    0    0  0.28647920918E+02 -0.99271404394E+01 -0.19767967067E+02  0.36194253856E+02  0.00000000000E+00 0.  1.
</event>
<event>
 7    1  0.2937071E-011  0.5052887E+02  0.7816164E-02  0.1300439E+00
        -11   -1    0    0    0    0  0.00000000000E+00  0.00000000000E+00  0.45593999997E+02  0.45594000000E+02  0.51100000000E-03 0.  1.
         11   -1    0    0    0    0 -0.00000000000E+00 -0.00000000000E+00 -0.45593999997E+02  0.45594000000E+02  0.51100000000E-03 0. -1.
    9900012    2    1    2    0    0  0.82677849759E+01  0.19999644329E+01 -0.39759388205E+02  0.50528867243E+02  0.30000022472E+02 0.  0.
        -12    1    1    2    0    0 -0.82677849759E+01 -0.19999644329E+01  0.39759388205E+02  0.40659132757E+02  0.00000000000E+00 0.  1.
         11    1    3    3    0    0  0.85961922334E+00 -0.20784826157E+01 -0.37984970940E+01  0.44144779563E+01  0.51100000000E-03 0. -1.
        -11    1    3    3    0    0 -0.99870780217E+01  0.38516082070E+01 -0.87866335335E+01  0.13848521304E+02  0.51100000000E-03 0.  1.
        -12    1    3    3    0    0  0.17395243774E+02  0.22683884170E+00 -0.27174257577E+02  0.32265867983E+02  0.00000000000E+00 0.  1.
</event>
<event>
 7    1  0.2937071E-011  0.5052886E+02  0.7816164E-02  0.1300439E+00
        -11   -1    0    0    0    0  0.00000000000E+00  0.00000000000E+00  0.45593999997E+02  0.45594000000E+02  0.51100000000E-03 0.  1.
         11   -1    0    0    0    0 -0.00000000000E+00 -0.00000000000E+00 -0.45593999997E+02  0.45594000000E+02  0.51100000000E-03 0. -1.
    9900012    2    1    2    0    0 -0.92953148103E+01  0.33499240585E+02 -0.21084675009E+02  0.50528861821E+02  0.30000005992E+02 0.  0.
        -12    1    1    2    0    0  0.92953148103E+01 -0.33499240585E+02  0.21084675009E+02  0.40659138179E+02  0.00000000000E+00 0.  1.
         11    1    3    3    0    0 -0.36168455958E+01  0.12911668002E+02 -0.10499945975E+01  0.13449729795E+02  0.51100000000E-03 0. -1.
        -11    1    3    3    0    0  0.43801744426E+01  0.15059073544E+02 -0.21523468030E+01  0.15830168072E+02  0.51100000000E-03 0.  1.
         12    1    3    3    0    0 -0.10058643657E+02  0.55284990392E+01 -0.17882333609E+02  0.21248963955E+02  0.00000000000E+00 0. -1.
</event>
<event>
 7    1  0.2937071E-011  0.5052886E+02  0.7816164E-02  0.1300439E+00
        -11   -1    0    0    0    0  0.00000000000E+00  0.00000000000E+00  0.45593999997E+02  0.45594000000E+02  0.51100000000E-03 0.  1.
         11   -1    0    0    0    0 -0.00000000000E+00 -0.00000000000E+00 -0.45593999997E+02  0.45594000000E+02  0.51100000000E-03 0. -1.
    9900012    2    1    2    0    0  0.35097336739E+02  0.94257088145E+01 -0.18234555302E+02  0.50528855397E+02  0.29999986464E+02 0.  0.
        -12    1    1    2    0    0 -0.35097336739E+02 -0.94257088145E+01  0.18234555302E+02  0.40659144603E+02  0.00000000000E+00 0.  1.
         11    1    3    3    0    0 -0.32960870265E+00 -0.22903887938E+00 -0.81130896361E+01  0.81230120282E+01  0.51100000000E-03 0. -1.
        -11    1    3    3    0    0  0.17832758274E+02 -0.47051741156E+01 -0.37762943274E+01  0.18825682729E+02  0.51100000000E-03 0.  1.
         12    1    3    3    0    0  0.17594187168E+02  0.14359921810E+02 -0.63451713390E+01  0.23580160640E+02  0.00000000000E+00 0. -1.
</event>
<event>
 7    1  0.2937071E-011  0.5052886E+02  0.7816164E-02  0.1300439E+00
        -11   -1    0    0    0    0  0.00000000000E+00  0.00000000000E+00  0.45593999997E+02  0.45594000000E+02  0.51100000000E-03 0.  1.
         11   -1    0    0    0    0 -0.00000000000E+00 -0.00000000000E+00 -0.45593999997E+02  0.45594000000E+02  0.51100000000E-03 0. -1.
    9900012    2    1    2    0    0  0.35057322256E+01 -0.11628530378E+02 -0.38802737364E+02  0.50528864444E+02  0.30000013964E+02 0.  0.
        -12    1    1    2    0    0 -0.35057322256E+01  0.11628530378E+02  0.38802737364E+02  0.40659135556E+02  0.00000000000E+00 0.  1.
         11    1    3    3    0    0 -0.98224515773E+01 -0.25115267697E+01 -0.16485704652E+02  0.19353727802E+02  0.51100000000E-03 0. -1.
        -11    1    3    3    0    0 -0.16760180315E+01  0.44583600273E+00 -0.84249771423E+01  0.86016304439E+01  0.51100000000E-03 0.  1.
        -12    1    3    3    0    0  0.15004201834E+02 -0.95628396108E+01 -0.13892055570E+02  0.22573506198E+02  0.00000000000E+00 0.  1.
</event>
<event>
 7    1  0.2937071E-011  0.5052887E+02  0.7816164E-02  0.1300439E+00
        -11   -1    0    0    0    0  0.00000000000E+00  0.00000000000E+00  0.45593999997E+02  0.45594000000E+02  0.51100000000E-03 0.  1.
         11   -1    0    0    0    0 -0.00000000000E+00 -0.00000000000E+00 -0.45593999997E+02  0.45594000000E+02  0.51100000000E-03 0. -1.
    9900012    2    1    2    0    0  0.15441000155E+02 -0.17631162279E+02 -0.33224731216E+02  0.50528866543E+02  0.30000020344E+02 0.  0.
        -12    1    1    2    0    0 -0.15441000155E+02  0.17631162279E+02  0.33224731216E+02  0.40659133457E+02  0.00000000000E+00 0.  1.
         11    1    3    3    0    0  0.24832119500E+01 -0.18232099576E+02 -0.18141951743E+02  0.25840011800E+02  0.51100000000E-03 0. -1.
        -11    1    3    3    0    0  0.44438566280E+01 -0.19932383782E+01 -0.15018244255E+02  0.15788239982E+02  0.51100000000E-03 0.  1.
        -12    1    3    3    0    0  0.85139315768E+01  0.25941756750E+01 -0.64535218366E-01  0.89006147609E+01  0.00000000000E+00 0.  1.
</event>
<event>
 7    1  0.2937071E-011  0.5052885E+02  0.7816164E-02  0.1300439E+00
        -11   -1    0    0    0    0  0.00000000000E+00  0.00000000000E+00  0.45593999997E+02  0.45594000000E+02  0.51100000000E-03 0.  1.
         11   -1    0    0    0    0 -0.00000000000E+00 -0.00000000000E+00 -0.45593999997E+02  0.45594000000E+02  0.51100000000E-03 0. -1.
    9900012    2    1    2    0    0  0.46991390586E+01  0.40386685542E+02  0.11482719355E-01  0.50528850859E+02  0.29999972672E+02 0.  0.
        -12    1    1    2    0    0 -0.46991390586E+01 -0.40386685542E+02 -0.11482719355E-01  0.40659149141E+02  0.00000000000E+00 0.  1.
         11    1    3    3    0    0  0.15182793542E+01  0.69868824952E+01 -0.23406396476E+01  0.75233166502E+01  0.51100000000E-03 0. -1.
        -11    1    3    3    0    0  0.13903866610E+02  0.18683225620E+02  0.67997237717E+01  0.24261423493E+02  0.51100000000E-03 0.  1.
        -12    1    3    3    0    0 -0.10723006906E+02  0.14716577427E+02 -0.44476014047E+01  0.18744110716E+02  0.00000000000E+00 0.  1.
</event>
<event>
 7    1  0.2937071E-011  0.5052886E+02  0.7816164E-02  0.1300439E+00
        -11   -1    0    0    0    0  0.00000000000E+00  0.00000000000E+00  0.45593999997E+02  0.45594000000E+02  0.51100000000E-03 0. -1.
         11   -1    0    0    0    0 -0.00000000000E+00 -0.00000000000E+00 -0.45593999997E+02  0.45594000000E+02  0.51100000000E-03 0.  1.
    9900012    2    1    2    0    0 -0.39491789532E+02  0.63865280968E+01 -0.72647449878E+01  0.50528859560E+02  0.29999999120E+02 0.  0.
        -12    1    1    2    0    0  0.39491789532E+02 -0.63865280968E+01  0.72647449878E+01  0.40659140440E+02  0.00000000000E+00 0.  1.
         11    1    3    3    0    0 -0.12164970502E+02  0.18840847887E+01 -0.11667553042E+01  0.12365176951E+02  0.51100000000E-03 0. -1.
        -11    1    3    3    0    0 -0.28610748774E+02 -0.41022047654E+01 -0.36990135952E+01  0.29139075675E+02  0.51100000000E-03 0.  1.
        -12    1    3    3    0    0  0.12839297448E+01  0.86046480735E+01 -0.23989760884E+01  0.90246069350E+01  0.00000000000E+00 0.  1.
</event>
<event>
 7    1  0.3241046E-011  0.5052886E+02  0.7816164E-02  0.1300439E+00
        -11   -1    0    0    0    0  0.00000000000E+00  0.00000000000E+00  0.45593999997E+02  0.45594000000E+02  0.51100000000E-03 0. -1.
         11   -1    0    0    0    0 -0.00000000000E+00 -0.00000000000E+00 -0.45593999997E+02  0.45594000000E+02  0.51100000000E-03 0.  1.
    9900012    2    1    2    0    0 -0.29849298102E+02 -0.23470810334E+02  0.14536384360E+02  0.50528855824E+02  0.29999987761E+02 0.  0.
        -12    1    1    2    0    0  0.29849298102E+02  0.23470810334E+02 -0.14536384360E+02  0.40659144176E+02  0.00000000000E+00 0.  1.
         11    1    3    3    0    0 -0.10338887869E+02 -0.20670769846E+02  0.14941699801E+02  0.27521404790E+02  0.51100000000E-03 0. -1.
        -11    1    3    3    0    0 -0.49005600766E+01  0.37483572252E+01  0.26387624563E+01  0.67103456330E+01  0.51100000000E-03 0.  1.
        -12    1    3    3    0    0 -0.14609850156E+02 -0.65483977129E+01 -0.30440778975E+01  0.16297105401E+02  0.00000000000E+00 0.  1.
</event>
<event>
 7    1  0.2937071E-011  0.5052887E+02  0.7816164E-02  0.1300439E+00
        -11   -1    0    0    0    0  0.00000000000E+00  0.00000000000E+00  0.45593999997E+02  0.45594000000E+02  0.51100000000E-03 0.  1.
         11   -1    0    0    0    0 -0.00000000000E+00 -0.00000000000E+00 -0.45593999997E+02  0.45594000000E+02  0.51100000000E-03 0. -1.
    9900012    2    1    2    0    0  0.13370037961E+02  0.35797319769E+00 -0.38396341978E+02  0.50528866497E+02  0.30000020206E+02 0.  0.
        -12    1    1    2    0    0 -0.13370037961E+02 -0.35797319769E+00  0.38396341978E+02  0.40659133503E+02  0.00000000000E+00 0.  1.
         11    1    3    3    0    0  0.73664993531E+01 -0.33679821202E+01 -0.66407131953E+01  0.10474143797E+02  0.51100000000E-03 0. -1.
        -11    1    3    3    0    0 -0.53776256344E+01 -0.63310003643E+01 -0.63513903992E+01  0.10456604771E+02  0.51100000000E-03 0.  1.
         12    1    3    3    0    0  0.11381164242E+02  0.10056955682E+02 -0.25404238384E+02  0.29598117929E+02  0.00000000000E+00 0. -1.
</event>
<event>
 7    1  0.2937071E-011  0.5052886E+02  0.7816164E-02  0.1300439E+00
        -11   -1    0    0    0    0  0.00000000000E+00  0.00000000000E+00  0.45593999997E+02  0.45594000000E+02  0.51100000000E-03 0. -1.
         11   -1    0    0    0    0 -0.00000000000E+00 -0.00000000000E+00 -0.45593999997E+02  0.45594000000E+02  0.51100000000E-03 0.  1.
    9900012    2    1    2    0    0  0.88280519650E+01 -0.16468245484E+02  0.36111330964E+02  0.50528857918E+02  0.29999994129E+02 0.  0.
        -12    1    1    2    0    0 -0.88280519650E+01  0.16468245484E+02 -0.36111330964E+02  0.40659142082E+02  0.00000000000E+00 0.  1.
         11    1    3    3    0    0  0.86222604214E+01 -0.47752373883E+01  0.13177681335E+02  0.16455927580E+02  0.51100000000E-03 0. -1.
        -11    1    3    3    0    0  0.29122113413E+01 -0.10368190236E+02 -0.17282682033E+00  0.10770803732E+02  0.51100000000E-03 0.  1.
         12    1    3    3    0    0 -0.27064197977E+01 -0.13248178596E+01  0.23106476449E+02  0.23302126606E+02  0.00000000000E+00 0. -1.
</event>
<event>
 7    1  0.2937071E-011  0.5052888E+02  0.7816164E-02  0.1300439E+00
        -11   -1    0    0    0    0  0.00000000000E+00  0.00000000000E+00  0.45593999997E+02  0.45594000000E+02  0.51100000000E-03 0.  1.
         11   -1    0    0    0    0 -0.00000000000E+00 -0.00000000000E+00 -0.45593999997E+02  0.45594000000E+02  0.51100000000E-03 0. -1.
    9900012    2    1    2    0    0 -0.24078928631E+01 -0.13746927195E+02 -0.38188851884E+02  0.50528876011E+02  0.30000049123E+02 0.  0.
        -12    1    1    2    0    0  0.24078928631E+01  0.13746927195E+02  0.38188851884E+02  0.40659123989E+02  0.00000000000E+00 0.  1.
         11    1    3    3    0    0 -0.37907143914E+00 -0.49195555939E+00  0.18583607592E+01  0.19593928653E+01  0.51100000000E-03 0. -1.
        -11    1    3    3    0    0 -0.33377654531E+01 -0.99281010871E+01 -0.23905493523E+01  0.10743490861E+02  0.51100000000E-03 0.  1.
         12    1    3    3    0    0  0.13089440291E+01 -0.33268705488E+01 -0.37656663291E+02  0.37825992285E+02  0.00000000000E+00 0. -1.
</event>
<event>
 7    1  0.2937071E-011  0.5052890E+02  0.7816164E-02  0.1300439E+00
        -11   -1    0    0    0    0  0.00000000000E+00  0.00000000000E+00  0.45593999997E+02  0.45594000000E+02  0.51100000000E-03 0. -1.
         11   -1    0    0    0    0 -0.00000000000E+00 -0.00000000000E+00 -0.45593999997E+02  0.45594000000E+02  0.51100000000E-03 0.  1.
    9900012    2    1    2    0    0  0.32016034189E+02 -0.38937268915E+01  0.24758334789E+02  0.50528896520E+02  0.30000111461E+02 0.  0.
        -12    1    1    2    0    0 -0.32016034189E+02  0.38937268915E+01 -0.24758334789E+02  0.40659103480E+02  0.00000000000E+00 0.  1.
         11    1    3    3    0    0  0.80920156796E+01  0.37763348489E+01 -0.48209944975E+01  0.10148074244E+02  0.51100000000E-03 0. -1.
        -11    1    3    3    0    0  0.79741687860E+01 -0.83191630060E+01  0.12118797291E+02  0.16723070561E+02  0.51100000000E-03 0.  1.
        -12    1    3    3    0    0  0.15949849723E+02  0.64910126558E+00  0.17460531996E+02  0.23657751715E+02  0.00000000000E+00 0.  1.
</event>
<event>
 7    1  0.2937071E-011  0.5052888E+02  0.7816164E-02  0.1300439E+00
        -11   -1    0    0    0    0  0.00000000000E+00  0.00000000000E+00  0.45593999997E+02  0.45594000000E+02  0.51100000000E-03 0. -1.
         11   -1    0    0    0    0 -0.00000000000E+00 -0.00000000000E+00 -0.45593999997E+02  0.45594000000E+02  0.51100000000E-03 0.  1.
    9900012    2    1    2    0    0  0.16204000257E+02 -0.98903042185E+01  0.35955204076E+02  0.50528875046E+02  0.30000046190E+02 0.  0.
        -12    1    1    2    0    0 -0.16204000257E+02  0.98903042185E+01 -0.35955204076E+02  0.40659124954E+02  0.00000000000E+00 0.  1.
         11    1    3    3    0    0  0.60562504976E+01 -0.46006620183E+01  0.11282564759E+02  0.13606635473E+02  0.51100000000E-03 0. -1.
        -11    1    3    3    0    0  0.11963325804E+02 -0.12456320481E+02  0.87366562272E+01  0.19354850723E+02  0.51100000000E-03 0.  1.
         12    1    3    3    0    0 -0.18155760443E+01  0.71666782809E+01  0.15935983090E+02  0.17567388850E+02  0.00000000000E+00 0. -1.
</event>
<event>
 7    1  0.2937071E-011  0.5052893E+02  0.7816164E-02  0.1300439E+00
        -11   -1    0    0    0    0  0.00000000000E+00  0.00000000000E+00  0.45593999997E+02  0.45594000000E+02  0.51100000000E-03 0.  1.
         11   -1    0    0    0    0 -0.00000000000E+00 -0.00000000000E+00 -0.45593999997E+02  0.45594000000E+02  0.51100000000E-03 0. -1.
    9900012    2    1    2    0    0 -0.14805123349E+02  0.33830538238E+02 -0.17013601761E+02  0.50528934101E+02  0.30000225693E+02 0.  0.
        -12    1    1    2    0    0  0.14805123349E+02 -0.33830538238E+02  0.17013601761E+02  0.40659065899E+02  0.00000000000E+00 0.  1.
         11    1    3    3    0    0 -0.43470423933E+01  0.32498683522E+01 -0.36269144443E+01  0.65278580349E+01  0.51100000000E-03 0. -1.
        -11    1    3    3    0    0 -0.12995786835E+02  0.23461998601E+02 -0.20394845652E+02  0.33694296004E+02  0.51100000000E-03 0.  1.
        -12    1    3    3    0    0  0.25377058794E+01  0.71186712853E+01  0.70081583349E+01  0.10306780062E+02  0.00000000000E+00 0.  1.
</event>
<event>
 7    1  0.2937071E-011  0.5052887E+02  0.7816164E-02  0.1300439E+00
        -11   -1    0    0    0    0  0.00000000000E+00  0.00000000000E+00  0.45593999997E+02  0.45594000000E+02  0.51100000000E-03 0.  1.
         11   -1    0    0    0    0 -0.00000000000E+00 -0.00000000000E+00 -0.45593999997E+02  0.45594000000E+02  0.51100000000E-03 0. -1.
    9900012    2    1    2    0    0  0.61642246671E+01 -0.40183416358E+02 -0.67810907469E+00  0.50528874974E+02  0.30000045972E+02 0.  0.
        -12    1    1    2    0    0 -0.61642246671E+01  0.40183416358E+02  0.67810907469E+00  0.40659125026E+02  0.00000000000E+00 0.  1.
         11    1    3    3    0    0  0.11285340880E+02 -0.10731683162E+02  0.17948200426E+01  0.15676393766E+02  0.51100000000E-03 0. -1.
        -11    1    3    3    0    0  0.65316307683E+01 -0.80390903389E+01 -0.91862258637E-01  0.10358456106E+02  0.51100000000E-03 0.  1.
        -12    1    3    3    0    0 -0.11652746981E+02 -0.21412642857E+02 -0.23810668586E+01  0.24494025102E+02  0.00000000000E+00 0.  1.
</event>
<event>
 7    1  0.2937071E-011  0.5052886E+02  0.7816164E-02  0.1300439E+00
        -11   -1    0    0    0    0  0.00000000000E+00  0.00000000000E+00  0.45593999997E+02  0.45594000000E+02  0.51100000000E-03 0.  1.
         11   -1    0    0    0    0 -0.00000000000E+00 -0.00000000000E+00 -0.45593999997E+02  0.45594000000E+02  0.51100000000E-03 0. -1.
    9900012    2    1    2    0    0  0.38121471314E+01 -0.38978746930E+02  0.10922008412E+02  0.50528862703E+02  0.30000008671E+02 0.  0.
        -12    1    1    2    0    0 -0.38121471314E+01  0.38978746930E+02 -0.10922008412E+02  0.40659137297E+02  0.00000000000E+00 0.  1.
         11    1    3    3    0    0 -0.50733666309E+01 -0.26997548424E+02  0.11695426189E+02  0.29856149515E+02  0.51100000000E-03 0. -1.
        -11    1    3    3    0    0  0.29511533001E+01 -0.11740118708E+02  0.43153840262E+01  0.12851545924E+02  0.51100000000E-03 0.  1.
        -12    1    3    3    0    0  0.59343604621E+01 -0.24107979875E+00 -0.50888018041E+01  0.78211672636E+01  0.00000000000E+00 0.  1.
</event>
<event>
 7    1  0.2937071E-011  0.5052886E+02  0.7816164E-02  0.1300439E+00
        -11   -1    0    0    0    0  0.00000000000E+00  0.00000000000E+00  0.45593999997E+02  0.45594000000E+02  0.51100000000E-03 0.  1.
         11   -1    0    0    0    0 -0.00000000000E+00 -0.00000000000E+00 -0.45593999997E+02  0.45594000000E+02  0.51100000000E-03 0. -1.
    9900012    2    1    2    0    0 -0.14904153059E+01 -0.14984560421E+02 -0.37767807401E+02  0.50528860010E+02  0.30000000488E+02 0.  0.
        -12    1    1    2    0    0  0.14904153059E+01  0.14984560421E+02  0.37767807401E+02  0.40659139990E+02  0.00000000000E+00 0.  1.
         11    1    3    3    0    0  0.75119226424E+01  0.83666509998E+00 -0.16393965544E+02  0.18052454038E+02  0.51100000000E-03 0. -1.
        -11    1    3    3    0    0  0.15421086249E+01  0.81175860062E+00  0.14952988208E+01  0.22962948115E+01  0.51100000000E-03 0.  1.
        -12    1    3    3    0    0 -0.10544446573E+02 -0.16632984122E+02 -0.22869140677E+02  0.30180111161E+02  0.00000000000E+00 0.  1.
</event>
<event>
 7    1  0.2937071E-011  0.5052885E+02  0.7816164E-02  0.1300439E+00
        -11   -1    0    0    0    0  0.00000000000E+00  0.00000000000E+00  0.45593999997E+02  0.45594000000E+02  0.51100000000E-03 0.  1.
         11   -1    0    0    0    0 -0.00000000000E+00 -0.00000000000E+00 -0.45593999997E+02  0.45594000000E+02  0.51100000000E-03 0. -1.
    9900012    2    1    2    0    0  0.30629666423E+02 -0.18194880699E+01 -0.26677314091E+02  0.50528854791E+02  0.29999984622E+02 0.  0.
        -12    1    1    2    0    0 -0.30629666423E+02  0.18194880699E+01  0.26677314091E+02  0.40659145209E+02  0.00000000000E+00 0.  1.
         11    1    3    3    0    0  0.43730626712E+01  0.18854485929E+00 -0.19216238473E+02  0.19708451172E+02  0.51100000000E-03 0. -1.
        -11    1    3    3    0    0  0.16683266201E+01  0.42136665827E+01 -0.13966320050E+01  0.47422442999E+01  0.51100000000E-03 0.  1.
        -12    1    3    3    0    0  0.24588277132E+02 -0.62216995119E+01 -0.60644436132E+01  0.26078159319E+02  0.00000000000E+00 0.  1.
</event>
<event>
 7    1  0.2937071E-011  0.5052874E+02  0.7816164E-02  0.1300439E+00
        -11   -1    0    0    0    0  0.00000000000E+00  0.00000000000E+00  0.45593999997E+02  0.45594000000E+02  0.51100000000E-03 0.  1.
         11   -1    0    0    0    0 -0.00000000000E+00 -0.00000000000E+00 -0.45593999997E+02  0.45594000000E+02  0.51100000000E-03 0. -1.
    9900012    2    1    2    0    0 -0.29033182232E+02 -0.23635993429E+02 -0.15861563198E+02  0.50528744682E+02  0.29999649935E+02 0.  0.
        -12    1    1    2    0    0  0.29033182232E+02  0.23635993429E+02  0.15861563198E+02  0.40659255318E+02  0.00000000000E+00 0.  1.
         11    1    3    3    0    0 -0.12869082874E+02 -0.76941115226E+01 -0.69579710681E+01  0.16529549534E+02  0.51100000000E-03 0. -1.
        -11    1    3    3    0    0 -0.15415419846E+02 -0.21913719435E+01 -0.12268639936E+02  0.19823138152E+02  0.51100000000E-03 0.  1.
        -12    1    3    3    0    0 -0.74867951140E+00 -0.13750509963E+02  0.33650478059E+01  0.14176056997E+02  0.00000000000E+00 0.  1.
</event>
<event>
 7    1  0.2937071E-011  0.5052886E+02  0.7816164E-02  0.1300439E+00
        -11   -1    0    0    0    0  0.00000000000E+00  0.00000000000E+00  0.45593999997E+02  0.45594000000E+02  0.51100000000E-03 0. -1.
         11   -1    0    0    0    0 -0.00000000000E+00 -0.00000000000E+00 -0.45593999997E+02  0.45594000000E+02  0.51100000000E-03 0.  1.
    9900012    2    1    2    0    0  0.32313940167E+02 -0.21793380485E+02 -0.11576842458E+02  0.50528862732E+02  0.30000008760E+02 0.  0.
        -12    1    1    2    0    0 -0.32313940167E+02  0.21793380485E+02  0.11576842458E+02  0.40659137268E+02  0.00000000000E+00 0.  1.
         11    1    3    3    0    0  0.95287386439E+01 -0.19971387625E+02 -0.28939640119E+01  0.22316545695E+02  0.51100000000E-03 0. -1.
        -11    1    3    3    0    0  0.77075676762E+01 -0.24469235824E+01 -0.10232744508E+02  0.13042357721E+02  0.51100000000E-03 0.  1.
         12    1    3    3    0    0  0.15077633847E+02  0.62493072208E+00  0.15498660612E+01  0.15169959316E+02  0.00000000000E+00 0. -1.
</event>
<event>
 7    1  0.2937071E-011  0.5052886E+02  0.7816164E-02  0.1300439E+00
        -11   -1    0    0    0    0  0.00000000000E+00  0.00000000000E+00  0.45593999997E+02  0.45594000000E+02  0.51100000000E-03 0.  1.
         11   -1    0    0    0    0 -0.00000000000E+00 -0.00000000000E+00 -0.45593999997E+02  0.45594000000E+02  0.51100000000E-03 0. -1.
    9900012    2    1    2    0    0 -0.10792267642E+01 -0.14465443328E+02 -0.37983569573E+02  0.50528864020E+02  0.30000012676E+02 0.  0.
        -12    1    1    2    0    0  0.10792267642E+01  0.14465443328E+02  0.37983569573E+02  0.40659135980E+02  0.00000000000E+00 0.  1.
         11    1    3    3    0    0  0.27934856283E+01 -0.24476549434E+01  0.87473390558E+00  0.38157222572E+01  0.51100000000E-03 0. -1.
        -11    1    3    3    0    0  0.28775142995E+01 -0.74738262708E+01 -0.10950522574E+01  0.80831495952E+01  0.51100000000E-03 0.  1.
         12    1    3    3    0    0 -0.67502266920E+01 -0.45439621143E+01 -0.37763251221E+02  0.38629992168E+02  0.00000000000E+00 0. -1.
</event>
<event>
 7    1  0.2937071E-011  0.5052887E+02  0.7816164E-02  0.1300439E+00
        -11   -1    0    0    0    0  0.00000000000E+00  0.00000000000E+00  0.45593999997E+02  0.45594000000E+02  0.51100000000E-03 0. -1.
         11   -1    0    0    0    0 -0.00000000000E+00 -0.00000000000E+00 -0.45593999997E+02  0.45594000000E+02  0.51100000000E-03 0.  1.
    9900012    2    1    2    0    0 -0.15534372823E+02 -0.31762288065E+02  0.20074990200E+02  0.50528869246E+02  0.30000028560E+02 0.  0.
        -12    1    1    2    0    0  0.15534372823E+02  0.31762288065E+02 -0.20074990200E+02  0.40659130754E+02  0.00000000000E+00 0.  1.
         11    1    3    3    0    0 -0.71949747033E+01 -0.70353253397E+01 -0.11320218396E+01  0.10126447419E+02  0.51100000000E-03 0.  1.
        -11    1    3    3    0    0 -0.15163561665E+02 -0.21108535654E+02  0.12751614955E+02  0.28950087462E+02  0.51100000000E-03 0. -1.
         12    1    3    3    0    0  0.68241635454E+01 -0.36184270716E+01  0.84553970841E+01  0.11452334365E+02  0.00000000000E+00 0. -1.
</event>
<event>
 7    1  0.2937071E-011  0.5052886E+02  0.7816164E-02  0.1300439E+00
        -11   -1    0    0    0    0  0.00000000000E+00  0.00000000000E+00  0.45593999997E+02  0.45594000000E+02  0.51100000000E-03 0.  1.
         11   -1    0    0    0    0 -0.00000000000E+00 -0.00000000000E+00 -0.45593999997E+02  0.45594000000E+02  0.51100000000E-03 0. -1.
    9900012    2    1    2    0    0 -0.13319118900E+02 -0.67779023804E+01 -0.37813055634E+02  0.50528855084E+02  0.29999985513E+02 0.  0.
        -12    1    1    2    0    0  0.13319118900E+02  0.67779023804E+01  0.37813055634E+02  0.40659144916E+02  0.00000000000E+00 0.  1.
         11    1    3    3    0    0 -0.17604950587E+01 -0.13798168833E+02 -0.15369360721E+02  0.20729352504E+02  0.51100000000E-03 0. -1.
        -11    1    3    3    0    0 -0.36537750457E+01 -0.23109077814E+01 -0.95794399150E-01  0.43242969008E+01  0.51100000000E-03 0.  1.
        -12    1    3    3    0    0 -0.79048487960E+01  0.93311742336E+01 -0.22347900513E+02  0.25475205679E+02  0.00000000000E+00 0.  1.
</event>
<event>
 7    1  0.2937071E-011  0.5052887E+02  0.7816164E-02  0.1300439E+00
        -11   -1    0    0    0    0  0.00000000000E+00  0.00000000000E+00  0.45593999997E+02  0.45594000000E+02  0.51100000000E-03 0. -1.
         11   -1    0    0    0    0 -0.00000000000E+00 -0.00000000000E+00 -0.45593999997E+02  0.45594000000E+02  0.51100000000E-03 0.  1.
    9900012    2    1    2    0    0 -0.20982010504E+02 -0.30056703327E+02  0.17593035547E+02  0.50528867208E+02  0.30000022364E+02 0.  0.
        -12    1    1    2    0    0  0.20982010504E+02  0.30056703327E+02 -0.17593035547E+02  0.40659132792E+02  0.00000000000E+00 0.  1.
         11    1    3    3    0    0 -0.51668593612E+00  0.28225376379E+00 -0.13204244359E+01  0.14457359703E+01  0.51100000000E-03 0. -1.
        -11    1    3    3    0    0  0.53768527119E+01 -0.13266010985E+02  0.56108272446E+01  0.15374621139E+02  0.51100000000E-03 0.  1.
         12    1    3    3    0    0 -0.25842177279E+02 -0.17072946106E+02  0.13302632739E+02  0.33708510098E+02  0.00000000000E+00 0. -1.
</event>
<event>
 7    1  0.2937071E-011  0.5052886E+02  0.7816164E-02  0.1300439E+00
        -11   -1    0    0    0    0  0.00000000000E+00  0.00000000000E+00  0.45593999997E+02  0.45594000000E+02  0.51100000000E-03 0. -1.
         11   -1    0    0    0    0 -0.00000000000E+00 -0.00000000000E+00 -0.45593999997E+02  0.45594000000E+02  0.51100000000E-03 0.  1.
    9900012    2    1    2    0    0 -0.14980831226E+02  0.32004045513E+02  0.20111718890E+02  0.50528862403E+02  0.30000007761E+02 0.  0.
        -12    1    1    2    0    0  0.14980831226E+02 -0.32004045513E+02 -0.20111718890E+02  0.40659137597E+02  0.00000000000E+00 0.  1.
         11    1    3    3    0    0  0.24835884818E+01  0.60949025573E+01  0.38299210466E+00  0.65926271048E+01  0.51100000000E-03 0. -1.
        -11    1    3    3    0    0 -0.91365066206E+01 -0.25497160324E+01  0.33411727341E+01  0.10056850430E+02  0.51100000000E-03 0.  1.
         12    1    3    3    0    0 -0.83279130873E+01  0.28458858988E+02  0.16387554051E+02  0.33879384868E+02  0.00000000000E+00 0. -1.
</event>
<event>
 7    1  0.2937071E-011  0.5052886E+02  0.7816164E-02  0.1300439E+00
        -11   -1    0    0    0    0  0.00000000000E+00  0.00000000000E+00  0.45593999997E+02  0.45594000000E+02  0.51100000000E-03 0. -1.
         11   -1    0    0    0    0 -0.00000000000E+00 -0.00000000000E+00 -0.45593999997E+02  0.45594000000E+02  0.51100000000E-03 0.  1.
    9900012    2    1    2    0    0 -0.17424445483E+02  0.22824778530E+02  0.28785135630E+02  0.50528857749E+02  0.29999993614E+02 0.  0.
        -12    1    1    2    0    0  0.17424445483E+02 -0.22824778530E+02 -0.28785135630E+02  0.40659142251E+02  0.00000000000E+00 0.  1.
         11    1    3    3    0    0 -0.13239994534E+02  0.22704420311E+02  0.29127226316E+02  0.39232428807E+02  0.51100000000E-03 0. -1.
        -11    1    3    3    0    0 -0.48350042428E+01  0.30145452415E+00  0.43772333065E+01  0.65290361110E+01  0.51100000000E-03 0.  1.
        -12    1    3    3    0    0  0.65055329315E+00 -0.18109630552E+00 -0.47193239929E+01  0.47673928314E+01  0.00000000000E+00 0.  1.
</event>
<event>
 7    1  0.2937071E-011  0.5052887E+02  0.7816164E-02  0.1300439E+00
        -11   -1    0    0    0    0  0.00000000000E+00  0.00000000000E+00  0.45593999997E+02  0.45594000000E+02  0.51100000000E-03 0. -1.
         11   -1    0    0    0    0 -0.00000000000E+00 -0.00000000000E+00 -0.45593999997E+02  0.45594000000E+02  0.51100000000E-03 0.  1.
    9900012    2    1    2    0    0 -0.24891358649E+02  0.18731197757E+02  0.26129045277E+02  0.50528874187E+02  0.30000043577E+02 0.  0.
        -12    1    1    2    0    0  0.24891358649E+02 -0.18731197757E+02 -0.26129045277E+02  0.40659125813E+02  0.00000000000E+00 0.  1.
         11    1    3    3    0    0  0.11950304218E+01 -0.95136354341E+00 -0.31762506419E+01  0.35244515463E+01  0.51100000000E-03 0. -1.
        -11    1    3    3    0    0 -0.33049435518E+01  0.86292081586E+01  0.14386175776E+01  0.93517648666E+01  0.51100000000E-03 0.  1.
         12    1    3    3    0    0 -0.22781445520E+02  0.11053353141E+02  0.27866678342E+02  0.37652657774E+02  0.00000000000E+00 0. -1.
</event>
<event>
 7    1  0.2937071E-011  0.5052886E+02  0.7816164E-02  0.1300439E+00
        -11   -1    0    0    0    0  0.00000000000E+00  0.00000000000E+00  0.45593999997E+02  0.45594000000E+02  0.51100000000E-03 0.  1.
         11   -1    0    0    0    0 -0.00000000000E+00 -0.00000000000E+00 -0.45593999997E+02  0.45594000000E+02  0.51100000000E-03 0. -1.
    9900012    2    1    2    0    0 -0.33103455181E+02  0.23151948061E+02  0.46167198268E+01  0.50528861472E+02  0.30000004929E+02 0.  0.
        -12    1    1    2    0    0  0.33103455181E+02 -0.23151948061E+02 -0.46167198268E+01  0.40659138528E+02  0.00000000000E+00 0.  1.
         11    1    3    3    0    0 -0.14680885424E+02  0.12159175280E+02  0.30576474211E+01  0.19306039168E+02  0.51100000000E-03 0. -1.
        -11    1    3    3    0    0 -0.19652709946E+02  0.16421578509E+02  0.15329433522E+01  0.25656327962E+02  0.51100000000E-03 0.  1.
        -12    1    3    3    0    0  0.12301401888E+01 -0.54288057287E+01  0.26129053445E-01  0.55664943413E+01  0.00000000000E+00 0.  1.
</event>
<event>
 7    1  0.2937071E-011  0.5052886E+02  0.7816164E-02  0.1300439E+00
        -11   -1    0    0    0    0  0.00000000000E+00  0.00000000000E+00  0.45593999997E+02  0.45594000000E+02  0.51100000000E-03 0. -1.
         11   -1    0    0    0    0 -0.00000000000E+00 -0.00000000000E+00 -0.45593999997E+02  0.45594000000E+02  0.51100000000E-03 0.  1.
    9900012    2    1    2    0    0  0.19615386680E+02 -0.33122700128E+02 -0.13087751254E+02  0.50528857224E+02  0.29999992018E+02 0.  0.
        -12    1    1    2    0    0 -0.19615386680E+02  0.33122700128E+02  0.13087751254E+02  0.40659142776E+02  0.00000000000E+00 0.  1.
         11    1    3    3    0    0  0.53429994694E+01 -0.56212865992E+01 -0.85010240860E+01  0.11507124625E+02  0.51100000000E-03 0.  1.
        -11    1    3    3    0    0  0.70234307205E+01 -0.11504478318E+02 -0.13713889523E+02  0.19228946060E+02  0.51100000000E-03 0. -1.
         12    1    3    3    0    0  0.72489564902E+01 -0.15996935211E+02  0.91271623548E+01  0.19792786539E+02  0.00000000000E+00 0. -1.
</event>
<event>
 7    1  0.2937071E-011  0.5052886E+02  0.7816164E-02  0.1300439E+00
        -11   -1    0    0    0    0  0.00000000000E+00  0.00000000000E+00  0.45593999997E+02  0.45594000000E+02  0.51100000000E-03 0. -1.
         11   -1    0    0    0    0 -0.00000000000E+00 -0.00000000000E+00 -0.45593999997E+02  0.45594000000E+02  0.51100000000E-03 0.  1.
    9900012    2    1    2    0    0 -0.26812318331E+02  0.28497212655E+02  0.11053255513E+02  0.50528855876E+02  0.29999987922E+02 0.  0.
        -12    1    1    2    0    0  0.26812318331E+02 -0.28497212655E+02 -0.11053255513E+02  0.40659144124E+02  0.00000000000E+00 0.  1.
         11    1    3    3    0    0  0.21338656461E+01  0.34185223875E+01 -0.18369859276E+01  0.44287916489E+01  0.51100000000E-03 0.  1.
        -11    1    3    3    0    0 -0.19624201246E+02  0.23963380590E+02  0.17570113987E+02  0.35609855232E+02  0.51100000000E-03 0. -1.
         12    1    3    3    0    0 -0.93219827312E+01  0.11153096777E+01 -0.46798725465E+01  0.10490208996E+02  0.00000000000E+00 0. -1.
</event>
<event>
 7    1  0.2937071E-011  0.5052886E+02  0.7816164E-02  0.1300439E+00
        -11   -1    0    0    0    0  0.00000000000E+00  0.00000000000E+00  0.45593999997E+02  0.45594000000E+02  0.51100000000E-03 0.  1.
         11   -1    0    0    0    0 -0.00000000000E+00 -0.00000000000E+00 -0.45593999997E+02  0.45594000000E+02  0.51100000000E-03 0. -1.
    9900012    2    1    2    0    0 -0.28116361422E+01  0.93523226553E+01 -0.39468904393E+02  0.50528860181E+02  0.30000001007E+02 0.  0.
        -12    1    1    2    0    0  0.28116361422E+01 -0.93523226553E+01  0.39468904393E+02  0.40659139819E+02  0.00000000000E+00 0.  1.
         11    1    3    3    0    0  0.42656900797E+01 -0.46328670448E+01 -0.99448843303E+01  0.11771163643E+02  0.51100000000E-03 0. -1.
        -11    1    3    3    0    0 -0.11124046837E+02  0.24387510088E+01 -0.77290606011E+01  0.13763368140E+02  0.51100000000E-03 0.  1.
        -12    1    3    3    0    0  0.40467206148E+01  0.11546438691E+02 -0.21794959461E+02  0.24994328399E+02  0.00000000000E+00 0.  1.
</event>
<event>
 7    1  0.2937071E-011  0.5052885E+02  0.7816164E-02  0.1300439E+00
        -11   -1    0    0    0    0  0.00000000000E+00  0.00000000000E+00  0.45593999997E+02  0.45594000000E+02  0.51100000000E-03 0.  1.
         11   -1    0    0    0    0 -0.00000000000E+00 -0.00000000000E+00 -0.45593999997E+02  0.45594000000E+02  0.51100000000E-03 0. -1.
    9900012    2    1    2    0    0 -0.27140185296E+02 -0.26212971044E+02 -0.15147831156E+02  0.50528852228E+02  0.29999976832E+02 0.  0.
        -12    1    1    2    0    0  0.27140185296E+02  0.26212971044E+02  0.15147831156E+02  0.40659147772E+02  0.00000000000E+00 0.  1.
         11    1    3    3    0    0 -0.65327045631E+01 -0.19550957438E+02 -0.88398637367E+01  0.22428984747E+02  0.51100000000E-03 0. -1.
        -11    1    3    3    0    0 -0.95532584366E+01 -0.11678914378E+02 -0.49750361914E+01  0.15887503680E+02  0.51100000000E-03 0.  1.
        -12    1    3    3    0    0 -0.11054222296E+02  0.50169007728E+01 -0.13329312279E+01  0.12212363800E+02  0.00000000000E+00 0.  1.
</event>
<event>
 7    1  0.2937071E-011  0.5052886E+02  0.7816164E-02  0.1300439E+00
        -11   -1    0    0    0    0  0.00000000000E+00  0.00000000000E+00  0.45593999997E+02  0.45594000000E+02  0.51100000000E-03 0. -1.
         11   -1    0    0    0    0 -0.00000000000E+00 -0.00000000000E+00 -0.45593999997E+02  0.45594000000E+02  0.51100000000E-03 0.  1.
    9900012    2    1    2    0    0  0.56357720645E+01  0.10382222051E+02  0.38905187356E+02  0.50528855091E+02  0.29999985536E+02 0.  0.
        -12    1    1    2    0    0 -0.56357720645E+01 -0.10382222051E+02 -0.38905187356E+02  0.40659144909E+02  0.00000000000E+00 0.  1.
         11    1    3    3    0    0 -0.21814022135E+01  0.32832554504E+01  0.63256371099E+01  0.74533191986E+01  0.51100000000E-03 0. -1.
        -11    1    3    3    0    0 -0.57830196540E+01  0.12116966733E+02  0.18575078770E+02  0.22919375007E+02  0.51100000000E-03 0.  1.
        -12    1    3    3    0    0  0.13600193932E+02 -0.50180001332E+01  0.14004471476E+02  0.20156160886E+02  0.00000000000E+00 0.  1.
</event>
<event>
 7    1  0.2937071E-011  0.5052886E+02  0.7816164E-02  0.1300439E+00
        -11   -1    0    0    0    0  0.00000000000E+00  0.00000000000E+00  0.45593999997E+02  0.45594000000E+02  0.51100000000E-03 0.  1.
         11   -1    0    0    0    0 -0.00000000000E+00 -0.00000000000E+00 -0.45593999997E+02  0.45594000000E+02  0.51100000000E-03 0. -1.
    9900012    2    1    2    0    0  0.28140620168E+02 -0.27436668182E+02 -0.10416361701E+02  0.50528857665E+02  0.29999993358E+02 0.  0.
        -12    1    1    2    0    0 -0.28140620168E+02  0.27436668182E+02  0.10416361701E+02  0.40659142335E+02  0.00000000000E+00 0.  1.
         11    1    3    3    0    0  0.79826150156E+00  0.20107754766E+01 -0.11414749699E+01  0.24460999182E+01  0.51100000000E-03 0. -1.
        -11    1    3    3    0    0 -0.47098578880E+01 -0.32148867670E+01 -0.34736447522E+00  0.57130482747E+01  0.51100000000E-03 0.  1.
        -12    1    3    3    0    0  0.32052216554E+02 -0.26232556891E+02 -0.89275222563E+01  0.42369709472E+02  0.00000000000E+00 0.  1.
</event>
<event>
 7    1  0.2937071E-011  0.5052886E+02  0.7816164E-02  0.1300439E+00
        -11   -1    0    0    0    0  0.00000000000E+00  0.00000000000E+00  0.45593999997E+02  0.45594000000E+02  0.51100000000E-03 0.  1.
         11   -1    0    0    0    0 -0.00000000000E+00 -0.00000000000E+00 -0.45593999997E+02  0.45594000000E+02  0.51100000000E-03 0. -1.
    9900012    2    1    2    0    0  0.31468071496E+02 -0.22239421976E+02  0.12974368591E+02  0.50528860143E+02  0.30000000891E+02 0.  0.
        -12    1    1    2    0    0 -0.31468071496E+02  0.22239421976E+02 -0.12974368591E+02  0.40659139857E+02  0.00000000000E+00 0.  1.
         11    1    3    3    0    0  0.17517830817E+02 -0.11254762505E+02  0.29657485779E+01  0.21031874392E+02  0.51100000000E-03 0. -1.
        -11    1    3    3    0    0  0.70848798613E+01 -0.15841280813E+02  0.11686571807E+02  0.20921703117E+02  0.51100000000E-03 0.  1.
        -12    1    3    3    0    0  0.68653608184E+01  0.48566213420E+01 -0.16779517935E+01  0.85752826337E+01  0.00000000000E+00 0.  1.
</event>
<event>
 7    1  0.2937071E-011  0.5052887E+02  0.7816164E-02  0.1300439E+00
        -11   -1    0    0    0    0  0.00000000000E+00  0.00000000000E+00  0.45593999997E+02  0.45594000000E+02  0.51100000000E-03 0.  1.
         11   -1    0    0    0    0 -0.00000000000E+00 -0.00000000000E+00 -0.45593999997E+02  0.45594000000E+02  0.51100000000E-03 0. -1.
    9900012    2    1    2    0    0 -0.32182605706E+02  0.11414081051E+02 -0.22071771454E+02  0.50528874931E+02  0.30000045841E+02 0.  0.
        -12    1    1    2    0    0  0.32182605706E+02 -0.11414081051E+02  0.22071771454E+02  0.40659125069E+02  0.00000000000E+00 0.  1.
         11    1    3    3    0    0  0.27472815394E+01  0.27317169464E+01 -0.18782383753E+01  0.43055328343E+01  0.51100000000E-03 0. -1.
        -11    1    3    3    0    0 -0.19519249522E+02  0.52913716409E+01  0.46358264061E+00  0.20229053979E+02  0.51100000000E-03 0.  1.
         12    1    3    3    0    0 -0.15410637723E+02  0.33909924633E+01 -0.20657115719E+02  0.25994288118E+02  0.00000000000E+00 0. -1.
</event>
<event>
 7    1  0.2937071E-011  0.5052886E+02  0.7816164E-02  0.1300439E+00
        -11   -1    0    0    0    0  0.00000000000E+00  0.00000000000E+00  0.45593999997E+02  0.45594000000E+02  0.51100000000E-03 0. -1.
         11   -1    0    0    0    0 -0.00000000000E+00 -0.00000000000E+00 -0.45593999997E+02  0.45594000000E+02  0.51100000000E-03 0.  1.
    9900012    2    1    2    0    0  0.37138368791E+02 -0.79050601854E+01  0.14540193949E+02  0.50528860154E+02  0.30000000924E+02 0.  0.
        -12    1    1    2    0    0 -0.37138368791E+02  0.79050601854E+01 -0.14540193949E+02  0.40659139846E+02  0.00000000000E+00 0.  1.
         11    1    3    3    0    0  0.28735775034E+02 -0.11620016910E+02  0.78884242316E+01  0.31984321111E+02  0.51100000000E-03 0. -1.
        -11    1    3    3    0    0  0.16584343017E+01 -0.30886715458E+01 -0.32404356977E+01  0.47739627169E+01  0.51100000000E-03 0.  1.
         12    1    3    3    0    0  0.67441594543E+01  0.68036282702E+01  0.98922054146E+01  0.13770576326E+02  0.00000000000E+00 0. -1.
</event>
<event>
 7    1  0.2937071E-011  0.5052886E+02  0.7816164E-02  0.1300439E+00
        -11   -1    0    0    0    0  0.00000000000E+00  0.00000000000E+00  0.45593999997E+02  0.45594000000E+02  0.51100000000E-03 0.  1.
         11   -1    0    0    0    0 -0.00000000000E+00 -0.00000000000E+00 -0.45593999997E+02  0.45594000000E+02  0.51100000000E-03 0. -1.
    9900012    2    1    2    0    0 -0.33187073583E+02 -0.21802683230E+02  0.87422339056E+01  0.50528862003E+02  0.30000006544E+02 0.  0.
        -12    1    1    2    0    0  0.33187073583E+02  0.21802683230E+02 -0.87422339056E+01  0.40659137997E+02  0.00000000000E+00 0.  1.
         11    1    3    3    0    0 -0.31610302149E+01 -0.63892166746E+00 -0.51559684793E+01  0.60814754902E+01  0.51100000000E-03 0. -1.
        -11    1    3    3    0    0 -0.12356946798E+02 -0.44795033795E+01  0.15220105454E+02  0.20109989930E+02  0.51100000000E-03 0.  1.
         12    1    3    3    0    0 -0.17669096569E+02 -0.16684258183E+02 -0.13219030688E+01  0.24337396583E+02  0.00000000000E+00 0. -1.
</event>
<event>
 7    1  0.2937071E-011  0.5052886E+02  0.7816164E-02  0.1300439E+00
        -11   -1    0    0    0    0  0.00000000000E+00  0.00000000000E+00  0.45593999997E+02  0.45594000000E+02  0.51100000000E-03 0.  1.
         11   -1    0    0    0    0 -0.00000000000E+00 -0.00000000000E+00 -0.45593999997E+02  0.45594000000E+02  0.51100000000E-03 0. -1.
    9900012    2    1    2    0    0  0.45800626452E+01  0.28132405118E+02 -0.28995798108E+02  0.50528862042E+02  0.30000006663E+02 0.  0.
        -12    1    1    2    0    0 -0.45800626452E+01 -0.28132405118E+02  0.28995798108E+02  0.40659137958E+02  0.00000000000E+00 0.  1.
         11    1    3    3    0    0  0.16145707900E+02  0.14252712212E+02 -0.18203852951E+02  0.28199360835E+02  0.51100000000E-03 0. -1.
        -11    1    3    3    0    0 -0.98227023318E+00 -0.32290238764E+00 -0.26324738660E+01  0.28282573574E+01  0.51100000000E-03 0.  1.
        -12    1    3    3    0    0 -0.10583375022E+02  0.14202595294E+02 -0.81594712904E+01  0.19501243850E+02  0.00000000000E+00 0.  1.
</event>
<event>
 7    1  0.2937071E-011  0.5052885E+02  0.7816164E-02  0.1300439E+00
        -11   -1    0    0    0    0  0.00000000000E+00  0.00000000000E+00  0.45593999997E+02  0.45594000000E+02  0.51100000000E-03 0.  1.
         11   -1    0    0    0    0 -0.00000000000E+00 -0.00000000000E+00 -0.45593999997E+02  0.45594000000E+02  0.51100000000E-03 0. -1.
    9900012    2    1    2    0    0 -0.13389641559E+02  0.21492732898E+02 -0.31811100041E+02  0.50528853989E+02  0.29999982186E+02 0.  0.
        -12    1    1    2    0    0  0.13389641559E+02 -0.21492732898E+02  0.31811100041E+02  0.40659146011E+02  0.00000000000E+00 0.  1.
         11    1    3    3    0    0 -0.11960952040E+02  0.73420178162E+01 -0.71736829332E+01  0.15761704426E+02  0.51100000000E-03 0. -1.
        -11    1    3    3    0    0 -0.19111274098E+00  0.45204710637E+00 -0.20355759502E+02  0.20361675172E+02  0.51100000000E-03 0.  1.
         12    1    3    3    0    0 -0.12375767779E+01  0.13698667975E+02 -0.42816576061E+01  0.14405474391E+02  0.00000000000E+00 0. -1.
</event>
<event>
 7    1  0.2937071E-011  0.5052883E+02  0.7816164E-02  0.1300439E+00
        -11   -1    0    0    0    0  0.00000000000E+00  0.00000000000E+00  0.45593999997E+02  0.45594000000E+02  0.51100000000E-03 0.  1.
         11   -1    0    0    0    0 -0.00000000000E+00 -0.00000000000E+00 -0.45593999997E+02  0.45594000000E+02  0.51100000000E-03 0. -1.
    9900012    2    1    2    0    0 -0.25783154300E+02 -0.31319770705E+02 -0.27329679204E+01  0.50528828878E+02  0.29999905857E+02 0.  0.
        -12    1    1    2    0    0  0.25783154300E+02  0.31319770705E+02  0.27329679204E+01  0.40659171122E+02  0.00000000000E+00 0.  1.
         11    1    3    3    0    0  0.24114391421E+01 -0.25405459176E+01 -0.41216785342E+01  0.54090337859E+01  0.51100000000E-03 0. -1.
        -11    1    3    3    0    0 -0.62840277096E+01 -0.20669236156E+02  0.23889401558E+01  0.21735072185E+02  0.51100000000E-03 0.  1.
         12    1    3    3    0    0 -0.21910565732E+02 -0.81099886314E+01 -0.10002295420E+01  0.23384722907E+02  0.00000000000E+00 0. -1.
</event>
<event>
 7    1  0.2937071E-011  0.5052887E+02  0.7816164E-02  0.1300439E+00
        -11   -1    0    0    0    0  0.00000000000E+00  0.00000000000E+00  0.45593999997E+02  0.45594000000E+02  0.51100000000E-03 0.  1.
         11   -1    0    0    0    0 -0.00000000000E+00 -0.00000000000E+00 -0.45593999997E+02  0.45594000000E+02  0.51100000000E-03 0. -1.
    9900012    2    1    2    0    0 -0.32855689738E+02  0.22288345019E+02  0.87691758525E+01  0.50528866746E+02  0.30000020962E+02 0.  0.
        -12    1    1    2    0    0  0.32855689738E+02 -0.22288345019E+02 -0.87691758525E+01  0.40659133254E+02  0.00000000000E+00 0.  1.
         11    1    3    3    0    0 -0.23712039665E+02  0.65350787579E+01 -0.36923106086E+01  0.24871695506E+02  0.51100000000E-03 0. -1.
        -11    1    3    3    0    0 -0.11367481106E+02  0.13930159786E+02  0.66443888148E+01  0.19168121487E+02  0.51100000000E-03 0.  1.
        -12    1    3    3    0    0  0.22238310328E+01  0.18231064748E+01  0.58170976462E+01  0.64890497537E+01  0.00000000000E+00 0.  1.
</event>
<event>
 7    1  0.2937071E-011  0.5052886E+02  0.7816164E-02  0.1300439E+00
        -11   -1    0    0    0    0  0.00000000000E+00  0.00000000000E+00  0.45593999997E+02  0.45594000000E+02  0.51100000000E-03 0.  1.
         11   -1    0    0    0    0 -0.00000000000E+00 -0.00000000000E+00 -0.45593999997E+02  0.45594000000E+02  0.51100000000E-03 0. -1.
    9900012    2    1    2    0    0 -0.30981375514E+02 -0.25559893872E+02  0.63255212260E+01  0.50528855613E+02  0.29999987123E+02 0.  0.
        -12    1    1    2    0    0  0.30981375514E+02  0.25559893872E+02 -0.63255212260E+01  0.40659144387E+02  0.00000000000E+00 0.  1.
         11    1    3    3    0    0 -0.16399350342E+01  0.16802291312E+01  0.22854775365E+01  0.32765781969E+01  0.51100000000E-03 0. -1.
        -11    1    3    3    0    0 -0.23212004495E+01 -0.69100625007E-01 -0.69994414766E+01  0.73746137302E+01  0.51100000000E-03 0.  1.
         12    1    3    3    0    0 -0.27020240030E+02 -0.27171022378E+02  0.11039485166E+02  0.39877663686E+02  0.00000000000E+00 0. -1.
</event>
<event>
 7    1  0.2937071E-011  0.5052886E+02  0.7816164E-02  0.1300439E+00
        -11   -1    0    0    0    0  0.00000000000E+00  0.00000000000E+00  0.45593999997E+02  0.45594000000E+02  0.51100000000E-03 0.  1.
         11   -1    0    0    0    0 -0.00000000000E+00 -0.00000000000E+00 -0.45593999997E+02  0.45594000000E+02  0.51100000000E-03 0. -1.
    9900012    2    1    2    0    0  0.35000238831E+02  0.16194620854E+02 -0.12879571130E+02  0.50528858158E+02  0.29999994858E+02 0.  0.
        -12    1    1    2    0    0 -0.35000238831E+02 -0.16194620854E+02  0.12879571130E+02  0.40659141842E+02  0.00000000000E+00 0.  1.
         11    1    3    3    0    0  0.12461450457E+02 -0.19085435271E+01  0.30637567035E+01  0.12973699985E+02  0.51100000000E-03 0. -1.
        -11    1    3    3    0    0  0.12257916889E+01  0.91724252514E+00 -0.92422663544E+01  0.93682115018E+01  0.51100000000E-03 0.  1.
         12    1    3    3    0    0  0.21312996684E+02  0.17185921856E+02 -0.67010614789E+01  0.28186946671E+02  0.00000000000E+00 0. -1.
</event>
<event>
 7    1  0.2937071E-011  0.5052886E+02  0.7816164E-02  0.1300439E+00
        -11   -1    0    0    0    0  0.00000000000E+00  0.00000000000E+00  0.45593999997E+02  0.45594000000E+02  0.51100000000E-03 0. -1.
         11   -1    0    0    0    0 -0.00000000000E+00 -0.00000000000E+00 -0.45593999997E+02  0.45594000000E+02  0.51100000000E-03 0.  1.
    9900012    2    1    2    0    0 -0.21688094574E+02  0.33936649259E+02  0.55764090553E+01  0.50528856537E+02  0.29999989929E+02 0.  0.
        -12    1    1    2    0    0  0.21688094574E+02 -0.33936649259E+02 -0.55764090553E+01  0.40659143463E+02  0.00000000000E+00 0.  1.
         11    1    3    3    0    0 -0.12317866170E+02  0.15336639237E+02 -0.18354775474E+01  0.19756297936E+02  0.51100000000E-03 0. -1.
        -11    1    3    3    0    0 -0.10263762428E+02  0.16981137097E+02 -0.31145691794E+01  0.20084929119E+02  0.51100000000E-03 0.  1.
         12    1    3    3    0    0  0.89353402367E+00  0.16188729254E+01  0.10526455782E+02  0.10687629481E+02  0.00000000000E+00 0. -1.
</event>
<event>
 7    1  0.2937071E-011  0.5052887E+02  0.7816164E-02  0.1300439E+00
        -11   -1    0    0    0    0  0.00000000000E+00  0.00000000000E+00  0.45593999997E+02  0.45594000000E+02  0.51100000000E-03 0. -1.
         11   -1    0    0    0    0 -0.00000000000E+00 -0.00000000000E+00 -0.45593999997E+02  0.45594000000E+02  0.51100000000E-03 0.  1.
    9900012    2    1    2    0    0 -0.37022978348E+01  0.21309884709E+02  0.34428862328E+02  0.50528871176E+02  0.30000034426E+02 0.  0.
        -12    1    1    2    0    0  0.37022978348E+01 -0.21309884709E+02 -0.34428862328E+02  0.40659128824E+02  0.00000000000E+00 0.  1.
         11    1    3    3    0    0 -0.37761659418E+01  0.79728636845E+01  0.12672180076E+02  0.15440535375E+02  0.51100000000E-03 0. -1.
        -11    1    3    3    0    0 -0.78325918514E+01  0.16398534828E+02  0.10474952849E+02  0.20975845086E+02  0.51100000000E-03 0.  1.
        -12    1    3    3    0    0  0.79064599584E+01 -0.30615138038E+01  0.11281729403E+02  0.14112490715E+02  0.00000000000E+00 0.  1.
</event>
<event>
 7    1  0.2965698E-011  0.5052886E+02  0.7816164E-02  0.1300439E+00
        -11   -1    0    0    0    0  0.00000000000E+00  0.00000000000E+00  0.45593999997E+02  0.45594000000E+02  0.51100000000E-03 0.  1.
         11   -1    0    0    0    0 -0.00000000000E+00 -0.00000000000E+00 -0.45593999997E+02  0.45594000000E+02  0.51100000000E-03 0. -1.
    9900012    2    1    2    0    0 -0.36512513216E+02 -0.11296399569E+02 -0.13870584493E+02  0.50528863527E+02  0.30000011177E+02 0.  0.
        -12    1    1    2    0    0  0.36512513216E+02  0.11296399569E+02  0.13870584493E+02  0.40659136473E+02  0.00000000000E+00 0.  1.
         11    1    3    3    0    0 -0.19024456880E+02 -0.13570829446E+02 -0.44672696453E+01  0.23791886637E+02  0.51100000000E-03 0. -1.
        -11    1    3    3    0    0 -0.11818783170E+02 -0.35850492424E+01 -0.12905869600E+02  0.17863305519E+02  0.51100000000E-03 0.  1.
        -12    1    3    3    0    0 -0.56692731667E+01  0.58594791199E+01  0.35025547525E+01  0.88736713704E+01  0.00000000000E+00 0.  1.
</event>
<event>
 7    1  0.2937071E-011  0.5052886E+02  0.7816164E-02  0.1300439E+00
        -11   -1    0    0    0    0  0.00000000000E+00  0.00000000000E+00  0.45593999997E+02  0.45594000000E+02  0.51100000000E-03 0.  1.
         11   -1    0    0    0    0 -0.00000000000E+00 -0.00000000000E+00 -0.45593999997E+02  0.45594000000E+02  0.51100000000E-03 0. -1.
    9900012    2    1    2    0    0  0.27705137449E+00  0.39456642971E+01 -0.40466286354E+02  0.50528863812E+02  0.30000012044E+02 0.  0.
        -12    1    1    2    0    0 -0.27705137449E+00 -0.39456642971E+01  0.40466286354E+02  0.40659136188E+02  0.00000000000E+00 0.  1.
         11    1    3    3    0    0  0.10564191995E+02 -0.44954511372E+01 -0.20004824229E+02  0.23065216802E+02  0.51100000000E-03 0. -1.
        -11    1    3    3    0    0  0.26355765514E+01 -0.10654924148E+00 -0.17290292744E+01  0.31539116969E+01  0.51100000000E-03 0.  1.
         12    1    3    3    0    0 -0.12922717172E+02  0.85476646758E+01 -0.18732432851E+02  0.24309735314E+02  0.00000000000E+00 0. -1.
</event>
<event>
 7    1  0.2937071E-011  0.5052886E+02  0.7816164E-02  0.1300439E+00
        -11   -1    0    0    0    0  0.00000000000E+00  0.00000000000E+00  0.45593999997E+02  0.45594000000E+02  0.51100000000E-03 0.  1.
         11   -1    0    0    0    0 -0.00000000000E+00 -0.00000000000E+00 -0.45593999997E+02  0.45594000000E+02  0.51100000000E-03 0. -1.
    9900012    2    1    2    0    0  0.21254606579E+02  0.26289695463E+02  0.22588917405E+02  0.50528861078E+02  0.30000003733E+02 0.  0.
        -12    1    1    2    0    0 -0.21254606579E+02 -0.26289695463E+02 -0.22588917405E+02  0.40659138922E+02  0.00000000000E+00 0.  1.
         11    1    3    3    0    0  0.97129404358E+01  0.85711051511E+01 -0.45537788649E+01  0.13731058140E+02  0.51100000000E-03 0.  1.
        -11    1    3    3    0    0 -0.14262847454E+01  0.32976343207E+01  0.19685578386E+00  0.35982541251E+01  0.51100000000E-03 0. -1.
         12    1    3    3    0    0  0.12967950889E+02  0.14420955991E+02  0.26945840486E+02  0.33199548813E+02  0.00000000000E+00 0. -1.
</event>
<event>
 7    1  0.2937071E-011  0.5052887E+02  0.7816164E-02  0.1300439E+00
        -11   -1    0    0    0    0  0.00000000000E+00  0.00000000000E+00  0.45593999997E+02  0.45594000000E+02  0.51100000000E-03 0. -1.
         11   -1    0    0    0    0 -0.00000000000E+00 -0.00000000000E+00 -0.45593999997E+02  0.45594000000E+02  0.51100000000E-03 0.  1.
    9900012    2    1    2    0    0 -0.22914090185E+02 -0.71800971409E+01  0.32810906549E+02  0.50528869260E+02  0.30000028603E+02 0.  0.
        -12    1    1    2    0    0  0.22914090185E+02  0.71800971409E+01 -0.32810906549E+02  0.40659130740E+02  0.00000000000E+00 0.  1.
         11    1    3    3    0    0  0.14705785107E+01  0.41911289756E+00 -0.11078927956E+01  0.18883017462E+01  0.51100000000E-03 0. -1.
        -11    1    3    3    0    0 -0.20326129199E+00  0.10885232028E+01  0.18790457753E+02  0.18823057688E+02  0.51100000000E-03 0.  1.
         12    1    3    3    0    0 -0.24181407403E+02 -0.86877332413E+01  0.15128341592E+02  0.29817509826E+02  0.00000000000E+00 0. -1.
</event>
<event>
 7    1  0.2937071E-011  0.5052886E+02  0.7816164E-02  0.1300439E+00
        -11   -1    0    0    0    0  0.00000000000E+00  0.00000000000E+00  0.45593999997E+02  0.45594000000E+02  0.51100000000E-03 0.  1.
         11   -1    0    0    0    0 -0.00000000000E+00 -0.00000000000E+00 -0.45593999997E+02  0.45594000000E+02  0.51100000000E-03 0. -1.
    9900012    2    1    2    0    0 -0.28873843734E+02 -0.25799621668E+01 -0.28509840234E+02  0.50528855309E+02  0.29999986199E+02 0.  0.
        -12    1    1    2    0    0  0.28873843734E+02  0.25799621668E+01  0.28509840234E+02  0.40659144691E+02  0.00000000000E+00 0.  1.
         11    1    3    3    0    0 -0.92655170251E+01 -0.20286464875E+01 -0.20779442623E+02  0.22841857374E+02  0.51100000000E-03 0. -1.
        -11    1    3    3    0    0 -0.18862275311E+02 -0.64422235752E+01 -0.85580093623E+01  0.21691638919E+02  0.51100000000E-03 0.  1.
        -12    1    3    3    0    0 -0.74605139846E+00  0.58909078959E+01  0.82761175074E+00  0.59953590165E+01  0.00000000000E+00 0.  1.
</event>
<event>
 7    1  0.2937071E-011  0.5052886E+02  0.7816164E-02  0.1300439E+00
        -11   -1    0    0    0    0  0.00000000000E+00  0.00000000000E+00  0.45593999997E+02  0.45594000000E+02  0.51100000000E-03 0.  1.
         11   -1    0    0    0    0 -0.00000000000E+00 -0.00000000000E+00 -0.45593999997E+02  0.45594000000E+02  0.51100000000E-03 0. -1.
    9900012    2    1    2    0    0  0.62546275428E+01  0.12317951455E+02 -0.38240204313E+02  0.50528861794E+02  0.30000005908E+02 0.  0.
        -12    1    1    2    0    0 -0.62546275428E+01 -0.12317951455E+02  0.38240204313E+02  0.40659138206E+02  0.00000000000E+00 0.  1.
         11    1    3    3    0    0 -0.60186827782E+01  0.27443446414E+01 -0.13473435705E+02  0.15009644895E+02  0.51100000000E-03 0.  1.
        -11    1    3    3    0    0 -0.35579297423E+01  0.80477684288E+01 -0.49039685944E+01  0.10073447720E+02  0.51100000000E-03 0. -1.
         12    1    3    3    0    0  0.15831240063E+02  0.15258383852E+01 -0.19862800014E+02  0.25445769179E+02  0.00000000000E+00 0. -1.
</event>
<event>
 7    1  0.2937071E-011  0.5052886E+02  0.7816164E-02  0.1300439E+00
        -11   -1    0    0    0    0  0.00000000000E+00  0.00000000000E+00  0.45593999997E+02  0.45594000000E+02  0.51100000000E-03 0.  1.
         11   -1    0    0    0    0 -0.00000000000E+00 -0.00000000000E+00 -0.45593999997E+02  0.45594000000E+02  0.51100000000E-03 0. -1.
    9900012    2    1    2    0    0  0.21699821390E+02 -0.21757084333E+01 -0.34315442521E+02  0.50528861409E+02  0.30000004739E+02 0.  0.
        -12    1    1    2    0    0 -0.21699821390E+02  0.21757084333E+01  0.34315442521E+02  0.40659138591E+02  0.00000000000E+00 0.  1.
         11    1    3    3    0    0  0.22053324405E+02 -0.83903605479E+01 -0.18264898152E+02  0.29838796427E+02  0.51100000000E-03 0. -1.
        -11    1    3    3    0    0  0.38150219407E+01 -0.68347707011E+00 -0.17024341881E+01  0.42331803339E+01  0.51100000000E-03 0.  1.
         12    1    3    3    0    0 -0.41685249557E+01  0.68981291847E+01 -0.14348110181E+02  0.16456884648E+02  0.00000000000E+00 0. -1.
</event>
<event>
 7    1  0.3292997E-011  0.5052883E+02  0.7816164E-02  0.1300439E+00
        -11   -1    0    0    0    0  0.00000000000E+00  0.00000000000E+00  0.45593999997E+02  0.45594000000E+02  0.51100000000E-03 0.  1.
         11   -1    0    0    0    0 -0.00000000000E+00 -0.00000000000E+00 -0.45593999997E+02  0.45594000000E+02  0.51100000000E-03 0. -1.
    9900012    2    1    2    0    0 -0.87363894911E+01  0.39397833901E+02  0.49652979056E+01  0.50528831284E+02  0.29999913170E+02 0.  0.
        -12    1    1    2    0    0  0.87363894911E+01 -0.39397833901E+02 -0.49652979056E+01  0.40659168716E+02  0.00000000000E+00 0.  1.
         11    1    3    3    0    0 -0.46361053197E+01  0.23248466779E+02  0.23096144668E+01  0.23818459215E+02  0.51100000000E-03 0. -1.
        -11    1    3    3    0    0  0.15174840988E+01  0.17432931111E+02 -0.39554324915E+01  0.17940325849E+02  0.51100000000E-03 0.  1.
        -12    1    3    3    0    0 -0.56177682702E+01 -0.12835639896E+01  0.66111159304E+01  0.87700462198E+01  0.00000000000E+00 0.  1.
</event>
<event>
 7    1  0.2937071E-011  0.5052886E+02  0.7816164E-02  0.1300439E+00
        -11   -1    0    0    0    0  0.00000000000E+00  0.00000000000E+00  0.45593999997E+02  0.45594000000E+02  0.51100000000E-03 0.  1.
         11   -1    0    0    0    0 -0.00000000000E+00 -0.00000000000E+00 -0.45593999997E+02  0.45594000000E+02  0.51100000000E-03 0. -1.
    9900012    2    1    2    0    0  0.78100330731E+01  0.93953586615E+01 -0.38780101765E+02  0.50528859897E+02  0.30000000143E+02 0.  0.
        -12    1    1    2    0    0 -0.78100330731E+01 -0.93953586615E+01  0.38780101765E+02  0.40659140103E+02  0.00000000000E+00 0.  1.
         11    1    3    3    0    0  0.30912140538E+01  0.51658274569E+01 -0.11090208273E+02  0.12618799366E+02  0.51100000000E-03 0. -1.
        -11    1    3    3    0    0  0.14524113288E+02  0.57939774599E+01 -0.19785082507E+02  0.25218436345E+02  0.51100000000E-03 0.  1.
        -12    1    3    3    0    0 -0.98052942682E+01 -0.15644462553E+01 -0.79048109853E+01  0.12691624186E+02  0.00000000000E+00 0.  1.
</event>
<event>
 7    1  0.2937071E-011  0.5052885E+02  0.7816164E-02  0.1300439E+00
        -11   -1    0    0    0    0  0.00000000000E+00  0.00000000000E+00  0.45593999997E+02  0.45594000000E+02  0.51100000000E-03 0. -1.
         11   -1    0    0    0    0 -0.00000000000E+00 -0.00000000000E+00 -0.45593999997E+02  0.45594000000E+02  0.51100000000E-03 0.  1.
    9900012    2    1    2    0    0  0.29559904350E+02  0.27333965870E+02  0.56773906960E+01  0.50528850962E+02  0.29999972985E+02 0.  0.
        -12    1    1    2    0    0 -0.29559904350E+02 -0.27333965870E+02 -0.56773906960E+01  0.40659149038E+02  0.00000000000E+00 0.  1.
         11    1    3    3    0    0 -0.32763652166E+01 -0.29690709300E+01  0.18609182633E+01  0.47971833678E+01  0.51100000000E-03 0. -1.
        -11    1    3    3    0    0  0.27997764687E+01  0.29547554336E+01 -0.22634570276E+01  0.46575278769E+01  0.51100000000E-03 0.  1.
        -12    1    3    3    0    0  0.30036493098E+02  0.27348281366E+02  0.60799294602E+01  0.41074139718E+02  0.00000000000E+00 0.  1.
</event>
<event>
 7    1  0.2937071E-011  0.5052885E+02  0.7816164E-02  0.1300439E+00
        -11   -1    0    0    0    0  0.00000000000E+00  0.00000000000E+00  0.45593999997E+02  0.45594000000E+02  0.51100000000E-03 0.  1.
         11   -1    0    0    0    0 -0.00000000000E+00 -0.00000000000E+00 -0.45593999997E+02  0.45594000000E+02  0.51100000000E-03 0. -1.
    9900012    2    1    2    0    0 -0.15248087588E+02  0.25631778139E+02 -0.27634657738E+02  0.50528849321E+02  0.29999967996E+02 0.  0.
        -12    1    1    2    0    0  0.15248087588E+02 -0.25631778139E+02  0.27634657738E+02  0.40659150679E+02  0.00000000000E+00 0.  1.
         11    1    3    3    0    0 -0.48832284810E+01  0.40151124812E+01 -0.11901625756E+02  0.13476488583E+02  0.51100000000E-03 0. -1.
        -11    1    3    3    0    0 -0.13709712315E+02  0.64519840270E+01 -0.15276586578E+02  0.21516468283E+02  0.51100000000E-03 0.  1.
         12    1    3    3    0    0  0.33448532082E+01  0.15164681630E+02 -0.45644540405E+00  0.15535892454E+02  0.00000000000E+00 0. -1.
</event>
<event>
 7    1  0.2937071E-011  0.5052887E+02  0.7816164E-02  0.1300439E+00
        -11   -1    0    0    0    0  0.00000000000E+00  0.00000000000E+00  0.45593999997E+02  0.45594000000E+02  0.51100000000E-03 0. -1.
         11   -1    0    0    0    0 -0.00000000000E+00 -0.00000000000E+00 -0.45593999997E+02  0.45594000000E+02  0.51100000000E-03 0.  1.
    9900012    2    1    2    0    0  0.34023665630E+02  0.22242131503E+02  0.91801037530E+00  0.50528868434E+02  0.30000026091E+02 0.  0.
        -12    1    1    2    0    0 -0.34023665630E+02 -0.22242131503E+02 -0.91801037530E+00  0.40659131566E+02  0.00000000000E+00 0.  1.
         11    1    3    3    0    0  0.23645136996E+02  0.12534162462E+02  0.11818726215E+02  0.29255427220E+02  0.51100000000E-03 0. -1.
        -11    1    3    3    0    0  0.89292906852E+01  0.50071019627E+00 -0.55723725843E+01  0.10537280452E+02  0.51100000000E-03 0.  1.
        -12    1    3    3    0    0  0.14492379485E+01  0.92072588443E+01 -0.53283432554E+01  0.10736160762E+02  0.00000000000E+00 0.  1.
</event>
<event>
 7    1  0.2937071E-011  0.5052886E+02  0.7816164E-02  0.1300439E+00
        -11   -1    0    0    0    0  0.00000000000E+00  0.00000000000E+00  0.45593999997E+02  0.45594000000E+02  0.51100000000E-03 0.  1.
         11   -1    0    0    0    0 -0.00000000000E+00 -0.00000000000E+00 -0.45593999997E+02  0.45594000000E+02  0.51100000000E-03 0. -1.
    9900012    2    1    2    0    0  0.17308271005E+01  0.18298387239E+02 -0.36267600808E+02  0.50528860728E+02  0.30000002668E+02 0.  0.
        -12    1    1    2    0    0 -0.17308271005E+01 -0.18298387239E+02  0.36267600808E+02  0.40659139272E+02  0.00000000000E+00 0.  1.
         11    1    3    3    0    0 -0.10244882548E+02  0.30560619226E+01 -0.33592946313E+01  0.11206337206E+02  0.51100000000E-03 0. -1.
        -11    1    3    3    0    0  0.28800851116E+01  0.36054807975E+01 -0.16998834347E+02  0.17614049831E+02  0.51100000000E-03 0.  1.
        -12    1    3    3    0    0  0.90956245367E+01  0.11636844519E+02 -0.15909471829E+02  0.21708473690E+02  0.00000000000E+00 0.  1.
</event>
<event>
 7    1  0.2937071E-011  0.5052885E+02  0.7816164E-02  0.1300439E+00
        -11   -1    0    0    0    0  0.00000000000E+00  0.00000000000E+00  0.45593999997E+02  0.45594000000E+02  0.51100000000E-03 0.  1.
         11   -1    0    0    0    0 -0.00000000000E+00 -0.00000000000E+00 -0.45593999997E+02  0.45594000000E+02  0.51100000000E-03 0. -1.
    9900012    2    1    2    0    0  0.16422071849E+02  0.29926916731E+02 -0.22087582301E+02  0.50528854894E+02  0.29999984936E+02 0.  0.
        -12    1    1    2    0    0 -0.16422071849E+02 -0.29926916731E+02  0.22087582301E+02  0.40659145106E+02  0.00000000000E+00 0.  1.
         11    1    3    3    0    0  0.16165957242E+02  0.61149759904E+01 -0.13734940997E+02  0.22076677951E+02  0.51100000000E-03 0. -1.
        -11    1    3    3    0    0 -0.28902704628E+00  0.52023360938E+01  0.35954010662E+01  0.63304617963E+01  0.51100000000E-03 0.  1.
        -12    1    3    3    0    0  0.54514165370E+00  0.18609604647E+02 -0.11948042370E+02  0.22121715146E+02  0.00000000000E+00 0.  1.
</event>
<event>
 7    1  0.2937071E-011  0.5052886E+02  0.7816164E-02  0.1300439E+00
        -11   -1    0    0    0    0  0.00000000000E+00  0.00000000000E+00  0.45593999997E+02  0.45594000000E+02  0.51100000000E-03 0. -1.
         11   -1    0    0    0    0 -0.00000000000E+00 -0.00000000000E+00 -0.45593999997E+02  0.45594000000E+02  0.51100000000E-03 0.  1.
    9900012    2    1    2    0    0  0.64681609146E+01 -0.15727288448E+02  0.36932111399E+02  0.50528861299E+02  0.30000004405E+02 0.  0.
        -12    1    1    2    0    0 -0.64681609146E+01  0.15727288448E+02 -0.36932111399E+02  0.40659138701E+02  0.00000000000E+00 0.  1.
         11    1    3    3    0    0  0.32944070374E+01  0.27006495851E+00  0.10917901853E+01  0.34811002398E+01  0.51100000000E-03 0. -1.
        -11    1    3    3    0    0  0.10852540714E+02  0.10713510236E+01  0.81020629184E+01  0.13585612123E+02  0.51100000000E-03 0.  1.
         12    1    3    3    0    0 -0.76787868364E+01 -0.17068704430E+02  0.27738258295E+02  0.33462148936E+02  0.00000000000E+00 0. -1.
</event>
<event>
 7    1  0.2937071E-011  0.5052880E+02  0.7816164E-02  0.1300439E+00
        -11   -1    0    0    0    0  0.00000000000E+00  0.00000000000E+00  0.45593999997E+02  0.45594000000E+02  0.51100000000E-03 0.  1.
         11   -1    0    0    0    0 -0.00000000000E+00 -0.00000000000E+00 -0.45593999997E+02  0.45594000000E+02  0.51100000000E-03 0. -1.
    9900012    2    1    2    0    0 -0.42146583196E+01  0.27966566420E+02 -0.29210923319E+02  0.50528803953E+02  0.29999830094E+02 0.  0.
        -12    1    1    2    0    0  0.42146583196E+01 -0.27966566420E+02  0.29210923319E+02  0.40659196047E+02  0.00000000000E+00 0.  1.
         11    1    3    3    0    0  0.30209559144E+01  0.73175323287E+01 -0.25217635439E+01  0.83085345068E+01  0.51100000000E-03 0. -1.
        -11    1    3    3    0    0  0.39122769642E+00 -0.22158799972E+01  0.31443283123E+01  0.38665209257E+01  0.51100000000E-03 0.  1.
         12    1    3    3    0    0 -0.76268419304E+01  0.22864914088E+02 -0.29833488088E+02  0.38353748520E+02  0.00000000000E+00 0. -1.
</event>
<event>
 7    1  0.2937071E-011  0.5052886E+02  0.7816164E-02  0.1300439E+00
        -11   -1    0    0    0    0  0.00000000000E+00  0.00000000000E+00  0.45593999997E+02  0.45594000000E+02  0.51100000000E-03 0.  1.
         11   -1    0    0    0    0 -0.00000000000E+00 -0.00000000000E+00 -0.45593999997E+02  0.45594000000E+02  0.51100000000E-03 0. -1.
    9900012    2    1    2    0    0  0.27002243134E+02 -0.61576373247E+00 -0.30391860423E+02  0.50528862291E+02  0.30000007420E+02 0.  0.
        -12    1    1    2    0    0 -0.27002243134E+02  0.61576373247E+00  0.30391860423E+02  0.40659137709E+02  0.00000000000E+00 0.  1.
         11    1    3    3    0    0  0.36806832879E+01 -0.40679536947E+01 -0.99477146698E+01  0.11360136625E+02  0.51100000000E-03 0. -1.
        -11    1    3    3    0    0  0.13608820369E+02 -0.31936834594E+01 -0.23196102308E+02  0.27082443915E+02  0.51100000000E-03 0.  1.
        -12    1    3    3    0    0  0.97127394772E+01  0.66458734216E+01  0.27519565543E+01  0.12086281751E+02  0.00000000000E+00 0.  1.
</event>
<event>
 7    1  0.2937071E-011  0.5052885E+02  0.7816164E-02  0.1300439E+00
        -11   -1    0    0    0    0  0.00000000000E+00  0.00000000000E+00  0.45593999997E+02  0.45594000000E+02  0.51100000000E-03 0.  1.
         11   -1    0    0    0    0 -0.00000000000E+00 -0.00000000000E+00 -0.45593999997E+02  0.45594000000E+02  0.51100000000E-03 0. -1.
    9900012    2    1    2    0    0 -0.38249405606E+02 -0.10415973926E+02 -0.90364095930E+01  0.50528852931E+02  0.29999978970E+02 0.  0.
        -12    1    1    2    0    0  0.38249405606E+02  0.10415973926E+02  0.90364095930E+01  0.40659147069E+02  0.00000000000E+00 0.  1.
         11    1    3    3    0    0 -0.26345968820E+01 -0.45027390539E+01  0.56777358902E+01  0.77105411495E+01  0.51100000000E-03 0. -1.
        -11    1    3    3    0    0 -0.13458695165E+02 -0.22962126305E+01  0.32867081722E+01  0.14043201874E+02  0.51100000000E-03 0.  1.
        -12    1    3    3    0    0 -0.22156113558E+02 -0.36170222416E+01 -0.18000853655E+02  0.28775109908E+02  0.00000000000E+00 0.  1.
</event>
<event>
 7    1  0.2937071E-011  0.5052886E+02  0.7816164E-02  0.1300439E+00
        -11   -1    0    0    0    0  0.00000000000E+00  0.00000000000E+00  0.45593999997E+02  0.45594000000E+02  0.51100000000E-03 0. -1.
         11   -1    0    0    0    0 -0.00000000000E+00 -0.00000000000E+00 -0.45593999997E+02  0.45594000000E+02  0.51100000000E-03 0.  1.
    9900012    2    1    2    0    0 -0.13138135251E+02  0.21422161769E+02  0.31963203935E+02  0.50528855660E+02  0.29999987263E+02 0.  0.
        -12    1    1    2    0    0  0.13138135251E+02 -0.21422161769E+02 -0.31963203935E+02  0.40659144340E+02  0.00000000000E+00 0.  1.
         11    1    3    3    0    0 -0.23672623376E+01  0.59787301332E+01  0.39080877697E+01  0.75247787514E+01  0.51100000000E-03 0. -1.
        -11    1    3    3    0    0 -0.54657853247E+01  0.20353937673E+02  0.28854080678E+02  0.35731156713E+02  0.51100000000E-03 0.  1.
        -12    1    3    3    0    0 -0.53050875887E+01 -0.49105060377E+01 -0.79896451283E+00  0.72729201950E+01  0.00000000000E+00 0.  1.
</event>
<event>
 7    1  0.2937071E-011  0.5052886E+02  0.7816164E-02  0.1300439E+00
        -11   -1    0    0    0    0  0.00000000000E+00  0.00000000000E+00  0.45593999997E+02  0.45594000000E+02  0.51100000000E-03 0.  1.
         11   -1    0    0    0    0 -0.00000000000E+00 -0.00000000000E+00 -0.45593999997E+02  0.45594000000E+02  0.51100000000E-03 0. -1.
    9900012    2    1    2    0    0  0.55615149525E+01  0.39878148479E+02 -0.56541018747E+01  0.50528855362E+02  0.29999986359E+02 0.  0.
        -12    1    1    2    0    0 -0.55615149525E+01 -0.39878148479E+02  0.56541018747E+01  0.40659144638E+02  0.00000000000E+00 0.  1.
         11    1    3    3    0    0  0.78346669443E+01  0.17007612962E+01 -0.27837539684E+01  0.84866884904E+01  0.51100000000E-03 0. -1.
        -11    1    3    3    0    0  0.20203033182E+01  0.54047466051E+01 -0.66151871913E+01  0.87780187514E+01  0.51100000000E-03 0.  1.
        -12    1    3    3    0    0 -0.42934553100E+01  0.32772640577E+02  0.37448392850E+01  0.33264148121E+02  0.00000000000E+00 0.  1.
</event>
<event>
 7    1  0.2937071E-011  0.5052886E+02  0.7816164E-02  0.1300439E+00
        -11   -1    0    0    0    0  0.00000000000E+00  0.00000000000E+00  0.45593999997E+02  0.45594000000E+02  0.51100000000E-03 0.  1.
         11   -1    0    0    0    0 -0.00000000000E+00 -0.00000000000E+00 -0.45593999997E+02  0.45594000000E+02  0.51100000000E-03 0. -1.
    9900012    2    1    2    0    0 -0.94293197387E+01  0.38174650184E+02  0.10341656423E+02  0.50528857794E+02  0.29999993750E+02 0.  0.
        -12    1    1    2    0    0  0.94293197387E+01 -0.38174650184E+02 -0.10341656423E+02  0.40659142206E+02  0.00000000000E+00 0.  1.
         11    1    3    3    0    0 -0.82106191265E+01  0.32995507112E+01  0.15408053749E+01  0.89819476062E+01  0.51100000000E-03 0. -1.
        -11    1    3    3    0    0 -0.33014312012E+01  0.26908762777E-01  0.55861266676E+01  0.64888352935E+01  0.51100000000E-03 0.  1.
         12    1    3    3    0    0  0.20827305890E+01  0.34848190710E+02  0.32147243801E+01  0.35058074894E+02  0.00000000000E+00 0. -1.
</event>
<event>
 7    1  0.2937071E-011  0.5052886E+02  0.7816164E-02  0.1300439E+00
        -11   -1    0    0    0    0  0.00000000000E+00  0.00000000000E+00  0.45593999997E+02  0.45594000000E+02  0.51100000000E-03 0. -1.
         11   -1    0    0    0    0 -0.00000000000E+00 -0.00000000000E+00 -0.45593999997E+02  0.45594000000E+02  0.51100000000E-03 0.  1.
    9900012    2    1    2    0    0 -0.23009343019E+02  0.24299779587E+02 -0.23092353589E+02  0.50528856522E+02  0.29999989883E+02 0.  0.
        -12    1    1    2    0    0  0.23009343019E+02 -0.24299779587E+02  0.23092353589E+02  0.40659143478E+02  0.00000000000E+00 0.  1.
         11    1    3    3    0    0 -0.14836835451E+02  0.21890060414E+01 -0.16293222229E+02  0.22144808071E+02  0.51100000000E-03 0.  1.
        -11    1    3    3    0    0  0.12732092056E+00  0.21812713828E+00  0.29944864095E+01  0.30051188301E+01  0.51100000000E-03 0. -1.
         12    1    3    3    0    0 -0.82998284884E+01  0.21892646408E+02 -0.97936177694E+01  0.25378929621E+02  0.00000000000E+00 0. -1.
</event>
<event>
 7    1  0.2937071E-011  0.5052886E+02  0.7816164E-02  0.1300439E+00
        -11   -1    0    0    0    0  0.00000000000E+00  0.00000000000E+00  0.45593999997E+02  0.45594000000E+02  0.51100000000E-03 0.  1.
         11   -1    0    0    0    0 -0.00000000000E+00 -0.00000000000E+00 -0.45593999997E+02  0.45594000000E+02  0.51100000000E-03 0. -1.
    9900012    2    1    2    0    0  0.24078220188E+02  0.32609256459E+02 -0.31687989444E+01  0.50528861040E+02  0.30000003617E+02 0.  0.
        -12    1    1    2    0    0 -0.24078220188E+02 -0.32609256459E+02  0.31687989444E+01  0.40659138960E+02  0.00000000000E+00 0.  1.
         11    1    3    3    0    0  0.46500789966E+01  0.22223133232E+02 -0.64214055616E+01  0.23595027759E+02  0.51100000000E-03 0. -1.
        -11    1    3    3    0    0  0.13327155415E+02  0.56505725138E+01 -0.52952689592E+01  0.15413692445E+02  0.51100000000E-03 0.  1.
        -12    1    3    3    0    0  0.61009857763E+01  0.47355507137E+01  0.85478755764E+01  0.11520140836E+02  0.00000000000E+00 0.  1.
</event>
<event>
 7    1  0.2937071E-011  0.5052887E+02  0.7816164E-02  0.1300439E+00
        -11   -1    0    0    0    0  0.00000000000E+00  0.00000000000E+00  0.45593999997E+02  0.45594000000E+02  0.51100000000E-03 0.  1.
         11   -1    0    0    0    0 -0.00000000000E+00 -0.00000000000E+00 -0.45593999997E+02  0.45594000000E+02  0.51100000000E-03 0. -1.
    9900012    2    1    2    0    0 -0.10239897958E+02 -0.24247502225E+02 -0.30989801711E+02  0.50528872065E+02  0.30000037129E+02 0.  0.
        -12    1    1    2    0    0  0.10239897958E+02  0.24247502225E+02  0.30989801711E+02  0.40659127935E+02  0.00000000000E+00 0.  1.
         11    1    3    3    0    0 -0.31854310111E+01 -0.15908154341E+02 -0.19719329306E+02  0.25535627931E+02  0.51100000000E-03 0. -1.
        -11    1    3    3    0    0 -0.89363377229E+01 -0.11767726249E+02 -0.19738623612E+01  0.14907503005E+02  0.51100000000E-03 0.  1.
         12    1    3    3    0    0  0.18818707755E+01  0.34283783651E+01 -0.92966100434E+01  0.10085741129E+02  0.00000000000E+00 0. -1.
</event>
<event>
 7    1  0.2937071E-011  0.5052886E+02  0.7816164E-02  0.1300439E+00
        -11   -1    0    0    0    0  0.00000000000E+00  0.00000000000E+00  0.45593999997E+02  0.45594000000E+02  0.51100000000E-03 0.  1.
         11   -1    0    0    0    0 -0.00000000000E+00 -0.00000000000E+00 -0.45593999997E+02  0.45594000000E+02  0.51100000000E-03 0. -1.
    9900012    2    1    2    0    0 -0.24296510858E+02 -0.26549900633E+02 -0.18919508276E+02  0.50528862566E+02  0.30000008256E+02 0.  0.
        -12    1    1    2    0    0  0.24296510858E+02  0.26549900633E+02  0.18919508276E+02  0.40659137434E+02  0.00000000000E+00 0.  1.
         11    1    3    3    0    0 -0.41191959667E+01 -0.72125157094E+01  0.38242408115E+01  0.91440131406E+01  0.51100000000E-03 0. -1.
        -11    1    3    3    0    0 -0.11908055223E+01  0.33222835471E+01 -0.71221071184E+01  0.79485845171E+01  0.51100000000E-03 0.  1.
         12    1    3    3    0    0 -0.18986509369E+02 -0.22659668470E+02 -0.15621641969E+02  0.33436264908E+02  0.00000000000E+00 0. -1.
</event>
<event>
 7    1  0.2937071E-011  0.5052885E+02  0.7816164E-02  0.1300439E+00
        -11   -1    0    0    0    0  0.00000000000E+00  0.00000000000E+00  0.45593999997E+02  0.45594000000E+02  0.51100000000E-03 0. -1.
         11   -1    0    0    0    0 -0.00000000000E+00 -0.00000000000E+00 -0.45593999997E+02  0.45594000000E+02  0.51100000000E-03 0.  1.
    9900012    2    1    2    0    0  0.54808940260E+01  0.40280177010E+02 -0.79592924436E+00  0.50528851427E+02  0.29999974398E+02 0.  0.
        -12    1    1    2    0    0 -0.54808940260E+01 -0.40280177010E+02  0.79592924436E+00  0.40659148573E+02  0.00000000000E+00 0.  1.
         11    1    3    3    0    0 -0.54180017294E+01  0.40436185454E+01  0.22619268966E+00  0.67643741081E+01  0.51100000000E-03 0. -1.
        -11    1    3    3    0    0  0.91676314512E+01  0.67654393042E+01  0.67415463955E+01  0.13238771977E+02  0.51100000000E-03 0.  1.
         12    1    3    3    0    0  0.17312643042E+01  0.29471119161E+02 -0.77636683295E+01  0.30525705342E+02  0.00000000000E+00 0. -1.
</event>
<event>
 7    1  0.2937071E-011  0.5052886E+02  0.7816164E-02  0.1300439E+00
        -11   -1    0    0    0    0  0.00000000000E+00  0.00000000000E+00  0.45593999997E+02  0.45594000000E+02  0.51100000000E-03 0.  1.
         11   -1    0    0    0    0 -0.00000000000E+00 -0.00000000000E+00 -0.45593999997E+02  0.45594000000E+02  0.51100000000E-03 0. -1.
    9900012    2    1    2    0    0 -0.32352635117E+02  0.24188892307E+02 -0.46228120789E+01  0.50528857097E+02  0.29999991633E+02 0.  0.
        -12    1    1    2    0    0  0.32352635117E+02 -0.24188892307E+02  0.46228120789E+01  0.40659142903E+02  0.00000000000E+00 0.  1.
         11    1    3    3    0    0 -0.66506409536E+01  0.12774093938E+02 -0.80203086479E+01  0.16484351734E+02  0.51100000000E-03 0. -1.
        -11    1    3    3    0    0 -0.10418028103E+02  0.13867748489E+02 -0.24094886011E+01  0.17511578835E+02  0.51100000000E-03 0.  1.
        -12    1    3    3    0    0 -0.15283966060E+02 -0.24529501199E+01  0.58069851701E+01  0.16532926528E+02  0.00000000000E+00 0.  1.
</event>
<event>
 7    1  0.2937071E-011  0.5052885E+02  0.7816164E-02  0.1300439E+00
        -11   -1    0    0    0    0  0.00000000000E+00  0.00000000000E+00  0.45593999997E+02  0.45594000000E+02  0.51100000000E-03 0.  1.
         11   -1    0    0    0    0 -0.00000000000E+00 -0.00000000000E+00 -0.45593999997E+02  0.45594000000E+02  0.51100000000E-03 0. -1.
    9900012    2    1    2    0    0 -0.25534691353E+02  0.30997217154E+02 -0.63497114309E+01  0.50528846430E+02  0.29999959209E+02 0.  0.
        -12    1    1    2    0    0  0.25534691353E+02 -0.30997217154E+02  0.63497114309E+01  0.40659153570E+02  0.00000000000E+00 0.  1.
         11    1    3    3    0    0 -0.12291787476E+02  0.29515054546E+02 -0.11223261175E+02  0.33884924020E+02  0.51100000000E-03 0. -1.
        -11    1    3    3    0    0 -0.96188662522E+00 -0.20724964651E+01 -0.10956877653E+01  0.25339691035E+01  0.51100000000E-03 0.  1.
        -12    1    3    3    0    0 -0.12281017252E+02  0.35546590729E+01  0.59692375094E+01  0.14109953306E+02  0.00000000000E+00 0.  1.
</event>
<event>
 7    1  0.2937071E-011  0.5052886E+02  0.7816164E-02  0.1300439E+00
        -11   -1    0    0    0    0  0.00000000000E+00  0.00000000000E+00  0.45593999997E+02  0.45594000000E+02  0.51100000000E-03 0.  1.
         11   -1    0    0    0    0 -0.00000000000E+00 -0.00000000000E+00 -0.45593999997E+02  0.45594000000E+02  0.51100000000E-03 0. -1.
    9900012    2    1    2    0    0 -0.76820905430E+01  0.24197525526E+01 -0.39853427392E+02  0.50528863359E+02  0.30000010665E+02 0.  0.
        -12    1    1    2    0    0  0.76820905430E+01 -0.24197525526E+01  0.39853427392E+02  0.40659136641E+02  0.00000000000E+00 0.  1.
         11    1    3    3    0    0  0.29917007349E+01  0.60811284091E+01 -0.17640706326E+02  0.18897748965E+02  0.51100000000E-03 0. -1.
        -11    1    3    3    0    0 -0.24565588261E+01 -0.81292672079E+01 -0.20409115985E+02  0.22105467246E+02  0.51100000000E-03 0.  1.
        -12    1    3    3    0    0 -0.82172324518E+01  0.44678913514E+01 -0.18036050814E+01  0.95256471478E+01  0.00000000000E+00 0.  1.
</event>
<event>
 7    1  0.2937071E-011  0.5052886E+02  0.7816164E-02  0.1300439E+00
        -11   -1    0    0    0    0  0.00000000000E+00  0.00000000000E+00  0.45593999997E+02  0.45594000000E+02  0.51100000000E-03 0.  1.
         11   -1    0    0    0    0 -0.00000000000E+00 -0.00000000000E+00 -0.45593999997E+02  0.45594000000E+02  0.51100000000E-03 0. -1.
    9900012    2    1    2    0    0  0.39069263300E+02  0.36910463117E+01 -0.10636482948E+02  0.50528856783E+02  0.29999990676E+02 0.  0.
        -12    1    1    2    0    0 -0.39069263300E+02 -0.36910463117E+01  0.10636482948E+02  0.40659143217E+02  0.00000000000E+00 0.  1.
         11    1    3    3    0    0  0.23133223209E+02  0.11479603490E+02 -0.20082082214E+01  0.25902899699E+02  0.51100000000E-03 0. -1.
        -11    1    3    3    0    0  0.19992510615E+01  0.15906785130E+01 -0.73466471135E+01  0.77782058992E+01  0.51100000000E-03 0.  1.
         12    1    3    3    0    0  0.13936789030E+02 -0.93792356915E+01 -0.12816276127E+01  0.16847751184E+02  0.00000000000E+00 0. -1.
</event>
<event>
 7    1  0.2937071E-011  0.5052886E+02  0.7816164E-02  0.1300439E+00
        -11   -1    0    0    0    0  0.00000000000E+00  0.00000000000E+00  0.45593999997E+02  0.45594000000E+02  0.51100000000E-03 0. -1.
         11   -1    0    0    0    0 -0.00000000000E+00 -0.00000000000E+00 -0.45593999997E+02  0.45594000000E+02  0.51100000000E-03 0.  1.
    9900012    2    1    2    0    0 -0.11765343212E+02 -0.38915843971E+02 -0.54704303443E+00  0.50528862418E+02  0.30000007805E+02 0.  0.
        -12    1    1    2    0    0  0.11765343212E+02  0.38915843971E+02  0.54704303443E+00  0.40659137582E+02  0.00000000000E+00 0.  1.
         11    1    3    3    0    0  0.17188896427E+01 -0.13306820497E+02  0.78004580376E+01  0.15520090180E+02  0.51100000000E-03 0. -1.
        -11    1    3    3    0    0  0.22896342653E+01 -0.10445893982E+01 -0.50344850672E+01  0.56284662416E+01  0.51100000000E-03 0.  1.
        -12    1    3    3    0    0 -0.15773867120E+02 -0.24564434076E+02 -0.33130160049E+01  0.29380305996E+02  0.00000000000E+00 0.  1.
</event>
<event>
 7    1  0.2937071E-011  0.5052886E+02  0.7816164E-02  0.1300439E+00
        -11   -1    0    0    0    0  0.00000000000E+00  0.00000000000E+00  0.45593999997E+02  0.45594000000E+02  0.51100000000E-03 0. -1.
         11   -1    0    0    0    0 -0.00000000000E+00 -0.00000000000E+00 -0.45593999997E+02  0.45594000000E+02  0.51100000000E-03 0.  1.
    9900012    2    1    2    0    0 -0.23020078670E+02 -0.32669933695E+02  0.74777673538E+01  0.50528860877E+02  0.30000003122E+02 0.  0.
        -12    1    1    2    0    0  0.23020078670E+02  0.32669933695E+02 -0.74777673538E+01  0.40659139123E+02  0.00000000000E+00 0.  1.
         11    1    3    3    0    0 -0.57088326726E+01 -0.76066668573E+01  0.61057645677E+01  0.11301880922E+02  0.51100000000E-03 0. -1.
        -11    1    3    3    0    0 -0.16688993462E+02 -0.15096513760E+02  0.11268596639E+02  0.25167608169E+02  0.51100000000E-03 0.  1.
        -12    1    3    3    0    0 -0.62225253552E+00 -0.99667530772E+01 -0.98965938525E+01  0.14059371785E+02  0.00000000000E+00 0.  1.
</event>
<event>
 7    1  0.2937071E-011  0.5052887E+02  0.7816164E-02  0.1300439E+00
        -11   -1    0    0    0    0  0.00000000000E+00  0.00000000000E+00  0.45593999997E+02  0.45594000000E+02  0.51100000000E-03 0. -1.
         11   -1    0    0    0    0 -0.00000000000E+00 -0.00000000000E+00 -0.45593999997E+02  0.45594000000E+02  0.51100000000E-03 0.  1.
    9900012    2    1    2    0    0 -0.11728673159E+02 -0.16724076861E+02  0.35155489963E+02  0.50528868240E+02  0.30000025502E+02 0.  0.
        -12    1    1    2    0    0  0.11728673159E+02  0.16724076861E+02 -0.35155489963E+02  0.40659131760E+02  0.00000000000E+00 0.  1.
         11    1    3    3    0    0  0.47402266824E+01 -0.96878434805E+01  0.24379177752E+02  0.26658363949E+02  0.51100000000E-03 0. -1.
        -11    1    3    3    0    0  0.57460052440E+00  0.11780751552E+00 -0.15474106580E+01  0.16548487481E+01  0.51100000000E-03 0.  1.
        -12    1    3    3    0    0 -0.17043500366E+02 -0.71540408956E+01  0.12323722869E+02  0.22215655543E+02  0.00000000000E+00 0.  1.
</event>
<event>
 7    1  0.2937071E-011  0.5052887E+02  0.7816164E-02  0.1300439E+00
        -11   -1    0    0    0    0  0.00000000000E+00  0.00000000000E+00  0.45593999997E+02  0.45594000000E+02  0.51100000000E-03 0.  1.
         11   -1    0    0    0    0 -0.00000000000E+00 -0.00000000000E+00 -0.45593999997E+02  0.45594000000E+02  0.51100000000E-03 0. -1.
    9900012    2    1    2    0    0  0.55355543313E+01  0.56072501841E+01 -0.39888361415E+02  0.50528868273E+02  0.30000025603E+02 0.  0.
        -12    1    1    2    0    0 -0.55355543313E+01 -0.56072501841E+01  0.39888361415E+02  0.40659131727E+02  0.00000000000E+00 0.  1.
         11    1    3    3    0    0 -0.19119336272E+01  0.29682302789E+01 -0.21816453335E+02  0.22100305825E+02  0.51100000000E-03 0.  1.
        -11    1    3    3    0    0 -0.18169945960E+01 -0.24359741011E+01 -0.17593775938E+02  0.17854310157E+02  0.51100000000E-03 0. -1.
        -12    1    3    3    0    0  0.92644825545E+01  0.50749940063E+01 -0.47813214282E+00  0.10574252291E+02  0.00000000000E+00 0.  1.
</event>
<event>
 7    1  0.2937071E-011  0.5052886E+02  0.7816164E-02  0.1300439E+00
        -11   -1    0    0    0    0  0.00000000000E+00  0.00000000000E+00  0.45593999997E+02  0.45594000000E+02  0.51100000000E-03 0.  1.
         11   -1    0    0    0    0 -0.00000000000E+00 -0.00000000000E+00 -0.45593999997E+02  0.45594000000E+02  0.51100000000E-03 0. -1.
    9900012    2    1    2    0    0 -0.85608494580E+01  0.13799217178E+02 -0.37275450905E+02  0.50528858613E+02  0.29999996241E+02 0.  0.
        -12    1    1    2    0    0  0.85608494580E+01 -0.13799217178E+02  0.37275450905E+02  0.40659141387E+02  0.00000000000E+00 0.  1.
         11    1    3    3    0    0 -0.10974477990E+02  0.65424351739E+00 -0.66089715472E+01  0.12827537055E+02  0.51100000000E-03 0. -1.
        -11    1    3    3    0    0 -0.47185954961E+01 -0.16244593533E+01 -0.11098086966E+02  0.12168465237E+02  0.51100000000E-03 0.  1.
        -12    1    3    3    0    0  0.71322240280E+01  0.14769433014E+02 -0.19568392391E+02  0.25532856321E+02  0.00000000000E+00 0.  1.
</event>
<event>
 7    1  0.2937071E-011  0.5052889E+02  0.7816164E-02  0.1300439E+00
        -11   -1    0    0    0    0  0.00000000000E+00  0.00000000000E+00  0.45593999997E+02  0.45594000000E+02  0.51100000000E-03 0.  1.
         11   -1    0    0    0    0 -0.00000000000E+00 -0.00000000000E+00 -0.45593999997E+02  0.45594000000E+02  0.51100000000E-03 0. -1.
    9900012    2    1    2    0    0 -0.35244333097E+02 -0.14732115704E+02 -0.13927139860E+02  0.50528886959E+02  0.30000082400E+02 0.  0.
        -12    1    1    2    0    0  0.35244333097E+02  0.14732115704E+02  0.13927139860E+02  0.40659113041E+02  0.00000000000E+00 0.  1.
         11    1    3    3    0    0 -0.16421916472E+02 -0.14105761114E+02 -0.39767211593E+01  0.22010591738E+02  0.51100000000E-03 0. -1.
        -11    1    3    3    0    0  0.38503560982E+01 -0.11627803454E+01 -0.19454302936E+01  0.44678853502E+01  0.51100000000E-03 0.  1.
         12    1    3    3    0    0 -0.22672772724E+02  0.53642575469E+00 -0.80049884074E+01  0.24050409871E+02  0.00000000000E+00 0. -1.
</event>
<event>
 7    1  0.2937071E-011  0.5052886E+02  0.7816164E-02  0.1300439E+00
        -11   -1    0    0    0    0  0.00000000000E+00  0.00000000000E+00  0.45593999997E+02  0.45594000000E+02  0.51100000000E-03 0. -1.
         11   -1    0    0    0    0 -0.00000000000E+00 -0.00000000000E+00 -0.45593999997E+02  0.45594000000E+02  0.51100000000E-03 0.  1.
    9900012    2    1    2    0    0 -0.38167771997E+02  0.10761682040E+02  0.89762415730E+01  0.50528861639E+02  0.30000005437E+02 0.  0.
        -12    1    1    2    0    0  0.38167771997E+02 -0.10761682040E+02 -0.89762415730E+01  0.40659138361E+02  0.00000000000E+00 0.  1.
         11    1    3    3    0    0 -0.45972788888E+01  0.10730156469E+01  0.11253223128E+02  0.12203334249E+02  0.51100000000E-03 0. -1.
        -11    1    3    3    0    0 -0.16944288905E+02  0.19310331566E+01 -0.83647516263E+01  0.18994917362E+02  0.51100000000E-03 0.  1.
         12    1    3    3    0    0 -0.16626204203E+02  0.77576332362E+01  0.60877700712E+01  0.19330610028E+02  0.00000000000E+00 0. -1.
</event>
<event>
 7    1  0.2937071E-011  0.5052886E+02  0.7816164E-02  0.1300439E+00
        -11   -1    0    0    0    0  0.00000000000E+00  0.00000000000E+00  0.45593999997E+02  0.45594000000E+02  0.51100000000E-03 0.  1.
         11   -1    0    0    0    0 -0.00000000000E+00 -0.00000000000E+00 -0.45593999997E+02  0.45594000000E+02  0.51100000000E-03 0. -1.
    9900012    2    1    2    0    0  0.38327812131E+02 -0.51700031505E+01 -0.12546544019E+02  0.50528857336E+02  0.29999992358E+02 0.  0.
        -12    1    1    2    0    0 -0.38327812131E+02  0.51700031505E+01  0.12546544019E+02  0.40659142664E+02  0.00000000000E+00 0.  1.
         11    1    3    3    0    0  0.30803618797E+01 -0.36343053148E+01 -0.28825188009E+01  0.55682779501E+01  0.51100000000E-03 0. -1.
        -11    1    3    3    0    0  0.56004530813E+00 -0.50855043351E+01  0.49818096005E+01  0.71410385971E+01  0.51100000000E-03 0.  1.
         12    1    3    3    0    0  0.34687404944E+02  0.35498064994E+01 -0.14645834819E+02  0.37819540788E+02  0.00000000000E+00 0. -1.
</event>
<event>
 7    1  0.2937071E-011  0.5052886E+02  0.7816164E-02  0.1300439E+00
        -11   -1    0    0    0    0  0.00000000000E+00  0.00000000000E+00  0.45593999997E+02  0.45594000000E+02  0.51100000000E-03 0.  1.
         11   -1    0    0    0    0 -0.00000000000E+00 -0.00000000000E+00 -0.45593999997E+02  0.45594000000E+02  0.51100000000E-03 0. -1.
    9900012    2    1    2    0    0 -0.13485510435E+02 -0.16926116469E+02 -0.34421111750E+02  0.50528863947E+02  0.30000012455E+02 0.  0.
        -12    1    1    2    0    0  0.13485510435E+02  0.16926116469E+02  0.34421111750E+02  0.40659136053E+02  0.00000000000E+00 0.  1.
         11    1    3    3    0    0 -0.24379142595E+01 -0.30091734655E+01 -0.26240557905E+02  0.26524807828E+02  0.51100000000E-03 0. -1.
        -11    1    3    3    0    0 -0.19824278895E+01 -0.12153444490E+02 -0.81538013937E+01  0.14768910276E+02  0.51100000000E-03 0.  1.
        -12    1    3    3    0    0 -0.90651682863E+01 -0.17634985134E+01 -0.26752451809E-01  0.92351458439E+01  0.00000000000E+00 0.  1.
</event>
<event>
 7    1  0.2937071E-011  0.5052886E+02  0.7816164E-02  0.1300439E+00
        -11   -1    0    0    0    0  0.00000000000E+00  0.00000000000E+00  0.45593999997E+02  0.45594000000E+02  0.51100000000E-03 0. -1.
         11   -1    0    0    0    0 -0.00000000000E+00 -0.00000000000E+00 -0.45593999997E+02  0.45594000000E+02  0.51100000000E-03 0.  1.
    9900012    2    1    2    0    0  0.25601956742E+02 -0.27818053966E+02  0.14961984152E+02  0.50528864677E+02  0.30000014672E+02 0.  0.
        -12    1    1    2    0    0 -0.25601956742E+02  0.27818053966E+02 -0.14961984152E+02  0.40659135323E+02  0.00000000000E+00 0.  1.
         11    1    3    3    0    0  0.26016630158E+01 -0.77205585118E+01  0.13324906306E+02  0.15618220210E+02  0.51100000000E-03 0. -1.
        -11    1    3    3    0    0  0.23658732886E+01 -0.11303746448E+02  0.42995604592E+01  0.12323078373E+02  0.51100000000E-03 0.  1.
        -12    1    3    3    0    0  0.20634420438E+02 -0.87937490053E+01 -0.26624826141E+01  0.22587566094E+02  0.00000000000E+00 0.  1.
</event>
<event>
 7    1  0.2937071E-011  0.5052886E+02  0.7816164E-02  0.1300439E+00
        -11   -1    0    0    0    0  0.00000000000E+00  0.00000000000E+00  0.45593999997E+02  0.45594000000E+02  0.51100000000E-03 0. -1.
         11   -1    0    0    0    0 -0.00000000000E+00 -0.00000000000E+00 -0.45593999997E+02  0.45594000000E+02  0.51100000000E-03 0.  1.
    9900012    2    1    2    0    0  0.53307606106E+01  0.38757211721E+02  0.11073712138E+02  0.50528861180E+02  0.30000004044E+02 0.  0.
        -12    1    1    2    0    0 -0.53307606106E+01 -0.38757211721E+02 -0.11073712138E+02  0.40659138820E+02  0.00000000000E+00 0.  1.
         11    1    3    3    0    0 -0.14345548384E+01  0.20008941539E+01  0.27129194287E+01  0.36635306860E+01  0.51100000000E-03 0. -1.
        -11    1    3    3    0    0  0.84064887703E+00  0.29027939901E+01 -0.81826325366E+01  0.87228652961E+01  0.51100000000E-03 0.  1.
        -12    1    3    3    0    0  0.59246665720E+01  0.33853523577E+02  0.16543425246E+02  0.38142465198E+02  0.00000000000E+00 0.  1.
</event>
<event>
 7    1  0.2937071E-011  0.5052886E+02  0.7816164E-02  0.1300439E+00
        -11   -1    0    0    0    0  0.00000000000E+00  0.00000000000E+00  0.45593999997E+02  0.45594000000E+02  0.51100000000E-03 0. -1.
         11   -1    0    0    0    0 -0.00000000000E+00 -0.00000000000E+00 -0.45593999997E+02  0.45594000000E+02  0.51100000000E-03 0.  1.
    9900012    2    1    2    0    0  0.14892427066E+01 -0.34553271880E+02 -0.21378006648E+02  0.50528860687E+02  0.30000002545E+02 0.  0.
        -12    1    1    2    0    0 -0.14892427066E+01  0.34553271880E+02  0.21378006648E+02  0.40659139313E+02  0.00000000000E+00 0.  1.
         11    1    3    3    0    0  0.24051946249E+01 -0.11240445171E+02 -0.37002055979E+01  0.12075764595E+02  0.51100000000E-03 0. -1.
        -11    1    3    3    0    0 -0.91566845863E+01 -0.22886820559E+02 -0.84138324691E+01  0.26046957692E+02  0.51100000000E-03 0.  1.
        -12    1    3    3    0    0  0.82407326680E+01 -0.42600614963E+00 -0.92639685808E+01  0.12406138400E+02  0.00000000000E+00 0.  1.
</event>
<event>
 7    1  0.3484517E-011  0.5052885E+02  0.7816164E-02  0.1300439E+00
        -11   -1    0    0    0    0  0.00000000000E+00  0.00000000000E+00  0.45593999997E+02  0.45594000000E+02  0.51100000000E-03 0. -1.
         11   -1    0    0    0    0 -0.00000000000E+00 -0.00000000000E+00 -0.45593999997E+02  0.45594000000E+02  0.51100000000E-03 0.  1.
    9900012    2    1    2    0    0  0.11722589667E+02 -0.34610735383E+02  0.17828192171E+02  0.50528849144E+02  0.29999967459E+02 0.  0.
        -12    1    1    2    0    0 -0.11722589667E+02  0.34610735383E+02 -0.17828192171E+02  0.40659150856E+02  0.00000000000E+00 0.  1.
         11    1    3    3    0    0  0.13333441060E+02 -0.32087781059E+02  0.15251738162E+02  0.37947619965E+02  0.51100000000E-03 0. -1.
        -11    1    3    3    0    0  0.38301846423E+01 -0.87603811329E+00 -0.27461010621E+01  0.47936237310E+01  0.51100000000E-03 0.  1.
        -12    1    3    3    0    0 -0.54410360353E+01 -0.16469162106E+01  0.53225550704E+01  0.77876054484E+01  0.00000000000E+00 0.  1.
</event>
<event>
 7    1  0.2937071E-011  0.5052886E+02  0.7816164E-02  0.1300439E+00
        -11   -1    0    0    0    0  0.00000000000E+00  0.00000000000E+00  0.45593999997E+02  0.45594000000E+02  0.51100000000E-03 0.  1.
         11   -1    0    0    0    0 -0.00000000000E+00 -0.00000000000E+00 -0.45593999997E+02  0.45594000000E+02  0.51100000000E-03 0. -1.
    9900012    2    1    2    0    0 -0.60823754457E+01 -0.41362736971E+01 -0.39988266253E+02  0.50528862170E+02  0.30000007051E+02 0.  0.
        -12    1    1    2    0    0  0.60823754457E+01  0.41362736971E+01  0.39988266253E+02  0.40659137830E+02  0.00000000000E+00 0.  1.
         11    1    3    3    0    0  0.50501117066E+01  0.12993190926E+01 -0.11442796518E+02  0.12574953311E+02  0.51100000000E-03 0. -1.
        -11    1    3    3    0    0  0.55229481711E+01 -0.60011794669E+01 -0.11662935103E+02  0.14231695857E+02  0.51100000000E-03 0.  1.
        -12    1    3    3    0    0 -0.16655435323E+02  0.56558667725E+00 -0.16882534632E+02  0.23722213002E+02  0.00000000000E+00 0.  1.
</event>
<event>
 7    1  0.2937071E-011  0.5052890E+02  0.7816164E-02  0.1300439E+00
        -11   -1    0    0    0    0  0.00000000000E+00  0.00000000000E+00  0.45593999997E+02  0.45594000000E+02  0.51100000000E-03 0.  1.
         11   -1    0    0    0    0 -0.00000000000E+00 -0.00000000000E+00 -0.45593999997E+02  0.45594000000E+02  0.51100000000E-03 0. -1.
    9900012    2    1    2    0    0  0.19211345333E+02 -0.87896131154E+01 -0.34739447737E+02  0.50528901175E+02  0.30000125610E+02 0.  0.
        -12    1    1    2    0    0 -0.19211345333E+02  0.87896131154E+01  0.34739447737E+02  0.40659098825E+02  0.00000000000E+00 0.  1.
         11    1    3    3    0    0  0.60902713588E+01  0.76036556492E-01 -0.66514918666E+01  0.90188431129E+01  0.51100000000E-03 0. -1.
        -11    1    3    3    0    0 -0.15585344621E+00  0.65860860195E+01 -0.17183132934E+02  0.18402741020E+02  0.51100000000E-03 0.  1.
        -12    1    3    3    0    0  0.13276927421E+02 -0.15451735691E+02 -0.10904822937E+02  0.23107317042E+02  0.00000000000E+00 0.  1.
</event>
<event>
 7    1  0.2937071E-011  0.5052887E+02  0.7816164E-02  0.1300439E+00
        -11   -1    0    0    0    0  0.00000000000E+00  0.00000000000E+00  0.45593999997E+02  0.45594000000E+02  0.51100000000E-03 0. -1.
         11   -1    0    0    0    0 -0.00000000000E+00 -0.00000000000E+00 -0.45593999997E+02  0.45594000000E+02  0.51100000000E-03 0.  1.
    9900012    2    1    2    0    0 -0.39828698552E+02  0.73854187042E+01 -0.35064757064E+01  0.50528868065E+02  0.30000024972E+02 0.  0.
        -12    1    1    2    0    0  0.39828698552E+02 -0.73854187042E+01  0.35064757064E+01  0.40659131935E+02  0.00000000000E+00 0.  1.
         11    1    3    3    0    0 -0.15053000653E+02 -0.28196491274E+01  0.92359724577E+01  0.17884251099E+02  0.51100000000E-03 0. -1.
        -11    1    3    3    0    0 -0.68789036355E+01 -0.12058851405E+01  0.14221810649E+01  0.71271364124E+01  0.51100000000E-03 0.  1.
        -12    1    3    3    0    0 -0.17896794263E+02  0.11410952972E+02 -0.14164629229E+02  0.25517480554E+02  0.00000000000E+00 0.  1.
</event>
<event>
 7    1  0.2937071E-011  0.5052884E+02  0.7816164E-02  0.1300439E+00
        -11   -1    0    0    0    0  0.00000000000E+00  0.00000000000E+00  0.45593999997E+02  0.45594000000E+02  0.51100000000E-03 0.  1.
         11   -1    0    0    0    0 -0.00000000000E+00 -0.00000000000E+00 -0.45593999997E+02  0.45594000000E+02  0.51100000000E-03 0. -1.
    9900012    2    1    2    0    0  0.14362203663E+02  0.37961030724E+02 -0.24195427970E+01  0.50528844388E+02  0.29999953003E+02 0.  0.
        -12    1    1    2    0    0 -0.14362203663E+02 -0.37961030724E+02  0.24195427970E+01  0.40659155612E+02  0.00000000000E+00 0.  1.
         11    1    3    3    0    0 -0.33813673253E+01  0.23439169758E+02  0.22170245942E+01  0.23785363614E+02  0.51100000000E-03 0. -1.
        -11    1    3    3    0    0  0.52401143690E+01  0.12139037538E+02 -0.74006619978E-01  0.13221970662E+02  0.51100000000E-03 0.  1.
        -12    1    3    3    0    0  0.12503456619E+02  0.23828234280E+01 -0.45625607712E+01  0.13521510112E+02  0.00000000000E+00 0.  1.
</event>
<event>
 7    1  0.2937071E-011  0.5052885E+02  0.7816164E-02  0.1300439E+00
        -11   -1    0    0    0    0  0.00000000000E+00  0.00000000000E+00  0.45593999997E+02  0.45594000000E+02  0.51100000000E-03 0.  1.
         11   -1    0    0    0    0 -0.00000000000E+00 -0.00000000000E+00 -0.45593999997E+02  0.45594000000E+02  0.51100000000E-03 0. -1.
    9900012    2    1    2    0    0 -0.21493300644E+02 -0.10662180441E+02 -0.32825640118E+02  0.50528847113E+02  0.29999961285E+02 0.  0.
        -12    1    1    2    0    0  0.21493300644E+02  0.10662180441E+02  0.32825640118E+02  0.40659152887E+02  0.00000000000E+00 0.  1.
         11    1    3    3    0    0 -0.58575198045E+01  0.56100747780E+01 -0.18737305798E+02  0.20417397143E+02  0.51100000000E-03 0. -1.
        -11    1    3    3    0    0 -0.20040065411E+01  0.26091359685E+01 -0.22626249885E+01  0.39928817687E+01  0.51100000000E-03 0.  1.
         12    1    3    3    0    0 -0.13631774298E+02 -0.18881391187E+02 -0.11825709332E+02  0.26118568201E+02  0.00000000000E+00 0. -1.
</event>
<event>
 7    1  0.2937071E-011  0.5052894E+02  0.7816164E-02  0.1300439E+00
        -11   -1    0    0    0    0  0.00000000000E+00  0.00000000000E+00  0.45593999997E+02  0.45594000000E+02  0.51100000000E-03 0.  1.
         11   -1    0    0    0    0 -0.00000000000E+00 -0.00000000000E+00 -0.45593999997E+02  0.45594000000E+02  0.51100000000E-03 0. -1.
    9900012    2    1    2    0    0  0.20967135927E+02  0.28971447942E+02 -0.19344081591E+02  0.50528941017E+02  0.30000246714E+02 0.  0.
        -12    1    1    2    0    0 -0.20967135927E+02 -0.28971447942E+02  0.19344081591E+02  0.40659058983E+02  0.00000000000E+00 0.  1.
         11    1    3    3    0    0  0.32654188894E+01 -0.40611638554E+01 -0.11229449492E+01  0.53307614844E+01  0.51100000000E-03 0. -1.
        -11    1    3    3    0    0  0.57213600266E+01  0.18367471560E+01  0.17618688227E+01  0.62619312260E+01  0.51100000000E-03 0.  1.
        -12    1    3    3    0    0  0.11980357010E+02  0.31195864641E+02 -0.19983005465E+02  0.38936248306E+02  0.00000000000E+00 0.  1.
</event>
<event>
 7    1  0.2937071E-011  0.5052886E+02  0.7816164E-02  0.1300439E+00
        -11   -1    0    0    0    0  0.00000000000E+00  0.00000000000E+00  0.45593999997E+02  0.45594000000E+02  0.51100000000E-03 0. -1.
         11   -1    0    0    0    0 -0.00000000000E+00 -0.00000000000E+00 -0.45593999997E+02  0.45594000000E+02  0.51100000000E-03 0.  1.
    9900012    2    1    2    0    0  0.11256675180E+02 -0.38246383415E+02  0.79791769912E+01  0.50528857782E+02  0.29999993715E+02 0.  0.
        -12    1    1    2    0    0 -0.11256675180E+02  0.38246383415E+02 -0.79791769912E+01  0.40659142218E+02  0.00000000000E+00 0.  1.
         11    1    3    3    0    0  0.41132768736E+01 -0.18539274795E+02  0.11206061108E+02  0.22049933388E+02  0.51100000000E-03 0. -1.
        -11    1    3    3    0    0 -0.12774827735E+01 -0.19832562246E+02 -0.22446634640E+01  0.20000025045E+02  0.51100000000E-03 0.  1.
        -12    1    3    3    0    0  0.84208810799E+01  0.12545362609E+00 -0.98222065266E+00  0.84788993498E+01  0.00000000000E+00 0.  1.
</event>
<event>
 7    1  0.2937071E-011  0.5052886E+02  0.7816164E-02  0.1300439E+00
        -11   -1    0    0    0    0  0.00000000000E+00  0.00000000000E+00  0.45593999997E+02  0.45594000000E+02  0.51100000000E-03 0. -1.
         11   -1    0    0    0    0 -0.00000000000E+00 -0.00000000000E+00 -0.45593999997E+02  0.45594000000E+02  0.51100000000E-03 0.  1.
    9900012    2    1    2    0    0 -0.34556245815E+02 -0.10371860581E+02  0.18747167789E+02  0.50528856910E+02  0.29999991063E+02 0.  0.
        -12    1    1    2    0    0  0.34556245815E+02  0.10371860581E+02 -0.18747167789E+02  0.40659143090E+02  0.00000000000E+00 0.  1.
         11    1    3    3    0    0 -0.15138056219E+02 -0.58387178526E+01  0.95314385727E+00  0.16252995284E+02  0.51100000000E-03 0. -1.
        -11    1    3    3    0    0 -0.22763645041E+01  0.58453713781E+01 -0.15091786561E+01  0.64519626767E+01  0.51100000000E-03 0.  1.
         12    1    3    3    0    0 -0.17141825092E+02 -0.10378514107E+02  0.19303202588E+02  0.27823898949E+02  0.00000000000E+00 0. -1.
</event>
<event>
 7    1  0.2937071E-011  0.5052885E+02  0.7816164E-02  0.1300439E+00
        -11   -1    0    0    0    0  0.00000000000E+00  0.00000000000E+00  0.45593999997E+02  0.45594000000E+02  0.51100000000E-03 0.  1.
         11   -1    0    0    0    0 -0.00000000000E+00 -0.00000000000E+00 -0.45593999997E+02  0.45594000000E+02  0.51100000000E-03 0. -1.
    9900012    2    1    2    0    0 -0.94718827314E+01  0.26674629962E+02 -0.29187572268E+02  0.50528845791E+02  0.29999957265E+02 0.  0.
        -12    1    1    2    0    0  0.94718827314E+01 -0.26674629962E+02  0.29187572268E+02  0.40659154209E+02  0.00000000000E+00 0.  1.
         11    1    3    3    0    0  0.42128604435E+01  0.22904923328E+01 -0.54661296093E+01  0.72713906105E+01  0.51100000000E-03 0. -1.
        -11    1    3    3    0    0 -0.43695384412E+00 -0.37469708555E+01 -0.70007399234E+01  0.79524259814E+01  0.51100000000E-03 0.  1.
        -12    1    3    3    0    0 -0.13247789331E+02  0.28131108485E+02 -0.16720702736E+02  0.35305029199E+02  0.00000000000E+00 0.  1.
</event>
<event>
 7    1  0.2937071E-011  0.5052886E+02  0.7816164E-02  0.1300439E+00
        -11   -1    0    0    0    0  0.00000000000E+00  0.00000000000E+00  0.45593999997E+02  0.45594000000E+02  0.51100000000E-03 0.  1.
         11   -1    0    0    0    0 -0.00000000000E+00 -0.00000000000E+00 -0.45593999997E+02  0.45594000000E+02  0.51100000000E-03 0. -1.
    9900012    2    1    2    0    0 -0.16270131847E+02  0.23646117803E+01 -0.37186789844E+02  0.50528856894E+02  0.29999991016E+02 0.  0.
        -12    1    1    2    0    0  0.16270131847E+02 -0.23646117803E+01  0.37186789844E+02  0.40659143106E+02  0.00000000000E+00 0.  1.
         11    1    3    3    0    0  0.25389257285E+01 -0.98524768578E+00 -0.15607518963E+02  0.15843342618E+02  0.51100000000E-03 0. -1.
        -11    1    3    3    0    0  0.37135984299E+01  0.12979249297E+01 -0.88886085821E+00  0.40330504966E+01  0.51100000000E-03 0.  1.
         12    1    3    3    0    0 -0.22522656005E+02  0.20519345365E+01 -0.20690410023E+02  0.30652463780E+02  0.00000000000E+00 0. -1.
</event>
<event>
 7    1  0.2937071E-011  0.5052885E+02  0.7816164E-02  0.1300439E+00
        -11   -1    0    0    0    0  0.00000000000E+00  0.00000000000E+00  0.45593999997E+02  0.45594000000E+02  0.51100000000E-03 0. -1.
         11   -1    0    0    0    0 -0.00000000000E+00 -0.00000000000E+00 -0.45593999997E+02  0.45594000000E+02  0.51100000000E-03 0.  1.
    9900012    2    1    2    0    0 -0.20612475426E+02  0.15875535486E+02  0.31245156466E+02  0.50528848844E+02  0.29999966546E+02 0.  0.
        -12    1    1    2    0    0  0.20612475426E+02 -0.15875535486E+02 -0.31245156466E+02  0.40659151156E+02  0.00000000000E+00 0.  1.
         11    1    3    3    0    0 -0.15475820967E+02  0.14979298831E+01  0.20343565068E+02  0.25604793858E+02  0.51100000000E-03 0. -1.
        -11    1    3    3    0    0 -0.69683645723E+01  0.53160198239E+01  0.12773772861E+02  0.15491528167E+02  0.51100000000E-03 0.  1.
        -12    1    3    3    0    0  0.18317101132E+01  0.90615857793E+01 -0.18721814634E+01  0.94325268198E+01  0.00000000000E+00 0.  1.
</event>
<event>
 7    1  0.2937071E-011  0.5052886E+02  0.7816164E-02  0.1300439E+00
        -11   -1    0    0    0    0  0.00000000000E+00  0.00000000000E+00  0.45593999997E+02  0.45594000000E+02  0.51100000000E-03 0.  1.
         11   -1    0    0    0    0 -0.00000000000E+00 -0.00000000000E+00 -0.45593999997E+02  0.45594000000E+02  0.51100000000E-03 0. -1.
    9900012    2    1    2    0    0 -0.23983014513E+01 -0.37380287573E+02 -0.15815423119E+02  0.50528863790E+02  0.30000011977E+02 0.  0.
        -12    1    1    2    0    0  0.23983014513E+01  0.37380287573E+02  0.15815423119E+02  0.40659136210E+02  0.00000000000E+00 0.  1.
         11    1    3    3    0    0 -0.12573449254E+02 -0.18914836148E+02 -0.87898063888E+01  0.24354123866E+02  0.51100000000E-03 0. -1.
        -11    1    3    3    0    0 -0.29485954431E+01 -0.23248071899E+01 -0.33859036219E+01  0.50560149481E+01  0.51100000000E-03 0.  1.
         12    1    3    3    0    0  0.13123743246E+02 -0.16140644235E+02 -0.36397131079E+01  0.21118724976E+02  0.00000000000E+00 0. -1.
</event>
<event>
 7    1  0.2937071E-011  0.5052886E+02  0.7816164E-02  0.1300439E+00
        -11   -1    0    0    0    0  0.00000000000E+00  0.00000000000E+00  0.45593999997E+02  0.45594000000E+02  0.51100000000E-03 0.  1.
         11   -1    0    0    0    0 -0.00000000000E+00 -0.00000000000E+00 -0.45593999997E+02  0.45594000000E+02  0.51100000000E-03 0. -1.
    9900012    2    1    2    0    0 -0.35613968300E+02  0.45791482294E+01  0.19074652789E+02  0.50528859385E+02  0.29999998586E+02 0.  0.
        -12    1    1    2    0    0  0.35613968300E+02 -0.45791482294E+01 -0.19074652789E+02  0.40659140615E+02  0.00000000000E+00 0.  1.
         11    1    3    3    0    0 -0.12419089521E+02  0.29478965707E+01  0.17342220286E+02  0.21533148479E+02  0.51100000000E-03 0. -1.
        -11    1    3    3    0    0 -0.62546935666E+01  0.40894168574E+00  0.86285020699E+01  0.10664870986E+02  0.51100000000E-03 0.  1.
         12    1    3    3    0    0 -0.16940185212E+02  0.12223099730E+01 -0.68960695667E+01  0.18330839920E+02  0.00000000000E+00 0. -1.
</event>
<event>
 7    1  0.2937071E-011  0.5052885E+02  0.7816164E-02  0.1300439E+00
        -11   -1    0    0    0    0  0.00000000000E+00  0.00000000000E+00  0.45593999997E+02  0.45594000000E+02  0.51100000000E-03 0. -1.
         11   -1    0    0    0    0 -0.00000000000E+00 -0.00000000000E+00 -0.45593999997E+02  0.45594000000E+02  0.51100000000E-03 0.  1.
    9900012    2    1    2    0    0  0.11191474955E+02 -0.38460263993E+02 -0.69803421995E+01  0.50528853486E+02  0.29999980655E+02 0.  0.
        -12    1    1    2    0    0 -0.11191474955E+02  0.38460263993E+02  0.69803421995E+01  0.40659146514E+02  0.00000000000E+00 0.  1.
         11    1    3    3    0    0  0.16084754333E+02 -0.21765755824E+02 -0.65203345851E+00  0.27071989148E+02  0.51100000000E-03 0. -1.
        -11    1    3    3    0    0 -0.16208557717E+01 -0.10204876866E+01  0.39777333294E+01  0.44148534803E+01  0.51100000000E-03 0.  1.
        -12    1    3    3    0    0 -0.32724236064E+01 -0.15674020482E+02 -0.10306042070E+02  0.19042010857E+02  0.00000000000E+00 0.  1.
</event>
<event>
 7    1  0.2937071E-011  0.5052886E+02  0.7816164E-02  0.1300439E+00
        -11   -1    0    0    0    0  0.00000000000E+00  0.00000000000E+00  0.45593999997E+02  0.45594000000E+02  0.51100000000E-03 0. -1.
         11   -1    0    0    0    0 -0.00000000000E+00 -0.00000000000E+00 -0.45593999997E+02  0.45594000000E+02  0.51100000000E-03 0.  1.
    9900012    2    1    2    0    0 -0.10651249933E+02  0.34592135348E+02  0.18522974574E+02  0.50528861542E+02  0.30000005142E+02 0.  0.
        -12    1    1    2    0    0  0.10651249933E+02 -0.34592135348E+02 -0.18522974574E+02  0.40659138458E+02  0.00000000000E+00 0.  1.
         11    1    3    3    0    0 -0.11360104464E+01  0.58808214896E+01  0.10226131754E+02  0.11851090753E+02  0.51100000000E-03 0. -1.
        -11    1    3    3    0    0  0.25100739661E+01  0.57508921988E+01  0.10953080630E+02  0.12623121957E+02  0.51100000000E-03 0.  1.
        -12    1    3    3    0    0 -0.12025313453E+02  0.22960421660E+02 -0.26562378096E+01  0.26054648832E+02  0.00000000000E+00 0.  1.
</event>
<event>
 7    1  0.2937071E-011  0.5052887E+02  0.7816164E-02  0.1300439E+00
        -11   -1    0    0    0    0  0.00000000000E+00  0.00000000000E+00  0.45593999997E+02  0.45594000000E+02  0.51100000000E-03 0. -1.
         11   -1    0    0    0    0 -0.00000000000E+00 -0.00000000000E+00 -0.45593999997E+02  0.45594000000E+02  0.51100000000E-03 0.  1.
    9900012    2    1    2    0    0  0.26751009765E+02  0.67241477394E+00  0.30612030117E+02  0.50528867533E+02  0.30000023353E+02 0.  0.
        -12    1    1    2    0    0 -0.26751009765E+02 -0.67241477394E+00 -0.30612030117E+02  0.40659132467E+02  0.00000000000E+00 0.  1.
         11    1    3    3    0    0  0.19019362102E+02 -0.11731070726E+01  0.31742894477E+02  0.37023285443E+02  0.51100000000E-03 0. -1.
        -11    1    3    3    0    0  0.51409056412E+01 -0.17699229015E+01  0.39742087660E+01  0.67346769385E+01  0.51100000000E-03 0.  1.
        -12    1    3    3    0    0  0.25907420214E+01  0.36154447480E+01 -0.51050731256E+01  0.67709051511E+01  0.00000000000E+00 0.  1.
</event>
<event>
 7    1  0.2937071E-011  0.5052886E+02  0.7816164E-02  0.1300439E+00
        -11   -1    0    0    0    0  0.00000000000E+00  0.00000000000E+00  0.45593999997E+02  0.45594000000E+02  0.51100000000E-03 0. -1.
         11   -1    0    0    0    0 -0.00000000000E+00 -0.00000000000E+00 -0.45593999997E+02  0.45594000000E+02  0.51100000000E-03 0.  1.
    9900012    2    1    2    0    0 -0.56720544953E+01 -0.32843552109E+02  0.23287214594E+02  0.50528862271E+02  0.30000007360E+02 0.  0.
        -12    1    1    2    0    0  0.56720544953E+01  0.32843552109E+02 -0.23287214594E+02  0.40659137729E+02  0.00000000000E+00 0.  1.
         11    1    3    3    0    0 -0.92575005712E+00  0.15176082732E+01  0.29647216201E+01  0.34568370782E+01  0.51100000000E-03 0. -1.
        -11    1    3    3    0    0  0.87471753735E+01 -0.49090916740E+01  0.55959006117E+01  0.11485920163E+02  0.51100000000E-03 0.  1.
         12    1    3    3    0    0 -0.13493479812E+02 -0.29452068708E+02  0.14726592362E+02  0.35586105030E+02  0.00000000000E+00 0. -1.
</event>
<event>
 7    1  0.2937071E-011  0.5052886E+02  0.7816164E-02  0.1300439E+00
        -11   -1    0    0    0    0  0.00000000000E+00  0.00000000000E+00  0.45593999997E+02  0.45594000000E+02  0.51100000000E-03 0.  1.
         11   -1    0    0    0    0 -0.00000000000E+00 -0.00000000000E+00 -0.45593999997E+02  0.45594000000E+02  0.51100000000E-03 0. -1.
    9900012    2    1    2    0    0 -0.71462718967E+01 -0.35660949451E+02 -0.18176723229E+02  0.50528858529E+02  0.29999995986E+02 0.  0.
        -12    1    1    2    0    0  0.71462718967E+01  0.35660949451E+02  0.18176723229E+02  0.40659141471E+02  0.00000000000E+00 0.  1.
         11    1    3    3    0    0  0.94126050946E+01 -0.96457487331E+01 -0.23544588811E+01  0.13681413676E+02  0.51100000000E-03 0.  1.
        -11    1    3    3    0    0 -0.15144311890E+01 -0.10806264111E+02 -0.96896743255E+01  0.14593102297E+02  0.51100000000E-03 0. -1.
        -12    1    3    3    0    0 -0.15044445802E+02 -0.15208936608E+02 -0.61325900222E+01  0.22254342556E+02  0.00000000000E+00 0.  1.
</event>
<event>
 7    1  0.2937071E-011  0.5052886E+02  0.7816164E-02  0.1300439E+00
        -11   -1    0    0    0    0  0.00000000000E+00  0.00000000000E+00  0.45593999997E+02  0.45594000000E+02  0.51100000000E-03 0.  1.
         11   -1    0    0    0    0 -0.00000000000E+00 -0.00000000000E+00 -0.45593999997E+02  0.45594000000E+02  0.51100000000E-03 0. -1.
    9900012    2    1    2    0    0  0.13781942619E+02  0.58464770197E+01 -0.37802677134E+02  0.50528860383E+02  0.30000001620E+02 0.  0.
        -12    1    1    2    0    0 -0.13781942619E+02 -0.58464770197E+01  0.37802677134E+02  0.40659139617E+02  0.00000000000E+00 0.  1.
         11    1    3    3    0    0 -0.13573569004E+01  0.54246008743E+01 -0.15288576366E+02  0.16279105625E+02  0.51100000000E-03 0. -1.
        -11    1    3    3    0    0 -0.32178684728E+00 -0.43750416613E+01  0.20412512909E+01  0.48385166535E+01  0.51100000000E-03 0.  1.
        -12    1    3    3    0    0  0.15461086366E+02  0.47969178066E+01 -0.24555352059E+02  0.29411238104E+02  0.00000000000E+00 0.  1.
</event>
<event>
 7    1  0.2937071E-011  0.5052886E+02  0.7816164E-02  0.1300439E+00
        -11   -1    0    0    0    0  0.00000000000E+00  0.00000000000E+00  0.45593999997E+02  0.45594000000E+02  0.51100000000E-03 0.  1.
         11   -1    0    0    0    0 -0.00000000000E+00 -0.00000000000E+00 -0.45593999997E+02  0.45594000000E+02  0.51100000000E-03 0. -1.
    9900012    2    1    2    0    0 -0.11719674641E+01  0.26423131036E+02 -0.30880577572E+02  0.50528862864E+02  0.30000009161E+02 0.  0.
        -12    1    1    2    0    0  0.11719674641E+01 -0.26423131036E+02  0.30880577572E+02  0.40659137136E+02  0.00000000000E+00 0.  1.
         11    1    3    3    0    0  0.61737849533E+01  0.14237314739E+02 -0.96531753890E+01  0.18275681847E+02  0.51100000000E-03 0. -1.
        -11    1    3    3    0    0  0.19479986161E+01 -0.31135508011E+01 -0.11087244915E+02  0.11679721627E+02  0.51100000000E-03 0.  1.
         12    1    3    3    0    0 -0.92937510335E+01  0.15299367097E+02 -0.10140157268E+02  0.20573459390E+02  0.00000000000E+00 0. -1.
</event>
<event>
 7    1  0.2937071E-011  0.5052887E+02  0.7816164E-02  0.1300439E+00
        -11   -1    0    0    0    0  0.00000000000E+00  0.00000000000E+00  0.45593999997E+02  0.45594000000E+02  0.51100000000E-03 0.  1.
         11   -1    0    0    0    0 -0.00000000000E+00 -0.00000000000E+00 -0.45593999997E+02  0.45594000000E+02  0.51100000000E-03 0. -1.
    9900012    2    1    2    0    0  0.26799435706E+02  0.48495470132E+01 -0.30190013877E+02  0.50528870665E+02  0.30000032872E+02 0.  0.
        -12    1    1    2    0    0 -0.26799435706E+02 -0.48495470132E+01  0.30190013877E+02  0.40659129335E+02  0.00000000000E+00 0.  1.
         11    1    3    3    0    0  0.14594954679E+02  0.89105106721E+01 -0.12022032388E+02  0.20903089856E+02  0.51100000000E-03 0. -1.
        -11    1    3    3    0    0  0.10266792245E+02  0.61550737034E+01 -0.53258327661E+01  0.13101772789E+02  0.51100000000E-03 0.  1.
        -12    1    3    3    0    0  0.19376887814E+01 -0.10216037362E+02 -0.12842148723E+02  0.16524008020E+02  0.00000000000E+00 0.  1.
</event>
<event>
 7    1  0.2937071E-011  0.5052886E+02  0.7816164E-02  0.1300439E+00
        -11   -1    0    0    0    0  0.00000000000E+00  0.00000000000E+00  0.45593999997E+02  0.45594000000E+02  0.51100000000E-03 0.  1.
         11   -1    0    0    0    0 -0.00000000000E+00 -0.00000000000E+00 -0.45593999997E+02  0.45594000000E+02  0.51100000000E-03 0. -1.
    9900012    2    1    2    0    0 -0.10415849532E+02 -0.77780965954E+01 -0.38525018909E+02  0.50528858469E+02  0.29999995803E+02 0.  0.
        -12    1    1    2    0    0  0.10415849532E+02  0.77780965954E+01  0.38525018909E+02  0.40659141531E+02  0.00000000000E+00 0.  1.
         11    1    3    3    0    0 -0.13253306648E+02 -0.21201527982E+01 -0.10948759500E+02  0.17321100423E+02  0.51100000000E-03 0. -1.
        -11    1    3    3    0    0 -0.63073959274E+01 -0.41575998093E+01 -0.19511228730E+02  0.20922641477E+02  0.51100000000E-03 0.  1.
        -12    1    3    3    0    0  0.91448530440E+01 -0.15003439879E+01 -0.80650306779E+01  0.12285116569E+02  0.00000000000E+00 0.  1.
</event>
<event>
 7    1  0.2937071E-011  0.5052887E+02  0.7816164E-02  0.1300439E+00
        -11   -1    0    0    0    0  0.00000000000E+00  0.00000000000E+00  0.45593999997E+02  0.45594000000E+02  0.51100000000E-03 0. -1.
         11   -1    0    0    0    0 -0.00000000000E+00 -0.00000000000E+00 -0.45593999997E+02  0.45594000000E+02  0.51100000000E-03 0.  1.
    9900012    2    1    2    0    0 -0.33787340870E+02 -0.21458713968E+02 -0.71487285242E+01  0.50528866613E+02  0.30000020558E+02 0.  0.
        -12    1    1    2    0    0  0.33787340870E+02  0.21458713968E+02  0.71487285242E+01  0.40659133387E+02  0.00000000000E+00 0.  1.
         11    1    3    3    0    0  0.82606151836E+00 -0.14436396748E+01 -0.50528126559E+01  0.53195290336E+01  0.51100000000E-03 0. -1.
        -11    1    3    3    0    0 -0.88582321388E+01 -0.75447863191E+01 -0.10194611305E+02  0.15470041278E+02  0.51100000000E-03 0.  1.
         12    1    3    3    0    0 -0.25755170250E+02 -0.12470287974E+02  0.80986954363E+01  0.29739296302E+02  0.00000000000E+00 0. -1.
</event>
<event>
 7    1  0.2937071E-011  0.5052886E+02  0.7816164E-02  0.1300439E+00
        -11   -1    0    0    0    0  0.00000000000E+00  0.00000000000E+00  0.45593999997E+02  0.45594000000E+02  0.51100000000E-03 0.  1.
         11   -1    0    0    0    0 -0.00000000000E+00 -0.00000000000E+00 -0.45593999997E+02  0.45594000000E+02  0.51100000000E-03 0. -1.
    9900012    2    1    2    0    0  0.22615788060E+02 -0.16307938334E+02 -0.29592956534E+02  0.50528858362E+02  0.29999995479E+02 0.  0.
        -12    1    1    2    0    0 -0.22615788060E+02  0.16307938334E+02  0.29592956534E+02  0.40659141638E+02  0.00000000000E+00 0.  1.
         11    1    3    3    0    0 -0.39999737350E+01 -0.38536858079E+01 -0.13737101191E+02  0.14817511045E+02  0.51100000000E-03 0. -1.
        -11    1    3    3    0    0  0.43679672815E+00 -0.46489352892E+01 -0.19859392368E+01  0.50741842317E+01  0.51100000000E-03 0.  1.
        -12    1    3    3    0    0  0.26178965067E+02 -0.78053172367E+01 -0.13869916107E+02  0.30637163086E+02  0.00000000000E+00 0.  1.
</event>
<event>
 7    1  0.2937071E-011  0.5052886E+02  0.7816164E-02  0.1300439E+00
        -11   -1    0    0    0    0  0.00000000000E+00  0.00000000000E+00  0.45593999997E+02  0.45594000000E+02  0.51100000000E-03 0.  1.
         11   -1    0    0    0    0 -0.00000000000E+00 -0.00000000000E+00 -0.45593999997E+02  0.45594000000E+02  0.51100000000E-03 0. -1.
    9900012    2    1    2    0    0  0.16416470388E+02 -0.11363172181E+02 -0.35419540711E+02  0.50528855319E+02  0.29999986229E+02 0.  0.
        -12    1    1    2    0    0 -0.16416470388E+02  0.11363172181E+02  0.35419540711E+02  0.40659144681E+02  0.00000000000E+00 0.  1.
         11    1    3    3    0    0 -0.26176737029E+00  0.57970600607E+01 -0.16524286767E+01  0.60336513238E+01  0.51100000000E-03 0. -1.
        -11    1    3    3    0    0 -0.16006915527E+01 -0.83264265824E+01 -0.76860953658E+01  0.11444110071E+02  0.51100000000E-03 0.  1.
         12    1    3    3    0    0  0.18278929311E+02 -0.88338056594E+01 -0.26081016668E+02  0.33051093925E+02  0.00000000000E+00 0. -1.
</event>
<event>
 7    1  0.2937071E-011  0.5052886E+02  0.7816164E-02  0.1300439E+00
        -11   -1    0    0    0    0  0.00000000000E+00  0.00000000000E+00  0.45593999997E+02  0.45594000000E+02  0.51100000000E-03 0.  1.
         11   -1    0    0    0    0 -0.00000000000E+00 -0.00000000000E+00 -0.45593999997E+02  0.45594000000E+02  0.51100000000E-03 0. -1.
    9900012    2    1    2    0    0 -0.16260179661E+02 -0.10056357470E+02 -0.35883730327E+02  0.50528857481E+02  0.29999992799E+02 0.  0.
        -12    1    1    2    0    0  0.16260179661E+02  0.10056357470E+02  0.35883730327E+02  0.40659142519E+02  0.00000000000E+00 0.  1.
         11    1    3    3    0    0  0.23215048150E+01 -0.17852159575E+00  0.19514138056E+00  0.23365219849E+01  0.51100000000E-03 0. -1.
        -11    1    3    3    0    0  0.51301270437E+01 -0.15110469474E+01 -0.13019322665E+02  0.14074950418E+02  0.51100000000E-03 0.  1.
         12    1    3    3    0    0 -0.23711811519E+02 -0.83667889272E+01 -0.23059549043E+02  0.34117385078E+02  0.00000000000E+00 0. -1.
</event>
<event>
 7    1  0.2937071E-011  0.5052886E+02  0.7816164E-02  0.1300439E+00
        -11   -1    0    0    0    0  0.00000000000E+00  0.00000000000E+00  0.45593999997E+02  0.45594000000E+02  0.51100000000E-03 0.  1.
         11   -1    0    0    0    0 -0.00000000000E+00 -0.00000000000E+00 -0.45593999997E+02  0.45594000000E+02  0.51100000000E-03 0. -1.
    9900012    2    1    2    0    0 -0.30821957484E+00  0.24398782354E+01 -0.40584694666E+02  0.50528862697E+02  0.30000008654E+02 0.  0.
        -12    1    1    2    0    0  0.30821957484E+00 -0.24398782354E+01  0.40584694666E+02  0.40659137303E+02  0.00000000000E+00 0.  1.
         11    1    3    3    0    0 -0.18450886271E+01  0.20388647270E+01 -0.41664141038E+00  0.27811709302E+01  0.51100000000E-03 0. -1.
        -11    1    3    3    0    0  0.30960177099E+01 -0.12456822545E+02 -0.18916050218E+02  0.22859893037E+02  0.51100000000E-03 0.  1.
         12    1    3    3    0    0 -0.15591486576E+01  0.12857836053E+02 -0.21252003037E+02  0.24887798730E+02  0.00000000000E+00 0. -1.
</event>
<event>
 7    1  0.2937071E-011  0.5052886E+02  0.7816164E-02  0.1300439E+00
        -11   -1    0    0    0    0  0.00000000000E+00  0.00000000000E+00  0.45593999997E+02  0.45594000000E+02  0.51100000000E-03 0. -1.
         11   -1    0    0    0    0 -0.00000000000E+00 -0.00000000000E+00 -0.45593999997E+02  0.45594000000E+02  0.51100000000E-03 0.  1.
    9900012    2    1    2    0    0 -0.23954094787E+02 -0.31246064678E+02  0.10151376412E+02  0.50528860092E+02  0.30000000737E+02 0.  0.
        -12    1    1    2    0    0  0.23954094787E+02  0.31246064678E+02 -0.10151376412E+02  0.40659139908E+02  0.00000000000E+00 0.  1.
         11    1    3    3    0    0 -0.87553517892E+01 -0.91833690739E+01  0.11781413112E+02  0.17314506856E+02  0.51100000000E-03 0.  1.
        -11    1    3    3    0    0 -0.27662560683E+01 -0.12483249412E+02  0.77291715949E+01  0.14940675431E+02  0.51100000000E-03 0. -1.
        -12    1    3    3    0    0 -0.12432486930E+02 -0.95794461924E+01 -0.93592082951E+01  0.18273677805E+02  0.00000000000E+00 0.  1.
</event>
<event>
 7    1  0.2937071E-011  0.5052886E+02  0.7816164E-02  0.1300439E+00
        -11   -1    0    0    0    0  0.00000000000E+00  0.00000000000E+00  0.45593999997E+02  0.45594000000E+02  0.51100000000E-03 0.  1.
         11   -1    0    0    0    0 -0.00000000000E+00 -0.00000000000E+00 -0.45593999997E+02  0.45594000000E+02  0.51100000000E-03 0. -1.
    9900012    2    1    2    0    0 -0.32796200982E+02 -0.15982107994E+02 -0.17948445500E+02  0.50528864856E+02  0.30000015218E+02 0.  0.
        -12    1    1    2    0    0  0.32796200982E+02  0.15982107994E+02  0.17948445500E+02  0.40659135144E+02  0.00000000000E+00 0.  1.
         11    1    3    3    0    0 -0.13088351680E+02 -0.81200130207E+01  0.13706470545E+01  0.15463448347E+02  0.51100000000E-03 0. -1.
        -11    1    3    3    0    0 -0.51070370112E+01  0.67864233451E+01 -0.68816938029E+01  0.10931380458E+02  0.51100000000E-03 0.  1.
         12    1    3    3    0    0 -0.14600812290E+02 -0.14648518318E+02 -0.12437398752E+02  0.24134036052E+02  0.00000000000E+00 0. -1.
</event>
<event>
 7    1  0.2937071E-011  0.5052886E+02  0.7816164E-02  0.1300439E+00
        -11   -1    0    0    0    0  0.00000000000E+00  0.00000000000E+00  0.45593999997E+02  0.45594000000E+02  0.51100000000E-03 0.  1.
         11   -1    0    0    0    0 -0.00000000000E+00 -0.00000000000E+00 -0.45593999997E+02  0.45594000000E+02  0.51100000000E-03 0. -1.
    9900012    2    1    2    0    0 -0.20947248563E+02  0.12712205865E+02 -0.32446544750E+02  0.50528859988E+02  0.30000000419E+02 0.  0.
        -12    1    1    2    0    0  0.20947248563E+02 -0.12712205865E+02  0.32446544750E+02  0.40659140012E+02  0.00000000000E+00 0.  1.
         11    1    3    3    0    0 -0.22219090491E+02  0.13780709285E+02 -0.22868498655E+02  0.34735632449E+02  0.51100000000E-03 0.  1.
        -11    1    3    3    0    0 -0.53694101657E+01  0.11922320252E+01 -0.35749122201E+01  0.65598765515E+01  0.51100000000E-03 0. -1.
        -12    1    3    3    0    0  0.66412520937E+01 -0.22607354457E+01 -0.60031338751E+01  0.92333509870E+01  0.00000000000E+00 0.  1.
</event>
<event>
 7    1  0.2937071E-011  0.5052887E+02  0.7816164E-02  0.1300439E+00
        -11   -1    0    0    0    0  0.00000000000E+00  0.00000000000E+00  0.45593999997E+02  0.45594000000E+02  0.51100000000E-03 0.  1.
         11   -1    0    0    0    0 -0.00000000000E+00 -0.00000000000E+00 -0.45593999997E+02  0.45594000000E+02  0.51100000000E-03 0. -1.
    9900012    2    1    2    0    0  0.15848028953E+02 -0.62198374212E+01 -0.36923146239E+02  0.50528866617E+02  0.30000020570E+02 0.  0.
        -12    1    1    2    0    0 -0.15848028953E+02  0.62198374212E+01  0.36923146239E+02  0.40659133383E+02  0.00000000000E+00 0.  1.
         11    1    3    3    0    0  0.12019865017E+02 -0.49053299289E+01  0.25682331702E+00  0.12984813253E+02  0.51100000000E-03 0.  1.
        -11    1    3    3    0    0 -0.25813282646E+00 -0.10666395725E+01 -0.94541744402E+01  0.95176555485E+01  0.51100000000E-03 0. -1.
        -12    1    3    3    0    0  0.40862967632E+01 -0.24786791978E+00 -0.27725795116E+02  0.28026397816E+02  0.00000000000E+00 0.  1.
</event>
<event>
 7    1  0.2937071E-011  0.5052890E+02  0.7816164E-02  0.1300439E+00
        -11   -1    0    0    0    0  0.00000000000E+00  0.00000000000E+00  0.45593999997E+02  0.45594000000E+02  0.51100000000E-03 0.  1.
         11   -1    0    0    0    0 -0.00000000000E+00 -0.00000000000E+00 -0.45593999997E+02  0.45594000000E+02  0.51100000000E-03 0. -1.
    9900012    2    1    2    0    0 -0.73818907856E+01 -0.32214180484E+02 -0.23683687135E+02  0.50528895581E+02  0.30000108607E+02 0.  0.
        -12    1    1    2    0    0  0.73818907856E+01  0.32214180484E+02  0.23683687135E+02  0.40659104419E+02  0.00000000000E+00 0.  1.
         11    1    3    3    0    0 -0.38758653920E+01  0.23338904731E+01 -0.60974211875E+00  0.45652122612E+01  0.51100000000E-03 0. -1.
        -11    1    3    3    0    0 -0.50909016047E+01  0.69103790048E-01 -0.26587967155E+01  0.57438014171E+01  0.51100000000E-03 0.  1.
         12    1    3    3    0    0  0.15848762111E+01 -0.34617174747E+02 -0.20415148301E+02  0.40219881903E+02  0.00000000000E+00 0. -1.
</event>
<event>
 7    1  0.2937071E-011  0.5052886E+02  0.7816164E-02  0.1300439E+00
        -11   -1    0    0    0    0  0.00000000000E+00  0.00000000000E+00  0.45593999997E+02  0.45594000000E+02  0.51100000000E-03 0.  1.
         11   -1    0    0    0    0 -0.00000000000E+00 -0.00000000000E+00 -0.45593999997E+02  0.45594000000E+02  0.51100000000E-03 0. -1.
    9900012    2    1    2    0    0 -0.47509247844E+01  0.26652753010E+02 -0.30335209907E+02  0.50528862166E+02  0.30000007039E+02 0.  0.
        -12    1    1    2    0    0  0.47509247844E+01 -0.26652753010E+02  0.30335209907E+02  0.40659137834E+02  0.00000000000E+00 0.  1.
         11    1    3    3    0    0  0.86725103678E+01  0.72055206782E+01 -0.15138872592E+02  0.18876372214E+02  0.51100000000E-03 0. -1.
        -11    1    3    3    0    0 -0.71131614455E+01  0.23553581201E+00 -0.65062052146E+01  0.96427822450E+01  0.51100000000E-03 0.  1.
        -12    1    3    3    0    0 -0.63102737067E+01  0.19211696520E+02 -0.86901321000E+01  0.22009707707E+02  0.00000000000E+00 0.  1.
</event>
<event>
 7    1  0.2937071E-011  0.5052885E+02  0.7816164E-02  0.1300439E+00
        -11   -1    0    0    0    0  0.00000000000E+00  0.00000000000E+00  0.45593999997E+02  0.45594000000E+02  0.51100000000E-03 0. -1.
         11   -1    0    0    0    0 -0.00000000000E+00 -0.00000000000E+00 -0.45593999997E+02  0.45594000000E+02  0.51100000000E-03 0.  1.
    9900012    2    1    2    0    0  0.31106072364E+02 -0.12707335038E+02  0.22893278464E+02  0.50528852192E+02  0.29999976722E+02 0.  0.
        -12    1    1    2    0    0 -0.31106072364E+02  0.12707335038E+02 -0.22893278464E+02  0.40659147808E+02  0.00000000000E+00 0.  1.
         11    1    3    3    0    0  0.19702120783E+02  0.22229348878E+01  0.94044107364E+01  0.21944428550E+02  0.51100000000E-03 0. -1.
        -11    1    3    3    0    0  0.91402902003E+01 -0.18958231693E+01 -0.47739103600E+00  0.93470290947E+01  0.51100000000E-03 0.  1.
         12    1    3    3    0    0  0.22636613812E+01 -0.13034446756E+02  0.13966258763E+02  0.19237394546E+02  0.00000000000E+00 0. -1.
</event>
<event>
 7    1  0.2937071E-011  0.5052884E+02  0.7816164E-02  0.1300439E+00
        -11   -1    0    0    0    0  0.00000000000E+00  0.00000000000E+00  0.45593999997E+02  0.45594000000E+02  0.51100000000E-03 0.  1.
         11   -1    0    0    0    0 -0.00000000000E+00 -0.00000000000E+00 -0.45593999997E+02  0.45594000000E+02  0.51100000000E-03 0. -1.
    9900012    2    1    2    0    0 -0.19091347044E+02 -0.35665570554E+02 -0.40810264537E+01  0.50528840739E+02  0.29999941909E+02 0.  0.
        -12    1    1    2    0    0  0.19091347044E+02  0.35665570554E+02  0.40810264537E+01  0.40659159261E+02  0.00000000000E+00 0.  1.
         11    1    3    3    0    0 -0.81227985193E+01 -0.40306085487E+00  0.82154246924E+00  0.81741816794E+01  0.51100000000E-03 0. -1.
        -11    1    3    3    0    0 -0.27841746715E+01  0.21922655993E+01  0.69037784266E+00  0.36103017722E+01  0.51100000000E-03 0.  1.
        -12    1    3    3    0    0 -0.81843738532E+01 -0.37454775299E+02 -0.55929467656E+01  0.38744357287E+02  0.00000000000E+00 0.  1.
</event>
<event>
 7    1  0.2937071E-011  0.5052886E+02  0.7816164E-02  0.1300439E+00
        -11   -1    0    0    0    0  0.00000000000E+00  0.00000000000E+00  0.45593999997E+02  0.45594000000E+02  0.51100000000E-03 0.  1.
         11   -1    0    0    0    0 -0.00000000000E+00 -0.00000000000E+00 -0.45593999997E+02  0.45594000000E+02  0.51100000000E-03 0. -1.
    9900012    2    1    2    0    0 -0.57752570166E+01  0.55305454428E+01 -0.39865083871E+02  0.50528862791E+02  0.30000008941E+02 0.  0.
        -12    1    1    2    0    0  0.57752570166E+01 -0.55305454428E+01  0.39865083871E+02  0.40659137209E+02  0.00000000000E+00 0.  1.
         11    1    3    3    0    0 -0.70731989324E+00  0.46922064845E+01 -0.21892433699E+02  0.22400798125E+02  0.51100000000E-03 0. -1.
        -11    1    3    3    0    0 -0.24125689554E+00  0.34896015164E+01 -0.21372069129E+02  0.21656427747E+02  0.51100000000E-03 0.  1.
        -12    1    3    3    0    0 -0.48266802278E+01 -0.26512625581E+01  0.33994189570E+01  0.64716369195E+01  0.00000000000E+00 0.  1.
</event>
<event>
 7    1  0.2937071E-011  0.5052886E+02  0.7816164E-02  0.1300439E+00
        -11   -1    0    0    0    0  0.00000000000E+00  0.00000000000E+00  0.45593999997E+02  0.45594000000E+02  0.51100000000E-03 0. -1.
         11   -1    0    0    0    0 -0.00000000000E+00 -0.00000000000E+00 -0.45593999997E+02  0.45594000000E+02  0.51100000000E-03 0.  1.
    9900012    2    1    2    0    0 -0.12225305539E+01 -0.29290354870E+02  0.28173503112E+02  0.50528858999E+02  0.29999997413E+02 0.  0.
        -12    1    1    2    0    0  0.12225305539E+01  0.29290354870E+02 -0.28173503112E+02  0.40659141001E+02  0.00000000000E+00 0.  1.
         11    1    3    3    0    0  0.19600877334E+00 -0.29640158903E+01  0.38528975780E+01  0.48650415872E+01  0.51100000000E-03 0. -1.
        -11    1    3    3    0    0 -0.10374079678E+02 -0.17137225659E+02  0.22822140388E+01  0.20162205575E+02  0.51100000000E-03 0.  1.
        -12    1    3    3    0    0  0.89555403507E+01 -0.91891133208E+01  0.22038391495E+02  0.25501611837E+02  0.00000000000E+00 0.  1.
</event>
<event>
 7    1  0.2937071E-011  0.5052886E+02  0.7816164E-02  0.1300439E+00
        -11   -1    0    0    0    0  0.00000000000E+00  0.00000000000E+00  0.45593999997E+02  0.45594000000E+02  0.51100000000E-03 0.  1.
         11   -1    0    0    0    0 -0.00000000000E+00 -0.00000000000E+00 -0.45593999997E+02  0.45594000000E+02  0.51100000000E-03 0. -1.
    9900012    2    1    2    0    0  0.27313566279E+02 -0.29514993290E+02  0.59999968871E+01  0.50528859645E+02  0.29999999376E+02 0.  0.
        -12    1    1    2    0    0 -0.27313566279E+02  0.29514993290E+02 -0.59999968871E+01  0.40659140355E+02  0.00000000000E+00 0.  1.
         11    1    3    3    0    0  0.61697042718E+01 -0.59620680524E+01 -0.13658161977E+01  0.86877477179E+01  0.51100000000E-03 0. -1.
        -11    1    3    3    0    0  0.13806561147E+02 -0.28579062202E+02  0.28510939455E+01  0.31867109439E+02  0.51100000000E-03 0.  1.
         12    1    3    3    0    0  0.73373008608E+01  0.50261369652E+01  0.45147191393E+01  0.99740024876E+01  0.00000000000E+00 0. -1.
</event>
<event>
 7    1  0.2937071E-011  0.5052886E+02  0.7816164E-02  0.1300439E+00
        -11   -1    0    0    0    0  0.00000000000E+00  0.00000000000E+00  0.45593999997E+02  0.45594000000E+02  0.51100000000E-03 0.  1.
         11   -1    0    0    0    0 -0.00000000000E+00 -0.00000000000E+00 -0.45593999997E+02  0.45594000000E+02  0.51100000000E-03 0. -1.
    9900012    2    1    2    0    0  0.31695313001E+02 -0.20211326904E+02 -0.15494349464E+02  0.50528862444E+02  0.30000007886E+02 0.  0.
        -12    1    1    2    0    0 -0.31695313001E+02  0.20211326904E+02  0.15494349464E+02  0.40659137556E+02  0.00000000000E+00 0.  1.
         11    1    3    3    0    0  0.18984740527E+02 -0.27077806956E+02 -0.83159812387E+01  0.34099612119E+02  0.51100000000E-03 0. -1.
        -11    1    3    3    0    0 -0.70910260802E-01  0.46398824738E+00 -0.11120275944E+00  0.48236881493E+00  0.51100000000E-03 0.  1.
        -12    1    3    3    0    0  0.12781482734E+02  0.64024918042E+01 -0.70671654663E+01  0.15946881511E+02  0.00000000000E+00 0.  1.
</event>
<event>
 7    1  0.2937071E-011  0.5052884E+02  0.7816164E-02  0.1300439E+00
        -11   -1    0    0    0    0  0.00000000000E+00  0.00000000000E+00  0.45593999997E+02  0.45594000000E+02  0.51100000000E-03 0.  1.
         11   -1    0    0    0    0 -0.00000000000E+00 -0.00000000000E+00 -0.45593999997E+02  0.45594000000E+02  0.51100000000E-03 0. -1.
    9900012    2    1    2    0    0 -0.22307887663E+02 -0.22694431144E+02 -0.25307864631E+02  0.50528842740E+02  0.29999947992E+02 0.  0.
        -12    1    1    2    0    0  0.22307887663E+02  0.22694431144E+02  0.25307864631E+02  0.40659157260E+02  0.00000000000E+00 0.  1.
         11    1    3    3    0    0  0.40402410186E+00 -0.18694936876E+02 -0.14845609025E+02  0.23875845700E+02  0.51100000000E-03 0. -1.
        -11    1    3    3    0    0 -0.33331055384E+01  0.86451068762E+00  0.10421841902E+01  0.35976547092E+01  0.51100000000E-03 0.  1.
        -12    1    3    3    0    0 -0.19378806227E+02 -0.48640049549E+01 -0.11504439796E+02  0.23055342331E+02  0.00000000000E+00 0.  1.
</event>
<event>
 7    1  0.2937071E-011  0.5052885E+02  0.7816164E-02  0.1300439E+00
        -11   -1    0    0    0    0  0.00000000000E+00  0.00000000000E+00  0.45593999997E+02  0.45594000000E+02  0.51100000000E-03 0. -1.
         11   -1    0    0    0    0 -0.00000000000E+00 -0.00000000000E+00 -0.45593999997E+02  0.45594000000E+02  0.51100000000E-03 0.  1.
    9900012    2    1    2    0    0 -0.20907922352E+02 -0.29858537781E+02  0.18013677832E+02  0.50528854847E+02  0.29999984794E+02 0.  0.
        -12    1    1    2    0    0  0.20907922352E+02  0.29858537781E+02 -0.18013677832E+02  0.40659145153E+02  0.00000000000E+00 0.  1.
         11    1    3    3    0    0 -0.20234719530E+01 -0.94976499682E+01  0.22964695909E+01  0.99786555460E+01  0.51100000000E-03 0.  1.
        -11    1    3    3    0    0 -0.52226174114E+01 -0.12785732749E+02 -0.49252184127E+01  0.14663167162E+02  0.51100000000E-03 0. -1.
         12    1    3    3    0    0 -0.13661832988E+02 -0.75751550643E+01  0.20642426654E+02  0.25887032139E+02  0.00000000000E+00 0. -1.
</event>
<event>
 7    1  0.2937071E-011  0.5052886E+02  0.7816164E-02  0.1300439E+00
        -11   -1    0    0    0    0  0.00000000000E+00  0.00000000000E+00  0.45593999997E+02  0.45594000000E+02  0.51100000000E-03 0.  1.
         11   -1    0    0    0    0 -0.00000000000E+00 -0.00000000000E+00 -0.45593999997E+02  0.45594000000E+02  0.51100000000E-03 0. -1.
    9900012    2    1    2    0    0  0.35140731349E+02 -0.60012515428E+01 -0.19551972632E+02  0.50528860147E+02  0.30000000903E+02 0.  0.
        -12    1    1    2    0    0 -0.35140731349E+02  0.60012515428E+01  0.19551972632E+02  0.40659139853E+02  0.00000000000E+00 0.  1.
         11    1    3    3    0    0  0.22794673890E+02  0.72680296275E+01 -0.13654709183E+02  0.27547640472E+02  0.51100000000E-03 0. -1.
        -11    1    3    3    0    0  0.51292495418E+01  0.17739251058E+01 -0.52386313252E+00  0.54525630658E+01  0.51100000000E-03 0.  1.
        -12    1    3    3    0    0  0.72168079166E+01 -0.15043206276E+02 -0.53734003166E+01  0.17528656609E+02  0.00000000000E+00 0.  1.
</event>
<event>
 7    1  0.2937071E-011  0.5052887E+02  0.7816164E-02  0.1300439E+00
        -11   -1    0    0    0    0  0.00000000000E+00  0.00000000000E+00  0.45593999997E+02  0.45594000000E+02  0.51100000000E-03 0.  1.
         11   -1    0    0    0    0 -0.00000000000E+00 -0.00000000000E+00 -0.45593999997E+02  0.45594000000E+02  0.51100000000E-03 0. -1.
    9900012    2    1    2    0    0  0.50456883824E+01 -0.39510063511E+02 -0.81646148394E+01  0.50528867873E+02  0.30000024385E+02 0.  0.
        -12    1    1    2    0    0 -0.50456883824E+01  0.39510063511E+02  0.81646148394E+01  0.40659132127E+02  0.00000000000E+00 0.  1.
         11    1    3    3    0    0 -0.61033760275E+01 -0.16717990048E+02  0.98241647820E+00  0.17824352234E+02  0.51100000000E-03 0.  1.
        -11    1    3    3    0    0 -0.49388464962E+01 -0.85967379372E+01 -0.22337848584E+01  0.10162967231E+02  0.51100000000E-03 0. -1.
         12    1    3    3    0    0  0.16087910906E+02 -0.14195335526E+02 -0.69132464592E+01  0.22541548408E+02  0.00000000000E+00 0. -1.
</event>
<event>
 7    1  0.2937071E-011  0.5052886E+02  0.7816164E-02  0.1300439E+00
        -11   -1    0    0    0    0  0.00000000000E+00  0.00000000000E+00  0.45593999997E+02  0.45594000000E+02  0.51100000000E-03 0.  1.
         11   -1    0    0    0    0 -0.00000000000E+00 -0.00000000000E+00 -0.45593999997E+02  0.45594000000E+02  0.51100000000E-03 0. -1.
    9900012    2    1    2    0    0  0.36873553816E+02  0.16410114627E+02  0.49208564999E+01  0.50528860046E+02  0.30000000596E+02 0.  0.
        -12    1    1    2    0    0 -0.36873553816E+02 -0.16410114627E+02 -0.49208564999E+01  0.40659139954E+02  0.00000000000E+00 0.  1.
         11    1    3    3    0    0  0.19887558978E+01 -0.60036356928E+00  0.44553086590E+01  0.49158276968E+01  0.51100000000E-03 0.  1.
        -11    1    3    3    0    0  0.64238612110E+01  0.47665046564E+01  0.10359852562E+02  0.13088625018E+02  0.51100000000E-03 0. -1.
         12    1    3    3    0    0  0.28460936707E+02  0.12243973540E+02 -0.98943047213E+01  0.32524407331E+02  0.00000000000E+00 0. -1.
</event>
<event>
 7    1  0.2937071E-011  0.5052890E+02  0.7816164E-02  0.1300439E+00
        -11   -1    0    0    0    0  0.00000000000E+00  0.00000000000E+00  0.45593999997E+02  0.45594000000E+02  0.51100000000E-03 0. -1.
         11   -1    0    0    0    0 -0.00000000000E+00 -0.00000000000E+00 -0.45593999997E+02  0.45594000000E+02  0.51100000000E-03 0.  1.
    9900012    2    1    2    0    0 -0.39423509454E+02  0.22539505460E+01  0.96886159600E+01  0.50528896838E+02  0.30000112427E+02 0.  0.
        -12    1    1    2    0    0  0.39423509454E+02 -0.22539505460E+01 -0.96886159600E+01  0.40659103162E+02  0.00000000000E+00 0.  1.
         11    1    3    3    0    0  0.14047531548E+01  0.82418903334E+00 -0.14189432578E+01  0.21600970391E+01  0.51100000000E-03 0. -1.
        -11    1    3    3    0    0 -0.53197627193E+01  0.90886509736E+01  0.44784678133E+01  0.11443781111E+02  0.51100000000E-03 0.  1.
         12    1    3    3    0    0 -0.35508499890E+02 -0.76588894610E+01  0.66290914045E+01  0.36925018687E+02  0.00000000000E+00 0. -1.
</event>
<event>
 7    1  0.2937071E-011  0.5052886E+02  0.7816164E-02  0.1300439E+00
        -11   -1    0    0    0    0  0.00000000000E+00  0.00000000000E+00  0.45593999997E+02  0.45594000000E+02  0.51100000000E-03 0.  1.
         11   -1    0    0    0    0 -0.00000000000E+00 -0.00000000000E+00 -0.45593999997E+02  0.45594000000E+02  0.51100000000E-03 0. -1.
    9900012    2    1    2    0    0 -0.22846533337E+02  0.97504107138E+01 -0.32188993669E+02  0.50528857018E+02  0.29999991393E+02 0.  0.
        -12    1    1    2    0    0  0.22846533337E+02 -0.97504107138E+01  0.32188993669E+02  0.40659142982E+02  0.00000000000E+00 0.  1.
         11    1    3    3    0    0 -0.16348934767E+02  0.69710347180E+01 -0.29520554864E+02  0.34457889559E+02  0.51100000000E-03 0. -1.
        -11    1    3    3    0    0 -0.63353336750E+01 -0.21029326922E+01 -0.69055223844E+01  0.96044270179E+01  0.51100000000E-03 0.  1.
        -12    1    3    3    0    0 -0.16226489469E+00  0.48823086879E+01  0.42370835800E+01  0.64665404417E+01  0.00000000000E+00 0.  1.
</event>
<event>
 7    1  0.2937071E-011  0.5052888E+02  0.7816164E-02  0.1300439E+00
        -11   -1    0    0    0    0  0.00000000000E+00  0.00000000000E+00  0.45593999997E+02  0.45594000000E+02  0.51100000000E-03 0.  1.
         11   -1    0    0    0    0 -0.00000000000E+00 -0.00000000000E+00 -0.45593999997E+02  0.45594000000E+02  0.51100000000E-03 0. -1.
    9900012    2    1    2    0    0  0.40449030129E+02  0.38142784438E+01 -0.15782815145E+01  0.50528883790E+02  0.30000072768E+02 0.  0.
        -12    1    1    2    0    0 -0.40449030129E+02 -0.38142784438E+01  0.15782815145E+01  0.40659116210E+02  0.00000000000E+00 0.  1.
         11    1    3    3    0    0 -0.21121503595E+00  0.46655736619E+01 -0.30548224278E+01  0.55806925836E+01  0.51100000000E-03 0. -1.
        -11    1    3    3    0    0  0.19859926513E+01  0.53778723443E+01  0.61813918758E+00  0.57660882823E+01  0.51100000000E-03 0.  1.
        -12    1    3    3    0    0  0.38674252514E+02 -0.62291675624E+01  0.85840172576E+00  0.39182102924E+02  0.00000000000E+00 0.  1.
</event>
<event>
 7    1  0.2937071E-011  0.5052899E+02  0.7816164E-02  0.1300438E+00
        -11   -1    0    0    0    0  0.00000000000E+00  0.00000000000E+00  0.45593999997E+02  0.45594000000E+02  0.51100000000E-03 0. -1.
         11   -1    0    0    0    0 -0.00000000000E+00 -0.00000000000E+00 -0.45593999997E+02  0.45594000000E+02  0.51100000000E-03 0.  1.
    9900012    2    1    2    0    0  0.44692886219E+01  0.17890907123E+02  0.36236668179E+02  0.50528988463E+02  0.30000390929E+02 0.  0.
        -12    1    1    2    0    0 -0.44692886219E+01 -0.17890907123E+02 -0.36236668179E+02  0.40659011537E+02  0.00000000000E+00 0.  1.
         11    1    3    3    0    0 -0.33356090003E+01  0.16392473343E+02  0.13649474883E+02  0.21590452393E+02  0.51100000000E-03 0. -1.
        -11    1    3    3    0    0 -0.33951127252E+01  0.36920333675E+01  0.20005396634E+01  0.54000055565E+01  0.51100000000E-03 0.  1.
         12    1    3    3    0    0  0.11200010347E+02 -0.21935995874E+01  0.20586653632E+02  0.23538530513E+02  0.00000000000E+00 0. -1.
</event>
<event>
 7    1  0.2937071E-011  0.5052886E+02  0.7816164E-02  0.1300439E+00
        -11   -1    0    0    0    0  0.00000000000E+00  0.00000000000E+00  0.45593999997E+02  0.45594000000E+02  0.51100000000E-03 0.  1.
         11   -1    0    0    0    0 -0.00000000000E+00 -0.00000000000E+00 -0.45593999997E+02  0.45594000000E+02  0.51100000000E-03 0. -1.
    9900012    2    1    2    0    0  0.33501170659E+01 -0.61480181938E+01 -0.40051770673E+02  0.50528859009E+02  0.29999997445E+02 0.  0.
        -12    1    1    2    0    0 -0.33501170659E+01  0.61480181938E+01  0.40051770673E+02  0.40659140991E+02  0.00000000000E+00 0.  1.
         11    1    3    3    0    0  0.65429187153E+01 -0.88193941240E+01 -0.12628930916E+02  0.16735632476E+02  0.51100000000E-03 0. -1.
        -11    1    3    3    0    0  0.53484064535E+01 -0.56464200077E+01 -0.96879433422E+01  0.12423516288E+02  0.51100000000E-03 0.  1.
         12    1    3    3    0    0 -0.85412081029E+01  0.83177959379E+01 -0.17734896415E+02  0.21369710245E+02  0.00000000000E+00 0. -1.
</event>
<event>
 7    1  0.2937071E-011  0.5052886E+02  0.7816164E-02  0.1300439E+00
        -11   -1    0    0    0    0  0.00000000000E+00  0.00000000000E+00  0.45593999997E+02  0.45594000000E+02  0.51100000000E-03 0. -1.
         11   -1    0    0    0    0 -0.00000000000E+00 -0.00000000000E+00 -0.45593999997E+02  0.45594000000E+02  0.51100000000E-03 0.  1.
    9900012    2    1    2    0    0  0.33826552479E+02  0.22425447390E+02  0.24555125804E+01  0.50528857298E+02  0.29999992242E+02 0.  0.
        -12    1    1    2    0    0 -0.33826552479E+02 -0.22425447390E+02 -0.24555125804E+01  0.40659142702E+02  0.00000000000E+00 0.  1.
         11    1    3    3    0    0  0.25829725887E+02  0.14302235196E+02  0.11428043238E+02  0.31659577437E+02  0.51100000000E-03 0. -1.
        -11    1    3    3    0    0  0.76826342010E+01  0.66796960385E+01 -0.41893756890E+00  0.10189048846E+02  0.51100000000E-03 0.  1.
        -12    1    3    3    0    0  0.31419239116E+00  0.14435161554E+01 -0.85535930885E+01  0.86802310150E+01  0.00000000000E+00 0.  1.
</event>
<event>
 7    1  0.2937071E-011  0.5052886E+02  0.7816164E-02  0.1300439E+00
        -11   -1    0    0    0    0  0.00000000000E+00  0.00000000000E+00  0.45593999997E+02  0.45594000000E+02  0.51100000000E-03 0.  1.
         11   -1    0    0    0    0 -0.00000000000E+00 -0.00000000000E+00 -0.45593999997E+02  0.45594000000E+02  0.51100000000E-03 0. -1.
    9900012    2    1    2    0    0  0.31018062888E+02  0.26133590585E+02  0.28427516512E+01  0.50528855652E+02  0.29999987239E+02 0.  0.
        -12    1    1    2    0    0 -0.31018062888E+02 -0.26133590585E+02 -0.28427516512E+01  0.40659144348E+02  0.00000000000E+00 0.  1.
         11    1    3    3    0    0 -0.14671908121E+00  0.25596757717E+01 -0.40870512604E+01  0.48246714719E+01  0.51100000000E-03 0. -1.
        -11    1    3    3    0    0  0.16060023996E+02  0.24452262004E+02  0.85729127212E+01  0.30484952364E+02  0.51100000000E-03 0.  1.
         12    1    3    3    0    0  0.15104757973E+02 -0.87834719082E+00 -0.16431098096E+01  0.15219231816E+02  0.00000000000E+00 0. -1.
</event>
<event>
 7    1  0.2937071E-011  0.5052886E+02  0.7816164E-02  0.1300439E+00
        -11   -1    0    0    0    0  0.00000000000E+00  0.00000000000E+00  0.45593999997E+02  0.45594000000E+02  0.51100000000E-03 0.  1.
         11   -1    0    0    0    0 -0.00000000000E+00 -0.00000000000E+00 -0.45593999997E+02  0.45594000000E+02  0.51100000000E-03 0. -1.
    9900012    2    1    2    0    0 -0.26991831739E+02 -0.24445355087E+02  0.18084013134E+02  0.50528857153E+02  0.29999991804E+02 0.  0.
        -12    1    1    2    0    0  0.26991831739E+02  0.24445355087E+02 -0.18084013134E+02  0.40659142847E+02  0.00000000000E+00 0.  1.
         11    1    3    3    0    0  0.19054953895E+01  0.28218131194E+00  0.11636928468E+01  0.22504933404E+01  0.51100000000E-03 0.  1.
        -11    1    3    3    0    0 -0.46016487812E+01 -0.64347431336E+01 -0.62201322329E+01  0.10063356098E+02  0.51100000000E-03 0. -1.
         12    1    3    3    0    0 -0.24295678348E+02 -0.18292793266E+02  0.23140452520E+02  0.38215007715E+02  0.00000000000E+00 0. -1.
</event>
<event>
 7    1  0.2937071E-011  0.5052884E+02  0.7816164E-02  0.1300439E+00
        -11   -1    0    0    0    0  0.00000000000E+00  0.00000000000E+00  0.45593999997E+02  0.45594000000E+02  0.51100000000E-03 0.  1.
         11   -1    0    0    0    0 -0.00000000000E+00 -0.00000000000E+00 -0.45593999997E+02  0.45594000000E+02  0.51100000000E-03 0. -1.
    9900012    2    1    2    0    0 -0.28568904324E+02  0.19883192545E+02 -0.21015322971E+02  0.50528838184E+02  0.29999934144E+02 0.  0.
        -12    1    1    2    0    0  0.28568904324E+02 -0.19883192545E+02  0.21015322971E+02  0.40659161816E+02  0.00000000000E+00 0.  1.
         11    1    3    3    0    0 -0.41930155326E+01  0.14793568123E+02 -0.15986475557E+02  0.22181037803E+02  0.51100000000E-03 0. -1.
        -11    1    3    3    0    0 -0.49848639438E+01  0.26448671781E+00  0.40226747115E+01  0.64109854046E+01  0.51100000000E-03 0.  1.
        -12    1    3    3    0    0 -0.19391024847E+02  0.48251377046E+01 -0.90515221253E+01  0.21936814976E+02  0.00000000000E+00 0.  1.
</event>
<event>
 7    1  0.2937071E-011  0.5052886E+02  0.7816164E-02  0.1300439E+00
        -11   -1    0    0    0    0  0.00000000000E+00  0.00000000000E+00  0.45593999997E+02  0.45594000000E+02  0.51100000000E-03 0.  1.
         11   -1    0    0    0    0 -0.00000000000E+00 -0.00000000000E+00 -0.45593999997E+02  0.45594000000E+02  0.51100000000E-03 0. -1.
    9900012    2    1    2    0    0  0.30581771896E+00  0.12571181457E+02 -0.38665718276E+02  0.50528857147E+02  0.29999991784E+02 0.  0.
        -12    1    1    2    0    0 -0.30581771896E+00 -0.12571181457E+02  0.38665718276E+02  0.40659142853E+02  0.00000000000E+00 0.  1.
         11    1    3    3    0    0  0.32045078345E+01  0.21058950134E+01 -0.36289423671E+02  0.36491450162E+02  0.51100000000E-03 0. -1.
        -11    1    3    3    0    0  0.53098396168E-01 -0.93668870365E+00 -0.20506100634E+01  0.22550403678E+01  0.51100000000E-03 0.  1.
        -12    1    3    3    0    0 -0.29517885118E+01  0.11401975148E+02 -0.32568454190E+00  0.11782366617E+02  0.00000000000E+00 0.  1.
</event>
<event>
 7    1  0.2937071E-011  0.5052887E+02  0.7816164E-02  0.1300439E+00
        -11   -1    0    0    0    0  0.00000000000E+00  0.00000000000E+00  0.45593999997E+02  0.45594000000E+02  0.51100000000E-03 0.  1.
         11   -1    0    0    0    0 -0.00000000000E+00 -0.00000000000E+00 -0.45593999997E+02  0.45594000000E+02  0.51100000000E-03 0. -1.
    9900012    2    1    2    0    0 -0.32459161015E+02  0.19438835126E+02 -0.14889585726E+02  0.50528865627E+02  0.30000017561E+02 0.  0.
        -12    1    1    2    0    0  0.32459161015E+02 -0.19438835126E+02  0.14889585726E+02  0.40659134373E+02  0.00000000000E+00 0.  1.
         11    1    3    3    0    0 -0.18848108894E+02  0.19526227168E+02 -0.99438586459E+01  0.28903374913E+02  0.51100000000E-03 0. -1.
        -11    1    3    3    0    0 -0.88183167702E+01  0.49288995964E+00  0.52993331270E+01  0.10299931215E+02  0.51100000000E-03 0.  1.
         12    1    3    3    0    0 -0.47927353504E+01 -0.58028200196E+00 -0.10245060207E+02  0.11325559500E+02  0.00000000000E+00 0. -1.
</event>
<event>
 7    1  0.2937071E-011  0.5052886E+02  0.7816164E-02  0.1300439E+00
        -11   -1    0    0    0    0  0.00000000000E+00  0.00000000000E+00  0.45593999997E+02  0.45594000000E+02  0.51100000000E-03 0.  1.
         11   -1    0    0    0    0 -0.00000000000E+00 -0.00000000000E+00 -0.45593999997E+02  0.45594000000E+02  0.51100000000E-03 0. -1.
    9900012    2    1    2    0    0 -0.26167736737E+00 -0.10537805359E+02 -0.39268967525E+02  0.50528860470E+02  0.30000001885E+02 0.  0.
        -12    1    1    2    0    0  0.26167736737E+00  0.10537805359E+02  0.39268967525E+02  0.40659139530E+02  0.00000000000E+00 0.  1.
         11    1    3    3    0    0  0.12878292794E+01 -0.46601438320E-01  0.39225165621E+00  0.13470477237E+01  0.51100000000E-03 0. -1.
        -11    1    3    3    0    0  0.34858512063E+01 -0.18281115264E+02 -0.32546955183E+02  0.37492060838E+02  0.51100000000E-03 0.  1.
        -12    1    3    3    0    0 -0.50353578531E+01  0.77899113433E+01 -0.71142639979E+01  0.11689751908E+02  0.00000000000E+00 0.  1.
</event>
<event>
 7    1  0.2937071E-011  0.5052886E+02  0.7816164E-02  0.1300439E+00
        -11   -1    0    0    0    0  0.00000000000E+00  0.00000000000E+00  0.45593999997E+02  0.45594000000E+02  0.51100000000E-03 0.  1.
         11   -1    0    0    0    0 -0.00000000000E+00 -0.00000000000E+00 -0.45593999997E+02  0.45594000000E+02  0.51100000000E-03 0. -1.
    9900012    2    1    2    0    0 -0.25607395683E+02  0.14798523952E+02 -0.27900365632E+02  0.50528862930E+02  0.30000009363E+02 0.  0.
        -12    1    1    2    0    0  0.25607395683E+02 -0.14798523952E+02  0.27900365632E+02  0.40659137070E+02  0.00000000000E+00 0.  1.
         11    1    3    3    0    0 -0.30528087410E+01  0.92687578031E+01  0.73097729482E+00  0.97859000858E+01  0.51100000000E-03 0. -1.
        -11    1    3    3    0    0  0.27493536023E+01  0.12956055433E+01 -0.14553117259E+01  0.33697880401E+01  0.51100000000E-03 0.  1.
         12    1    3    3    0    0 -0.25303940545E+02  0.42341606058E+01 -0.27176031201E+02  0.37373174804E+02  0.00000000000E+00 0. -1.
</event>
<event>
 7    1  0.2937071E-011  0.5052886E+02  0.7816164E-02  0.1300439E+00
        -11   -1    0    0    0    0  0.00000000000E+00  0.00000000000E+00  0.45593999997E+02  0.45594000000E+02  0.51100000000E-03 0. -1.
         11   -1    0    0    0    0 -0.00000000000E+00 -0.00000000000E+00 -0.45593999997E+02  0.45594000000E+02  0.51100000000E-03 0.  1.
    9900012    2    1    2    0    0  0.11236451426E+02  0.39073926186E+02  0.36889762734E+00  0.50528860392E+02  0.30000001647E+02 0.  0.
        -12    1    1    2    0    0 -0.11236451426E+02 -0.39073926186E+02 -0.36889762734E+00  0.40659139608E+02  0.00000000000E+00 0.  1.
         11    1    3    3    0    0  0.53598873083E+01  0.50408089533E+01 -0.25777842656E+01  0.77963529193E+01  0.51100000000E-03 0.  1.
        -11    1    3    3    0    0  0.90219160625E+01  0.14195611215E+02 -0.92882856843E+01  0.19214124971E+02  0.51100000000E-03 0. -1.
         12    1    3    3    0    0 -0.31453519448E+01  0.19837506018E+02  0.12234967577E+02  0.23518382501E+02  0.00000000000E+00 0. -1.
</event>
<event>
 7    1  0.2937071E-011  0.5052886E+02  0.7816164E-02  0.1300439E+00
        -11   -1    0    0    0    0  0.00000000000E+00  0.00000000000E+00  0.45593999997E+02  0.45594000000E+02  0.51100000000E-03 0. -1.
         11   -1    0    0    0    0 -0.00000000000E+00 -0.00000000000E+00 -0.45593999997E+02  0.45594000000E+02  0.51100000000E-03 0.  1.
    9900012    2    1    2    0    0 -0.13327830481E+01  0.43818039879E+01  0.40400359370E+02  0.50528861371E+02  0.30000004622E+02 0.  0.
        -12    1    1    2    0    0  0.13327830481E+01 -0.43818039879E+01 -0.40400359370E+02  0.40659138629E+02  0.00000000000E+00 0.  1.
         11    1    3    3    0    0  0.36149774139E+00  0.57776210176E+01  0.18401514748E+01  0.60743512370E+01  0.51100000000E-03 0. -1.
        -11    1    3    3    0    0 -0.51056081671E+01  0.66079565497E+01  0.48870679200E+01  0.96755236362E+01  0.51100000000E-03 0.  1.
         12    1    3    3    0    0  0.34113273776E+01 -0.80037735794E+01  0.33673139975E+02  0.34778986497E+02  0.00000000000E+00 0. -1.
</event>
<event>
 7    1  0.2937071E-011  0.5052886E+02  0.7816164E-02  0.1300439E+00
        -11   -1    0    0    0    0  0.00000000000E+00  0.00000000000E+00  0.45593999997E+02  0.45594000000E+02  0.51100000000E-03 0.  1.
         11   -1    0    0    0    0 -0.00000000000E+00 -0.00000000000E+00 -0.45593999997E+02  0.45594000000E+02  0.51100000000E-03 0. -1.
    9900012    2    1    2    0    0 -0.62510133838E+01 -0.58544756851E+01 -0.39746893007E+02  0.50528861328E+02  0.30000004492E+02 0.  0.
        -12    1    1    2    0    0  0.62510133838E+01  0.58544756851E+01  0.39746893007E+02  0.40659138672E+02  0.00000000000E+00 0.  1.
         11    1    3    3    0    0  0.53972241855E+01 -0.62915483736E+01 -0.47068666660E+01  0.95324815195E+01  0.51100000000E-03 0. -1.
        -11    1    3    3    0    0 -0.32356901132E+01 -0.25367561392E+00  0.14413229168E+01  0.35512608799E+01  0.51100000000E-03 0.  1.
         12    1    3    3    0    0 -0.84125474561E+01  0.69074830241E+00 -0.36481349258E+02  0.37445118929E+02  0.00000000000E+00 0. -1.
</event>
<event>
 7    1  0.2937071E-011  0.5052887E+02  0.7816164E-02  0.1300439E+00
        -11   -1    0    0    0    0  0.00000000000E+00  0.00000000000E+00  0.45593999997E+02  0.45594000000E+02  0.51100000000E-03 0.  1.
         11   -1    0    0    0    0 -0.00000000000E+00 -0.00000000000E+00 -0.45593999997E+02  0.45594000000E+02  0.51100000000E-03 0. -1.
    9900012    2    1    2    0    0  0.51384396479E+01 -0.30257807739E+02 -0.26668833705E+02  0.50528865942E+02  0.30000018517E+02 0.  0.
        -12    1    1    2    0    0 -0.51384396479E+01  0.30257807739E+02  0.26668833705E+02  0.40659134058E+02  0.00000000000E+00 0.  1.
         11    1    3    3    0    0  0.65907995471E+01 -0.65260818600E+01 -0.12675133608E+02  0.15706285218E+02  0.51100000000E-03 0. -1.
        -11    1    3    3    0    0  0.79450373403E+01 -0.15178726822E+02 -0.13985228206E+02  0.22115695208E+02  0.51100000000E-03 0.  1.
        -12    1    3    3    0    0 -0.93973972394E+01 -0.85529990569E+01 -0.84718904300E-02  0.12706885516E+02  0.00000000000E+00 0.  1.
</event>
<event>
 7    1  0.2937071E-011  0.5052889E+02  0.7816164E-02  0.1300439E+00
        -11   -1    0    0    0    0  0.00000000000E+00  0.00000000000E+00  0.45593999997E+02  0.45594000000E+02  0.51100000000E-03 0.  1.
         11   -1    0    0    0    0 -0.00000000000E+00 -0.00000000000E+00 -0.45593999997E+02  0.45594000000E+02  0.51100000000E-03 0. -1.
    9900012    2    1    2    0    0 -0.34109117404E+02 -0.14620969687E+02 -0.16611992013E+02  0.50528893723E+02  0.30000102959E+02 0.  0.
        -12    1    1    2    0    0  0.34109117404E+02  0.14620969687E+02  0.16611992013E+02  0.40659106277E+02  0.00000000000E+00 0.  1.
         11    1    3    3    0    0 -0.51247274865E+01 -0.98399006002E+01 -0.14059247950E+02  0.17909464783E+02  0.51100000000E-03 0. -1.
        -11    1    3    3    0    0 -0.56780718864E+01  0.46433487842E+01  0.13737817054E+00  0.73362157344E+01  0.51100000000E-03 0.  1.
         12    1    3    3    0    0 -0.23306318031E+02 -0.94244178705E+01 -0.26901222335E+01  0.25283213205E+02  0.00000000000E+00 0. -1.
</event>
<event>
 7    1  0.2937071E-011  0.5052884E+02  0.7816164E-02  0.1300439E+00
        -11   -1    0    0    0    0  0.00000000000E+00  0.00000000000E+00  0.45593999997E+02  0.45594000000E+02  0.51100000000E-03 0.  1.
         11   -1    0    0    0    0 -0.00000000000E+00 -0.00000000000E+00 -0.45593999997E+02  0.45594000000E+02  0.51100000000E-03 0. -1.
    9900012    2    1    2    0    0 -0.13118490162E+02 -0.31602338211E+02 -0.21962807121E+02  0.50528837918E+02  0.29999933335E+02 0.  0.
        -12    1    1    2    0    0  0.13118490162E+02  0.31602338211E+02  0.21962807121E+02  0.40659162082E+02  0.00000000000E+00 0.  1.
         11    1    3    3    0    0 -0.53862629024E+00 -0.65011438930E+01 -0.49101348271E+01  0.81648278904E+01  0.51100000000E-03 0.  1.
        -11    1    3    3    0    0  0.23429884526E+01 -0.22482839008E+02 -0.53743510040E+01  0.23234700207E+02  0.51100000000E-03 0. -1.
        -12    1    3    3    0    0 -0.14922852325E+02 -0.26183553100E+01 -0.11678321290E+02  0.19129309820E+02  0.00000000000E+00 0.  1.
</event>
<event>
 7    1  0.2937071E-011  0.5052887E+02  0.7816164E-02  0.1300439E+00
        -11   -1    0    0    0    0  0.00000000000E+00  0.00000000000E+00  0.45593999997E+02  0.45594000000E+02  0.51100000000E-03 0. -1.
         11   -1    0    0    0    0 -0.00000000000E+00 -0.00000000000E+00 -0.45593999997E+02  0.45594000000E+02  0.51100000000E-03 0.  1.
    9900012    2    1    2    0    0 -0.22605469507E+02 -0.31277754604E+02 -0.12800763062E+02  0.50528871631E+02  0.30000035810E+02 0.  0.
        -12    1    1    2    0    0  0.22605469507E+02  0.31277754604E+02  0.12800763062E+02  0.40659128369E+02  0.00000000000E+00 0.  1.
         11    1    3    3    0    0 -0.11190462845E+02 -0.25903685863E+02 -0.26665378310E+01  0.28343214783E+02  0.51100000000E-03 0. -1.
        -11    1    3    3    0    0 -0.92262988154E+01 -0.10167557792E+02 -0.44457431136E+01  0.14431509047E+02  0.51100000000E-03 0.  1.
        -12    1    3    3    0    0 -0.21887078468E+01  0.47934890503E+01 -0.56884821177E+01  0.77541478008E+01  0.00000000000E+00 0.  1.
</event>
<event>
 7    1  0.2937071E-011  0.5052886E+02  0.7816164E-02  0.1300439E+00
        -11   -1    0    0    0    0  0.00000000000E+00  0.00000000000E+00  0.45593999997E+02  0.45594000000E+02  0.51100000000E-03 0.  1.
         11   -1    0    0    0    0 -0.00000000000E+00 -0.00000000000E+00 -0.45593999997E+02  0.45594000000E+02  0.51100000000E-03 0. -1.
    9900012    2    1    2    0    0  0.27106281703E+02  0.29907749996E+02 -0.48930008297E+01  0.50528862347E+02  0.30000007590E+02 0.  0.
        -12    1    1    2    0    0 -0.27106281703E+02 -0.29907749996E+02  0.48930008297E+01  0.40659137653E+02  0.00000000000E+00 0.  1.
         11    1    3    3    0    0  0.25322934007E+01  0.11792746402E+02 -0.22072075568E+01  0.12261857242E+02  0.51100000000E-03 0. -1.
        -11    1    3    3    0    0 -0.38198261203E+01  0.62611092666E+01  0.39050428439E+00  0.73447297223E+01  0.51100000000E-03 0.  1.
         12    1    3    3    0    0  0.28393814422E+02  0.11853894327E+02 -0.30762975573E+01  0.30922275382E+02  0.00000000000E+00 0. -1.
</event>
<event>
 7    1  0.2937071E-011  0.5052886E+02  0.7816164E-02  0.1300439E+00
        -11   -1    0    0    0    0  0.00000000000E+00  0.00000000000E+00  0.45593999997E+02  0.45594000000E+02  0.51100000000E-03 0. -1.
         11   -1    0    0    0    0 -0.00000000000E+00 -0.00000000000E+00 -0.45593999997E+02  0.45594000000E+02  0.51100000000E-03 0.  1.
    9900012    2    1    2    0    0  0.13931794489E+02 -0.18521819301E+01  0.38152848358E+02  0.50528864330E+02  0.30000013618E+02 0.  0.
        -12    1    1    2    0    0 -0.13931794489E+02  0.18521819301E+01 -0.38152848358E+02  0.40659135670E+02  0.00000000000E+00 0.  1.
         11    1    3    3    0    0  0.13578110633E+02  0.25524538475E+01  0.98164049180E+01  0.16948212731E+02  0.51100000000E-03 0. -1.
        -11    1    3    3    0    0  0.54225302406E+01 -0.82430051404E+01  0.94869742832E+01  0.13687718921E+02  0.51100000000E-03 0.  1.
        -12    1    3    3    0    0 -0.50688463847E+01  0.38383693628E+01  0.18849469157E+02  0.19892932678E+02  0.00000000000E+00 0.  1.
</event>
<event>
 7    1  0.2937071E-011  0.5052888E+02  0.7816164E-02  0.1300439E+00
        -11   -1    0    0    0    0  0.00000000000E+00  0.00000000000E+00  0.45593999997E+02  0.45594000000E+02  0.51100000000E-03 0.  1.
         11   -1    0    0    0    0 -0.00000000000E+00 -0.00000000000E+00 -0.45593999997E+02  0.45594000000E+02  0.51100000000E-03 0. -1.
    9900012    2    1    2    0    0  0.81990380328E+01  0.12167876935E+02 -0.37919423283E+02  0.50528879056E+02  0.30000058379E+02 0.  0.
        -12    1    1    2    0    0 -0.81990380328E+01 -0.12167876935E+02  0.37919423283E+02  0.40659120944E+02  0.00000000000E+00 0.  1.
         11    1    3    3    0    0  0.57546743764E+01  0.34429080997E+01 -0.13708917501E+02  0.15261202858E+02  0.51100000000E-03 0. -1.
        -11    1    3    3    0    0  0.14766590468E+00  0.13954789928E+02 -0.25805395093E+02  0.29337286571E+02  0.51100000000E-03 0.  1.
        -12    1    3    3    0    0  0.22966977517E+01 -0.52298210926E+01  0.15948893106E+01  0.59303896277E+01  0.00000000000E+00 0.  1.
</event>
<event>
 7    1  0.2937071E-011  0.5052886E+02  0.7816164E-02  0.1300439E+00
        -11   -1    0    0    0    0  0.00000000000E+00  0.00000000000E+00  0.45593999997E+02  0.45594000000E+02  0.51100000000E-03 0. -1.
         11   -1    0    0    0    0 -0.00000000000E+00 -0.00000000000E+00 -0.45593999997E+02  0.45594000000E+02  0.51100000000E-03 0.  1.
    9900012    2    1    2    0    0 -0.15388512403E+02  0.31690528721E+02 -0.20299510521E+02  0.50528855248E+02  0.29999986011E+02 0.  0.
        -12    1    1    2    0    0  0.15388512403E+02 -0.31690528721E+02  0.20299510521E+02  0.40659144752E+02  0.00000000000E+00 0.  1.
         11    1    3    3    0    0 -0.26868863463E+01  0.83678005228E+00 -0.90212771604E+00  0.29552315935E+01  0.51100000000E-03 0. -1.
        -11    1    3    3    0    0 -0.96259359080E+01 -0.24866406990E+01 -0.49809361506E+01  0.11119880812E+02  0.51100000000E-03 0.  1.
         12    1    3    3    0    0 -0.30756901486E+01  0.33340389368E+02 -0.14416446655E+02  0.36453742842E+02  0.00000000000E+00 0. -1.
</event>
<event>
 7    1  0.2937071E-011  0.5052884E+02  0.7816164E-02  0.1300439E+00
        -11   -1    0    0    0    0  0.00000000000E+00  0.00000000000E+00  0.45593999997E+02  0.45594000000E+02  0.51100000000E-03 0.  1.
         11   -1    0    0    0    0 -0.00000000000E+00 -0.00000000000E+00 -0.45593999997E+02  0.45594000000E+02  0.51100000000E-03 0. -1.
    9900012    2    1    2    0    0 -0.10016799676E+01  0.11941381674E+02 -0.38853150402E+02  0.50528840452E+02  0.29999941037E+02 0.  0.
        -12    1    1    2    0    0  0.10016799676E+01 -0.11941381674E+02  0.38853150402E+02  0.40659159548E+02  0.00000000000E+00 0.  1.
         11    1    3    3    0    0 -0.10272016742E+02  0.10952153251E+02 -0.95359836685E+01  0.17787607303E+02  0.51100000000E-03 0. -1.
        -11    1    3    3    0    0  0.16463312732E+01  0.89933849762E+00  0.51886472893E+00  0.19463908298E+01  0.51100000000E-03 0.  1.
        -12    1    3    3    0    0  0.76240055007E+01  0.89889925567E-01 -0.29836031462E+02  0.30794842319E+02  0.00000000000E+00 0.  1.
</event>
<event>
 7    1  0.2937071E-011  0.5052885E+02  0.7816164E-02  0.1300439E+00
        -11   -1    0    0    0    0  0.00000000000E+00  0.00000000000E+00  0.45593999997E+02  0.45594000000E+02  0.51100000000E-03 0.  1.
         11   -1    0    0    0    0 -0.00000000000E+00 -0.00000000000E+00 -0.45593999997E+02  0.45594000000E+02  0.51100000000E-03 0. -1.
    9900012    2    1    2    0    0 -0.38941589982E+02 -0.84322762171E+01 -0.81003427938E+01  0.50528852617E+02  0.29999978014E+02 0.  0.
        -12    1    1    2    0    0  0.38941589982E+02  0.84322762171E+01  0.81003427938E+01  0.40659147383E+02  0.00000000000E+00 0.  1.
         11    1    3    3    0    0 -0.89603786135E+01  0.76829706987E+01 -0.91023833020E+01  0.14905361642E+02  0.51100000000E-03 0.  1.
        -11    1    3    3    0    0 -0.38624986738E+01  0.93499322527E+00  0.19309877229E+01  0.44183506180E+01  0.51100000000E-03 0. -1.
         12    1    3    3    0    0 -0.26118712695E+02 -0.17050240141E+02 -0.92894721479E+00  0.31205140356E+02  0.00000000000E+00 0. -1.
</event>
<event>
 7    1  0.2937071E-011  0.5052881E+02  0.7816164E-02  0.1300439E+00
        -11   -1    0    0    0    0  0.00000000000E+00  0.00000000000E+00  0.45593999997E+02  0.45594000000E+02  0.51100000000E-03 0. -1.
         11   -1    0    0    0    0 -0.00000000000E+00 -0.00000000000E+00 -0.45593999997E+02  0.45594000000E+02  0.51100000000E-03 0.  1.
    9900012    2    1    2    0    0 -0.25944630230E+02 -0.97450043030E+01  0.29750308592E+02  0.50528809059E+02  0.29999845615E+02 0.  0.
        -12    1    1    2    0    0  0.25944630230E+02  0.97450043030E+01 -0.29750308592E+02  0.40659190941E+02  0.00000000000E+00 0.  1.
         11    1    3    3    0    0 -0.19132157747E+02  0.18400574770E+01  0.95881095573E+01  0.21479225236E+02  0.51100000000E-03 0. -1.
        -11    1    3    3    0    0 -0.21981178284E+01 -0.70539154238E+01 -0.49371682875E+00  0.74049443861E+01  0.51100000000E-03 0.  1.
         12    1    3    3    0    0 -0.46143546546E+01 -0.45311463563E+01  0.20655915864E+02  0.21644639437E+02  0.00000000000E+00 0. -1.
</event>
<event>
 7    1  0.2937071E-011  0.5052887E+02  0.7816164E-02  0.1300439E+00
        -11   -1    0    0    0    0  0.00000000000E+00  0.00000000000E+00  0.45593999997E+02  0.45594000000E+02  0.51100000000E-03 0.  1.
         11   -1    0    0    0    0 -0.00000000000E+00 -0.00000000000E+00 -0.45593999997E+02  0.45594000000E+02  0.51100000000E-03 0. -1.
    9900012    2    1    2    0    0 -0.20706324745E+02  0.34805897704E+02 -0.36003703200E+01  0.50528867374E+02  0.30000022871E+02 0.  0.
        -12    1    1    2    0    0  0.20706324745E+02 -0.34805897704E+02  0.36003703200E+01  0.40659132626E+02  0.00000000000E+00 0.  1.
         11    1    3    3    0    0 -0.27795478110E+00  0.71352483475E+01  0.15810443795E+01  0.73135989384E+01  0.51100000000E-03 0.  1.
        -11    1    3    3    0    0  0.59671774074E+01  0.45621936944E+01 -0.29259443031E+01  0.80611393638E+01  0.51100000000E-03 0. -1.
         12    1    3    3    0    0 -0.26395547371E+02  0.23108455662E+02 -0.22554703964E+01  0.35154129072E+02  0.00000000000E+00 0. -1.
</event>
<event>
 7    1  0.2937071E-011  0.5052887E+02  0.7816164E-02  0.1300439E+00
        -11   -1    0    0    0    0  0.00000000000E+00  0.00000000000E+00  0.45593999997E+02  0.45594000000E+02  0.51100000000E-03 0.  1.
         11   -1    0    0    0    0 -0.00000000000E+00 -0.00000000000E+00 -0.45593999997E+02  0.45594000000E+02  0.51100000000E-03 0. -1.
    9900012    2    1    2    0    0 -0.31551533215E+02  0.11747973744E+02 -0.22795848875E+02  0.50528869891E+02  0.30000030520E+02 0.  0.
        -12    1    1    2    0    0  0.31551533215E+02 -0.11747973744E+02  0.22795848875E+02  0.40659130109E+02  0.00000000000E+00 0.  1.
         11    1    3    3    0    0 -0.15663046684E+02 -0.35296949887E+01 -0.46693664486E+01  0.16721027523E+02  0.51100000000E-03 0. -1.
        -11    1    3    3    0    0 -0.25566661029E+01 -0.18114534104E+01  0.24072955523E+01  0.39513259998E+01  0.51100000000E-03 0.  1.
         12    1    3    3    0    0 -0.13331820429E+02  0.17089122143E+02 -0.20533777979E+02  0.29856516368E+02  0.00000000000E+00 0. -1.
</event>
<event>
 7    1  0.2937071E-011  0.5052888E+02  0.7816164E-02  0.1300439E+00
        -11   -1    0    0    0    0  0.00000000000E+00  0.00000000000E+00  0.45593999997E+02  0.45594000000E+02  0.51100000000E-03 0. -1.
         11   -1    0    0    0    0 -0.00000000000E+00 -0.00000000000E+00 -0.45593999997E+02  0.45594000000E+02  0.51100000000E-03 0.  1.
    9900012    2    1    2    0    0 -0.37532012224E+02 -0.13743369229E+02  0.74586633736E+01  0.50528882958E+02  0.30000070239E+02 0.  0.
        -12    1    1    2    0    0  0.37532012224E+02  0.13743369229E+02 -0.74586633736E+01  0.40659117042E+02  0.00000000000E+00 0.  1.
         11    1    3    3    0    0 -0.66579265095E+01  0.13773879469E+01  0.65047674286E+01  0.94094198824E+01  0.51100000000E-03 0. -1.
        -11    1    3    3    0    0 -0.18023416697E+02 -0.14870660108E+01 -0.86714192126E+01  0.20056131884E+02  0.51100000000E-03 0.  1.
         12    1    3    3    0    0 -0.12850669018E+02 -0.13633691165E+02  0.96253151577E+01  0.21063331191E+02  0.00000000000E+00 0. -1.
</event>
<event>
 7    1  0.2937071E-011  0.5052887E+02  0.7816164E-02  0.1300439E+00
        -11   -1    0    0    0    0  0.00000000000E+00  0.00000000000E+00  0.45593999997E+02  0.45594000000E+02  0.51100000000E-03 0. -1.
         11   -1    0    0    0    0 -0.00000000000E+00 -0.00000000000E+00 -0.45593999997E+02  0.45594000000E+02  0.51100000000E-03 0.  1.
    9900012    2    1    2    0    0 -0.13787315902E+02 -0.21070997996E+02  0.31923161103E+02  0.50528865096E+02  0.30000015946E+02 0.  0.
        -12    1    1    2    0    0  0.13787315902E+02  0.21070997996E+02 -0.31923161103E+02  0.40659134904E+02  0.00000000000E+00 0.  1.
         11    1    3    3    0    0 -0.27929227037E+01  0.84212619068E+00  0.42726851387E+00  0.29482456469E+01  0.51100000000E-03 0. -1.
        -11    1    3    3    0    0 -0.12036048753E+01  0.41769491251E+01 -0.13068615231E+01  0.45391029941E+01  0.51100000000E-03 0.  1.
         12    1    3    3    0    0 -0.97907883231E+01 -0.26090073311E+02  0.32802754113E+02  0.43041516455E+02  0.00000000000E+00 0. -1.
</event>
<event>
 7    1  0.2937071E-011  0.5052887E+02  0.7816164E-02  0.1300439E+00
        -11   -1    0    0    0    0  0.00000000000E+00  0.00000000000E+00  0.45593999997E+02  0.45594000000E+02  0.51100000000E-03 0.  1.
         11   -1    0    0    0    0 -0.00000000000E+00 -0.00000000000E+00 -0.45593999997E+02  0.45594000000E+02  0.51100000000E-03 0. -1.
    9900012    2    1    2    0    0  0.12566409881E+02 -0.10925131002E+02 -0.37093017072E+02  0.50528867444E+02  0.30000023082E+02 0.  0.
        -12    1    1    2    0    0 -0.12566409881E+02  0.10925131002E+02  0.37093017072E+02  0.40659132556E+02  0.00000000000E+00 0.  1.
         11    1    3    3    0    0 -0.59891488558E+01 -0.42645604182E+01 -0.11397304606E+02  0.13562998640E+02  0.51100000000E-03 0. -1.
        -11    1    3    3    0    0 -0.82451035405E+00  0.87762910713E+00  0.19988259413E+01  0.23335285682E+01  0.51100000000E-03 0.  1.
         12    1    3    3    0    0  0.19380069091E+02 -0.75381996907E+01 -0.27694538408E+02  0.34632340235E+02  0.00000000000E+00 0. -1.
</event>
<event>
 7    1  0.2937071E-011  0.5052887E+02  0.7816164E-02  0.1300439E+00
        -11   -1    0    0    0    0  0.00000000000E+00  0.00000000000E+00  0.45593999997E+02  0.45594000000E+02  0.51100000000E-03 0. -1.
         11   -1    0    0    0    0 -0.00000000000E+00 -0.00000000000E+00 -0.45593999997E+02  0.45594000000E+02  0.51100000000E-03 0.  1.
    9900012    2    1    2    0    0 -0.16304145067E+02 -0.29596586830E+02  0.22613751314E+02  0.50528870068E+02  0.30000031059E+02 0.  0.
        -12    1    1    2    0    0  0.16304145067E+02  0.29596586830E+02 -0.22613751314E+02  0.40659129932E+02  0.00000000000E+00 0.  1.
         11    1    3    3    0    0 -0.43409934039E+00 -0.53701559717E+01  0.84580829693E+01  0.10028269301E+02  0.51100000000E-03 0.  1.
        -11    1    3    3    0    0 -0.12469906299E+02 -0.11488193240E+02  0.19879084383E+02  0.26127670068E+02  0.51100000000E-03 0. -1.
        -12    1    3    3    0    0 -0.34001394277E+01 -0.12738237618E+02 -0.57234160382E+01  0.14372930699E+02  0.00000000000E+00 0.  1.
</event>
<event>
 7    1  0.2937071E-011  0.5052887E+02  0.7816164E-02  0.1300439E+00
        -11   -1    0    0    0    0  0.00000000000E+00  0.00000000000E+00  0.45593999997E+02  0.45594000000E+02  0.51100000000E-03 0.  1.
         11   -1    0    0    0    0 -0.00000000000E+00 -0.00000000000E+00 -0.45593999997E+02  0.45594000000E+02  0.51100000000E-03 0. -1.
    9900012    2    1    2    0    0  0.31093759212E+01  0.35130736368E+02 -0.20231854038E+02  0.50528870961E+02  0.30000033773E+02 0.  0.
        -12    1    1    2    0    0 -0.31093759212E+01 -0.35130736368E+02  0.20231854038E+02  0.40659129039E+02  0.00000000000E+00 0.  1.
         11    1    3    3    0    0 -0.80265890027E+00  0.54953649193E+01 -0.11126786764E+01  0.56640401662E+01  0.51100000000E-03 0. -1.
        -11    1    3    3    0    0 -0.89864117145E+01  0.83847344504E+00 -0.38840366088E+01  0.98256996626E+01  0.51100000000E-03 0.  1.
         12    1    3    3    0    0  0.12898446536E+02  0.28796898004E+02 -0.15235138752E+02  0.35039131132E+02  0.00000000000E+00 0. -1.
</event>
<event>
 7    1  0.2937071E-011  0.5052885E+02  0.7816164E-02  0.1300439E+00
        -11   -1    0    0    0    0  0.00000000000E+00  0.00000000000E+00  0.45593999997E+02  0.45594000000E+02  0.51100000000E-03 0. -1.
         11   -1    0    0    0    0 -0.00000000000E+00 -0.00000000000E+00 -0.45593999997E+02  0.45594000000E+02  0.51100000000E-03 0.  1.
    9900012    2    1    2    0    0 -0.93310465298E+01 -0.31516745119E+02  0.23933083124E+02  0.50528854411E+02  0.29999983467E+02 0.  0.
        -12    1    1    2    0    0  0.93310465298E+01  0.31516745119E+02 -0.23933083124E+02  0.40659145589E+02  0.00000000000E+00 0.  1.
         11    1    3    3    0    0 -0.14772065120E+02 -0.25481350247E+02  0.17026579787E+02  0.34020839758E+02  0.51100000000E-03 0. -1.
        -11    1    3    3    0    0 -0.26186806335E+01 -0.33733284029E+01  0.67875761549E+01  0.80192283353E+01  0.51100000000E-03 0.  1.
        -12    1    3    3    0    0  0.80596992241E+01 -0.26620664688E+01  0.11892718198E+00  0.84887863173E+01  0.00000000000E+00 0.  1.
</event>
<event>
 7    1  0.2937071E-011  0.5052885E+02  0.7816164E-02  0.1300439E+00
        -11   -1    0    0    0    0  0.00000000000E+00  0.00000000000E+00  0.45593999997E+02  0.45594000000E+02  0.51100000000E-03 0.  1.
         11   -1    0    0    0    0 -0.00000000000E+00 -0.00000000000E+00 -0.45593999997E+02  0.45594000000E+02  0.51100000000E-03 0. -1.
    9900012    2    1    2    0    0  0.97766661758E+00 -0.14042715079E+02 -0.38144630724E+02  0.50528849346E+02  0.29999968073E+02 0.  0.
        -12    1    1    2    0    0 -0.97766661758E+00  0.14042715079E+02  0.38144630724E+02  0.40659150654E+02  0.00000000000E+00 0.  1.
         11    1    3    3    0    0 -0.25836984509E+01 -0.65934587266E+01 -0.14152118429E+02  0.15825032447E+02  0.51100000000E-03 0. -1.
        -11    1    3    3    0    0  0.27732083409E+01  0.77206992124E+01 -0.14875013718E+02  0.16987227973E+02  0.51100000000E-03 0.  1.
         12    1    3    3    0    0  0.78815672755E+00 -0.15169955565E+02 -0.91174985772E+01  0.17716588926E+02  0.00000000000E+00 0. -1.
</event>
<event>
 7    1  0.2937071E-011  0.5052887E+02  0.7816164E-02  0.1300439E+00
        -11   -1    0    0    0    0  0.00000000000E+00  0.00000000000E+00  0.45593999997E+02  0.45594000000E+02  0.51100000000E-03 0.  1.
         11   -1    0    0    0    0 -0.00000000000E+00 -0.00000000000E+00 -0.45593999997E+02  0.45594000000E+02  0.51100000000E-03 0. -1.
    9900012    2    1    2    0    0  0.16280184884E+02  0.11115888655E+02 -0.35560619727E+02  0.50528867252E+02  0.30000022498E+02 0.  0.
        -12    1    1    2    0    0 -0.16280184884E+02 -0.11115888655E+02  0.35560619727E+02  0.40659132748E+02  0.00000000000E+00 0.  1.
         11    1    3    3    0    0  0.20149823926E+02  0.96048646929E+01 -0.27125842666E+02  0.35129477233E+02  0.51100000000E-03 0. -1.
        -11    1    3    3    0    0 -0.28457987775E+01 -0.52881965744E+01 -0.40915422723E+01  0.72666575617E+01  0.51100000000E-03 0.  1.
        -12    1    3    3    0    0 -0.10238402639E+01  0.67992205369E+01 -0.43432347883E+01  0.81327324573E+01  0.00000000000E+00 0.  1.
</event>
<event>
 7    1  0.2937071E-011  0.5052886E+02  0.7816164E-02  0.1300439E+00
        -11   -1    0    0    0    0  0.00000000000E+00  0.00000000000E+00  0.45593999997E+02  0.45594000000E+02  0.51100000000E-03 0.  1.
         11   -1    0    0    0    0 -0.00000000000E+00 -0.00000000000E+00 -0.45593999997E+02  0.45594000000E+02  0.51100000000E-03 0. -1.
    9900012    2    1    2    0    0 -0.12888116187E+02 -0.30405330794E+02  0.23718727239E+02  0.50528859560E+02  0.29999999117E+02 0.  0.
        -12    1    1    2    0    0  0.12888116187E+02  0.30405330794E+02 -0.23718727239E+02  0.40659140440E+02  0.00000000000E+00 0.  1.
         11    1    3    3    0    0 -0.59694246544E+01 -0.13131187746E+02 -0.93874141047E+00  0.14454873159E+02  0.51100000000E-03 0. -1.
        -11    1    3    3    0    0 -0.67352373277E+01 -0.72150997299E+01  0.47435720811E+00  0.98816041712E+01  0.51100000000E-03 0.  1.
        -12    1    3    3    0    0 -0.18345420514E+00 -0.10059043317E+02  0.24183111441E+02  0.26192382230E+02  0.00000000000E+00 0.  1.
</event>
<event>
 7    1  0.2937071E-011  0.5052886E+02  0.7816164E-02  0.1300439E+00
        -11   -1    0    0    0    0  0.00000000000E+00  0.00000000000E+00  0.45593999997E+02  0.45594000000E+02  0.51100000000E-03 0. -1.
         11   -1    0    0    0    0 -0.00000000000E+00 -0.00000000000E+00 -0.45593999997E+02  0.45594000000E+02  0.51100000000E-03 0.  1.
    9900012    2    1    2    0    0 -0.25086849905E+02  0.28865850115E+02  0.13805020651E+02  0.50528856672E+02  0.29999990339E+02 0.  0.
        -12    1    1    2    0    0  0.25086849905E+02 -0.28865850115E+02 -0.13805020651E+02  0.40659143328E+02  0.00000000000E+00 0.  1.
         11    1    3    3    0    0 -0.16219276322E+02  0.15858338989E+02 -0.15530747259E+01  0.22736839738E+02  0.51100000000E-03 0. -1.
        -11    1    3    3    0    0  0.25732390148E+01 -0.13043210076E+01 -0.11728613911E+01  0.31142280620E+01  0.51100000000E-03 0.  1.
         12    1    3    3    0    0 -0.11440812598E+02  0.14311832134E+02  0.16530956768E+02  0.24677788872E+02  0.00000000000E+00 0. -1.
</event>
<event>
 7    1  0.2937071E-011  0.5052886E+02  0.7816164E-02  0.1300439E+00
        -11   -1    0    0    0    0  0.00000000000E+00  0.00000000000E+00  0.45593999997E+02  0.45594000000E+02  0.51100000000E-03 0.  1.
         11   -1    0    0    0    0 -0.00000000000E+00 -0.00000000000E+00 -0.45593999997E+02  0.45594000000E+02  0.51100000000E-03 0. -1.
    9900012    2    1    2    0    0  0.22538308023E+02 -0.17270202391E+02 -0.29102071811E+02  0.50528858312E+02  0.29999995324E+02 0.  0.
        -12    1    1    2    0    0 -0.22538308023E+02  0.17270202391E+02  0.29102071811E+02  0.40659141688E+02  0.00000000000E+00 0.  1.
         11    1    3    3    0    0  0.53749773295E+01 -0.19337090391E+01 -0.15513623776E+02  0.16531852131E+02  0.51100000000E-03 0. -1.
        -11    1    3    3    0    0  0.17911609793E+02 -0.86483096931E+01 -0.17256315657E+02  0.26332479114E+02  0.51100000000E-03 0.  1.
        -12    1    3    3    0    0 -0.74827910046E+00 -0.66881836588E+01  0.36678676226E+01  0.76645270672E+01  0.00000000000E+00 0.  1.
</event>
<event>
 7    1  0.2937071E-011  0.5052884E+02  0.7816164E-02  0.1300439E+00
        -11   -1    0    0    0    0  0.00000000000E+00  0.00000000000E+00  0.45593999997E+02  0.45594000000E+02  0.51100000000E-03 0.  1.
         11   -1    0    0    0    0 -0.00000000000E+00 -0.00000000000E+00 -0.45593999997E+02  0.45594000000E+02  0.51100000000E-03 0. -1.
    9900012    2    1    2    0    0 -0.53783255769E+01 -0.27940443338E+02 -0.29044316575E+02  0.50528842541E+02  0.29999947389E+02 0.  0.
        -12    1    1    2    0    0  0.53783255769E+01  0.27940443338E+02  0.29044316575E+02  0.40659157459E+02  0.00000000000E+00 0.  1.
         11    1    3    3    0    0 -0.51251201461E+01 -0.63499342701E+01  0.41476150486E+01  0.91537551092E+01  0.51100000000E-03 0.  1.
        -11    1    3    3    0    0 -0.25982600339E+01 -0.16715998164E+02 -0.15749883338E+02  0.23113510665E+02  0.51100000000E-03 0. -1.
        -12    1    3    3    0    0  0.23450546031E+01 -0.48745109037E+01 -0.17442048285E+02  0.18261576767E+02  0.00000000000E+00 0.  1.
</event>
<event>
 7    1  0.2937071E-011  0.5052887E+02  0.7816164E-02  0.1300439E+00
        -11   -1    0    0    0    0  0.00000000000E+00  0.00000000000E+00  0.45593999997E+02  0.45594000000E+02  0.51100000000E-03 0.  1.
         11   -1    0    0    0    0 -0.00000000000E+00 -0.00000000000E+00 -0.45593999997E+02  0.45594000000E+02  0.51100000000E-03 0. -1.
    9900012    2    1    2    0    0  0.69800392750E+01 -0.16813694807E+02 -0.36355785906E+02  0.50528874946E+02  0.30000045886E+02 0.  0.
        -12    1    1    2    0    0 -0.69800392750E+01  0.16813694807E+02  0.36355785906E+02  0.40659125054E+02  0.00000000000E+00 0.  1.
         11    1    3    3    0    0  0.48595792351E+01  0.20893456257E+00 -0.98881722469E+01  0.11019760190E+02  0.51100000000E-03 0. -1.
        -11    1    3    3    0    0  0.46695444462E+00  0.50973799934E+01 -0.19170635325E+00  0.51223120597E+01  0.51100000000E-03 0.  1.
        -12    1    3    3    0    0  0.16535055952E+01 -0.22120009363E+02 -0.26275907306E+02  0.34386802697E+02  0.00000000000E+00 0.  1.
</event>
<event>
 7    1  0.2937071E-011  0.5052885E+02  0.7816164E-02  0.1300439E+00
        -11   -1    0    0    0    0  0.00000000000E+00  0.00000000000E+00  0.45593999997E+02  0.45594000000E+02  0.51100000000E-03 0.  1.
         11   -1    0    0    0    0 -0.00000000000E+00 -0.00000000000E+00 -0.45593999997E+02  0.45594000000E+02  0.51100000000E-03 0. -1.
    9900012    2    1    2    0    0  0.64796246745E+01  0.35701912640E+02  0.18345428675E+02  0.50528845369E+02  0.29999955982E+02 0.  0.
        -12    1    1    2    0    0 -0.64796246745E+01 -0.35701912640E+02 -0.18345428675E+02  0.40659154631E+02  0.00000000000E+00 0.  1.
         11    1    3    3    0    0  0.67507296595E+01  0.20455225835E+02  0.54685200810E+01  0.22223710920E+02  0.51100000000E-03 0. -1.
        -11    1    3    3    0    0 -0.14177895965E+01  0.13522191575E+02  0.18128136992E+02  0.22660298837E+02  0.51100000000E-03 0.  1.
         12    1    3    3    0    0  0.11466846115E+01  0.17244952300E+01 -0.52512283981E+01  0.56448356120E+01  0.00000000000E+00 0. -1.
</event>
<event>
 7    1  0.2937071E-011  0.5052887E+02  0.7816164E-02  0.1300439E+00
        -11   -1    0    0    0    0  0.00000000000E+00  0.00000000000E+00  0.45593999997E+02  0.45594000000E+02  0.51100000000E-03 0.  1.
         11   -1    0    0    0    0 -0.00000000000E+00 -0.00000000000E+00 -0.45593999997E+02  0.45594000000E+02  0.51100000000E-03 0. -1.
    9900012    2    1    2    0    0  0.28612719290E+02 -0.10619094497E+02 -0.26864703324E+02  0.50528866244E+02  0.30000019435E+02 0.  0.
        -12    1    1    2    0    0 -0.28612719290E+02  0.10619094497E+02  0.26864703324E+02  0.40659133756E+02  0.00000000000E+00 0.  1.
         11    1    3    3    0    0  0.15489269682E+02 -0.16168667130E+02 -0.20722426562E+02  0.30508396138E+02  0.51100000000E-03 0. -1.
        -11    1    3    3    0    0  0.40757225835E+01 -0.11618489662E+00 -0.81915783800E+01  0.91502442658E+01  0.51100000000E-03 0.  1.
         12    1    3    3    0    0  0.90477270242E+01  0.56657575299E+01  0.20493016173E+01  0.10870225840E+02  0.00000000000E+00 0. -1.
</event>
<event>
 7    1  0.2937071E-011  0.5052886E+02  0.7816164E-02  0.1300439E+00
        -11   -1    0    0    0    0  0.00000000000E+00  0.00000000000E+00  0.45593999997E+02  0.45594000000E+02  0.51100000000E-03 0. -1.
         11   -1    0    0    0    0 -0.00000000000E+00 -0.00000000000E+00 -0.45593999997E+02  0.45594000000E+02  0.51100000000E-03 0.  1.
    9900012    2    1    2    0    0  0.29181340061E+02  0.18223582105E+02  0.21668314745E+02  0.50528863064E+02  0.30000009770E+02 0.  0.
        -12    1    1    2    0    0 -0.29181340061E+02 -0.18223582105E+02 -0.21668314745E+02  0.40659136936E+02  0.00000000000E+00 0.  1.
         11    1    3    3    0    0  0.20142303244E+02  0.16448949575E+02  0.27781307454E+01  0.26153361788E+02  0.51100000000E-03 0. -1.
        -11    1    3    3    0    0  0.54271101732E+01  0.45139150379E+01  0.26918368813E+01  0.75547958184E+01  0.51100000000E-03 0.  1.
        -12    1    3    3    0    0  0.36119266437E+01 -0.27392825083E+01  0.16198347118E+02  0.16820705458E+02  0.00000000000E+00 0.  1.
</event>
<event>
 7    1  0.2937071E-011  0.5052886E+02  0.7816164E-02  0.1300439E+00
        -11   -1    0    0    0    0  0.00000000000E+00  0.00000000000E+00  0.45593999997E+02  0.45594000000E+02  0.51100000000E-03 0.  1.
         11   -1    0    0    0    0 -0.00000000000E+00 -0.00000000000E+00 -0.45593999997E+02  0.45594000000E+02  0.51100000000E-03 0. -1.
    9900012    2    1    2    0    0 -0.13496007021E+02  0.13227677267E+02 -0.36000720179E+02  0.50528861977E+02  0.30000006466E+02 0.  0.
        -12    1    1    2    0    0  0.13496007021E+02 -0.13227677267E+02  0.36000720179E+02  0.40659138023E+02  0.00000000000E+00 0.  1.
         11    1    3    3    0    0 -0.19734448694E+00 -0.32352090266E+01 -0.36238135545E+01  0.48618460724E+01  0.51100000000E-03 0. -1.
        -11    1    3    3    0    0 -0.81961634411E+01 -0.37628127763E+01 -0.18592910967E+02  0.20664757284E+02  0.51100000000E-03 0.  1.
        -12    1    3    3    0    0 -0.51024990928E+01  0.20225699070E+02 -0.13783995658E+02  0.25002258621E+02  0.00000000000E+00 0.  1.
</event>
<event>
 7    1  0.2937071E-011  0.5052883E+02  0.7816164E-02  0.1300439E+00
        -11   -1    0    0    0    0  0.00000000000E+00  0.00000000000E+00  0.45593999997E+02  0.45594000000E+02  0.51100000000E-03 0. -1.
         11   -1    0    0    0    0 -0.00000000000E+00 -0.00000000000E+00 -0.45593999997E+02  0.45594000000E+02  0.51100000000E-03 0.  1.
    9900012    2    1    2    0    0  0.37963761244E+01 -0.14615824756E+02  0.37750938421E+02  0.50528829366E+02  0.29999907341E+02 0.  0.
        -12    1    1    2    0    0 -0.37963761244E+01  0.14615824756E+02 -0.37750938421E+02  0.40659170634E+02  0.00000000000E+00 0.  1.
         11    1    3    3    0    0 -0.27393384962E+01 -0.65965660634E+01  0.42112632098E+01  0.82917668388E+01  0.51100000000E-03 0. -1.
        -11    1    3    3    0    0 -0.61011985046E+01 -0.84257336090E+01  0.24724801529E+02  0.26824120134E+02  0.51100000000E-03 0.  1.
        -12    1    3    3    0    0  0.12636913125E+02  0.40647491601E+00  0.88148736815E+01  0.15412942393E+02  0.00000000000E+00 0.  1.
</event>
<event>
 7    1  0.2937071E-011  0.5052886E+02  0.7816164E-02  0.1300439E+00
        -11   -1    0    0    0    0  0.00000000000E+00  0.00000000000E+00  0.45593999997E+02  0.45594000000E+02  0.51100000000E-03 0.  1.
         11   -1    0    0    0    0 -0.00000000000E+00 -0.00000000000E+00 -0.45593999997E+02  0.45594000000E+02  0.51100000000E-03 0. -1.
    9900012    2    1    2    0    0 -0.27291060187E+02  0.17297126578E+02 -0.24681440223E+02  0.50528855328E+02  0.29999986254E+02 0.  0.
        -12    1    1    2    0    0  0.27291060187E+02 -0.17297126578E+02  0.24681440223E+02  0.40659144672E+02  0.00000000000E+00 0.  1.
         11    1    3    3    0    0 -0.10496996380E+02  0.26255478663E+01 -0.78393825033E+01  0.13361749620E+02  0.51100000000E-03 0. -1.
        -11    1    3    3    0    0 -0.20640665232E+02  0.37597397090E+01 -0.14095476493E+02  0.25275584301E+02  0.51100000000E-03 0.  1.
        -12    1    3    3    0    0  0.38466014251E+01  0.10911839003E+02 -0.27465812265E+01  0.11891521407E+02  0.00000000000E+00 0.  1.
</event>
<event>
 7    1  0.2937071E-011  0.5052885E+02  0.7816164E-02  0.1300439E+00
        -11   -1    0    0    0    0  0.00000000000E+00  0.00000000000E+00  0.45593999997E+02  0.45594000000E+02  0.51100000000E-03 0.  1.
         11   -1    0    0    0    0 -0.00000000000E+00 -0.00000000000E+00 -0.45593999997E+02  0.45594000000E+02  0.51100000000E-03 0. -1.
    9900012    2    1    2    0    0 -0.12102301813E+02 -0.30935175613E+02 -0.23446012713E+02  0.50528852056E+02  0.29999976310E+02 0.  0.
        -12    1    1    2    0    0  0.12102301813E+02  0.30935175613E+02  0.23446012713E+02  0.40659147944E+02  0.00000000000E+00 0.  1.
         11    1    3    3    0    0  0.36070261036E+01 -0.71656899969E+00  0.28480165219E+01  0.46513768729E+01  0.51100000000E-03 0.  1.
        -11    1    3    3    0    0 -0.33184155732E+01 -0.17593737214E+02 -0.20602174679E+02  0.27294707781E+02  0.51100000000E-03 0. -1.
        -12    1    3    3    0    0 -0.12390912343E+02 -0.12624869400E+02 -0.56918545556E+01  0.18582767402E+02  0.00000000000E+00 0.  1.
</event>
<event>
 7    1  0.2937071E-011  0.5052887E+02  0.7816164E-02  0.1300439E+00
        -11   -1    0    0    0    0  0.00000000000E+00  0.00000000000E+00  0.45593999997E+02  0.45594000000E+02  0.51100000000E-03 0.  1.
         11   -1    0    0    0    0 -0.00000000000E+00 -0.00000000000E+00 -0.45593999997E+02  0.45594000000E+02  0.51100000000E-03 0. -1.
    9900012    2    1    2    0    0  0.31750630442E+02  0.24533004253E+02 -0.65722359618E+01  0.50528866749E+02  0.30000020971E+02 0.  0.
        -12    1    1    2    0    0 -0.31750630442E+02 -0.24533004253E+02  0.65722359618E+01  0.40659133251E+02  0.00000000000E+00 0.  1.
         11    1    3    3    0    0  0.22077533092E+02  0.27362328566E+01 -0.11911364203E+02  0.25234599959E+02  0.51100000000E-03 0. -1.
        -11    1    3    3    0    0  0.88507693736E+01  0.12786959759E+02  0.45975921214E+01  0.16216667720E+02  0.51100000000E-03 0.  1.
        -12    1    3    3    0    0  0.82232797692E+00  0.90098116380E+01  0.74153612025E+00  0.90775990698E+01  0.00000000000E+00 0.  1.
</event>
<event>
 7    1  0.2937071E-011  0.5052885E+02  0.7816164E-02  0.1300439E+00
        -11   -1    0    0    0    0  0.00000000000E+00  0.00000000000E+00  0.45593999997E+02  0.45594000000E+02  0.51100000000E-03 0.  1.
         11   -1    0    0    0    0 -0.00000000000E+00 -0.00000000000E+00 -0.45593999997E+02  0.45594000000E+02  0.51100000000E-03 0. -1.
    9900012    2    1    2    0    0 -0.37155473973E+02  0.39294542280E+01 -0.16037339566E+02  0.50528854448E+02  0.29999983579E+02 0.  0.
        -12    1    1    2    0    0  0.37155473973E+02 -0.39294542280E+01  0.16037339566E+02  0.40659145552E+02  0.00000000000E+00 0.  1.
         11    1    3    3    0    0 -0.28644691270E+02 -0.72649773905E+00 -0.11666274772E+02  0.30937810269E+02  0.51100000000E-03 0. -1.
        -11    1    3    3    0    0 -0.50422329233E+01  0.99497647522E+00  0.60953886141E+01  0.79729451056E+01  0.51100000000E-03 0.  1.
        -12    1    3    3    0    0 -0.34685497794E+01  0.36609754919E+01 -0.10466453408E+02  0.11618099073E+02  0.00000000000E+00 0.  1.
</event>
<event>
 7    1  0.2937071E-011  0.5052887E+02  0.7816164E-02  0.1300439E+00
        -11   -1    0    0    0    0  0.00000000000E+00  0.00000000000E+00  0.45593999997E+02  0.45594000000E+02  0.51100000000E-03 0.  1.
         11   -1    0    0    0    0 -0.00000000000E+00 -0.00000000000E+00 -0.45593999997E+02  0.45594000000E+02  0.51100000000E-03 0. -1.
    9900012    2    1    2    0    0  0.19430371940E+02 -0.25336982564E+02 -0.25172666966E+02  0.50528865709E+02  0.30000017808E+02 0.  0.
        -12    1    1    2    0    0 -0.19430371940E+02  0.25336982564E+02  0.25172666966E+02  0.40659134291E+02  0.00000000000E+00 0.  1.
         11    1    3    3    0    0  0.59300560561E+01 -0.13849617209E+01 -0.18018726549E+02  0.19019941917E+02  0.51100000000E-03 0. -1.
        -11    1    3    3    0    0  0.42657880399E+01  0.69629889419E+00 -0.15933460095E+01  0.46065748141E+01  0.51100000000E-03 0.  1.
         12    1    3    3    0    0  0.92345278440E+01 -0.24648319737E+02 -0.55605944072E+01  0.26902348978E+02  0.00000000000E+00 0. -1.
</event>
<event>
 7    1  0.2937071E-011  0.5052885E+02  0.7816164E-02  0.1300439E+00
        -11   -1    0    0    0    0  0.00000000000E+00  0.00000000000E+00  0.45593999997E+02  0.45594000000E+02  0.51100000000E-03 0.  1.
         11   -1    0    0    0    0 -0.00000000000E+00 -0.00000000000E+00 -0.45593999997E+02  0.45594000000E+02  0.51100000000E-03 0. -1.
    9900012    2    1    2    0    0 -0.13757916355E+02  0.45998548713E+01 -0.37983257705E+02  0.50528846133E+02  0.29999958307E+02 0.  0.
        -12    1    1    2    0    0  0.13757916355E+02 -0.45998548713E+01  0.37983257705E+02  0.40659153867E+02  0.00000000000E+00 0.  1.
         11    1    3    3    0    0 -0.25928635084E+01  0.43327663320E+01 -0.28379515909E+02  0.28825209952E+02  0.51100000000E-03 0. -1.
        -11    1    3    3    0    0 -0.14405051025E+02  0.35653949592E+01 -0.73168305689E+01  0.16545499270E+02  0.51100000000E-03 0.  1.
         12    1    3    3    0    0  0.32399981789E+01 -0.32983064199E+01 -0.22869112267E+01  0.51581369115E+01  0.00000000000E+00 0. -1.
</event>
<event>
 7    1  0.2937071E-011  0.5052886E+02  0.7816164E-02  0.1300439E+00
        -11   -1    0    0    0    0  0.00000000000E+00  0.00000000000E+00  0.45593999997E+02  0.45594000000E+02  0.51100000000E-03 0.  1.
         11   -1    0    0    0    0 -0.00000000000E+00 -0.00000000000E+00 -0.45593999997E+02  0.45594000000E+02  0.51100000000E-03 0. -1.
    9900012    2    1    2    0    0 -0.35077130205E+02  0.67945234072E+01 -0.19406056832E+02  0.50528860148E+02  0.30000000906E+02 0.  0.
        -12    1    1    2    0    0  0.35077130205E+02 -0.67945234072E+01  0.19406056832E+02  0.40659139852E+02  0.00000000000E+00 0.  1.
         11    1    3    3    0    0 -0.32288354670E+02  0.44462520633E+01 -0.13241585535E+02  0.35180201712E+02  0.51100000000E-03 0. -1.
        -11    1    3    3    0    0 -0.89103806824E+00  0.62618244261E+01  0.15324019228E+01  0.65078913556E+01  0.51100000000E-03 0.  1.
        -12    1    3    3    0    0 -0.18977374661E+01 -0.39135530822E+01 -0.76968732198E+01  0.88407670809E+01  0.00000000000E+00 0.  1.
</event>
<event>
 7    1  0.2937071E-011  0.5052886E+02  0.7816164E-02  0.1300439E+00
        -11   -1    0    0    0    0  0.00000000000E+00  0.00000000000E+00  0.45593999997E+02  0.45594000000E+02  0.51100000000E-03 0. -1.
         11   -1    0    0    0    0 -0.00000000000E+00 -0.00000000000E+00 -0.45593999997E+02  0.45594000000E+02  0.51100000000E-03 0.  1.
    9900012    2    1    2    0    0  0.38774727852E+02 -0.11669853031E+02  0.36742982971E+01  0.50528862556E+02  0.30000008224E+02 0.  0.
        -12    1    1    2    0    0 -0.38774727852E+02  0.11669853031E+02 -0.36742982971E+01  0.40659137444E+02  0.00000000000E+00 0.  1.
         11    1    3    3    0    0  0.19175722796E+02 -0.81427284564E+01 -0.22547994891E+01  0.20954629380E+02  0.51100000000E-03 0. -1.
        -11    1    3    3    0    0  0.14791787943E+02 -0.47017466803E+01 -0.60147916972E+01  0.16645754168E+02  0.51100000000E-03 0.  1.
         12    1    3    3    0    0  0.48072171136E+01  0.11746221059E+01  0.11943889483E+02  0.12928479008E+02  0.00000000000E+00 0. -1.
</event>
<event>
 7    1  0.2937071E-011  0.5052886E+02  0.7816164E-02  0.1300439E+00
        -11   -1    0    0    0    0  0.00000000000E+00  0.00000000000E+00  0.45593999997E+02  0.45594000000E+02  0.51100000000E-03 0.  1.
         11   -1    0    0    0    0 -0.00000000000E+00 -0.00000000000E+00 -0.45593999997E+02  0.45594000000E+02  0.51100000000E-03 0. -1.
    9900012    2    1    2    0    0 -0.32099472299E+01 -0.14690581139E+02 -0.37776300170E+02  0.50528858470E+02  0.29999995804E+02 0.  0.
        -12    1    1    2    0    0  0.32099472299E+01  0.14690581139E+02  0.37776300170E+02  0.40659141530E+02  0.00000000000E+00 0.  1.
         11    1    3    3    0    0  0.66201783330E+01 -0.45283247733E+01 -0.23206610519E+02  0.24553599705E+02  0.51100000000E-03 0. -1.
        -11    1    3    3    0    0  0.10420867873E+01 -0.10952215125E+01 -0.11358663981E+02  0.11458826412E+02  0.51100000000E-03 0.  1.
         12    1    3    3    0    0 -0.10872212350E+02 -0.90670348532E+01 -0.32110256702E+01  0.14516432353E+02  0.00000000000E+00 0. -1.
</event>
<event>
 7    1  0.2937071E-011  0.5052886E+02  0.7816164E-02  0.1300439E+00
        -11   -1    0    0    0    0  0.00000000000E+00  0.00000000000E+00  0.45593999997E+02  0.45594000000E+02  0.51100000000E-03 0.  1.
         11   -1    0    0    0    0 -0.00000000000E+00 -0.00000000000E+00 -0.45593999997E+02  0.45594000000E+02  0.51100000000E-03 0. -1.
    9900012    2    1    2    0    0  0.12412451312E+02  0.10303307659E+02 -0.37322086802E+02  0.50528864992E+02  0.30000015631E+02 0.  0.
        -12    1    1    2    0    0 -0.12412451312E+02 -0.10303307659E+02  0.37322086802E+02  0.40659135008E+02  0.00000000000E+00 0.  1.
         11    1    3    3    0    0 -0.53623173975E+01  0.40998900341E+01 -0.18958028768E+02  0.20123876396E+02  0.51100000000E-03 0. -1.
        -11    1    3    3    0    0  0.53145331580E+01  0.42743736962E+01  0.13991809777E+01  0.69622008626E+01  0.51100000000E-03 0.  1.
        -12    1    3    3    0    0  0.12460235552E+02  0.19290439286E+01 -0.19763239012E+02  0.23442787733E+02  0.00000000000E+00 0.  1.
</event>
<event>
 7    1  0.2937071E-011  0.5052885E+02  0.7816164E-02  0.1300439E+00
        -11   -1    0    0    0    0  0.00000000000E+00  0.00000000000E+00  0.45593999997E+02  0.45594000000E+02  0.51100000000E-03 0. -1.
         11   -1    0    0    0    0 -0.00000000000E+00 -0.00000000000E+00 -0.45593999997E+02  0.45594000000E+02  0.51100000000E-03 0.  1.
    9900012    2    1    2    0    0 -0.53898059897E+01  0.30141923884E+02  0.26750338992E+02  0.50528853179E+02  0.29999979723E+02 0.  0.
        -12    1    1    2    0    0  0.53898059897E+01 -0.30141923884E+02 -0.26750338992E+02  0.40659146821E+02  0.00000000000E+00 0.  1.
         11    1    3    3    0    0 -0.79718367273E+01  0.31524492612E+01  0.36789627030E+00  0.85804117079E+01  0.51100000000E-03 0. -1.
        -11    1    3    3    0    0 -0.54833667594E+01  0.14132466245E+01  0.32286600029E+01  0.65183450902E+01  0.51100000000E-03 0.  1.
         12    1    3    3    0    0  0.80653974969E+01  0.25576227998E+02  0.23153782718E+02  0.35430096381E+02  0.00000000000E+00 0. -1.
</event>
<event>
 7    1  0.2937071E-011  0.5052886E+02  0.7816164E-02  0.1300439E+00
        -11   -1    0    0    0    0  0.00000000000E+00  0.00000000000E+00  0.45593999997E+02  0.45594000000E+02  0.51100000000E-03 0.  1.
         11   -1    0    0    0    0 -0.00000000000E+00 -0.00000000000E+00 -0.45593999997E+02  0.45594000000E+02  0.51100000000E-03 0. -1.
    9900012    2    1    2    0    0 -0.13190839139E+02  0.24558807363E+02 -0.29597838631E+02  0.50528864398E+02  0.30000013824E+02 0.  0.
        -12    1    1    2    0    0  0.13190839139E+02 -0.24558807363E+02  0.29597838631E+02  0.40659135602E+02  0.00000000000E+00 0.  1.
         11    1    3    3    0    0 -0.26296324406E+01  0.17990550644E+02 -0.13364107904E+02  0.22564889975E+02  0.51100000000E-03 0.  1.
        -11    1    3    3    0    0 -0.33420674534E+01 -0.59762573576E+01 -0.10195604937E+02  0.12281507528E+02  0.51100000000E-03 0. -1.
         12    1    3    3    0    0 -0.72191392450E+01  0.12544514076E+02 -0.60381257903E+01  0.15682466895E+02  0.00000000000E+00 0. -1.
</event>
<event>
 7    1  0.2937071E-011  0.5052886E+02  0.7816164E-02  0.1300439E+00
        -11   -1    0    0    0    0  0.00000000000E+00  0.00000000000E+00  0.45593999997E+02  0.45594000000E+02  0.51100000000E-03 0. -1.
         11   -1    0    0    0    0 -0.00000000000E+00 -0.00000000000E+00 -0.45593999997E+02  0.45594000000E+02  0.51100000000E-03 0.  1.
    9900012    2    1    2    0    0 -0.31289211548E+02  0.25882509829E+02  0.20606448211E+01  0.50528864109E+02  0.30000012944E+02 0.  0.
        -12    1    1    2    0    0  0.31289211548E+02 -0.25882509829E+02 -0.20606448211E+01  0.40659135891E+02  0.00000000000E+00 0.  1.
         11    1    3    3    0    0 -0.48320138734E+01 -0.38474087768E+01  0.14043228337E+01  0.63342746428E+01  0.51100000000E-03 0. -1.
        -11    1    3    3    0    0 -0.56121907103E+01 -0.12353603945E+00  0.50104759080E+01  0.75244145823E+01  0.51100000000E-03 0.  1.
         12    1    3    3    0    0 -0.20845006964E+02  0.29853454645E+02 -0.43541539205E+01  0.36670174883E+02  0.00000000000E+00 0. -1.
</event>
<event>
 7    1  0.2937071E-011  0.5052885E+02  0.7816164E-02  0.1300439E+00
        -11   -1    0    0    0    0  0.00000000000E+00  0.00000000000E+00  0.45593999997E+02  0.45594000000E+02  0.51100000000E-03 0.  1.
         11   -1    0    0    0    0 -0.00000000000E+00 -0.00000000000E+00 -0.45593999997E+02  0.45594000000E+02  0.51100000000E-03 0. -1.
    9900012    2    1    2    0    0 -0.36574723535E+02  0.15640664888E+02 -0.84157788061E+01  0.50528854255E+02  0.29999982994E+02 0.  0.
        -12    1    1    2    0    0  0.36574723535E+02 -0.15640664888E+02  0.84157788061E+01  0.40659145745E+02  0.00000000000E+00 0.  1.
         11    1    3    3    0    0  0.82625386145E+00 -0.28472165381E+01  0.29728209787E+01  0.41984523686E+01  0.51100000000E-03 0. -1.
        -11    1    3    3    0    0  0.16597353917E+00  0.24839494996E+01  0.21719571623E+01  0.33037782171E+01  0.51100000000E-03 0.  1.
         12    1    3    3    0    0 -0.37566950935E+02  0.16003931927E+02 -0.13560556947E+02  0.43026623670E+02  0.00000000000E+00 0. -1.
</event>
<event>
 7    1  0.2937071E-011  0.5052886E+02  0.7816164E-02  0.1300439E+00
        -11   -1    0    0    0    0  0.00000000000E+00  0.00000000000E+00  0.45593999997E+02  0.45594000000E+02  0.51100000000E-03 0.  1.
         11   -1    0    0    0    0 -0.00000000000E+00 -0.00000000000E+00 -0.45593999997E+02  0.45594000000E+02  0.51100000000E-03 0. -1.
    9900012    2    1    2    0    0  0.95626168360E+01 -0.20783979166E+02 -0.33611733338E+02  0.50528855288E+02  0.29999986134E+02 0.  0.
        -12    1    1    2    0    0 -0.95626168360E+01  0.20783979166E+02  0.33611733338E+02  0.40659144712E+02  0.00000000000E+00 0.  1.
         11    1    3    3    0    0 -0.32260577798E+01 -0.94693240290E+00  0.10916673621E+01  0.35349494571E+01  0.51100000000E-03 0. -1.
        -11    1    3    3    0    0  0.70016329510E+01 -0.73588356301E+01 -0.54731835095E+00  0.10172260489E+02  0.51100000000E-03 0.  1.
         12    1    3    3    0    0  0.57870416648E+01 -0.12478211133E+02 -0.34156082349E+02  0.36821645342E+02  0.00000000000E+00 0. -1.
</event>
<event>
 7    1  0.2937071E-011  0.5052886E+02  0.7816164E-02  0.1300439E+00
        -11   -1    0    0    0    0  0.00000000000E+00  0.00000000000E+00  0.45593999997E+02  0.45594000000E+02  0.51100000000E-03 0.  1.
         11   -1    0    0    0    0 -0.00000000000E+00 -0.00000000000E+00 -0.45593999997E+02  0.45594000000E+02  0.51100000000E-03 0. -1.
    9900012    2    1    2    0    0  0.19259213158E+02  0.42596708754E+01 -0.35554236424E+02  0.50528858160E+02  0.29999994864E+02 0.  0.
        -12    1    1    2    0    0 -0.19259213158E+02 -0.42596708754E+01  0.35554236424E+02  0.40659141840E+02  0.00000000000E+00 0.  1.
         11    1    3    3    0    0  0.65254516590E+01  0.50764774901E+01 -0.17060693558E+01  0.84417306264E+01  0.51100000000E-03 0. -1.
        -11    1    3    3    0    0  0.10291490820E+02 -0.42430305824E+01 -0.38251679526E+01  0.11770726483E+02  0.51100000000E-03 0.  1.
        -12    1    3    3    0    0  0.24422706787E+01  0.34262239677E+01 -0.30022999116E+02  0.30316401051E+02  0.00000000000E+00 0.  1.
</event>
<event>
 7    1  0.2937071E-011  0.5052886E+02  0.7816164E-02  0.1300439E+00
        -11   -1    0    0    0    0  0.00000000000E+00  0.00000000000E+00  0.45593999997E+02  0.45594000000E+02  0.51100000000E-03 0.  1.
         11   -1    0    0    0    0 -0.00000000000E+00 -0.00000000000E+00 -0.45593999997E+02  0.45594000000E+02  0.51100000000E-03 0. -1.
    9900012    2    1    2    0    0  0.26506062735E+02 -0.29619334885E+02 -0.85609295461E+01  0.50528857419E+02  0.29999992611E+02 0.  0.
        -12    1    1    2    0    0 -0.26506062735E+02  0.29619334885E+02  0.85609295461E+01  0.40659142581E+02  0.00000000000E+00 0.  1.
         11    1    3    3    0    0  0.27192434053E+02 -0.31238658874E+02 -0.93035526648E+01  0.42448066746E+02  0.51100000000E-03 0. -1.
        -11    1    3    3    0    0  0.32262885484E+01 -0.82286328939E+00 -0.32857978660E+00  0.33457445700E+01  0.51100000000E-03 0.  1.
        -12    1    3    3    0    0 -0.39126598668E+01  0.24421872786E+01  0.10712029053E+01  0.47350461034E+01  0.00000000000E+00 0.  1.
</event>
<event>
 7    1  0.2937071E-011  0.5052886E+02  0.7816164E-02  0.1300439E+00
        -11   -1    0    0    0    0  0.00000000000E+00  0.00000000000E+00  0.45593999997E+02  0.45594000000E+02  0.51100000000E-03 0. -1.
         11   -1    0    0    0    0 -0.00000000000E+00 -0.00000000000E+00 -0.45593999997E+02  0.45594000000E+02  0.51100000000E-03 0.  1.
    9900012    2    1    2    0    0  0.33381307831E+02  0.22717214984E+02  0.47730661453E+01  0.50528859213E+02  0.29999998062E+02 0.  0.
        -12    1    1    2    0    0 -0.33381307831E+02 -0.22717214984E+02 -0.47730661453E+01  0.40659140787E+02  0.00000000000E+00 0.  1.
         11    1    3    3    0    0  0.14963421364E+02  0.19245773896E+02  0.86940393599E+01  0.25882235460E+02  0.51100000000E-03 0. -1.
        -11    1    3    3    0    0  0.61902961092E+01  0.86092790862E+01  0.63509107960E+00  0.10622748855E+02  0.51100000000E-03 0.  1.
        -12    1    3    3    0    0  0.12227590358E+02 -0.51378379986E+01 -0.45560642942E+01  0.14023874897E+02  0.00000000000E+00 0.  1.
</event>
<event>
 7    1  0.2937071E-011  0.5052883E+02  0.7816164E-02  0.1300439E+00
        -11   -1    0    0    0    0  0.00000000000E+00  0.00000000000E+00  0.45593999997E+02  0.45594000000E+02  0.51100000000E-03 0.  1.
         11   -1    0    0    0    0 -0.00000000000E+00 -0.00000000000E+00 -0.45593999997E+02  0.45594000000E+02  0.51100000000E-03 0. -1.
    9900012    2    1    2    0    0  0.39275769738E+02 -0.27864742105E+01 -0.10139894890E+02  0.50528831348E+02  0.29999913366E+02 0.  0.
        -12    1    1    2    0    0 -0.39275769738E+02  0.27864742105E+01  0.10139894890E+02  0.40659168652E+02  0.00000000000E+00 0.  1.
         11    1    3    3    0    0  0.47338587626E+01 -0.36197970231E+01 -0.10830120510E+01  0.60568361904E+01  0.51100000000E-03 0. -1.
        -11    1    3    3    0    0  0.14795105949E+02  0.19314749708E+01 -0.17474451229E+02  0.22977863295E+02  0.51100000000E-03 0.  1.
         12    1    3    3    0    0  0.19746805027E+02 -0.10981521582E+01  0.84175683897E+01  0.21494131863E+02  0.00000000000E+00 0. -1.
</event>
<event>
 7    1  0.2937071E-011  0.5052885E+02  0.7816164E-02  0.1300439E+00
        -11   -1    0    0    0    0  0.00000000000E+00  0.00000000000E+00  0.45593999997E+02  0.45594000000E+02  0.51100000000E-03 0. -1.
         11   -1    0    0    0    0 -0.00000000000E+00 -0.00000000000E+00 -0.45593999997E+02  0.45594000000E+02  0.51100000000E-03 0.  1.
    9900012    2    1    2    0    0 -0.13484464148E+02 -0.34981960169E+02  0.15735246072E+02  0.50528852449E+02  0.29999977505E+02 0.  0.
        -12    1    1    2    0    0  0.13484464148E+02  0.34981960169E+02 -0.15735246072E+02  0.40659147551E+02  0.00000000000E+00 0.  1.
         11    1    3    3    0    0  0.19879233197E+01 -0.69387016084E+01  0.88666662209E+01  0.11433074358E+02  0.51100000000E-03 0. -1.
        -11    1    3    3    0    0 -0.12480176273E+01  0.16613637320E+01  0.57809847819E+01  0.61430825127E+01  0.51100000000E-03 0.  1.
         12    1    3    3    0    0 -0.14224369840E+02 -0.29704622292E+02  0.10875950694E+01  0.32952695579E+02  0.00000000000E+00 0. -1.
</event>
<event>
 7    1  0.2937071E-011  0.5052886E+02  0.7816164E-02  0.1300439E+00
        -11   -1    0    0    0    0  0.00000000000E+00  0.00000000000E+00  0.45593999997E+02  0.45594000000E+02  0.51100000000E-03 0. -1.
         11   -1    0    0    0    0 -0.00000000000E+00 -0.00000000000E+00 -0.45593999997E+02  0.45594000000E+02  0.51100000000E-03 0.  1.
    9900012    2    1    2    0    0  0.50859330630E+01  0.30384028889E+02  0.26535067976E+02  0.50528858848E+02  0.29999996956E+02 0.  0.
        -12    1    1    2    0    0 -0.50859330630E+01 -0.30384028889E+02 -0.26535067976E+02  0.40659141152E+02  0.00000000000E+00 0.  1.
         11    1    3    3    0    0 -0.25046963296E+00  0.47405417578E+01  0.16894281416E+01  0.50388132433E+01  0.51100000000E-03 0. -1.
        -11    1    3    3    0    0 -0.98139450129E+01  0.20394256989E+01  0.73997051098E+01  0.12459069382E+02  0.51100000000E-03 0.  1.
         12    1    3    3    0    0  0.15150347709E+02  0.23604061433E+02  0.17445934725E+02  0.33030976223E+02  0.00000000000E+00 0. -1.
</event>
<event>
 7    1  0.2937071E-011  0.5052886E+02  0.7816164E-02  0.1300439E+00
        -11   -1    0    0    0    0  0.00000000000E+00  0.00000000000E+00  0.45593999997E+02  0.45594000000E+02  0.51100000000E-03 0.  1.
         11   -1    0    0    0    0 -0.00000000000E+00 -0.00000000000E+00 -0.45593999997E+02  0.45594000000E+02  0.51100000000E-03 0. -1.
    9900012    2    1    2    0    0 -0.19542909979E+01 -0.16883331353E+02 -0.36936430234E+02  0.50528855772E+02  0.29999987605E+02 0.  0.
        -12    1    1    2    0    0  0.19542909979E+01  0.16883331353E+02  0.36936430234E+02  0.40659144228E+02  0.00000000000E+00 0.  1.
         11    1    3    3    0    0 -0.11790930269E+01 -0.97365004766E+01 -0.17926108437E+01  0.99701131285E+01  0.51100000000E-03 0. -1.
        -11    1    3    3    0    0  0.26253926351E+01 -0.45323467201E+01 -0.85031085485E-01  0.52385192399E+01  0.51100000000E-03 0.  1.
         12    1    3    3    0    0 -0.34005906061E+01 -0.26144841561E+01 -0.35058788305E+02  0.35320223404E+02  0.00000000000E+00 0. -1.
</event>
<event>
 7    1  0.2937071E-011  0.5052886E+02  0.7816164E-02  0.1300439E+00
        -11   -1    0    0    0    0  0.00000000000E+00  0.00000000000E+00  0.45593999997E+02  0.45594000000E+02  0.51100000000E-03 0. -1.
         11   -1    0    0    0    0 -0.00000000000E+00 -0.00000000000E+00 -0.45593999997E+02  0.45594000000E+02  0.51100000000E-03 0.  1.
    9900012    2    1    2    0    0  0.17103089049E+02 -0.35303527053E+02  0.10691646142E+02  0.50528856200E+02  0.29999988904E+02 0.  0.
        -12    1    1    2    0    0 -0.17103089049E+02  0.35303527053E+02 -0.10691646142E+02  0.40659143800E+02  0.00000000000E+00 0.  1.
         11    1    3    3    0    0  0.10390838995E+02 -0.15822753123E+02  0.12357924696E+00  0.18929984773E+02  0.51100000000E-03 0. -1.
        -11    1    3    3    0    0  0.63900371529E+01 -0.77610350099E+01 -0.56920520228E+01  0.11552735422E+02  0.51100000000E-03 0.  1.
         12    1    3    3    0    0  0.32221290036E+00 -0.11719738920E+02  0.16260118917E+02  0.20046136004E+02  0.00000000000E+00 0. -1.
</event>
<event>
 7    1  0.2937071E-011  0.5052886E+02  0.7816164E-02  0.1300439E+00
        -11   -1    0    0    0    0  0.00000000000E+00  0.00000000000E+00  0.45593999997E+02  0.45594000000E+02  0.51100000000E-03 0.  1.
         11   -1    0    0    0    0 -0.00000000000E+00 -0.00000000000E+00 -0.45593999997E+02  0.45594000000E+02  0.51100000000E-03 0. -1.
    9900012    2    1    2    0    0  0.35003910948E+02  0.18726566575E+02 -0.87867688882E+01  0.50528863452E+02  0.30000010949E+02 0.  0.
        -12    1    1    2    0    0 -0.35003910948E+02 -0.18726566575E+02  0.87867688882E+01  0.40659136548E+02  0.00000000000E+00 0.  1.
         11    1    3    3    0    0  0.18742878894E+02  0.29827435992E+01 -0.16426990501E+02  0.25100563455E+02  0.51100000000E-03 0. -1.
        -11    1    3    3    0    0  0.13740143697E+01  0.30976757790E+01  0.45171306621E+01  0.56469443418E+01  0.51100000000E-03 0.  1.
        -12    1    3    3    0    0  0.14887017684E+02  0.12646147197E+02  0.31230909507E+01  0.19781355655E+02  0.00000000000E+00 0.  1.
</event>
<event>
 7    1  0.2937071E-011  0.5052886E+02  0.7816164E-02  0.1300439E+00
        -11   -1    0    0    0    0  0.00000000000E+00  0.00000000000E+00  0.45593999997E+02  0.45594000000E+02  0.51100000000E-03 0.  1.
         11   -1    0    0    0    0 -0.00000000000E+00 -0.00000000000E+00 -0.45593999997E+02  0.45594000000E+02  0.51100000000E-03 0. -1.
    9900012    2    1    2    0    0  0.16426406784E+02  0.22563904728E+02 -0.29567025161E+02  0.50528860643E+02  0.30000002412E+02 0.  0.
        -12    1    1    2    0    0 -0.16426406784E+02 -0.22563904728E+02  0.29567025161E+02  0.40659139357E+02  0.00000000000E+00 0.  1.
         11    1    3    3    0    0  0.40591862857E+01  0.32588123680E+01 -0.19710680573E+02  0.20386460709E+02  0.51100000000E-03 0. -1.
        -11    1    3    3    0    0  0.44899743426E+01  0.29754665962E+01 -0.10714038748E+02  0.11991826284E+02  0.51100000000E-03 0.  1.
        -12    1    3    3    0    0  0.78772461552E+01  0.16329625763E+02  0.85769416050E+00  0.18150573650E+02  0.00000000000E+00 0.  1.
</event>
<event>
 7    1  0.2937071E-011  0.5052893E+02  0.7816164E-02  0.1300439E+00
        -11   -1    0    0    0    0  0.00000000000E+00  0.00000000000E+00  0.45593999997E+02  0.45594000000E+02  0.51100000000E-03 0.  1.
         11   -1    0    0    0    0 -0.00000000000E+00 -0.00000000000E+00 -0.45593999997E+02  0.45594000000E+02  0.51100000000E-03 0. -1.
    9900012    2    1    2    0    0 -0.92086833240E+01 -0.19817054369E+02 -0.34287672104E+02  0.50528930277E+02  0.30000214070E+02 0.  0.
        -12    1    1    2    0    0  0.92086833240E+01  0.19817054369E+02  0.34287672104E+02  0.40659069723E+02  0.00000000000E+00 0.  1.
         11    1    3    3    0    0 -0.14912478182E+01 -0.30810540868E+01 -0.14186414738E+02  0.14593528625E+02  0.51100000000E-03 0. -1.
        -11    1    3    3    0    0 -0.58912456193E+01 -0.54749681335E+01 -0.22830222807E+02  0.24205394537E+02  0.51100000000E-03 0.  1.
        -12    1    3    3    0    0 -0.18261898865E+01 -0.11261032149E+02  0.27289654411E+01  0.11730007116E+02  0.00000000000E+00 0.  1.
</event>
<event>
 7    1  0.2937071E-011  0.5052886E+02  0.7816164E-02  0.1300439E+00
        -11   -1    0    0    0    0  0.00000000000E+00  0.00000000000E+00  0.45593999997E+02  0.45594000000E+02  0.51100000000E-03 0.  1.
         11   -1    0    0    0    0 -0.00000000000E+00 -0.00000000000E+00 -0.45593999997E+02  0.45594000000E+02  0.51100000000E-03 0. -1.
    9900012    2    1    2    0    0 -0.16562407101E+02  0.12379351889E+02 -0.35008628907E+02  0.50528858591E+02  0.29999996174E+02 0.  0.
        -12    1    1    2    0    0  0.16562407101E+02 -0.12379351889E+02  0.35008628907E+02  0.40659141409E+02  0.00000000000E+00 0.  1.
         11    1    3    3    0    0  0.43713812797E+01  0.29266571425E+01 -0.32364688373E+01  0.61764898704E+01  0.51100000000E-03 0.  1.
        -11    1    3    3    0    0  0.21916563734E+01 -0.25600233745E+01 -0.14620594084E+00  0.33731963737E+01  0.51100000000E-03 0. -1.
        -12    1    3    3    0    0 -0.23125444755E+02  0.12012718121E+02 -0.31625954128E+02  0.40979172347E+02  0.00000000000E+00 0.  1.
</event>
<event>
 7    1  0.2937071E-011  0.5052885E+02  0.7816164E-02  0.1300439E+00
        -11   -1    0    0    0    0  0.00000000000E+00  0.00000000000E+00  0.45593999997E+02  0.45594000000E+02  0.51100000000E-03 0.  1.
         11   -1    0    0    0    0 -0.00000000000E+00 -0.00000000000E+00 -0.45593999997E+02  0.45594000000E+02  0.51100000000E-03 0. -1.
    9900012    2    1    2    0    0  0.17883270847E+02  0.10353811871E+02 -0.35016480294E+02  0.50528847419E+02  0.29999962216E+02 0.  0.
        -12    1    1    2    0    0 -0.17883270847E+02 -0.10353811871E+02  0.35016480294E+02  0.40659152581E+02  0.00000000000E+00 0.  1.
         11    1    3    3    0    0 -0.11348627594E+01 -0.74236356344E+01 -0.54219023472E+01  0.92625754970E+01  0.51100000000E-03 0. -1.
        -11    1    3    3    0    0  0.28636141225E+01  0.68806405128E+00  0.58874211462E+00  0.30033873410E+01  0.51100000000E-03 0.  1.
        -12    1    3    3    0    0  0.16154519484E+02  0.17089383454E+02 -0.30183320061E+02  0.38262884581E+02  0.00000000000E+00 0.  1.
</event>
<event>
 7    1  0.2937071E-011  0.5052886E+02  0.7816164E-02  0.1300439E+00
        -11   -1    0    0    0    0  0.00000000000E+00  0.00000000000E+00  0.45593999997E+02  0.45594000000E+02  0.51100000000E-03 0.  1.
         11   -1    0    0    0    0 -0.00000000000E+00 -0.00000000000E+00 -0.45593999997E+02  0.45594000000E+02  0.51100000000E-03 0. -1.
    9900012    2    1    2    0    0  0.38956402179E+02  0.80754153953E+01 -0.83876060763E+01  0.50528861541E+02  0.30000005139E+02 0.  0.
        -12    1    1    2    0    0 -0.38956402179E+02 -0.80754153953E+01  0.83876060763E+01  0.40659138459E+02  0.00000000000E+00 0.  1.
         11    1    3    3    0    0  0.21095362788E+02 -0.43153423685E+01 -0.25474013751E+01  0.21682383747E+02  0.51100000000E-03 0. -1.
        -11    1    3    3    0    0  0.79179352910E+01 -0.34579852071E+01  0.14610160624E+01  0.87627580795E+01  0.51100000000E-03 0.  1.
         12    1    3    3    0    0  0.99431041000E+01  0.15848742971E+02 -0.73012207637E+01  0.20083719714E+02  0.00000000000E+00 0. -1.
</event>
<event>
 7    1  0.2937071E-011  0.5052885E+02  0.7816164E-02  0.1300439E+00
        -11   -1    0    0    0    0  0.00000000000E+00  0.00000000000E+00  0.45593999997E+02  0.45594000000E+02  0.51100000000E-03 0.  1.
         11   -1    0    0    0    0 -0.00000000000E+00 -0.00000000000E+00 -0.45593999997E+02  0.45594000000E+02  0.51100000000E-03 0. -1.
    9900012    2    1    2    0    0 -0.32858705884E+00 -0.40648622500E+02  0.86473583316E+00  0.50528852829E+02  0.29999978658E+02 0.  0.
        -12    1    1    2    0    0  0.32858705884E+00  0.40648622500E+02 -0.86473583316E+00  0.40659147171E+02  0.00000000000E+00 0.  1.
         11    1    3    3    0    0  0.42745887452E+01  0.71163119867E+00 -0.28216796298E+01  0.51711124623E+01  0.51100000000E-03 0. -1.
        -11    1    3    3    0    0 -0.23439745491E+01 -0.30325539344E+02  0.10519258112E+02  0.32183650269E+02  0.51100000000E-03 0.  1.
         12    1    3    3    0    0 -0.22592012549E+01 -0.11034714355E+02 -0.68328426491E+01  0.13174090097E+02  0.00000000000E+00 0. -1.
</event>
<event>
 7    1  0.2937071E-011  0.5052886E+02  0.7816164E-02  0.1300439E+00
        -11   -1    0    0    0    0  0.00000000000E+00  0.00000000000E+00  0.45593999997E+02  0.45594000000E+02  0.51100000000E-03 0.  1.
         11   -1    0    0    0    0 -0.00000000000E+00 -0.00000000000E+00 -0.45593999997E+02  0.45594000000E+02  0.51100000000E-03 0. -1.
    9900012    2    1    2    0    0 -0.41967413338E+01  0.40425045046E+02 -0.11698305464E+01  0.50528863163E+02  0.30000010071E+02 0.  0.
        -12    1    1    2    0    0  0.41967413338E+01 -0.40425045046E+02  0.11698305464E+01  0.40659136837E+02  0.00000000000E+00 0.  1.
         11    1    3    3    0    0 -0.23854925337E+01  0.15280449059E+02 -0.82281583350E+01  0.17518141680E+02  0.51100000000E-03 0. -1.
        -11    1    3    3    0    0 -0.67548126747E+01  0.76199587052E+01 -0.48243600724E+01  0.11267906430E+02  0.51100000000E-03 0.  1.
        -12    1    3    3    0    0  0.49435638746E+01  0.17524637282E+02  0.11882687861E+02  0.21742815053E+02  0.00000000000E+00 0.  1.
</event>
<event>
 7    1  0.2937071E-011  0.5052887E+02  0.7816164E-02  0.1300439E+00
        -11   -1    0    0    0    0  0.00000000000E+00  0.00000000000E+00  0.45593999997E+02  0.45594000000E+02  0.51100000000E-03 0.  1.
         11   -1    0    0    0    0 -0.00000000000E+00 -0.00000000000E+00 -0.45593999997E+02  0.45594000000E+02  0.51100000000E-03 0. -1.
    9900012    2    1    2    0    0 -0.22776795308E+02  0.88655284101E+01 -0.32492842309E+02  0.50528870646E+02  0.30000032817E+02 0.  0.
        -12    1    1    2    0    0  0.22776795308E+02 -0.88655284101E+01  0.32492842309E+02  0.40659129354E+02  0.00000000000E+00 0.  1.
         11    1    3    3    0    0 -0.78526454956E+01 -0.14820380369E+01  0.17128157675E+01  0.81727728548E+01  0.51100000000E-03 0. -1.
        -11    1    3    3    0    0 -0.25231868269E+01  0.26861116532E+01  0.13528383065E+01  0.39257915535E+01  0.51100000000E-03 0.  1.
         12    1    3    3    0    0 -0.12400962985E+02  0.76614547938E+01 -0.35558496383E+02  0.38430306238E+02  0.00000000000E+00 0. -1.
</event>
<event>
 7    1  0.2937071E-011  0.5052886E+02  0.7816164E-02  0.1300439E+00
        -11   -1    0    0    0    0  0.00000000000E+00  0.00000000000E+00  0.45593999997E+02  0.45594000000E+02  0.51100000000E-03 0.  1.
         11   -1    0    0    0    0 -0.00000000000E+00 -0.00000000000E+00 -0.45593999997E+02  0.45594000000E+02  0.51100000000E-03 0. -1.
    9900012    2    1    2    0    0  0.14757339393E+01  0.28252673025E+02 -0.29202296728E+02  0.50528862553E+02  0.30000008217E+02 0.  0.
        -12    1    1    2    0    0 -0.14757339393E+01 -0.28252673025E+02  0.29202296728E+02  0.40659137447E+02  0.00000000000E+00 0.  1.
         11    1    3    3    0    0 -0.49669294851E+01  0.12424933735E+02 -0.55336711613E+01  0.14480016699E+02  0.51100000000E-03 0. -1.
        -11    1    3    3    0    0 -0.10866230337E+01  0.34587539163E+01  0.36407294501E+01  0.51379606325E+01  0.51100000000E-03 0.  1.
         12    1    3    3    0    0  0.75292864581E+01  0.12368985374E+02 -0.27309355017E+02  0.30910885221E+02  0.00000000000E+00 0. -1.
</event>
<event>
 7    1  0.2937071E-011  0.5052886E+02  0.7816164E-02  0.1300439E+00
        -11   -1    0    0    0    0  0.00000000000E+00  0.00000000000E+00  0.45593999997E+02  0.45594000000E+02  0.51100000000E-03 0. -1.
         11   -1    0    0    0    0 -0.00000000000E+00 -0.00000000000E+00 -0.45593999997E+02  0.45594000000E+02  0.51100000000E-03 0.  1.
    9900012    2    1    2    0    0 -0.36492807785E+02  0.12730908989E+02  0.12623972005E+02  0.50528859171E+02  0.29999997937E+02 0.  0.
        -12    1    1    2    0    0  0.36492807785E+02 -0.12730908989E+02 -0.12623972005E+02  0.40659140829E+02  0.00000000000E+00 0.  1.
         11    1    3    3    0    0 -0.17465459470E+01 -0.40942404149E+00  0.70936673295E+00  0.19290547462E+01  0.51100000000E-03 0. -1.
        -11    1    3    3    0    0 -0.34119775208E+02  0.18140959867E+02  0.35122425218E+01  0.38801924346E+02  0.51100000000E-03 0.  1.
        -12    1    3    3    0    0 -0.62648663031E+00 -0.50006268366E+01  0.84023627508E+01  0.97978800795E+01  0.00000000000E+00 0.  1.
</event>
<event>
 7    1  0.2937071E-011  0.5052885E+02  0.7816164E-02  0.1300439E+00
        -11   -1    0    0    0    0  0.00000000000E+00  0.00000000000E+00  0.45593999997E+02  0.45594000000E+02  0.51100000000E-03 0. -1.
         11   -1    0    0    0    0 -0.00000000000E+00 -0.00000000000E+00 -0.45593999997E+02  0.45594000000E+02  0.51100000000E-03 0.  1.
    9900012    2    1    2    0    0 -0.38359676864E+02  0.75847399580E+01  0.11143295643E+02  0.50528854324E+02  0.29999983203E+02 0.  0.
        -12    1    1    2    0    0  0.38359676864E+02 -0.75847399580E+01 -0.11143295643E+02  0.40659145676E+02  0.00000000000E+00 0.  1.
         11    1    3    3    0    0 -0.40912069602E+01  0.10815640264E+02  0.31441082421E+01  0.11983382895E+02  0.51100000000E-03 0. -1.
        -11    1    3    3    0    0 -0.89466267735E+01  0.58501589717E+01  0.92255337014E+00  0.10729286817E+02  0.51100000000E-03 0.  1.
        -12    1    3    3    0    0 -0.25321843130E+02 -0.90810592782E+01  0.70766340306E+01  0.27816184611E+02  0.00000000000E+00 0.  1.
</event>
<event>
 7    1  0.2937071E-011  0.5052886E+02  0.7816164E-02  0.1300439E+00
        -11   -1    0    0    0    0  0.00000000000E+00  0.00000000000E+00  0.45593999997E+02  0.45594000000E+02  0.51100000000E-03 0. -1.
         11   -1    0    0    0    0 -0.00000000000E+00 -0.00000000000E+00 -0.45593999997E+02  0.45594000000E+02  0.51100000000E-03 0.  1.
    9900012    2    1    2    0    0  0.40609462423E+02 -0.13534689531E+01  0.14850633457E+01  0.50528859212E+02  0.29999998061E+02 0.  0.
        -12    1    1    2    0    0 -0.40609462423E+02  0.13534689531E+01 -0.14850633457E+01  0.40659140788E+02  0.00000000000E+00 0.  1.
         11    1    3    3    0    0  0.42150287311E+02  0.52984680153E+00  0.34879126541E+01  0.42297671248E+02  0.51100000000E-03 0. -1.
        -11    1    3    3    0    0 -0.16005259770E+01  0.18864177394E+01  0.16563606608E+01  0.29772111431E+01  0.51100000000E-03 0.  1.
        -12    1    3    3    0    0  0.59701088395E-01 -0.37697334940E+01 -0.36592099692E+01  0.52539768209E+01  0.00000000000E+00 0.  1.
</event>
<event>
 7    1  0.2937071E-011  0.5052886E+02  0.7816164E-02  0.1300439E+00
        -11   -1    0    0    0    0  0.00000000000E+00  0.00000000000E+00  0.45593999997E+02  0.45594000000E+02  0.51100000000E-03 0. -1.
         11   -1    0    0    0    0 -0.00000000000E+00 -0.00000000000E+00 -0.45593999997E+02  0.45594000000E+02  0.51100000000E-03 0.  1.
    9900012    2    1    2    0    0  0.18871610298E+02  0.13142924302E+02  0.33530455577E+02  0.50528860983E+02  0.30000003443E+02 0.  0.
        -12    1    1    2    0    0 -0.18871610298E+02 -0.13142924302E+02 -0.33530455577E+02  0.40659139017E+02  0.00000000000E+00 0.  1.
         11    1    3    3    0    0  0.11983215976E+02  0.71206394575E+01  0.43823367408E+01  0.14611839275E+02  0.51100000000E-03 0.  1.
        -11    1    3    3    0    0  0.11550126304E+02 -0.49062752299E+00  0.10481871085E+02  0.15604991340E+02  0.51100000000E-03 0. -1.
        -12    1    3    3    0    0 -0.46617319823E+01  0.65129123671E+01  0.18666247751E+02  0.20312030368E+02  0.00000000000E+00 0.  1.
</event>
<event>
 7    1  0.2937071E-011  0.5052886E+02  0.7816164E-02  0.1300439E+00
        -11   -1    0    0    0    0  0.00000000000E+00  0.00000000000E+00  0.45593999997E+02  0.45594000000E+02  0.51100000000E-03 0. -1.
         11   -1    0    0    0    0 -0.00000000000E+00 -0.00000000000E+00 -0.45593999997E+02  0.45594000000E+02  0.51100000000E-03 0.  1.
    9900012    2    1    2    0    0  0.86466028331E+01 -0.31314596633E+02  0.24449909770E+02  0.50528858463E+02  0.29999995783E+02 0.  0.
        -12    1    1    2    0    0 -0.86466028331E+01  0.31314596633E+02 -0.24449909770E+02  0.40659141537E+02  0.00000000000E+00 0.  1.
         11    1    3    3    0    0  0.53176484345E+01  0.15207315973E+01  0.17508930414E+01  0.58013477889E+01  0.51100000000E-03 0. -1.
        -11    1    3    3    0    0 -0.21358142420E+01  0.20862025010E+01  0.61225020844E+00  0.30477522751E+01  0.51100000000E-03 0.  1.
         12    1    3    3    0    0  0.54647686406E+01 -0.34921530731E+02  0.22086766520E+02  0.41679758399E+02  0.00000000000E+00 0. -1.
</event>
<event>
 7    1  0.2937071E-011  0.5052887E+02  0.7816164E-02  0.1300439E+00
        -11   -1    0    0    0    0  0.00000000000E+00  0.00000000000E+00  0.45593999997E+02  0.45594000000E+02  0.51100000000E-03 0.  1.
         11   -1    0    0    0    0 -0.00000000000E+00 -0.00000000000E+00 -0.45593999997E+02  0.45594000000E+02  0.51100000000E-03 0. -1.
    9900012    2    1    2    0    0  0.25667026458E+02 -0.19112056505E+02 -0.25081831077E+02  0.50528865710E+02  0.30000017812E+02 0.  0.
        -12    1    1    2    0    0 -0.25667026458E+02  0.19112056505E+02  0.25081831077E+02  0.40659134290E+02  0.00000000000E+00 0.  1.
         11    1    3    3    0    0 -0.34415734829E+01 -0.97101699581E+00  0.69041979781E+00  0.36419749866E+01  0.51100000000E-03 0. -1.
        -11    1    3    3    0    0 -0.15614077778E+01 -0.25175822674E+01  0.11608746681E+01  0.31817990160E+01  0.51100000000E-03 0.  1.
         12    1    3    3    0    0  0.30670007718E+02 -0.15623457242E+02 -0.26933125543E+02  0.43705091707E+02  0.00000000000E+00 0. -1.
</event>
<event>
 7    1  0.2937071E-011  0.5052887E+02  0.7816164E-02  0.1300439E+00
        -11   -1    0    0    0    0  0.00000000000E+00  0.00000000000E+00  0.45593999997E+02  0.45594000000E+02  0.51100000000E-03 0.  1.
         11   -1    0    0    0    0 -0.00000000000E+00 -0.00000000000E+00 -0.45593999997E+02  0.45594000000E+02  0.51100000000E-03 0. -1.
    9900012    2    1    2    0    0 -0.98183202360E+01  0.29532487628E+02 -0.26164822676E+02  0.50528865929E+02  0.30000018478E+02 0.  0.
        -12    1    1    2    0    0  0.98183202360E+01 -0.29532487628E+02  0.26164822676E+02  0.40659134071E+02  0.00000000000E+00 0.  1.
         11    1    3    3    0    0 -0.77859521504E+01  0.45461110079E+01 -0.63741176001E+01  0.11041628124E+02  0.51100000000E-03 0. -1.
        -11    1    3    3    0    0 -0.10551158570E+02  0.15676980200E+02 -0.40731418547E+01  0.19330937385E+02  0.51100000000E-03 0.  1.
        -12    1    3    3    0    0  0.85187904844E+01  0.93093964202E+01 -0.15717563221E+02  0.20156300420E+02  0.00000000000E+00 0.  1.
</event>
<event>
 7    1  0.2937071E-011  0.5052886E+02  0.7816164E-02  0.1300439E+00
        -11   -1    0    0    0    0  0.00000000000E+00  0.00000000000E+00  0.45593999997E+02  0.45594000000E+02  0.51100000000E-03 0. -1.
         11   -1    0    0    0    0 -0.00000000000E+00 -0.00000000000E+00 -0.45593999997E+02  0.45594000000E+02  0.51100000000E-03 0.  1.
    9900012    2    1    2    0    0 -0.92654106382E+00  0.27429398997E+02  0.29998919719E+02  0.50528860905E+02  0.30000003205E+02 0.  0.
        -12    1    1    2    0    0  0.92654106382E+00 -0.27429398997E+02 -0.29998919719E+02  0.40659139095E+02  0.00000000000E+00 0.  1.
         11    1    3    3    0    0 -0.37311882376E+01  0.63053901165E+00  0.12782091960E+02  0.13330462117E+02  0.51100000000E-03 0. -1.
        -11    1    3    3    0    0 -0.28111529153E+01 -0.11678910592E+01  0.56491338460E+01  0.64171071139E+01  0.51100000000E-03 0.  1.
         12    1    3    3    0    0  0.56158000891E+01  0.27966751045E+02  0.11567693912E+02  0.30781291674E+02  0.00000000000E+00 0. -1.
</event>
<event>
 7    1  0.2937071E-011  0.5052886E+02  0.7816164E-02  0.1300439E+00
        -11   -1    0    0    0    0  0.00000000000E+00  0.00000000000E+00  0.45593999997E+02  0.45594000000E+02  0.51100000000E-03 0.  1.
         11   -1    0    0    0    0 -0.00000000000E+00 -0.00000000000E+00 -0.45593999997E+02  0.45594000000E+02  0.51100000000E-03 0. -1.
    9900012    2    1    2    0    0 -0.22547549826E+02 -0.29000352003E+02 -0.17428511487E+02  0.50528862870E+02  0.30000009181E+02 0.  0.
        -12    1    1    2    0    0  0.22547549826E+02  0.29000352003E+02  0.17428511487E+02  0.40659137130E+02  0.00000000000E+00 0.  1.
         11    1    3    3    0    0 -0.88289845968E+01 -0.15599232767E+02  0.28241903288E-01  0.17924503613E+02  0.51100000000E-03 0.  1.
        -11    1    3    3    0    0 -0.60054756903E+01 -0.79330823769E+01 -0.20404194261E+02  0.22700895973E+02  0.51100000000E-03 0. -1.
         12    1    3    3    0    0 -0.77130895389E+01 -0.54680368594E+01  0.29474408708E+01  0.99034632840E+01  0.00000000000E+00 0. -1.
</event>
<event>
 7    1  0.2937071E-011  0.5052886E+02  0.7816164E-02  0.1300439E+00
        -11   -1    0    0    0    0  0.00000000000E+00  0.00000000000E+00  0.45593999997E+02  0.45594000000E+02  0.51100000000E-03 0. -1.
         11   -1    0    0    0    0 -0.00000000000E+00 -0.00000000000E+00 -0.45593999997E+02  0.45594000000E+02  0.51100000000E-03 0.  1.
    9900012    2    1    2    0    0  0.13796100937E+02  0.34033746331E+02  0.17450991826E+02  0.50528863190E+02  0.30000010153E+02 0.  0.
        -12    1    1    2    0    0 -0.13796100937E+02 -0.34033746331E+02 -0.17450991826E+02  0.40659136810E+02  0.00000000000E+00 0.  1.
         11    1    3    3    0    0 -0.22290762516E+00  0.14107349544E+02 -0.23847999966E+01  0.14309237235E+02  0.51100000000E-03 0. -1.
        -11    1    3    3    0    0  0.88545805499E+00  0.16215515230E+02  0.77688614929E+01  0.18002282613E+02  0.51100000000E-03 0.  1.
        -12    1    3    3    0    0  0.13133550507E+02  0.37108815577E+01  0.12066930330E+02  0.18217343342E+02  0.00000000000E+00 0.  1.
</event>
<event>
 7    1  0.2937071E-011  0.5052886E+02  0.7816164E-02  0.1300439E+00
        -11   -1    0    0    0    0  0.00000000000E+00  0.00000000000E+00  0.45593999997E+02  0.45594000000E+02  0.51100000000E-03 0.  1.
         11   -1    0    0    0    0 -0.00000000000E+00 -0.00000000000E+00 -0.45593999997E+02  0.45594000000E+02  0.51100000000E-03 0. -1.
    9900012    2    1    2    0    0  0.31947432973E+01  0.32527057655E+02 -0.24185742758E+02  0.50528855676E+02  0.29999987313E+02 0.  0.
        -12    1    1    2    0    0 -0.31947432973E+01 -0.32527057655E+02  0.24185742758E+02  0.40659144324E+02  0.00000000000E+00 0.  1.
         11    1    3    3    0    0 -0.65319973038E+01  0.12079174623E+02 -0.16694501589E+02  0.21616656354E+02  0.51100000000E-03 0. -1.
        -11    1    3    3    0    0 -0.28608760686E+01  0.36701429709E+01  0.29219807091E+01  0.54947732284E+01  0.51100000000E-03 0.  1.
         12    1    3    3    0    0  0.12587616670E+02  0.16777740061E+02 -0.10413221878E+02  0.23417426093E+02  0.00000000000E+00 0. -1.
</event>
<event>
 7    1  0.2937071E-011  0.5052886E+02  0.7816164E-02  0.1300439E+00
        -11   -1    0    0    0    0  0.00000000000E+00  0.00000000000E+00  0.45593999997E+02  0.45594000000E+02  0.51100000000E-03 0.  1.
         11   -1    0    0    0    0 -0.00000000000E+00 -0.00000000000E+00 -0.45593999997E+02  0.45594000000E+02  0.51100000000E-03 0. -1.
    9900012    2    1    2    0    0 -0.57778245757E+01 -0.10120052837E+02 -0.38953397462E+02  0.50528857115E+02  0.29999991688E+02 0.  0.
        -12    1    1    2    0    0  0.57778245757E+01  0.10120052837E+02  0.38953397462E+02  0.40659142885E+02  0.00000000000E+00 0.  1.
         11    1    3    3    0    0 -0.21372188843E+00 -0.53654849186E+01 -0.26167045502E+02  0.26712326294E+02  0.51100000000E-03 0. -1.
        -11    1    3    3    0    0  0.50621175713E+01 -0.74696330247E+01 -0.45834038793E+01  0.10120674049E+02  0.51100000000E-03 0.  1.
         12    1    3    3    0    0 -0.10626220259E+02  0.27150651058E+01 -0.82029480808E+01  0.13695856772E+02  0.00000000000E+00 0. -1.
</event>
<event>
 7    1  0.2937071E-011  0.5052886E+02  0.7816164E-02  0.1300439E+00
        -11   -1    0    0    0    0  0.00000000000E+00  0.00000000000E+00  0.45593999997E+02  0.45594000000E+02  0.51100000000E-03 0.  1.
         11   -1    0    0    0    0 -0.00000000000E+00 -0.00000000000E+00 -0.45593999997E+02  0.45594000000E+02  0.51100000000E-03 0. -1.
    9900012    2    1    2    0    0  0.34094797778E+02  0.97515651730E+01 -0.19890134769E+02  0.50528859330E+02  0.29999998421E+02 0.  0.
        -12    1    1    2    0    0 -0.34094797778E+02 -0.97515651730E+01  0.19890134769E+02  0.40659140670E+02  0.00000000000E+00 0.  1.
         11    1    3    3    0    0  0.16441691476E+02  0.96995720834E+01 -0.28165159737E+01  0.19296208946E+02  0.51100000000E-03 0. -1.
        -11    1    3    3    0    0  0.14672017236E+02 -0.57262635751E+00 -0.83074326604E+00  0.14706669418E+02  0.51100000000E-03 0.  1.
         12    1    3    3    0    0  0.29810890664E+01  0.62461944708E+00 -0.16242875529E+02  0.16525980967E+02  0.00000000000E+00 0. -1.
</event>
<event>
 7    1  0.2937071E-011  0.5052886E+02  0.7816164E-02  0.1300439E+00
        -11   -1    0    0    0    0  0.00000000000E+00  0.00000000000E+00  0.45593999997E+02  0.45594000000E+02  0.51100000000E-03 0. -1.
         11   -1    0    0    0    0 -0.00000000000E+00 -0.00000000000E+00 -0.45593999997E+02  0.45594000000E+02  0.51100000000E-03 0.  1.
    9900012    2    1    2    0    0 -0.66600012068E+01  0.32817296704E+00  0.40108632339E+02  0.50528859556E+02  0.29999999106E+02 0.  0.
        -12    1    1    2    0    0  0.66600012068E+01 -0.32817296704E+00 -0.40108632339E+02  0.40659140444E+02  0.00000000000E+00 0.  1.
         11    1    3    3    0    0 -0.15617668550E+01  0.67481878579E+01 -0.42804935693E+00  0.69397681221E+01  0.51100000000E-03 0.  1.
        -11    1    3    3    0    0 -0.75423647559E+01 -0.14767577833E+01  0.10287506310E+02  0.12841373213E+02  0.51100000000E-03 0. -1.
         12    1    3    3    0    0  0.24441304041E+01 -0.49432571076E+01  0.30249175386E+02  0.30747718221E+02  0.00000000000E+00 0. -1.
</event>
<event>
 7    1  0.2937071E-011  0.5052888E+02  0.7816164E-02  0.1300439E+00
        -11   -1    0    0    0    0  0.00000000000E+00  0.00000000000E+00  0.45593999997E+02  0.45594000000E+02  0.51100000000E-03 0.  1.
         11   -1    0    0    0    0 -0.00000000000E+00 -0.00000000000E+00 -0.45593999997E+02  0.45594000000E+02  0.51100000000E-03 0. -1.
    9900012    2    1    2    0    0 -0.30892912113E+02 -0.46963600175E+01 -0.26014159447E+02  0.50528876695E+02  0.30000051201E+02 0.  0.
        -12    1    1    2    0    0  0.30892912113E+02  0.46963600175E+01  0.26014159447E+02  0.40659123305E+02  0.00000000000E+00 0.  1.
         11    1    3    3    0    0 -0.17451315963E+02  0.12071024225E+01 -0.22060863757E+02  0.28154701829E+02  0.51100000000E-03 0. -1.
        -11    1    3    3    0    0 -0.34605340733E+01 -0.89808683850E+01 -0.65120708520E+01  0.11620600676E+02  0.51100000000E-03 0.  1.
        -12    1    3    3    0    0 -0.99810620769E+01  0.30774059450E+01  0.25587751624E+01  0.10753574190E+02  0.00000000000E+00 0.  1.
</event>
<event>
 7    1  0.2937071E-011  0.5052888E+02  0.7816164E-02  0.1300439E+00
        -11   -1    0    0    0    0  0.00000000000E+00  0.00000000000E+00  0.45593999997E+02  0.45594000000E+02  0.51100000000E-03 0.  1.
         11   -1    0    0    0    0 -0.00000000000E+00 -0.00000000000E+00 -0.45593999997E+02  0.45594000000E+02  0.51100000000E-03 0. -1.
    9900012    2    1    2    0    0 -0.76358927812E+01 -0.32288680948E+02 -0.23501032979E+02  0.50528876461E+02  0.30000050490E+02 0.  0.
        -12    1    1    2    0    0  0.76358927812E+01  0.32288680948E+02  0.23501032979E+02  0.40659123539E+02  0.00000000000E+00 0.  1.
         11    1    3    3    0    0 -0.10310909710E+01  0.21298916213E+01  0.17851196333E+00  0.23730684126E+01  0.51100000000E-03 0. -1.
        -11    1    3    3    0    0  0.41258969095E+01  0.15284455942E+01 -0.20699043966E+01  0.48624762945E+01  0.51100000000E-03 0.  1.
         12    1    3    3    0    0 -0.10730698720E+02 -0.35947018163E+02 -0.21609640545E+02  0.43293331754E+02  0.00000000000E+00 0. -1.
</event>
<event>
 7    1  0.2937071E-011  0.5052886E+02  0.7816164E-02  0.1300439E+00
        -11   -1    0    0    0    0  0.00000000000E+00  0.00000000000E+00  0.45593999997E+02  0.45594000000E+02  0.51100000000E-03 0.  1.
         11   -1    0    0    0    0 -0.00000000000E+00 -0.00000000000E+00 -0.45593999997E+02  0.45594000000E+02  0.51100000000E-03 0. -1.
    9900012    2    1    2    0    0  0.37738822424E+02 -0.69126029425E+01 -0.13459671305E+02  0.50528861432E+02  0.30000004810E+02 0.  0.
        -12    1    1    2    0    0 -0.37738822424E+02  0.69126029425E+01  0.13459671305E+02  0.40659138568E+02  0.00000000000E+00 0.  1.
         11    1    3    3    0    0  0.82408699228E+01 -0.47431369726E+00  0.62274255077E+00  0.82779658802E+01  0.51100000000E-03 0. -1.
        -11    1    3    3    0    0  0.81531663921E+01  0.80281936185E+01  0.23413162258E+01  0.11679373995E+02  0.51100000000E-03 0.  1.
         12    1    3    3    0    0  0.21344786110E+02 -0.14466482864E+02 -0.16423730081E+02  0.30571521557E+02  0.00000000000E+00 0. -1.
</event>
<event>
 7    1  0.2937071E-011  0.5052884E+02  0.7816164E-02  0.1300439E+00
        -11   -1    0    0    0    0  0.00000000000E+00  0.00000000000E+00  0.45593999997E+02  0.45594000000E+02  0.51100000000E-03 0. -1.
         11   -1    0    0    0    0 -0.00000000000E+00 -0.00000000000E+00 -0.45593999997E+02  0.45594000000E+02  0.51100000000E-03 0.  1.
    9900012    2    1    2    0    0  0.49738467479E+01 -0.30878687166E+02  0.25979502958E+02  0.50528843018E+02  0.29999948836E+02 0.  0.
        -12    1    1    2    0    0 -0.49738467479E+01  0.30878687166E+02 -0.25979502958E+02  0.40659156982E+02  0.00000000000E+00 0.  1.
         11    1    3    3    0    0  0.45073302954E+01 -0.57564165482E+00  0.87889844909E-01  0.45447898293E+01  0.51100000000E-03 0. -1.
        -11    1    3    3    0    0  0.68320231210E+01 -0.65277147960E+01 -0.10324077523E+01  0.95054440407E+01  0.51100000000E-03 0.  1.
         12    1    3    3    0    0 -0.63655066684E+01 -0.23775330715E+02  0.26924020866E+02  0.36478609148E+02  0.00000000000E+00 0. -1.
</event>
<event>
 7    1  0.2937071E-011  0.5052882E+02  0.7816164E-02  0.1300439E+00
        -11   -1    0    0    0    0  0.00000000000E+00  0.00000000000E+00  0.45593999997E+02  0.45594000000E+02  0.51100000000E-03 0.  1.
         11   -1    0    0    0    0 -0.00000000000E+00 -0.00000000000E+00 -0.45593999997E+02  0.45594000000E+02  0.51100000000E-03 0. -1.
    9900012    2    1    2    0    0 -0.18963689660E+02  0.83474625023E+01 -0.34983809502E+02  0.50528824123E+02  0.29999891404E+02 0.  0.
        -12    1    1    2    0    0  0.18963689660E+02 -0.83474625023E+01  0.34983809502E+02  0.40659175877E+02  0.00000000000E+00 0.  1.
         11    1    3    3    0    0 -0.51844410646E+00  0.31130528795E+01 -0.66438706781E+01  0.73553314250E+01  0.51100000000E-03 0.  1.
        -11    1    3    3    0    0 -0.12323937395E+02  0.15829217914E+02 -0.14839016263E+02  0.24952754889E+02  0.51100000000E-03 0. -1.
         12    1    3    3    0    0 -0.61213081586E+01 -0.10594808291E+02 -0.13500922561E+02  0.18220737809E+02  0.00000000000E+00 0. -1.
</event>
<event>
 7    1  0.2937071E-011  0.5052886E+02  0.7816164E-02  0.1300439E+00
        -11   -1    0    0    0    0  0.00000000000E+00  0.00000000000E+00  0.45593999997E+02  0.45594000000E+02  0.51100000000E-03 0.  1.
         11   -1    0    0    0    0 -0.00000000000E+00 -0.00000000000E+00 -0.45593999997E+02  0.45594000000E+02  0.51100000000E-03 0. -1.
    9900012    2    1    2    0    0  0.25944465108E+02  0.30971129058E+02 -0.45650430437E+01  0.50528859295E+02  0.29999998312E+02 0.  0.
        -12    1    1    2    0    0 -0.25944465108E+02 -0.30971129058E+02  0.45650430437E+01  0.40659140705E+02  0.00000000000E+00 0.  1.
         11    1    3    3    0    0  0.15305287272E+02  0.30866325717E+01  0.14341807099E+01  0.15679157939E+02  0.51100000000E-03 0.  1.
        -11    1    3    3    0    0  0.67427469492E+01  0.16300522739E+01  0.18351334197E+01  0.71756129889E+01  0.51100000000E-03 0. -1.
         12    1    3    3    0    0  0.38964308868E+01  0.26254444213E+02 -0.78343571733E+01  0.27674088366E+02  0.00000000000E+00 0. -1.
</event>
<event>
 7    1  0.2937071E-011  0.5052887E+02  0.7816164E-02  0.1300439E+00
        -11   -1    0    0    0    0  0.00000000000E+00  0.00000000000E+00  0.45593999997E+02  0.45594000000E+02  0.51100000000E-03 0. -1.
         11   -1    0    0    0    0 -0.00000000000E+00 -0.00000000000E+00 -0.45593999997E+02  0.45594000000E+02  0.51100000000E-03 0.  1.
    9900012    2    1    2    0    0  0.28855389838E+02  0.21394809955E+02  0.19047142386E+02  0.50528867584E+02  0.30000023510E+02 0.  0.
        -12    1    1    2    0    0 -0.28855389838E+02 -0.21394809955E+02 -0.19047142386E+02  0.40659132416E+02  0.00000000000E+00 0.  1.
         11    1    3    3    0    0  0.50659807252E+01  0.28749769576E+01  0.11753441682E+02  0.13117661562E+02  0.51100000000E-03 0.  1.
        -11    1    3    3    0    0  0.27089000926E+02  0.12512588145E+02  0.59932360973E+01  0.30435139435E+02  0.51100000000E-03 0. -1.
         12    1    3    3    0    0 -0.32995918126E+01  0.60072448520E+01  0.13004646066E+01  0.69760665876E+01  0.00000000000E+00 0. -1.
</event>
<event>
 7    1  0.2937071E-011  0.5052886E+02  0.7816164E-02  0.1300439E+00
        -11   -1    0    0    0    0  0.00000000000E+00  0.00000000000E+00  0.45593999997E+02  0.45594000000E+02  0.51100000000E-03 0.  1.
         11   -1    0    0    0    0 -0.00000000000E+00 -0.00000000000E+00 -0.45593999997E+02  0.45594000000E+02  0.51100000000E-03 0. -1.
    9900012    2    1    2    0    0  0.39399508407E+02  0.93194535897E+01  0.37405826924E+01  0.50528862813E+02  0.30000009007E+02 0.  0.
        -12    1    1    2    0    0 -0.39399508407E+02 -0.93194535897E+01 -0.37405826924E+01  0.40659137187E+02  0.00000000000E+00 0.  1.
         11    1    3    3    0    0  0.14059062325E+02  0.79602361614E+01  0.38162432884E+00  0.16160700189E+02  0.51100000000E-03 0. -1.
        -11    1    3    3    0    0 -0.21344243834E+01  0.34390086248E+01  0.53893224605E+01  0.67399810544E+01  0.51100000000E-03 0.  1.
         12    1    3    3    0    0  0.27474870465E+02 -0.20797911966E+01 -0.20303640969E+01  0.27628181570E+02  0.00000000000E+00 0. -1.
</event>
<event>
 7    1  0.2937071E-011  0.5052887E+02  0.7816164E-02  0.1300439E+00
        -11   -1    0    0    0    0  0.00000000000E+00  0.00000000000E+00  0.45593999997E+02  0.45594000000E+02  0.51100000000E-03 0.  1.
         11   -1    0    0    0    0 -0.00000000000E+00 -0.00000000000E+00 -0.45593999997E+02  0.45594000000E+02  0.51100000000E-03 0. -1.
    9900012    2    1    2    0    0 -0.88860249908E+01  0.16916711113E+02 -0.35889107145E+02  0.50528873513E+02  0.30000041530E+02 0.  0.
        -12    1    1    2    0    0  0.88860249908E+01 -0.16916711113E+02  0.35889107145E+02  0.40659126487E+02  0.00000000000E+00 0.  1.
         11    1    3    3    0    0  0.90465234722E+00  0.14104532430E+02 -0.20760746230E+02  0.25115031659E+02  0.51100000000E-03 0. -1.
        -11    1    3    3    0    0  0.99821997375E+00  0.18406408121E+01 -0.14405841497E+02  0.14557220587E+02  0.51100000000E-03 0.  1.
        -12    1    3    3    0    0 -0.10788897312E+02  0.97153787134E+00 -0.72251941785E+00  0.10856621268E+02  0.00000000000E+00 0.  1.
</event>
<event>
 7    1  0.2937071E-011  0.5052886E+02  0.7816164E-02  0.1300439E+00
        -11   -1    0    0    0    0  0.00000000000E+00  0.00000000000E+00  0.45593999997E+02  0.45594000000E+02  0.51100000000E-03 0.  1.
         11   -1    0    0    0    0 -0.00000000000E+00 -0.00000000000E+00 -0.45593999997E+02  0.45594000000E+02  0.51100000000E-03 0. -1.
    9900012    2    1    2    0    0  0.14391773694E+02  0.10705753519E+02 -0.36488756317E+02  0.50528860240E+02  0.30000001185E+02 0.  0.
        -12    1    1    2    0    0 -0.14391773694E+02 -0.10705753519E+02  0.36488756317E+02  0.40659139760E+02  0.00000000000E+00 0.  1.
         11    1    3    3    0    0 -0.90886448454E+00  0.87876321998E+01 -0.20348616712E+02  0.22183658776E+02  0.51100000000E-03 0. -1.
        -11    1    3    3    0    0  0.23513710334E+01  0.84267356909E+01 -0.51038289170E+01  0.10128568014E+02  0.51100000000E-03 0.  1.
         12    1    3    3    0    0  0.12949267145E+02 -0.65086143719E+01 -0.11036310687E+02  0.18216633449E+02  0.00000000000E+00 0. -1.
</event>
<event>
 7    1  0.2937071E-011  0.5052887E+02  0.7816164E-02  0.1300439E+00
        -11   -1    0    0    0    0  0.00000000000E+00  0.00000000000E+00  0.45593999997E+02  0.45594000000E+02  0.51100000000E-03 0.  1.
         11   -1    0    0    0    0 -0.00000000000E+00 -0.00000000000E+00 -0.45593999997E+02  0.45594000000E+02  0.51100000000E-03 0. -1.
    9900012    2    1    2    0    0 -0.86003661177E+01 -0.39644814397E+02 -0.27363177669E+01  0.50528867682E+02  0.30000023805E+02 0.  0.
        -12    1    1    2    0    0  0.86003661177E+01  0.39644814397E+02  0.27363177669E+01  0.40659132318E+02  0.00000000000E+00 0.  1.
         11    1    3    3    0    0 -0.45497423462E+01 -0.77655085467E+01 -0.55965607914E+00  0.90175658353E+01  0.51100000000E-03 0. -1.
        -11    1    3    3    0    0 -0.99896876660E+01 -0.11910820081E+01  0.91063966556E+00  0.10101574178E+02  0.51100000000E-03 0.  1.
         12    1    3    3    0    0  0.59390638945E+01 -0.30688223843E+02 -0.30873013533E+01  0.31409727668E+02  0.00000000000E+00 0. -1.
</event>
<event>
 7    1  0.2937071E-011  0.5052887E+02  0.7816164E-02  0.1300439E+00
        -11   -1    0    0    0    0  0.00000000000E+00  0.00000000000E+00  0.45593999997E+02  0.45594000000E+02  0.51100000000E-03 0.  1.
         11   -1    0    0    0    0 -0.00000000000E+00 -0.00000000000E+00 -0.45593999997E+02  0.45594000000E+02  0.51100000000E-03 0. -1.
    9900012    2    1    2    0    0  0.56205219597E+01 -0.25311805817E+02 -0.31319119965E+02  0.50528867493E+02  0.30000023233E+02 0.  0.
        -12    1    1    2    0    0 -0.56205219597E+01  0.25311805817E+02  0.31319119965E+02  0.40659132507E+02  0.00000000000E+00 0.  1.
         11    1    3    3    0    0 -0.14415412307E+01 -0.80249045136E+00  0.13898361886E+01  0.21572382661E+01  0.51100000000E-03 0. -1.
        -11    1    3    3    0    0 -0.60866904012E+01  0.14067014030E+01 -0.84972276691E+01  0.10546539110E+02  0.51100000000E-03 0.  1.
         12    1    3    3    0    0  0.13148753592E+02 -0.25916016769E+02 -0.24211728484E+02  0.37825090117E+02  0.00000000000E+00 0. -1.
</event>
<event>
 7    1  0.2937071E-011  0.5052889E+02  0.7816164E-02  0.1300439E+00
        -11   -1    0    0    0    0  0.00000000000E+00  0.00000000000E+00  0.45593999997E+02  0.45594000000E+02  0.51100000000E-03 0. -1.
         11   -1    0    0    0    0 -0.00000000000E+00 -0.00000000000E+00 -0.45593999997E+02  0.45594000000E+02  0.51100000000E-03 0.  1.
    9900012    2    1    2    0    0  0.36889754406E+02 -0.64970566825E+01  0.15814467362E+02  0.50528891505E+02  0.30000096218E+02 0.  0.
        -12    1    1    2    0    0 -0.36889754406E+02  0.64970566825E+01 -0.15814467362E+02  0.40659108495E+02  0.00000000000E+00 0.  1.
         11    1    3    3    0    0  0.30690720132E+02 -0.32573920264E+01  0.41057783976E+01  0.31135001551E+02  0.51100000000E-03 0. -1.
        -11    1    3    3    0    0  0.45290866641E+01  0.26963810555E+01 -0.91012808485E+00  0.53489653392E+01  0.51100000000E-03 0.  1.
         12    1    3    3    0    0  0.16699476097E+01 -0.59360457116E+01  0.12618817050E+02  0.14044924615E+02  0.00000000000E+00 0. -1.
</event>
<event>
 7    1  0.2937071E-011  0.5052882E+02  0.7816164E-02  0.1300439E+00
        -11   -1    0    0    0    0  0.00000000000E+00  0.00000000000E+00  0.45593999997E+02  0.45594000000E+02  0.51100000000E-03 0.  1.
         11   -1    0    0    0    0 -0.00000000000E+00 -0.00000000000E+00 -0.45593999997E+02  0.45594000000E+02  0.51100000000E-03 0. -1.
    9900012    2    1    2    0    0  0.21359425699E+02  0.33447590861E+02 -0.88432355974E+01  0.50528816333E+02  0.29999867726E+02 0.  0.
        -12    1    1    2    0    0 -0.21359425699E+02 -0.33447590861E+02  0.88432355974E+01  0.40659183667E+02  0.00000000000E+00 0.  1.
         11    1    3    3    0    0  0.78981912916E+01  0.17443396341E+01 -0.78227783360E+01  0.11252555603E+02  0.51100000000E-03 0.  1.
        -11    1    3    3    0    0  0.10701183187E+01  0.51401050434E+01 -0.75986321946E+01  0.92360730055E+01  0.51100000000E-03 0. -1.
        -12    1    3    3    0    0  0.12391116089E+02  0.26563146184E+02  0.65781749332E+01  0.30040187725E+02  0.00000000000E+00 0.  1.
</event>
<event>
 7    1  0.2937071E-011  0.5052890E+02  0.7816164E-02  0.1300439E+00
        -11   -1    0    0    0    0  0.00000000000E+00  0.00000000000E+00  0.45593999997E+02  0.45594000000E+02  0.51100000000E-03 0. -1.
         11   -1    0    0    0    0 -0.00000000000E+00 -0.00000000000E+00 -0.45593999997E+02  0.45594000000E+02  0.51100000000E-03 0.  1.
    9900012    2    1    2    0    0 -0.66507623146E+01  0.25241322643E+02  0.31173795906E+02  0.50528898198E+02  0.30000116564E+02 0.  0.
        -12    1    1    2    0    0  0.66507623146E+01 -0.25241322643E+02 -0.31173795906E+02  0.40659101802E+02  0.00000000000E+00 0.  1.
         11    1    3    3    0    0 -0.22155306822E+01  0.15054075893E+02  0.13600178178E+02  0.20408297919E+02  0.51100000000E-03 0. -1.
        -11    1    3    3    0    0 -0.10945532367E+02  0.11130971698E+01  0.23672888156E+01  0.11253786949E+02  0.51100000000E-03 0.  1.
         12    1    3    3    0    0  0.65103007344E+01  0.90741495795E+01  0.15206328912E+02  0.18866813330E+02  0.00000000000E+00 0. -1.
</event>
<event>
 7    1  0.2937071E-011  0.5052886E+02  0.7816164E-02  0.1300439E+00
        -11   -1    0    0    0    0  0.00000000000E+00  0.00000000000E+00  0.45593999997E+02  0.45594000000E+02  0.51100000000E-03 0.  1.
         11   -1    0    0    0    0 -0.00000000000E+00 -0.00000000000E+00 -0.45593999997E+02  0.45594000000E+02  0.51100000000E-03 0. -1.
    9900012    2    1    2    0    0  0.17210529327E+02 -0.11752059339E+02 -0.34912069507E+02  0.50528858154E+02  0.29999994843E+02 0.  0.
        -12    1    1    2    0    0 -0.17210529327E+02  0.11752059339E+02  0.34912069507E+02  0.40659141846E+02  0.00000000000E+00 0.  1.
         11    1    3    3    0    0  0.17462677706E+02  0.53957792593E+01 -0.18496448310E+02  0.26003425675E+02  0.51100000000E-03 0. -1.
        -11    1    3    3    0    0  0.10325085087E+01 -0.51684705753E+00 -0.47745134460E-01  0.11556316716E+01  0.51100000000E-03 0.  1.
        -12    1    3    3    0    0 -0.12846568881E+01 -0.16630991541E+02 -0.16367876062E+02  0.23369800807E+02  0.00000000000E+00 0.  1.
</event>
<event>
 7    1  0.2937071E-011  0.5052885E+02  0.7816164E-02  0.1300439E+00
        -11   -1    0    0    0    0  0.00000000000E+00  0.00000000000E+00  0.45593999997E+02  0.45594000000E+02  0.51100000000E-03 0.  1.
         11   -1    0    0    0    0 -0.00000000000E+00 -0.00000000000E+00 -0.45593999997E+02  0.45594000000E+02  0.51100000000E-03 0. -1.
    9900012    2    1    2    0    0  0.87388113875E+01 -0.21539560679E+02 -0.33359356664E+02  0.50528853726E+02  0.29999981385E+02 0.  0.
        -12    1    1    2    0    0 -0.87388113875E+01  0.21539560679E+02  0.33359356664E+02  0.40659146274E+02  0.00000000000E+00 0.  1.
         11    1    3    3    0    0  0.96086897854E+01 -0.15832791330E+02 -0.23789609228E+02  0.30148792815E+02  0.51100000000E-03 0. -1.
        -11    1    3    3    0    0 -0.11821940763E+01  0.26062508611E+01 -0.11491159262E+02  0.11842164829E+02  0.51100000000E-03 0.  1.
        -12    1    3    3    0    0  0.31231567843E+00 -0.83130202104E+01  0.19214118269E+01  0.85378960821E+01  0.00000000000E+00 0.  1.
</event>
<event>
 7    1  0.2937071E-011  0.5052887E+02  0.7816164E-02  0.1300439E+00
        -11   -1    0    0    0    0  0.00000000000E+00  0.00000000000E+00  0.45593999997E+02  0.45594000000E+02  0.51100000000E-03 0.  1.
         11   -1    0    0    0    0 -0.00000000000E+00 -0.00000000000E+00 -0.45593999997E+02  0.45594000000E+02  0.51100000000E-03 0. -1.
    9900012    2    1    2    0    0 -0.14851047491E+02  0.10763433641E+02 -0.36287184676E+02  0.50528869574E+02  0.30000029557E+02 0.  0.
        -12    1    1    2    0    0  0.14851047491E+02 -0.10763433641E+02  0.36287184676E+02  0.40659130426E+02  0.00000000000E+00 0.  1.
         11    1    3    3    0    0 -0.29361128060E+00  0.88644080196E+01 -0.19466931831E+02  0.21392180167E+02  0.51100000000E-03 0.  1.
        -11    1    3    3    0    0 -0.78274282471E+01  0.76289033647E+01 -0.95039048619E+00  0.10971419318E+02  0.51100000000E-03 0. -1.
         12    1    3    3    0    0 -0.67300079630E+01 -0.57298777428E+01 -0.15869862359E+02  0.18165270089E+02  0.00000000000E+00 0. -1.
</event>
<event>
 7    1  0.2937071E-011  0.5052886E+02  0.7816164E-02  0.1300439E+00
        -11   -1    0    0    0    0  0.00000000000E+00  0.00000000000E+00  0.45593999997E+02  0.45594000000E+02  0.51100000000E-03 0. -1.
         11   -1    0    0    0    0 -0.00000000000E+00 -0.00000000000E+00 -0.45593999997E+02  0.45594000000E+02  0.51100000000E-03 0.  1.
    9900012    2    1    2    0    0 -0.26425520198E+02 -0.11527669765E+02  0.28670031079E+02  0.50528856255E+02  0.29999989074E+02 0.  0.
        -12    1    1    2    0    0  0.26425520198E+02  0.11527669765E+02 -0.28670031079E+02  0.40659143745E+02  0.00000000000E+00 0.  1.
         11    1    3    3    0    0 -0.17807863864E+02 -0.59707316738E+01  0.14575943432E+02  0.23774519539E+02  0.51100000000E-03 0. -1.
        -11    1    3    3    0    0 -0.94122582695E+01 -0.16590502321E+01 -0.23449496325E+01  0.98408252928E+01  0.51100000000E-03 0.  1.
         12    1    3    3    0    0  0.79460193492E+00 -0.38978878593E+01  0.16439037279E+02  0.16913511424E+02  0.00000000000E+00 0. -1.
</event>
<event>
 7    1  0.2937071E-011  0.5052891E+02  0.7816164E-02  0.1300439E+00
        -11   -1    0    0    0    0  0.00000000000E+00  0.00000000000E+00  0.45593999997E+02  0.45594000000E+02  0.51100000000E-03 0.  1.
         11   -1    0    0    0    0 -0.00000000000E+00 -0.00000000000E+00 -0.45593999997E+02  0.45594000000E+02  0.51100000000E-03 0. -1.
    9900012    2    1    2    0    0  0.44899177560E+01 -0.47321915749E+01 -0.40132390323E+02  0.50528908131E+02  0.30000146756E+02 0.  0.
        -12    1    1    2    0    0 -0.44899177560E+01  0.47321915749E+01  0.40132390323E+02  0.40659091869E+02  0.00000000000E+00 0.  1.
         11    1    3    3    0    0 -0.40424703565E+01  0.33970960797E+01 -0.35523649154E+01  0.63640494271E+01  0.51100000000E-03 0.  1.
        -11    1    3    3    0    0  0.41635718316E+01  0.10418103492E+01  0.16575500126E+01  0.46008881215E+01  0.51100000000E-03 0. -1.
         12    1    3    3    0    0  0.43688162808E+01 -0.91710980038E+01 -0.38237575420E+02  0.39563970583E+02  0.00000000000E+00 0. -1.
</event>
<event>
 7    1  0.2937071E-011  0.5052886E+02  0.7816164E-02  0.1300439E+00
        -11   -1    0    0    0    0  0.00000000000E+00  0.00000000000E+00  0.45593999997E+02  0.45594000000E+02  0.51100000000E-03 0. -1.
         11   -1    0    0    0    0 -0.00000000000E+00 -0.00000000000E+00 -0.45593999997E+02  0.45594000000E+02  0.51100000000E-03 0.  1.
    9900012    2    1    2    0    0  0.37177019400E+02  0.13495942034E+02  0.94283658765E+01  0.50528864422E+02  0.30000013896E+02 0.  0.
        -12    1    1    2    0    0 -0.37177019400E+02 -0.13495942034E+02 -0.94283658765E+01  0.40659135578E+02  0.00000000000E+00 0.  1.
         11    1    3    3    0    0  0.20094936748E+02  0.99132491489E+01  0.13560671503E+01  0.22448115956E+02  0.51100000000E-03 0. -1.
        -11    1    3    3    0    0  0.91779615128E+01  0.59157461882E+01  0.14126541641E+02  0.17854697127E+02  0.51100000000E-03 0.  1.
        -12    1    3    3    0    0  0.79041211393E+01 -0.23330533033E+01 -0.60542429152E+01  0.10226051338E+02  0.00000000000E+00 0.  1.
</event>
<event>
 7    1  0.2937071E-011  0.5052887E+02  0.7816164E-02  0.1300439E+00
        -11   -1    0    0    0    0  0.00000000000E+00  0.00000000000E+00  0.45593999997E+02  0.45594000000E+02  0.51100000000E-03 0. -1.
         11   -1    0    0    0    0 -0.00000000000E+00 -0.00000000000E+00 -0.45593999997E+02  0.45594000000E+02  0.51100000000E-03 0.  1.
    9900012    2    1    2    0    0  0.36753904461E+02 -0.55084530884E+01  0.16491594770E+02  0.50528865151E+02  0.30000016114E+02 0.  0.
        -12    1    1    2    0    0 -0.36753904461E+02  0.55084530884E+01 -0.16491594770E+02  0.40659134849E+02  0.00000000000E+00 0.  1.
         11    1    3    3    0    0  0.17083512545E+02 -0.61291052401E+01  0.10335035860E+02  0.20886007240E+02  0.51100000000E-03 0. -1.
        -11    1    3    3    0    0  0.25712926394E+01  0.69499054941E+01  0.84810652342E+01  0.11262379854E+02  0.51100000000E-03 0.  1.
         12    1    3    3    0    0  0.17099099277E+02 -0.63292533424E+01 -0.23245063247E+01  0.18380478057E+02  0.00000000000E+00 0. -1.
</event>
<event>
 7    1  0.2937071E-011  0.5052886E+02  0.7816164E-02  0.1300439E+00
        -11   -1    0    0    0    0  0.00000000000E+00  0.00000000000E+00  0.45593999997E+02  0.45594000000E+02  0.51100000000E-03 0. -1.
         11   -1    0    0    0    0 -0.00000000000E+00 -0.00000000000E+00 -0.45593999997E+02  0.45594000000E+02  0.51100000000E-03 0.  1.
    9900012    2    1    2    0    0  0.27453044770E+02  0.27987719646E+02 -0.10778831932E+02  0.50528864053E+02  0.30000012776E+02 0.  0.
        -12    1    1    2    0    0 -0.27453044770E+02 -0.27987719646E+02  0.10778831932E+02  0.40659135947E+02  0.00000000000E+00 0.  1.
         11    1    3    3    0    0  0.16117741061E+01 -0.11896066741E+01  0.16936127848E+01  0.26232240343E+01  0.51100000000E-03 0. -1.
        -11    1    3    3    0    0 -0.21674418660E+01 -0.24346566698E+01  0.12590876392E+01  0.34943753786E+01  0.51100000000E-03 0.  1.
         12    1    3    3    0    0  0.28008712530E+02  0.31611982990E+02 -0.13731532356E+02  0.44411264640E+02  0.00000000000E+00 0. -1.
</event>
<event>
 7    1  0.2937071E-011  0.5052888E+02  0.7816164E-02  0.1300439E+00
        -11   -1    0    0    0    0  0.00000000000E+00  0.00000000000E+00  0.45593999997E+02  0.45594000000E+02  0.51100000000E-03 0.  1.
         11   -1    0    0    0    0 -0.00000000000E+00 -0.00000000000E+00 -0.45593999997E+02  0.45594000000E+02  0.51100000000E-03 0. -1.
    9900012    2    1    2    0    0  0.27250734930E+02  0.13575609653E+02 -0.26949292253E+02  0.50528879441E+02  0.30000059549E+02 0.  0.
        -12    1    1    2    0    0 -0.27250734930E+02 -0.13575609653E+02  0.26949292253E+02  0.40659120559E+02  0.00000000000E+00 0.  1.
         11    1    3    3    0    0  0.42314610734E+01 -0.38727995244E+01 -0.14199663523E+02  0.15314512183E+02  0.51100000000E-03 0. -1.
        -11    1    3    3    0    0 -0.73320739828E+00 -0.19626959760E+01 -0.33331484341E+00  0.21215248359E+01  0.51100000000E-03 0.  1.
        -12    1    3    3    0    0  0.23752481255E+02  0.19411105154E+02 -0.12416313887E+02  0.33092842422E+02  0.00000000000E+00 0.  1.
</event>
<event>
 7    1  0.2937071E-011  0.5052886E+02  0.7816164E-02  0.1300439E+00
        -11   -1    0    0    0    0  0.00000000000E+00  0.00000000000E+00  0.45593999997E+02  0.45594000000E+02  0.51100000000E-03 0.  1.
         11   -1    0    0    0    0 -0.00000000000E+00 -0.00000000000E+00 -0.45593999997E+02  0.45594000000E+02  0.51100000000E-03 0. -1.
    9900012    2    1    2    0    0  0.23579961614E+02 -0.28853360231E+02 -0.16267595994E+02  0.50528859997E+02  0.30000000447E+02 0.  0.
        -12    1    1    2    0    0 -0.23579961614E+02  0.28853360231E+02  0.16267595994E+02  0.40659140003E+02  0.00000000000E+00 0.  1.
         11    1    3    3    0    0  0.42480071013E+01 -0.20504561931E+01 -0.10229727020E+02  0.11264867958E+02  0.51100000000E-03 0. -1.
        -11    1    3    3    0    0  0.14436037681E+02 -0.85398189702E+01  0.48310887911E+01  0.17454716015E+02  0.51100000000E-03 0.  1.
         12    1    3    3    0    0  0.48959168314E+01 -0.18263085068E+02 -0.10868957765E+02  0.21809276025E+02  0.00000000000E+00 0. -1.
</event>
<event>
 7    1  0.2937071E-011  0.5052886E+02  0.7816164E-02  0.1300439E+00
        -11   -1    0    0    0    0  0.00000000000E+00  0.00000000000E+00  0.45593999997E+02  0.45594000000E+02  0.51100000000E-03 0. -1.
         11   -1    0    0    0    0 -0.00000000000E+00 -0.00000000000E+00 -0.45593999997E+02  0.45594000000E+02  0.51100000000E-03 0.  1.
    9900012    2    1    2    0    0 -0.39895630887E+02  0.23745938599E+01  0.74743247075E+01  0.50528860932E+02  0.30000003289E+02 0.  0.
        -12    1    1    2    0    0  0.39895630887E+02 -0.23745938599E+01 -0.74743247075E+01  0.40659139068E+02  0.00000000000E+00 0.  1.
         11    1    3    3    0    0 -0.38461926654E+00 -0.19111080603E+01  0.17646667377E+01  0.26295085006E+01  0.51100000000E-03 0. -1.
        -11    1    3    3    0    0 -0.47528146547E+01  0.10856477231E+02 -0.10053155035E+01  0.11893822116E+02  0.51100000000E-03 0.  1.
        -12    1    3    3    0    0 -0.34758196966E+02 -0.65707753111E+01  0.67149734733E+01  0.36005530315E+02  0.00000000000E+00 0.  1.
</event>
<event>
 7    1  0.2937071E-011  0.5052886E+02  0.7816164E-02  0.1300439E+00
        -11   -1    0    0    0    0  0.00000000000E+00  0.00000000000E+00  0.45593999997E+02  0.45594000000E+02  0.51100000000E-03 0.  1.
         11   -1    0    0    0    0 -0.00000000000E+00 -0.00000000000E+00 -0.45593999997E+02  0.45594000000E+02  0.51100000000E-03 0. -1.
    9900012    2    1    2    0    0  0.13131569853E+02  0.37189709220E+02 -0.98819700084E+01  0.50528856749E+02  0.29999990573E+02 0.  0.
        -12    1    1    2    0    0 -0.13131569853E+02 -0.37189709220E+02  0.98819700084E+01  0.40659143251E+02  0.00000000000E+00 0.  1.
         11    1    3    3    0    0  0.14202279682E+02  0.30989751513E+02 -0.12560124255E+02  0.36329411894E+02  0.51100000000E-03 0. -1.
        -11    1    3    3    0    0  0.25580371117E+00  0.28004989611E+01 -0.49784106266E+01  0.57177620270E+01  0.51100000000E-03 0.  1.
        -12    1    3    3    0    0 -0.13265135398E+01  0.33994587460E+01  0.76565648730E+01  0.84816828278E+01  0.00000000000E+00 0.  1.
</event>
<event>
 7    1  0.2937071E-011  0.5052883E+02  0.7816164E-02  0.1300439E+00
        -11   -1    0    0    0    0  0.00000000000E+00  0.00000000000E+00  0.45593999997E+02  0.45594000000E+02  0.51100000000E-03 0.  1.
         11   -1    0    0    0    0 -0.00000000000E+00 -0.00000000000E+00 -0.45593999997E+02  0.45594000000E+02  0.51100000000E-03 0. -1.
    9900012    2    1    2    0    0 -0.27379030598E+02  0.12588438829E+02 -0.27296299824E+02  0.50528830152E+02  0.29999909730E+02 0.  0.
        -12    1    1    2    0    0  0.27379030598E+02 -0.12588438829E+02  0.27296299824E+02  0.40659169848E+02  0.00000000000E+00 0.  1.
         11    1    3    3    0    0 -0.17627344718E+02 -0.26286476678E+01 -0.83716765495E+01  0.19690557099E+02  0.51100000000E-03 0. -1.
        -11    1    3    3    0    0 -0.13238628142E+02  0.70508557879E+01 -0.14712614355E+02  0.21010398946E+02  0.51100000000E-03 0.  1.
        -12    1    3    3    0    0  0.34869422623E+01  0.81662307088E+01 -0.42120089195E+01  0.98278741072E+01  0.00000000000E+00 0.  1.
</event>
<event>
 7    1  0.2937071E-011  0.5052887E+02  0.7816164E-02  0.1300439E+00
        -11   -1    0    0    0    0  0.00000000000E+00  0.00000000000E+00  0.45593999997E+02  0.45594000000E+02  0.51100000000E-03 0.  1.
         11   -1    0    0    0    0 -0.00000000000E+00 -0.00000000000E+00 -0.45593999997E+02  0.45594000000E+02  0.51100000000E-03 0. -1.
    9900012    2    1    2    0    0  0.16323342973E+02  0.22507248817E+01 -0.37170523801E+02  0.50528866612E+02  0.30000020552E+02 0.  0.
        -12    1    1    2    0    0 -0.16323342973E+02 -0.22507248817E+01  0.37170523801E+02  0.40659133388E+02  0.00000000000E+00 0.  1.
         11    1    3    3    0    0 -0.10921228837E+01 -0.37525969952E+01  0.27538411686E-01  0.39083852454E+01  0.51100000000E-03 0. -1.
        -11    1    3    3    0    0 -0.25614101012E+01 -0.47225868011E+01 -0.60103225772E+01  0.80614902805E+01  0.51100000000E-03 0.  1.
         12    1    3    3    0    0  0.19976875957E+02  0.10725908678E+02 -0.31187739635E+02  0.38558991086E+02  0.00000000000E+00 0. -1.
</event>
<event>
 7    1  0.2937071E-011  0.5052886E+02  0.7816164E-02  0.1300439E+00
        -11   -1    0    0    0    0  0.00000000000E+00  0.00000000000E+00  0.45593999997E+02  0.45594000000E+02  0.51100000000E-03 0.  1.
         11   -1    0    0    0    0 -0.00000000000E+00 -0.00000000000E+00 -0.45593999997E+02  0.45594000000E+02  0.51100000000E-03 0. -1.
    9900012    2    1    2    0    0  0.31829259169E+02  0.17897413079E+02 -0.17881461860E+02  0.50528858194E+02  0.29999994967E+02 0.  0.
        -12    1    1    2    0    0 -0.31829259169E+02 -0.17897413079E+02  0.17881461860E+02  0.40659141806E+02  0.00000000000E+00 0.  1.
         11    1    3    3    0    0  0.12475481675E+02  0.14000639972E+02 -0.18357851205E+02  0.26242451558E+02  0.51100000000E-03 0. -1.
        -11    1    3    3    0    0  0.98993215674E+00  0.50791578257E-01 -0.47158936656E+01  0.48189416665E+01  0.51100000000E-03 0.  1.
        -12    1    3    3    0    0  0.18363845337E+02  0.38459815291E+01  0.51922830114E+01  0.19467464969E+02  0.00000000000E+00 0.  1.
</event>
<event>
 7    1  0.2937071E-011  0.5052886E+02  0.7816164E-02  0.1300439E+00
        -11   -1    0    0    0    0  0.00000000000E+00  0.00000000000E+00  0.45593999997E+02  0.45594000000E+02  0.51100000000E-03 0.  1.
         11   -1    0    0    0    0 -0.00000000000E+00 -0.00000000000E+00 -0.45593999997E+02  0.45594000000E+02  0.51100000000E-03 0. -1.
    9900012    2    1    2    0    0  0.22415203465E+02  0.24264641141E+02 -0.23705522603E+02  0.50528856404E+02  0.29999989527E+02 0.  0.
        -12    1    1    2    0    0 -0.22415203465E+02 -0.24264641141E+02  0.23705522603E+02  0.40659143596E+02  0.00000000000E+00 0.  1.
         11    1    3    3    0    0  0.88072837647E+01 -0.20694781414E+01  0.94493519429E-01  0.90476470077E+01  0.51100000000E-03 0. -1.
        -11    1    3    3    0    0  0.10584722086E+02  0.11655978258E+02 -0.32989201584E+01  0.16086672909E+02  0.51100000000E-03 0.  1.
         12    1    3    3    0    0  0.30231976142E+01  0.14678141024E+02 -0.20501095964E+02  0.25394536488E+02  0.00000000000E+00 0. -1.
</event>
<event>
 7    1  0.2937071E-011  0.5052886E+02  0.7816164E-02  0.1300439E+00
        -11   -1    0    0    0    0  0.00000000000E+00  0.00000000000E+00  0.45593999997E+02  0.45594000000E+02  0.51100000000E-03 0.  1.
         11   -1    0    0    0    0 -0.00000000000E+00 -0.00000000000E+00 -0.45593999997E+02  0.45594000000E+02  0.51100000000E-03 0. -1.
    9900012    2    1    2    0    0 -0.30596242752E+02 -0.18994575092E+02 -0.18874370988E+02  0.50528857932E+02  0.29999994170E+02 0.  0.
        -12    1    1    2    0    0  0.30596242752E+02  0.18994575092E+02  0.18874370988E+02  0.40659142068E+02  0.00000000000E+00 0.  1.
         11    1    3    3    0    0 -0.27866820451E+01 -0.23362121927E+01  0.48071153568E+01  0.60275901109E+01  0.51100000000E-03 0. -1.
        -11    1    3    3    0    0 -0.96764635253E+01  0.45091725110E+00  0.59273645609E+00  0.97050816324E+01  0.51100000000E-03 0.  1.
         12    1    3    3    0    0 -0.18133097182E+02 -0.17109280151E+02 -0.24274222801E+02  0.34796186189E+02  0.00000000000E+00 0. -1.
</event>
<event>
 7    1  0.2937071E-011  0.5052887E+02  0.7816164E-02  0.1300439E+00
        -11   -1    0    0    0    0  0.00000000000E+00  0.00000000000E+00  0.45593999997E+02  0.45594000000E+02  0.51100000000E-03 0.  1.
         11   -1    0    0    0    0 -0.00000000000E+00 -0.00000000000E+00 -0.45593999997E+02  0.45594000000E+02  0.51100000000E-03 0. -1.
    9900012    2    1    2    0    0  0.14442491373E+02 -0.30325748083E+02 -0.22911306290E+02  0.50528874213E+02  0.30000043658E+02 0.  0.
        -12    1    1    2    0    0 -0.14442491373E+02  0.30325748083E+02  0.22911306290E+02  0.40659125787E+02  0.00000000000E+00 0.  1.
         11    1    3    3    0    0  0.49346508567E+01 -0.14211703461E+02 -0.18445283058E+02  0.23802347819E+02  0.51100000000E-03 0. -1.
        -11    1    3    3    0    0  0.76290927475E+01 -0.40834921542E+01 -0.10108465628E+02  0.13306353442E+02  0.51100000000E-03 0.  1.
        -12    1    3    3    0    0  0.18787477691E+01 -0.12030552468E+02  0.56424423962E+01  0.13420172952E+02  0.00000000000E+00 0.  1.
</event>
<event>
 7    1  0.2937071E-011  0.5052886E+02  0.7816164E-02  0.1300439E+00
        -11   -1    0    0    0    0  0.00000000000E+00  0.00000000000E+00  0.45593999997E+02  0.45594000000E+02  0.51100000000E-03 0.  1.
         11   -1    0    0    0    0 -0.00000000000E+00 -0.00000000000E+00 -0.45593999997E+02  0.45594000000E+02  0.51100000000E-03 0. -1.
    9900012    2    1    2    0    0 -0.12264463249E+02 -0.55670050984E+01 -0.38363489962E+02  0.50528856298E+02  0.29999989202E+02 0.  0.
        -12    1    1    2    0    0  0.12264463249E+02  0.55670050984E+01  0.38363489962E+02  0.40659143702E+02  0.00000000000E+00 0.  1.
         11    1    3    3    0    0 -0.71576577499E+01 -0.62948027931E+01 -0.57254949751E+01  0.11119258053E+02  0.51100000000E-03 0. -1.
        -11    1    3    3    0    0 -0.12046554180E+02  0.56347753851E+01 -0.16715632132E+02  0.21360770564E+02  0.51100000000E-03 0.  1.
         12    1    3    3    0    0  0.69397486802E+01 -0.49069776904E+01 -0.15922362854E+02  0.18048827681E+02  0.00000000000E+00 0. -1.
</event>
<event>
 7    1  0.2937071E-011  0.5052886E+02  0.7816164E-02  0.1300439E+00
        -11   -1    0    0    0    0  0.00000000000E+00  0.00000000000E+00  0.45593999997E+02  0.45594000000E+02  0.51100000000E-03 0.  1.
         11   -1    0    0    0    0 -0.00000000000E+00 -0.00000000000E+00 -0.45593999997E+02  0.45594000000E+02  0.51100000000E-03 0. -1.
    9900012    2    1    2    0    0  0.29194373918E+02  0.95996815155E+01 -0.26621429530E+02  0.50528857561E+02  0.29999993042E+02 0.  0.
        -12    1    1    2    0    0 -0.29194373918E+02 -0.95996815155E+01  0.26621429530E+02  0.40659142439E+02  0.00000000000E+00 0.  1.
         11    1    3    3    0    0  0.11465101938E+02  0.75037390741E+01 -0.16646540279E+02  0.21560657830E+02  0.51100000000E-03 0. -1.
        -11    1    3    3    0    0  0.16949147133E+02  0.17677587434E+00 -0.15561335129E+02  0.23009997599E+02  0.51100000000E-03 0.  1.
        -12    1    3    3    0    0  0.78012484680E+00  0.19191665671E+01  0.55864458782E+01  0.59582021314E+01  0.00000000000E+00 0.  1.
</event>
<event>
 7    1  0.2937071E-011  0.5052886E+02  0.7816164E-02  0.1300439E+00
        -11   -1    0    0    0    0  0.00000000000E+00  0.00000000000E+00  0.45593999997E+02  0.45594000000E+02  0.51100000000E-03 0. -1.
         11   -1    0    0    0    0 -0.00000000000E+00 -0.00000000000E+00 -0.45593999997E+02  0.45594000000E+02  0.51100000000E-03 0.  1.
    9900012    2    1    2    0    0 -0.29071312479E+02  0.25825390428E+02  0.11877440041E+02  0.50528861028E+02  0.30000003580E+02 0.  0.
        -12    1    1    2    0    0  0.29071312479E+02 -0.25825390428E+02 -0.11877440041E+02  0.40659138972E+02  0.00000000000E+00 0.  1.
         11    1    3    3    0    0 -0.21472929511E+02  0.19484032738E+02  0.12385656549E+02  0.31529648300E+02  0.51100000000E-03 0. -1.
        -11    1    3    3    0    0 -0.55374893581E+01 -0.11800650513E+01  0.64253840971E+01  0.85639887304E+01  0.51100000000E-03 0.  1.
        -12    1    3    3    0    0 -0.20608936106E+01  0.75214227408E+01 -0.69336006053E+01  0.10435223997E+02  0.00000000000E+00 0.  1.
</event>
<event>
 7    1  0.2937071E-011  0.5052885E+02  0.7816164E-02  0.1300439E+00
        -11   -1    0    0    0    0  0.00000000000E+00  0.00000000000E+00  0.45593999997E+02  0.45594000000E+02  0.51100000000E-03 0.  1.
         11   -1    0    0    0    0 -0.00000000000E+00 -0.00000000000E+00 -0.45593999997E+02  0.45594000000E+02  0.51100000000E-03 0. -1.
    9900012    2    1    2    0    0 -0.11774595311E+01 -0.40590551295E+02  0.20463156666E+01  0.50528847608E+02  0.29999962791E+02 0.  0.
        -12    1    1    2    0    0  0.11774595311E+01  0.40590551295E+02 -0.20463156666E+01  0.40659152392E+02  0.00000000000E+00 0.  1.
         11    1    3    3    0    0 -0.39611264836E+01 -0.19112426129E+01  0.60239486083E+01  0.74586411927E+01  0.51100000000E-03 0.  1.
        -11    1    3    3    0    0 -0.11635939767E+01  0.37162878634E+00  0.29688573555E+01  0.32103229053E+01  0.51100000000E-03 0. -1.
         12    1    3    3    0    0  0.39472609292E+01 -0.39050937469E+02 -0.69464902973E+01  0.39859883510E+02  0.00000000000E+00 0. -1.
</event>
<event>
 7    1  0.3807953E-011  0.5052886E+02  0.7816164E-02  0.1300439E+00
        -11   -1    0    0    0    0  0.00000000000E+00  0.00000000000E+00  0.45593999997E+02  0.45594000000E+02  0.51100000000E-03 0. -1.
         11   -1    0    0    0    0 -0.00000000000E+00 -0.00000000000E+00 -0.45593999997E+02  0.45594000000E+02  0.51100000000E-03 0.  1.
    9900012    2    1    2    0    0 -0.22813369819E+02  0.44720608378E+01  0.33357403556E+02  0.50528861511E+02  0.30000005049E+02 0.  0.
        -12    1    1    2    0    0  0.22813369819E+02 -0.44720608378E+01 -0.33357403556E+02  0.40659138489E+02  0.00000000000E+00 0.  1.
         11    1    3    3    0    0 -0.19818309604E+02  0.38936141972E+00  0.16422362661E+02  0.25741231391E+02  0.51100000000E-03 0. -1.
        -11    1    3    3    0    0 -0.20662809793E+01  0.59220393670E+01 -0.13259208076E+01  0.64107826042E+01  0.51100000000E-03 0.  1.
        -12    1    3    3    0    0 -0.92877923580E+00 -0.18393399489E+01  0.18260961703E+02  0.18376847516E+02  0.00000000000E+00 0.  1.
</event>
<event>
 7    1  0.2937071E-011  0.5052886E+02  0.7816164E-02  0.1300439E+00
        -11   -1    0    0    0    0  0.00000000000E+00  0.00000000000E+00  0.45593999997E+02  0.45594000000E+02  0.51100000000E-03 0. -1.
         11   -1    0    0    0    0 -0.00000000000E+00 -0.00000000000E+00 -0.45593999997E+02  0.45594000000E+02  0.51100000000E-03 0.  1.
    9900012    2    1    2    0    0  0.36020908534E+02  0.26671709989E+01  0.18669385059E+02  0.50528860914E+02  0.30000003234E+02 0.  0.
        -12    1    1    2    0    0 -0.36020908534E+02 -0.26671709989E+01 -0.18669385059E+02  0.40659139086E+02  0.00000000000E+00 0.  1.
         11    1    3    3    0    0  0.32502647816E+01  0.66794613222E+01  0.38597158821E+00  0.74383061938E+01  0.51100000000E-03 0. -1.
        -11    1    3    3    0    0 -0.99633525383E+00  0.34318955160E+01  0.47832306502E+01  0.59707525895E+01  0.51100000000E-03 0.  1.
         12    1    3    3    0    0  0.33766979006E+02 -0.74441858393E+01  0.13500182820E+02  0.37119802131E+02  0.00000000000E+00 0. -1.
</event>
<event>
 7    1  0.2937071E-011  0.5052886E+02  0.7816164E-02  0.1300439E+00
        -11   -1    0    0    0    0  0.00000000000E+00  0.00000000000E+00  0.45593999997E+02  0.45594000000E+02  0.51100000000E-03 0. -1.
         11   -1    0    0    0    0 -0.00000000000E+00 -0.00000000000E+00 -0.45593999997E+02  0.45594000000E+02  0.51100000000E-03 0.  1.
    9900012    2    1    2    0    0 -0.29793251180E+02 -0.12504194133E+01  0.27639897678E+02  0.50528864394E+02  0.30000013813E+02 0.  0.
        -12    1    1    2    0    0  0.29793251180E+02  0.12504194133E+01 -0.27639897678E+02  0.40659135606E+02  0.00000000000E+00 0.  1.
         11    1    3    3    0    0 -0.15726971459E+02  0.51850101279E+01  0.10585437267E+02  0.19653840431E+02  0.51100000000E-03 0. -1.
        -11    1    3    3    0    0 -0.18747825076E+02 -0.19746082183E+01  0.10130863633E+02  0.21401271479E+02  0.51100000000E-03 0.  1.
        -12    1    3    3    0    0  0.46815453555E+01 -0.44608213229E+01  0.69235967778E+01  0.94737524842E+01  0.00000000000E+00 0.  1.
</event>
<event>
 7    1  0.2937071E-011  0.5052884E+02  0.7816164E-02  0.1300439E+00
        -11   -1    0    0    0    0  0.00000000000E+00  0.00000000000E+00  0.45593999997E+02  0.45594000000E+02  0.51100000000E-03 0.  1.
         11   -1    0    0    0    0 -0.00000000000E+00 -0.00000000000E+00 -0.45593999997E+02  0.45594000000E+02  0.51100000000E-03 0. -1.
    9900012    2    1    2    0    0  0.17502471365E+02  0.97123507790E+00 -0.36686339846E+02  0.50528839498E+02  0.29999938139E+02 0.  0.
        -12    1    1    2    0    0 -0.17502471365E+02 -0.97123507790E+00  0.36686339846E+02  0.40659160502E+02  0.00000000000E+00 0.  1.
         11    1    3    3    0    0  0.36547398188E+01 -0.47308220333E+01 -0.13604997598E+02  0.14860476444E+02  0.51100000000E-03 0. -1.
        -11    1    3    3    0    0 -0.27924405910E+01  0.18363840477E+00 -0.16821884352E+02  0.17053071305E+02  0.51100000000E-03 0.  1.
        -12    1    3    3    0    0  0.16640172137E+02  0.55184187065E+01 -0.62594578960E+01  0.18615291749E+02  0.00000000000E+00 0.  1.
</event>
<event>
 7    1  0.2937071E-011  0.5052886E+02  0.7816164E-02  0.1300439E+00
        -11   -1    0    0    0    0  0.00000000000E+00  0.00000000000E+00  0.45593999997E+02  0.45594000000E+02  0.51100000000E-03 0.  1.
         11   -1    0    0    0    0 -0.00000000000E+00 -0.00000000000E+00 -0.45593999997E+02  0.45594000000E+02  0.51100000000E-03 0. -1.
    9900012    2    1    2    0    0 -0.17758335552E+02  0.25781904701E+02 -0.25944181893E+02  0.50528859998E+02  0.30000000451E+02 0.  0.
        -12    1    1    2    0    0  0.17758335552E+02 -0.25781904701E+02  0.25944181893E+02  0.40659140002E+02  0.00000000000E+00 0.  1.
         11    1    3    3    0    0 -0.51010998742E+01  0.12167124058E+01 -0.10103548215E+02  0.11383465896E+02  0.51100000000E-03 0. -1.
        -11    1    3    3    0    0 -0.89734687894E+01 -0.10943667972E+01 -0.56695491447E+00  0.90577159890E+01  0.51100000000E-03 0.  1.
        -12    1    3    3    0    0 -0.36837668887E+01  0.25659559092E+02 -0.15273678763E+02  0.30087678114E+02  0.00000000000E+00 0.  1.
</event>
<event>
 7    1  0.2937071E-011  0.5052886E+02  0.7816164E-02  0.1300439E+00
        -11   -1    0    0    0    0  0.00000000000E+00  0.00000000000E+00  0.45593999997E+02  0.45594000000E+02  0.51100000000E-03 0.  1.
         11   -1    0    0    0    0 -0.00000000000E+00 -0.00000000000E+00 -0.45593999997E+02  0.45594000000E+02  0.51100000000E-03 0. -1.
    9900012    2    1    2    0    0 -0.15820612506E+01  0.39740984280E+02 -0.84449272778E+01  0.50528861469E+02  0.30000004921E+02 0.  0.
        -12    1    1    2    0    0  0.15820612506E+01 -0.39740984280E+02  0.84449272778E+01  0.40659138531E+02  0.00000000000E+00 0.  1.
         11    1    3    3    0    0 -0.41451190575E+01  0.12204498120E+02 -0.50584509995E+01  0.13846288786E+02  0.51100000000E-03 0. -1.
        -11    1    3    3    0    0  0.35347153584E+01  0.15586769847E+02 -0.13559106998E+02  0.20959269781E+02  0.51100000000E-03 0.  1.
        -12    1    3    3    0    0 -0.97165755149E+00  0.11949716313E+02  0.10172630720E+02  0.15723302901E+02  0.00000000000E+00 0.  1.
</event>
<event>
 7    1  0.2937071E-011  0.5052885E+02  0.7816164E-02  0.1300439E+00
        -11   -1    0    0    0    0  0.00000000000E+00  0.00000000000E+00  0.45593999997E+02  0.45594000000E+02  0.51100000000E-03 0.  1.
         11   -1    0    0    0    0 -0.00000000000E+00 -0.00000000000E+00 -0.45593999997E+02  0.45594000000E+02  0.51100000000E-03 0. -1.
    9900012    2    1    2    0    0  0.69985528136E+01  0.18037350891E+02 -0.35760887179E+02  0.50528845797E+02  0.29999957285E+02 0.  0.
        -12    1    1    2    0    0 -0.69985528136E+01 -0.18037350891E+02  0.35760887179E+02  0.40659154203E+02  0.00000000000E+00 0.  1.
         11    1    3    3    0    0 -0.35293161123E+00  0.41403352231E+01 -0.89187674783E+01  0.98392758918E+01  0.51100000000E-03 0. -1.
        -11    1    3    3    0    0  0.73524700810E+01 -0.35033485536E+01 -0.20687231655E+02  0.22232719609E+02  0.51100000000E-03 0.  1.
        -12    1    3    3    0    0 -0.98565621061E-03  0.17400364222E+02 -0.61548880459E+01  0.18456850297E+02  0.00000000000E+00 0.  1.
</event>
<event>
 7    1  0.2937071E-011  0.5052886E+02  0.7816164E-02  0.1300439E+00
        -11   -1    0    0    0    0  0.00000000000E+00  0.00000000000E+00  0.45593999997E+02  0.45594000000E+02  0.51100000000E-03 0.  1.
         11   -1    0    0    0    0 -0.00000000000E+00 -0.00000000000E+00 -0.45593999997E+02  0.45594000000E+02  0.51100000000E-03 0. -1.
    9900012    2    1    2    0    0  0.17761372018E+02  0.11490964056E+02 -0.34722570555E+02  0.50528862074E+02  0.30000006762E+02 0.  0.
        -12    1    1    2    0    0 -0.17761372018E+02 -0.11490964056E+02  0.34722570555E+02  0.40659137926E+02  0.00000000000E+00 0.  1.
         11    1    3    3    0    0 -0.54603176294E+01  0.30491976049E-01 -0.42188804660E+01  0.69003587604E+01  0.51100000000E-03 0. -1.
        -11    1    3    3    0    0  0.25942823745E+01 -0.33479429752E+01 -0.41296604441E+00  0.42555333883E+01  0.51100000000E-03 0.  1.
        -12    1    3    3    0    0  0.20627407273E+02  0.14808415055E+02 -0.30090724044E+02  0.39372969926E+02  0.00000000000E+00 0.  1.
</event>
<event>
 7    1  0.2937071E-011  0.5052886E+02  0.7816164E-02  0.1300439E+00
        -11   -1    0    0    0    0  0.00000000000E+00  0.00000000000E+00  0.45593999997E+02  0.45594000000E+02  0.51100000000E-03 0.  1.
         11   -1    0    0    0    0 -0.00000000000E+00 -0.00000000000E+00 -0.45593999997E+02  0.45594000000E+02  0.51100000000E-03 0. -1.
    9900012    2    1    2    0    0 -0.82322541242E+01 -0.39053873632E+01 -0.39625040583E+02  0.50528857122E+02  0.29999991707E+02 0.  0.
        -12    1    1    2    0    0  0.82322541242E+01  0.39053873632E+01  0.39625040583E+02  0.40659142878E+02  0.00000000000E+00 0.  1.
         11    1    3    3    0    0 -0.80579653921E+01  0.11684785093E+02 -0.24566596884E+02  0.28372216897E+02  0.51100000000E-03 0. -1.
        -11    1    3    3    0    0 -0.16354268379E+01 -0.61918780934E+01 -0.39150304009E+01  0.75060934291E+01  0.51100000000E-03 0.  1.
        -12    1    3    3    0    0  0.14611381058E+01 -0.93982943624E+01 -0.11143413298E+02  0.14650546796E+02  0.00000000000E+00 0.  1.
</event>
<event>
 7    1  0.2937071E-011  0.5052887E+02  0.7816164E-02  0.1300439E+00
        -11   -1    0    0    0    0  0.00000000000E+00  0.00000000000E+00  0.45593999997E+02  0.45594000000E+02  0.51100000000E-03 0.  1.
         11   -1    0    0    0    0 -0.00000000000E+00 -0.00000000000E+00 -0.45593999997E+02  0.45594000000E+02  0.51100000000E-03 0. -1.
    9900012    2    1    2    0    0 -0.98714867011E+01  0.39145317078E+02 -0.48334896517E+01  0.50528871615E+02  0.30000035761E+02 0.  0.
        -12    1    1    2    0    0  0.98714867011E+01 -0.39145317078E+02  0.48334896517E+01  0.40659128385E+02  0.00000000000E+00 0.  1.
         11    1    3    3    0    0 -0.15929056769E+01  0.31453146531E+02 -0.27054676045E-01  0.31493467694E+02  0.51100000000E-03 0. -1.
        -11    1    3    3    0    0 -0.30387425269E+01  0.35946249478E+01  0.52037308780E+01  0.70167015023E+01  0.51100000000E-03 0.  1.
        -12    1    3    3    0    0 -0.52398384973E+01  0.40975455994E+01 -0.10010165854E+02  0.12018702419E+02  0.00000000000E+00 0.  1.
</event>
<event>
 7    1  0.2937071E-011  0.5052886E+02  0.7816164E-02  0.1300439E+00
        -11   -1    0    0    0    0  0.00000000000E+00  0.00000000000E+00  0.45593999997E+02  0.45594000000E+02  0.51100000000E-03 0.  1.
         11   -1    0    0    0    0 -0.00000000000E+00 -0.00000000000E+00 -0.45593999997E+02  0.45594000000E+02  0.51100000000E-03 0. -1.
    9900012    2    1    2    0    0 -0.12842957571E+02 -0.31874408712E+02 -0.21731225800E+02  0.50528860010E+02  0.30000000488E+02 0.  0.
        -12    1    1    2    0    0  0.12842957571E+02  0.31874408712E+02  0.21731225800E+02  0.40659139990E+02  0.00000000000E+00 0.  1.
         11    1    3    3    0    0 -0.12096909532E+02 -0.27483482647E+02 -0.22227845878E+02  0.37359793512E+02  0.51100000000E-03 0. -1.
        -11    1    3    3    0    0  0.21554539225E+01 -0.81386873231E+01  0.24990897826E+00  0.84229844896E+01  0.51100000000E-03 0.  1.
        -12    1    3    3    0    0 -0.29015019606E+01  0.37477612575E+01  0.24671109892E+00  0.47460820091E+01  0.00000000000E+00 0.  1.
</event>
<event>
 7    1  0.2937071E-011  0.5052885E+02  0.7816164E-02  0.1300439E+00
        -11   -1    0    0    0    0  0.00000000000E+00  0.00000000000E+00  0.45593999997E+02  0.45594000000E+02  0.51100000000E-03 0.  1.
         11   -1    0    0    0    0 -0.00000000000E+00 -0.00000000000E+00 -0.45593999997E+02  0.45594000000E+02  0.51100000000E-03 0. -1.
    9900012    2    1    2    0    0 -0.26501429480E+02  0.13752326757E+02 -0.27599165917E+02  0.50528853243E+02  0.29999979917E+02 0.  0.
        -12    1    1    2    0    0  0.26501429480E+02 -0.13752326757E+02  0.27599165917E+02  0.40659146757E+02  0.00000000000E+00 0.  1.
         11    1    3    3    0    0 -0.17889827357E+02  0.99927320815E+01 -0.99490251009E+00  0.20515614750E+02  0.51100000000E-03 0. -1.
        -11    1    3    3    0    0 -0.10382288106E+02  0.50340461078E+01 -0.20405929282E+02  0.23442173037E+02  0.51100000000E-03 0.  1.
        -12    1    3    3    0    0  0.17706859834E+01 -0.12744514326E+01 -0.61983341246E+01  0.65710654560E+01  0.00000000000E+00 0.  1.
</event>
<event>
 7    1  0.2937071E-011  0.5052886E+02  0.7816164E-02  0.1300439E+00
        -11   -1    0    0    0    0  0.00000000000E+00  0.00000000000E+00  0.45593999997E+02  0.45594000000E+02  0.51100000000E-03 0.  1.
         11   -1    0    0    0    0 -0.00000000000E+00 -0.00000000000E+00 -0.45593999997E+02  0.45594000000E+02  0.51100000000E-03 0. -1.
    9900012    2    1    2    0    0  0.16225594327E+02 -0.21522423166E+02 -0.30441439683E+02  0.50528857606E+02  0.29999993180E+02 0.  0.
        -12    1    1    2    0    0 -0.16225594327E+02  0.21522423166E+02  0.30441439683E+02  0.40659142394E+02  0.00000000000E+00 0.  1.
         11    1    3    3    0    0  0.33044598343E+01 -0.20260939805E+02 -0.92276883268E+01  0.22507229254E+02  0.51100000000E-03 0. -1.
        -11    1    3    3    0    0 -0.70763795356E+00  0.32750505046E+00 -0.10718514677E+02  0.10746839916E+02  0.51100000000E-03 0.  1.
         12    1    3    3    0    0  0.13628772447E+02 -0.15889884115E+01 -0.10495236679E+02  0.17274788436E+02  0.00000000000E+00 0. -1.
</event>
<event>
 7    1  0.2937071E-011  0.5052886E+02  0.7816164E-02  0.1300439E+00
        -11   -1    0    0    0    0  0.00000000000E+00  0.00000000000E+00  0.45593999997E+02  0.45594000000E+02  0.51100000000E-03 0.  1.
         11   -1    0    0    0    0 -0.00000000000E+00 -0.00000000000E+00 -0.45593999997E+02  0.45594000000E+02  0.51100000000E-03 0. -1.
    9900012    2    1    2    0    0  0.21302171000E+02 -0.25560919424E+02 -0.23367117852E+02  0.50528864645E+02  0.30000014574E+02 0.  0.
        -12    1    1    2    0    0 -0.21302171000E+02  0.25560919424E+02  0.23367117852E+02  0.40659135355E+02  0.00000000000E+00 0.  1.
         11    1    3    3    0    0  0.33221963703E+01  0.15314562118E+01 -0.85845079683E+01  0.93314588447E+01  0.51100000000E-03 0.  1.
        -11    1    3    3    0    0  0.68203207948E+01  0.15942935551E+01 -0.59068559729E+01  0.91623957254E+01  0.51100000000E-03 0. -1.
         12    1    3    3    0    0  0.11159653835E+02 -0.28686669191E+02 -0.88757539105E+01  0.32035010075E+02  0.00000000000E+00 0. -1.
</event>
<event>
 7    1  0.2937071E-011  0.5052886E+02  0.7816164E-02  0.1300439E+00
        -11   -1    0    0    0    0  0.00000000000E+00  0.00000000000E+00  0.45593999997E+02  0.45594000000E+02  0.51100000000E-03 0.  1.
         11   -1    0    0    0    0 -0.00000000000E+00 -0.00000000000E+00 -0.45593999997E+02  0.45594000000E+02  0.51100000000E-03 0. -1.
    9900012    2    1    2    0    0  0.64835585126E+01 -0.34125456815E+02 -0.21132491578E+02  0.50528861616E+02  0.30000005369E+02 0.  0.
        -12    1    1    2    0    0 -0.64835585126E+01  0.34125456815E+02  0.21132491578E+02  0.40659138384E+02  0.00000000000E+00 0.  1.
         11    1    3    3    0    0  0.38874005041E+01 -0.16823392557E+01 -0.15759436040E+01  0.45194852091E+01  0.51100000000E-03 0. -1.
        -11    1    3    3    0    0  0.11706855090E+02 -0.29852744983E+02 -0.16461958376E+02  0.36044873601E+02  0.51100000000E-03 0.  1.
        -12    1    3    3    0    0 -0.91106970813E+01 -0.25903725764E+01 -0.30945895985E+01  0.99645028062E+01  0.00000000000E+00 0.  1.
</event>
<event>
 7    1  0.2937071E-011  0.5052886E+02  0.7816164E-02  0.1300439E+00
        -11   -1    0    0    0    0  0.00000000000E+00  0.00000000000E+00  0.45593999997E+02  0.45594000000E+02  0.51100000000E-03 0. -1.
         11   -1    0    0    0    0 -0.00000000000E+00 -0.00000000000E+00 -0.45593999997E+02  0.45594000000E+02  0.51100000000E-03 0.  1.
    9900012    2    1    2    0    0 -0.35359558831E+02  0.18428449571E+02  0.79536005942E+01  0.50528856911E+02  0.29999991067E+02 0.  0.
        -12    1    1    2    0    0  0.35359558831E+02 -0.18428449571E+02 -0.79536005942E+01  0.40659143089E+02  0.00000000000E+00 0.  1.
         11    1    3    3    0    0 -0.18905848592E+02 -0.57135342709E+01 -0.13988302858E-02  0.19750331316E+02  0.51100000000E-03 0.  1.
        -11    1    3    3    0    0 -0.11770618845E+02  0.12428549143E+02  0.45385130824E+01  0.17709161557E+02  0.51100000000E-03 0. -1.
        -12    1    3    3    0    0 -0.46830913936E+01  0.11713434699E+02  0.34164863422E+01  0.13069364039E+02  0.00000000000E+00 0.  1.
</event>
<event>
 7    1  0.2937071E-011  0.5052886E+02  0.7816164E-02  0.1300439E+00
        -11   -1    0    0    0    0  0.00000000000E+00  0.00000000000E+00  0.45593999997E+02  0.45594000000E+02  0.51100000000E-03 0. -1.
         11   -1    0    0    0    0 -0.00000000000E+00 -0.00000000000E+00 -0.45593999997E+02  0.45594000000E+02  0.51100000000E-03 0.  1.
    9900012    2    1    2    0    0 -0.11200135920E+02 -0.23063637018E+02  0.31556157400E+02  0.50528862442E+02  0.30000007877E+02 0.  0.
        -12    1    1    2    0    0  0.11200135920E+02  0.23063637018E+02 -0.31556157400E+02  0.40659137558E+02  0.00000000000E+00 0.  1.
         11    1    3    3    0    0 -0.68319671033E+00 -0.87662799459E+00 -0.42984683546E+01  0.44398271186E+01  0.51100000000E-03 0. -1.
        -11    1    3    3    0    0 -0.70604773923E+00  0.16870093962E+00 -0.13829360673E+01  0.15618821481E+01  0.51100000000E-03 0.  1.
         12    1    3    3    0    0 -0.98108914708E+01 -0.22355709964E+02  0.37237561822E+02  0.44527153175E+02  0.00000000000E+00 0. -1.
</event>
<event>
 7    1  0.2937071E-011  0.5052887E+02  0.7816164E-02  0.1300439E+00
        -11   -1    0    0    0    0  0.00000000000E+00  0.00000000000E+00  0.45593999997E+02  0.45594000000E+02  0.51100000000E-03 0.  1.
         11   -1    0    0    0    0 -0.00000000000E+00 -0.00000000000E+00 -0.45593999997E+02  0.45594000000E+02  0.51100000000E-03 0. -1.
    9900012    2    1    2    0    0  0.28345051378E+02 -0.51906706490E+01 -0.28684145133E+02  0.50528865953E+02  0.30000018551E+02 0.  0.
        -12    1    1    2    0    0 -0.28345051378E+02  0.51906706490E+01  0.28684145133E+02  0.40659134047E+02  0.00000000000E+00 0.  1.
         11    1    3    3    0    0  0.53450141581E+01  0.52885515501E+01 -0.40438951294E+01  0.85376250753E+01  0.51100000000E-03 0. -1.
        -11    1    3    3    0    0  0.97784099469E+00  0.11178508696E+01 -0.15354765247E+02  0.15426424719E+02  0.51100000000E-03 0.  1.
         12    1    3    3    0    0  0.22022196225E+02 -0.11597073069E+02 -0.92854847575E+01  0.26564816159E+02  0.00000000000E+00 0. -1.
</event>
<event>
 7    1  0.2937071E-011  0.5052889E+02  0.7816164E-02  0.1300439E+00
        -11   -1    0    0    0    0  0.00000000000E+00  0.00000000000E+00  0.45593999997E+02  0.45594000000E+02  0.51100000000E-03 0.  1.
         11   -1    0    0    0    0 -0.00000000000E+00 -0.00000000000E+00 -0.45593999997E+02  0.45594000000E+02  0.51100000000E-03 0. -1.
    9900012    2    1    2    0    0  0.17770095338E+02  0.12679988411E+02 -0.34301678595E+02  0.50528886029E+02  0.30000079574E+02 0.  0.
        -12    1    1    2    0    0 -0.17770095338E+02 -0.12679988411E+02  0.34301678595E+02  0.40659113971E+02  0.00000000000E+00 0.  1.
         11    1    3    3    0    0  0.43047441155E+01  0.11479236797E+02 -0.21312618124E+02  0.24587220073E+02  0.51100000000E-03 0. -1.
        -11    1    3    3    0    0  0.76914793265E+01  0.60199558141E+01  0.12416625761E+01  0.98458340656E+01  0.51100000000E-03 0.  1.
        -12    1    3    3    0    0  0.57738718962E+01 -0.48192042008E+01 -0.14230723047E+02  0.16095831891E+02  0.00000000000E+00 0.  1.
</event>
<event>
 7    1  0.2937071E-011  0.5052886E+02  0.7816164E-02  0.1300439E+00
        -11   -1    0    0    0    0  0.00000000000E+00  0.00000000000E+00  0.45593999997E+02  0.45594000000E+02  0.51100000000E-03 0.  1.
         11   -1    0    0    0    0 -0.00000000000E+00 -0.00000000000E+00 -0.45593999997E+02  0.45594000000E+02  0.51100000000E-03 0. -1.
    9900012    2    1    2    0    0  0.35920979463E+02  0.11907826626E+02 -0.14867845510E+02  0.50528856740E+02  0.29999990546E+02 0.  0.
        -12    1    1    2    0    0 -0.35920979463E+02 -0.11907826626E+02  0.14867845510E+02  0.40659143260E+02  0.00000000000E+00 0.  1.
         11    1    3    3    0    0  0.50201830720E+01  0.33587789777E+01  0.53939450885E+01  0.80980416260E+01  0.51100000000E-03 0.  1.
        -11    1    3    3    0    0  0.10870719840E+02  0.13152961310E+01  0.25294107275E+01  0.11238348306E+02  0.51100000000E-03 0. -1.
         12    1    3    3    0    0  0.20030076551E+02  0.72337515169E+01 -0.22791201326E+02  0.31192466808E+02  0.00000000000E+00 0. -1.
</event>
<event>
 7    1  0.2937071E-011  0.5052887E+02  0.7816164E-02  0.1300439E+00
        -11   -1    0    0    0    0  0.00000000000E+00  0.00000000000E+00  0.45593999997E+02  0.45594000000E+02  0.51100000000E-03 0.  1.
         11   -1    0    0    0    0 -0.00000000000E+00 -0.00000000000E+00 -0.45593999997E+02  0.45594000000E+02  0.51100000000E-03 0. -1.
    9900012    2    1    2    0    0 -0.32368139588E+02 -0.15010473583E+02 -0.19497550403E+02  0.50528865119E+02  0.30000016015E+02 0.  0.
        -12    1    1    2    0    0  0.32368139588E+02  0.15010473583E+02  0.19497550403E+02  0.40659134881E+02  0.00000000000E+00 0.  1.
         11    1    3    3    0    0 -0.74516042999E+01 -0.17116349476E+01 -0.77625439185E+01  0.10895558232E+02  0.51100000000E-03 0. -1.
        -11    1    3    3    0    0 -0.27931753117E+02 -0.99600856177E+01 -0.15772850781E+02  0.33588226504E+02  0.51100000000E-03 0.  1.
        -12    1    3    3    0    0  0.30152178289E+01 -0.33387530181E+01  0.40378442962E+01  0.60450803826E+01  0.00000000000E+00 0.  1.
</event>
<event>
 7    1  0.2937071E-011  0.5052885E+02  0.7816164E-02  0.1300439E+00
        -11   -1    0    0    0    0  0.00000000000E+00  0.00000000000E+00  0.45593999997E+02  0.45594000000E+02  0.51100000000E-03 0.  1.
         11   -1    0    0    0    0 -0.00000000000E+00 -0.00000000000E+00 -0.45593999997E+02  0.45594000000E+02  0.51100000000E-03 0. -1.
    9900012    2    1    2    0    0  0.12864435367E+02 -0.38314146708E+02  0.44383123093E+01  0.50528854025E+02  0.29999982294E+02 0.  0.
        -12    1    1    2    0    0 -0.12864435367E+02  0.38314146708E+02 -0.44383123093E+01  0.40659145975E+02  0.00000000000E+00 0.  1.
         11    1    3    3    0    0  0.88699332482E+01 -0.17558227200E+02  0.27072117978E+01  0.19856889339E+02  0.51100000000E-03 0. -1.
        -11    1    3    3    0    0  0.88669553585E+01 -0.20400097773E+02  0.71607146813E+01  0.23367984969E+02  0.51100000000E-03 0.  1.
         12    1    3    3    0    0 -0.48724532397E+01 -0.35582173444E+00 -0.54296141698E+01  0.73039797174E+01  0.00000000000E+00 0. -1.
</event>
<event>
 7    1  0.2937071E-011  0.5052886E+02  0.7816164E-02  0.1300439E+00
        -11   -1    0    0    0    0  0.00000000000E+00  0.00000000000E+00  0.45593999997E+02  0.45594000000E+02  0.51100000000E-03 0.  1.
         11   -1    0    0    0    0 -0.00000000000E+00 -0.00000000000E+00 -0.45593999997E+02  0.45594000000E+02  0.51100000000E-03 0. -1.
    9900012    2    1    2    0    0  0.25820606658E+02 -0.53146827483E+01 -0.30955071378E+02  0.50528855581E+02  0.29999987023E+02 0.  0.
        -12    1    1    2    0    0 -0.25820606658E+02  0.53146827483E+01  0.30955071378E+02  0.40659144419E+02  0.00000000000E+00 0.  1.
         11    1    3    3    0    0  0.63440359936E+00 -0.35156312321E+01  0.22276027175E+01  0.42100290991E+01  0.51100000000E-03 0. -1.
        -11    1    3    3    0    0  0.50499976989E+00  0.31295194172E+01  0.14669945018E+01  0.34929915087E+01  0.51100000000E-03 0.  1.
         12    1    3    3    0    0  0.24681203289E+02 -0.49285709334E+01 -0.34649668597E+02  0.42825834973E+02  0.00000000000E+00 0. -1.
</event>
<event>
 7    1  0.2937071E-011  0.5052886E+02  0.7816164E-02  0.1300439E+00
        -11   -1    0    0    0    0  0.00000000000E+00  0.00000000000E+00  0.45593999997E+02  0.45594000000E+02  0.51100000000E-03 0.  1.
         11   -1    0    0    0    0 -0.00000000000E+00 -0.00000000000E+00 -0.45593999997E+02  0.45594000000E+02  0.51100000000E-03 0. -1.
    9900012    2    1    2    0    0 -0.27417232502E+02 -0.89361160229E+01 -0.28663691217E+02  0.50528855865E+02  0.29999987886E+02 0.  0.
        -12    1    1    2    0    0  0.27417232502E+02  0.89361160229E+01  0.28663691217E+02  0.40659144135E+02  0.00000000000E+00 0.  1.
         11    1    3    3    0    0 -0.11550411074E+02  0.38845266677E+01 -0.70727761510E+01  0.14089915051E+02  0.51100000000E-03 0. -1.
        -11    1    3    3    0    0 -0.19300333317E+01 -0.34193982042E+01 -0.19033517224E+02  0.19434301915E+02  0.51100000000E-03 0.  1.
        -12    1    3    3    0    0 -0.13936788097E+02 -0.94012444864E+01 -0.25573978415E+01  0.17004638898E+02  0.00000000000E+00 0.  1.
</event>
<event>
 7    1  0.2937071E-011  0.5052886E+02  0.7816164E-02  0.1300439E+00
        -11   -1    0    0    0    0  0.00000000000E+00  0.00000000000E+00  0.45593999997E+02  0.45594000000E+02  0.51100000000E-03 0. -1.
         11   -1    0    0    0    0 -0.00000000000E+00 -0.00000000000E+00 -0.45593999997E+02  0.45594000000E+02  0.51100000000E-03 0.  1.
    9900012    2    1    2    0    0  0.30159384576E+02  0.27133645273E+02 -0.27096704466E+01  0.50528862064E+02  0.30000006729E+02 0.  0.
        -12    1    1    2    0    0 -0.30159384576E+02 -0.27133645273E+02  0.27096704466E+01  0.40659137936E+02  0.00000000000E+00 0.  1.
         11    1    3    3    0    0  0.12726415578E+02  0.22537789086E+02 -0.19648121776E+01  0.25957158502E+02  0.51100000000E-03 0. -1.
        -11    1    3    3    0    0  0.19103003769E+02  0.45583054329E+01 -0.47729409882E+01  0.20210983829E+02  0.51100000000E-03 0.  1.
         12    1    3    3    0    0 -0.16700347704E+01  0.37550754100E-01  0.40280827192E+01  0.43607197326E+01  0.00000000000E+00 0. -1.
</event>
<event>
 7    1  0.2937071E-011  0.5052886E+02  0.7816164E-02  0.1300439E+00
        -11   -1    0    0    0    0  0.00000000000E+00  0.00000000000E+00  0.45593999997E+02  0.45594000000E+02  0.51100000000E-03 0. -1.
         11   -1    0    0    0    0 -0.00000000000E+00 -0.00000000000E+00 -0.45593999997E+02  0.45594000000E+02  0.51100000000E-03 0.  1.
    9900012    2    1    2    0    0  0.17385585777E+02 -0.31916724426E+02 -0.18227182083E+02  0.50528855179E+02  0.29999985802E+02 0.  0.
        -12    1    1    2    0    0 -0.17385585777E+02  0.31916724426E+02  0.18227182083E+02  0.40659144821E+02  0.00000000000E+00 0.  1.
         11    1    3    3    0    0  0.66154823867E+01 -0.12918499920E+02 -0.79611942459E+01  0.16553937944E+02  0.51100000000E-03 0. -1.
        -11    1    3    3    0    0 -0.32581213809E+01  0.41739331586E+01 -0.18808093177E+01  0.56191206515E+01  0.51100000000E-03 0.  1.
         12    1    3    3    0    0  0.14028224771E+02 -0.23172157664E+02 -0.83851785195E+01  0.28355796583E+02  0.00000000000E+00 0. -1.
</event>
<event>
 7    1  0.2937071E-011  0.5052886E+02  0.7816164E-02  0.1300439E+00
        -11   -1    0    0    0    0  0.00000000000E+00  0.00000000000E+00  0.45593999997E+02  0.45594000000E+02  0.51100000000E-03 0.  1.
         11   -1    0    0    0    0 -0.00000000000E+00 -0.00000000000E+00 -0.45593999997E+02  0.45594000000E+02  0.51100000000E-03 0. -1.
    9900012    2    1    2    0    0 -0.26922784495E+02  0.26249596056E+02 -0.15468950998E+02  0.50528855112E+02  0.29999985598E+02 0.  0.
        -12    1    1    2    0    0  0.26922784495E+02 -0.26249596056E+02  0.15468950998E+02  0.40659144888E+02  0.00000000000E+00 0.  1.
         11    1    3    3    0    0  0.12360538282E+01  0.79089213766E+01 -0.58623207064E+01  0.99219791742E+01  0.51100000000E-03 0. -1.
        -11    1    3    3    0    0 -0.88921262417E+01  0.17287056996E+02 -0.86782240764E+01  0.21289054043E+02  0.51100000000E-03 0.  1.
        -12    1    3    3    0    0 -0.19266712081E+02  0.10536176835E+01 -0.92840621540E+00  0.19317821894E+02  0.00000000000E+00 0.  1.
</event>
<event>
 7    1  0.2937071E-011  0.5052886E+02  0.7816164E-02  0.1300439E+00
        -11   -1    0    0    0    0  0.00000000000E+00  0.00000000000E+00  0.45593999997E+02  0.45594000000E+02  0.51100000000E-03 0. -1.
         11   -1    0    0    0    0 -0.00000000000E+00 -0.00000000000E+00 -0.45593999997E+02  0.45594000000E+02  0.51100000000E-03 0.  1.
    9900012    2    1    2    0    0  0.21687719572E+02 -0.34286821228E+02  0.26874114902E+01  0.50528862396E+02  0.30000007740E+02 0.  0.
        -12    1    1    2    0    0 -0.21687719572E+02  0.34286821228E+02 -0.26874114902E+01  0.40659137604E+02  0.00000000000E+00 0.  1.
         11    1    3    3    0    0  0.88678213614E+01 -0.59393064630E+01  0.88304893273E+01  0.13852478442E+02  0.51100000000E-03 0. -1.
        -11    1    3    3    0    0  0.13166923175E+02 -0.77587440202E+01 -0.35627506349E+00  0.15287017591E+02  0.51100000000E-03 0.  1.
        -12    1    3    3    0    0 -0.34702496343E+00 -0.20588770744E+02 -0.57868027736E+01  0.21389366363E+02  0.00000000000E+00 0.  1.
</event>
<event>
 7    1  0.2937071E-011  0.5052886E+02  0.7816164E-02  0.1300439E+00
        -11   -1    0    0    0    0  0.00000000000E+00  0.00000000000E+00  0.45593999997E+02  0.45594000000E+02  0.51100000000E-03 0.  1.
         11   -1    0    0    0    0 -0.00000000000E+00 -0.00000000000E+00 -0.45593999997E+02  0.45594000000E+02  0.51100000000E-03 0. -1.
    9900012    2    1    2    0    0  0.37528899041E+02  0.14645885554E+02  0.54995892220E+01  0.50528859472E+02  0.29999998850E+02 0.  0.
        -12    1    1    2    0    0 -0.37528899041E+02 -0.14645885554E+02 -0.54995892220E+01  0.40659140528E+02  0.00000000000E+00 0.  1.
         11    1    3    3    0    0  0.10345863146E+01  0.94196523681E+01  0.68314851282E+01  0.11682012194E+02  0.51100000000E-03 0. -1.
        -11    1    3    3    0    0  0.42247919205E+01  0.48978089953E+01 -0.11820606637E+01  0.65753073997E+01  0.51100000000E-03 0.  1.
         12    1    3    3    0    0  0.32269520806E+02  0.32842419060E+00 -0.14983524253E+00  0.32271539878E+02  0.00000000000E+00 0. -1.
</event>
<event>
 7    1  0.2937071E-011  0.5052886E+02  0.7816164E-02  0.1300439E+00
        -11   -1    0    0    0    0  0.00000000000E+00  0.00000000000E+00  0.45593999997E+02  0.45594000000E+02  0.51100000000E-03 0.  1.
         11   -1    0    0    0    0 -0.00000000000E+00 -0.00000000000E+00 -0.45593999997E+02  0.45594000000E+02  0.51100000000E-03 0. -1.
    9900012    2    1    2    0    0 -0.11320913182E+02 -0.31520449046E+02 -0.23053504425E+02  0.50528857737E+02  0.29999993576E+02 0.  0.
        -12    1    1    2    0    0  0.11320913182E+02  0.31520449046E+02  0.23053504425E+02  0.40659142263E+02  0.00000000000E+00 0.  1.
         11    1    3    3    0    0  0.18904528323E+00  0.79271744773E+00  0.35319991629E+01  0.36247975694E+01  0.51100000000E-03 0. -1.
        -11    1    3    3    0    0  0.18612205400E+01  0.13493054440E+01 -0.25533089722E+01  0.34357173994E+01  0.51100000000E-03 0.  1.
         12    1    3    3    0    0 -0.13371179005E+02 -0.33662471938E+02 -0.24032194616E+02  0.43468342768E+02  0.00000000000E+00 0. -1.
</event>
<event>
 7    1  0.2937071E-011  0.5052885E+02  0.7816164E-02  0.1300439E+00
        -11   -1    0    0    0    0  0.00000000000E+00  0.00000000000E+00  0.45593999997E+02  0.45594000000E+02  0.51100000000E-03 0. -1.
         11   -1    0    0    0    0 -0.00000000000E+00 -0.00000000000E+00 -0.45593999997E+02  0.45594000000E+02  0.51100000000E-03 0.  1.
    9900012    2    1    2    0    0  0.87050702276E+01  0.59038990144E+01  0.39275083472E+02  0.50528850316E+02  0.29999971021E+02 0.  0.
        -12    1    1    2    0    0 -0.87050702276E+01 -0.59038990144E+01 -0.39275083472E+02  0.40659149684E+02  0.00000000000E+00 0.  1.
         11    1    3    3    0    0  0.89107264247E+01 -0.91898842310E+01  0.18744512321E+02  0.22698276587E+02  0.51100000000E-03 0. -1.
        -11    1    3    3    0    0  0.39742792248E+01  0.13115386437E+01  0.30354697361E+01  0.51700198985E+01  0.51100000000E-03 0.  1.
         12    1    3    3    0    0 -0.41799354220E+01  0.13782244602E+02  0.17495101416E+02  0.22660553831E+02  0.00000000000E+00 0. -1.
</event>
<event>
 7    1  0.2937071E-011  0.5052885E+02  0.7816164E-02  0.1300439E+00
        -11   -1    0    0    0    0  0.00000000000E+00  0.00000000000E+00  0.45593999997E+02  0.45594000000E+02  0.51100000000E-03 0.  1.
         11   -1    0    0    0    0 -0.00000000000E+00 -0.00000000000E+00 -0.45593999997E+02  0.45594000000E+02  0.51100000000E-03 0. -1.
    9900012    2    1    2    0    0 -0.15424170629E+02 -0.20225723270E+02 -0.31720370454E+02  0.50528845765E+02  0.29999957186E+02 0.  0.
        -12    1    1    2    0    0  0.15424170629E+02  0.20225723270E+02  0.31720370454E+02  0.40659154235E+02  0.00000000000E+00 0.  1.
         11    1    3    3    0    0  0.24649169147E+01 -0.94908185553E+01 -0.21959881329E+02  0.24049695227E+02  0.51100000000E-03 0. -1.
        -11    1    3    3    0    0 -0.51852947930E+00 -0.20429271754E+00  0.26278324005E+01  0.26862821374E+01  0.51100000000E-03 0.  1.
        -12    1    3    3    0    0 -0.17370558064E+02 -0.10530611997E+02 -0.12388321526E+02  0.23792868401E+02  0.00000000000E+00 0.  1.
</event>
<event>
 7    1  0.2937071E-011  0.5052888E+02  0.7816164E-02  0.1300439E+00
        -11   -1    0    0    0    0  0.00000000000E+00  0.00000000000E+00  0.45593999997E+02  0.45594000000E+02  0.51100000000E-03 0.  1.
         11   -1    0    0    0    0 -0.00000000000E+00 -0.00000000000E+00 -0.45593999997E+02  0.45594000000E+02  0.51100000000E-03 0. -1.
    9900012    2    1    2    0    0  0.26784632787E+02 -0.28350146133E+02 -0.11489856690E+02  0.50528878686E+02  0.30000057254E+02 0.  0.
        -12    1    1    2    0    0 -0.26784632787E+02  0.28350146133E+02  0.11489856690E+02  0.40659121314E+02  0.00000000000E+00 0.  1.
         11    1    3    3    0    0  0.20359724886E+01 -0.11531222827E+02  0.60327247832E+01  0.13172245535E+02  0.51100000000E-03 0. -1.
        -11    1    3    3    0    0 -0.37315770106E+00 -0.51955236572E+01 -0.17342178028E+01  0.54900113288E+01  0.51100000000E-03 0.  1.
         12    1    3    3    0    0  0.25121817999E+02 -0.11623399649E+02 -0.15788363670E+02  0.31866621822E+02  0.00000000000E+00 0. -1.
</event>
<event>
 7    1  0.2937071E-011  0.5052885E+02  0.7816164E-02  0.1300439E+00
        -11   -1    0    0    0    0  0.00000000000E+00  0.00000000000E+00  0.45593999997E+02  0.45594000000E+02  0.51100000000E-03 0. -1.
         11   -1    0    0    0    0 -0.00000000000E+00 -0.00000000000E+00 -0.45593999997E+02  0.45594000000E+02  0.51100000000E-03 0.  1.
    9900012    2    1    2    0    0 -0.57505574169E+01  0.52396218408E+00  0.40247022591E+02  0.50528852513E+02  0.29999977698E+02 0.  0.
        -12    1    1    2    0    0  0.57505574169E+01 -0.52396218408E+00 -0.40247022591E+02  0.40659147487E+02  0.00000000000E+00 0.  1.
         11    1    3    3    0    0 -0.10195142949E+02  0.33023156307E+01  0.25256740770E+02  0.27436274945E+02  0.51100000000E-03 0. -1.
        -11    1    3    3    0    0 -0.12143930104E+01 -0.78802276444E+01  0.23132666659E+01  0.83020443892E+01  0.51100000000E-03 0.  1.
        -12    1    3    3    0    0  0.56589785422E+01  0.51018741978E+01  0.12677015154E+02  0.14790533178E+02  0.00000000000E+00 0.  1.
</event>
<event>
 7    1  0.2937071E-011  0.5052886E+02  0.7816164E-02  0.1300439E+00
        -11   -1    0    0    0    0  0.00000000000E+00  0.00000000000E+00  0.45593999997E+02  0.45594000000E+02  0.51100000000E-03 0.  1.
         11   -1    0    0    0    0 -0.00000000000E+00 -0.00000000000E+00 -0.45593999997E+02  0.45594000000E+02  0.51100000000E-03 0. -1.
    9900012    2    1    2    0    0  0.20641968163E+02 -0.14245475520E+02 -0.32002210670E+02  0.50528856991E+02  0.29999991310E+02 0.  0.
        -12    1    1    2    0    0 -0.20641968163E+02  0.14245475520E+02  0.32002210670E+02  0.40659143009E+02  0.00000000000E+00 0.  1.
         11    1    3    3    0    0 -0.57157431034E+01 -0.31843837659E+01 -0.56562015227E+01  0.86488516648E+01  0.51100000000E-03 0.  1.
        -11    1    3    3    0    0  0.72766226935E+01  0.23958069421E+01 -0.12711637014E+02  0.14841659091E+02  0.51100000000E-03 0. -1.
        -12    1    3    3    0    0  0.19081088573E+02 -0.13456898696E+02 -0.13634372133E+02  0.27038346235E+02  0.00000000000E+00 0.  1.
</event>
<event>
 7    1  0.2937071E-011  0.5052888E+02  0.7816164E-02  0.1300439E+00
        -11   -1    0    0    0    0  0.00000000000E+00  0.00000000000E+00  0.45593999997E+02  0.45594000000E+02  0.51100000000E-03 0.  1.
         11   -1    0    0    0    0 -0.00000000000E+00 -0.00000000000E+00 -0.45593999997E+02  0.45594000000E+02  0.51100000000E-03 0. -1.
    9900012    2    1    2    0    0 -0.33890118920E+02 -0.20774496260E+02 -0.85466098442E+01  0.50528875623E+02  0.30000047944E+02 0.  0.
        -12    1    1    2    0    0  0.33890118920E+02  0.20774496260E+02  0.85466098442E+01  0.40659124377E+02  0.00000000000E+00 0.  1.
         11    1    3    3    0    0 -0.10864003007E+02 -0.10357785478E+02 -0.74184630112E+01  0.16743472611E+02  0.51100000000E-03 0. -1.
        -11    1    3    3    0    0 -0.20150001289E+02 -0.14670800226E+02  0.53763097308E+01  0.25498228131E+02  0.51100000000E-03 0.  1.
         12    1    3    3    0    0 -0.28761146239E+01  0.42540894446E+01 -0.65044565638E+01  0.82871748818E+01  0.00000000000E+00 0. -1.
</event>
<event>
 7    1  0.2937071E-011  0.5052886E+02  0.7816164E-02  0.1300439E+00
        -11   -1    0    0    0    0  0.00000000000E+00  0.00000000000E+00  0.45593999997E+02  0.45594000000E+02  0.51100000000E-03 0. -1.
         11   -1    0    0    0    0 -0.00000000000E+00 -0.00000000000E+00 -0.45593999997E+02  0.45594000000E+02  0.51100000000E-03 0.  1.
    9900012    2    1    2    0    0 -0.12014898040E+02  0.36930814452E+02 -0.12038401970E+02  0.50528856465E+02  0.29999989712E+02 0.  0.
        -12    1    1    2    0    0  0.12014898040E+02 -0.36930814452E+02  0.12038401970E+02  0.40659143535E+02  0.00000000000E+00 0.  1.
         11    1    3    3    0    0 -0.38101960113E+01  0.15208208673E+02 -0.15966605351E+01  0.15759331515E+02  0.51100000000E-03 0. -1.
        -11    1    3    3    0    0 -0.19552884462E+01  0.17631603115E+02 -0.17190836520E+02  0.24702660622E+02  0.51100000000E-03 0.  1.
        -12    1    3    3    0    0 -0.62494135823E+01  0.40910026644E+01  0.67490950856E+01  0.10066864328E+02  0.00000000000E+00 0.  1.
</event>
<event>
 7    1  0.2937071E-011  0.5052886E+02  0.7816164E-02  0.1300439E+00
        -11   -1    0    0    0    0  0.00000000000E+00  0.00000000000E+00  0.45593999997E+02  0.45594000000E+02  0.51100000000E-03 0. -1.
         11   -1    0    0    0    0 -0.00000000000E+00 -0.00000000000E+00 -0.45593999997E+02  0.45594000000E+02  0.51100000000E-03 0.  1.
    9900012    2    1    2    0    0 -0.40206406499E+02 -0.48011508434E+00 -0.60315902460E+01  0.50528859393E+02  0.29999998610E+02 0.  0.
        -12    1    1    2    0    0  0.40206406499E+02  0.48011508434E+00  0.60315902460E+01  0.40659140607E+02  0.00000000000E+00 0.  1.
         11    1    3    3    0    0 -0.13072588573E+02 -0.68199151276E+01  0.59802869626E+01  0.15911242779E+02  0.51100000000E-03 0. -1.
        -11    1    3    3    0    0 -0.70545310699E+01 -0.48146728234E+01  0.32022066518E+00  0.85469307091E+01  0.51100000000E-03 0.  1.
         12    1    3    3    0    0 -0.20079286856E+02  0.11154472867E+02 -0.12332097874E+02  0.26070685905E+02  0.00000000000E+00 0. -1.
</event>
<event>
 7    1  0.2937071E-011  0.5052886E+02  0.7816164E-02  0.1300439E+00
        -11   -1    0    0    0    0  0.00000000000E+00  0.00000000000E+00  0.45593999997E+02  0.45594000000E+02  0.51100000000E-03 0. -1.
         11   -1    0    0    0    0 -0.00000000000E+00 -0.00000000000E+00 -0.45593999997E+02  0.45594000000E+02  0.51100000000E-03 0.  1.
    9900012    2    1    2    0    0 -0.21507555096E+02 -0.24512195830E+00  0.34504067942E+02  0.50528859385E+02  0.29999998588E+02 0.  0.
        -12    1    1    2    0    0  0.21507555096E+02  0.24512195830E+00 -0.34504067942E+02  0.40659140615E+02  0.00000000000E+00 0.  1.
         11    1    3    3    0    0 -0.17678739373E+02  0.87121488651E+00  0.15846088564E+02  0.23757006635E+02  0.51100000000E-03 0. -1.
        -11    1    3    3    0    0 -0.10924370539E+02 -0.19706797248E+01  0.70818482411E+01  0.13167308951E+02  0.51100000000E-03 0.  1.
        -12    1    3    3    0    0  0.70955548156E+01  0.85434287999E+00  0.11576131137E+02  0.13604543799E+02  0.00000000000E+00 0.  1.
</event>
<event>
 7    1  0.2937071E-011  0.5052886E+02  0.7816164E-02  0.1300439E+00
        -11   -1    0    0    0    0  0.00000000000E+00  0.00000000000E+00  0.45593999997E+02  0.45594000000E+02  0.51100000000E-03 0.  1.
         11   -1    0    0    0    0 -0.00000000000E+00 -0.00000000000E+00 -0.45593999997E+02  0.45594000000E+02  0.51100000000E-03 0. -1.
    9900012    2    1    2    0    0 -0.24953128007E+01 -0.22219174796E+02 -0.33959494931E+02  0.50528860676E+02  0.30000002511E+02 0.  0.
        -12    1    1    2    0    0  0.24953128007E+01  0.22219174796E+02  0.33959494931E+02  0.40659139324E+02  0.00000000000E+00 0.  1.
         11    1    3    3    0    0  0.54338059131E+01 -0.17689971700E+02 -0.27412227206E+02  0.33074031295E+02  0.51100000000E-03 0. -1.
        -11    1    3    3    0    0 -0.14405689107E+01 -0.27292760218E+01 -0.95836638569E+01  0.10068306688E+02  0.51100000000E-03 0.  1.
        -12    1    3    3    0    0 -0.64885498031E+01 -0.17999270747E+01  0.30363961318E+01  0.73865226928E+01  0.00000000000E+00 0.  1.
</event>
<event>
 7    1  0.2937071E-011  0.5052886E+02  0.7816164E-02  0.1300439E+00
        -11   -1    0    0    0    0  0.00000000000E+00  0.00000000000E+00  0.45593999997E+02  0.45594000000E+02  0.51100000000E-03 0. -1.
         11   -1    0    0    0    0 -0.00000000000E+00 -0.00000000000E+00 -0.45593999997E+02  0.45594000000E+02  0.51100000000E-03 0.  1.
    9900012    2    1    2    0    0  0.24767039791E+02  0.19604635205E+02  0.25601125738E+02  0.50528860552E+02  0.30000002135E+02 0.  0.
        -12    1    1    2    0    0 -0.24767039791E+02 -0.19604635205E+02 -0.25601125738E+02  0.40659139448E+02  0.00000000000E+00 0.  1.
         11    1    3    3    0    0  0.15040802240E+02  0.11904177637E+02  0.88446042263E+01  0.21122551963E+02  0.51100000000E-03 0. -1.
        -11    1    3    3    0    0 -0.69165996316E+00  0.16791772764E+01 -0.45709892891E+01  0.49185336405E+01  0.51100000000E-03 0.  1.
         12    1    3    3    0    0  0.10417897514E+02  0.60212802923E+01  0.21327510801E+02  0.24487774949E+02  0.00000000000E+00 0. -1.
</event>
<event>
 7    1  0.2937071E-011  0.5052886E+02  0.7816164E-02  0.1300439E+00
        -11   -1    0    0    0    0  0.00000000000E+00  0.00000000000E+00  0.45593999997E+02  0.45594000000E+02  0.51100000000E-03 0.  1.
         11   -1    0    0    0    0 -0.00000000000E+00 -0.00000000000E+00 -0.45593999997E+02  0.45594000000E+02  0.51100000000E-03 0. -1.
    9900012    2    1    2    0    0 -0.21681623463E+02 -0.30702566151E+02 -0.15505654522E+02  0.50528859743E+02  0.29999999676E+02 0.  0.
        -12    1    1    2    0    0  0.21681623463E+02  0.30702566151E+02  0.15505654522E+02  0.40659140257E+02  0.00000000000E+00 0.  1.
         11    1    3    3    0    0 -0.81397272792E-01 -0.52716576657E+01  0.17077826724E+01  0.55419781647E+01  0.51100000000E-03 0. -1.
        -11    1    3    3    0    0  0.51338392432E+01 -0.11449904378E+01 -0.36668078657E+01  0.64119255035E+01  0.51100000000E-03 0.  1.
         12    1    3    3    0    0 -0.26734065434E+02 -0.24285918047E+02 -0.13546629329E+02  0.38574956075E+02  0.00000000000E+00 0. -1.
</event>
<event>
 7    1  0.2937071E-011  0.5052886E+02  0.7816164E-02  0.1300439E+00
        -11   -1    0    0    0    0  0.00000000000E+00  0.00000000000E+00  0.45593999997E+02  0.45594000000E+02  0.51100000000E-03 0.  1.
         11   -1    0    0    0    0 -0.00000000000E+00 -0.00000000000E+00 -0.45593999997E+02  0.45594000000E+02  0.51100000000E-03 0. -1.
    9900012    2    1    2    0    0  0.17197325632E+02  0.31744011821E+02 -0.18701220682E+02  0.50528856497E+02  0.29999989809E+02 0.  0.
        -12    1    1    2    0    0 -0.17197325632E+02 -0.31744011821E+02  0.18701220682E+02  0.40659143503E+02  0.00000000000E+00 0.  1.
         11    1    3    3    0    0 -0.14671516500E+01  0.10602749286E+02 -0.12786063558E+02  0.16674958709E+02  0.51100000000E-03 0. -1.
        -11    1    3    3    0    0  0.35344026952E+01  0.40986999678E+01 -0.93533860439E+01  0.10806348809E+02  0.51100000000E-03 0.  1.
        -12    1    3    3    0    0  0.15130074586E+02  0.17042562567E+02  0.34382289190E+01  0.23047548979E+02  0.00000000000E+00 0.  1.
</event>
<event>
 7    1  0.2937071E-011  0.5052886E+02  0.7816164E-02  0.1300439E+00
        -11   -1    0    0    0    0  0.00000000000E+00  0.00000000000E+00  0.45593999997E+02  0.45594000000E+02  0.51100000000E-03 0.  1.
         11   -1    0    0    0    0 -0.00000000000E+00 -0.00000000000E+00 -0.45593999997E+02  0.45594000000E+02  0.51100000000E-03 0. -1.
    9900012    2    1    2    0    0  0.17475656317E+02 -0.12650946801E+02 -0.34463319771E+02  0.50528862918E+02  0.30000009324E+02 0.  0.
        -12    1    1    2    0    0 -0.17475656317E+02  0.12650946801E+02  0.34463319771E+02  0.40659137082E+02  0.00000000000E+00 0.  1.
         11    1    3    3    0    0 -0.26996594650E+01  0.21214243382E+01 -0.95961222666E+01  0.10191867604E+02  0.51100000000E-03 0. -1.
        -11    1    3    3    0    0  0.75983228271E+01 -0.17289675076E+02 -0.15888933720E+02  0.24680469790E+02  0.51100000000E-03 0.  1.
         12    1    3    3    0    0  0.12576992955E+02  0.25173039369E+01 -0.89782637843E+01  0.15656525524E+02  0.00000000000E+00 0. -1.
</event>
<event>
 7    1  0.2937071E-011  0.5052885E+02  0.7816164E-02  0.1300439E+00
        -11   -1    0    0    0    0  0.00000000000E+00  0.00000000000E+00  0.45593999997E+02  0.45594000000E+02  0.51100000000E-03 0.  1.
         11   -1    0    0    0    0 -0.00000000000E+00 -0.00000000000E+00 -0.45593999997E+02  0.45594000000E+02  0.51100000000E-03 0. -1.
    9900012    2    1    2    0    0  0.88396427173E+01  0.15335491025E+02 -0.36603955384E+02  0.50528854435E+02  0.29999983540E+02 0.  0.
        -12    1    1    2    0    0 -0.88396427173E+01 -0.15335491025E+02  0.36603955384E+02  0.40659145565E+02  0.00000000000E+00 0.  1.
         11    1    3    3    0    0  0.54243871761E+01  0.33521280702E+01 -0.40475855270E+01  0.75527271693E+01  0.51100000000E-03 0. -1.
        -11    1    3    3    0    0 -0.16067017209E+01  0.93600052883E+01  0.43006266714E+00  0.95066368173E+01  0.51100000000E-03 0.  1.
         12    1    3    3    0    0  0.50219572621E+01  0.26233576660E+01 -0.32986432524E+02  0.33469490448E+02  0.00000000000E+00 0. -1.
</event>
<event>
 7    1  0.2937071E-011  0.5052886E+02  0.7816164E-02  0.1300439E+00
        -11   -1    0    0    0    0  0.00000000000E+00  0.00000000000E+00  0.45593999997E+02  0.45594000000E+02  0.51100000000E-03 0. -1.
         11   -1    0    0    0    0 -0.00000000000E+00 -0.00000000000E+00 -0.45593999997E+02  0.45594000000E+02  0.51100000000E-03 0.  1.
    9900012    2    1    2    0    0  0.15054739287E+02  0.37222049002E+02  0.64062300571E+01  0.50528857234E+02  0.29999992050E+02 0.  0.
        -12    1    1    2    0    0 -0.15054739287E+02 -0.37222049002E+02 -0.64062300571E+01  0.40659142766E+02  0.00000000000E+00 0.  1.
         11    1    3    3    0    0  0.16835515111E+02  0.11134072499E+02  0.32874533215E+01  0.20450170881E+02  0.51100000000E-03 0. -1.
        -11    1    3    3    0    0 -0.28123734780E+01  0.51090251312E+01  0.65784849573E+01  0.87913620654E+01  0.51100000000E-03 0.  1.
         12    1    3    3    0    0  0.10315976548E+01  0.20978951372E+02 -0.34597082217E+01  0.21287324288E+02  0.00000000000E+00 0. -1.
</event>
<event>
 7    1  0.2937071E-011  0.5052886E+02  0.7816164E-02  0.1300439E+00
        -11   -1    0    0    0    0  0.00000000000E+00  0.00000000000E+00  0.45593999997E+02  0.45594000000E+02  0.51100000000E-03 0.  1.
         11   -1    0    0    0    0 -0.00000000000E+00 -0.00000000000E+00 -0.45593999997E+02  0.45594000000E+02  0.51100000000E-03 0. -1.
    9900012    2    1    2    0    0  0.74150490250E+01  0.28199148520E+02 -0.28337094425E+02  0.50528857735E+02  0.29999993570E+02 0.  0.
        -12    1    1    2    0    0 -0.74150490250E+01 -0.28199148520E+02  0.28337094425E+02  0.40659142265E+02  0.00000000000E+00 0.  1.
         11    1    3    3    0    0 -0.95817065575E+00  0.73174581577E+01 -0.94866203457E+01  0.12019120215E+02  0.51100000000E-03 0. -1.
        -11    1    3    3    0    0 -0.77257324982E+01  0.14074053930E+01 -0.73223308319E+01  0.10737050882E+02  0.51100000000E-03 0.  1.
         12    1    3    3    0    0  0.16098952179E+02  0.19474284970E+02 -0.11528143247E+02  0.27772686638E+02  0.00000000000E+00 0. -1.
</event>
<event>
 7    1  0.2937071E-011  0.5052887E+02  0.7816164E-02  0.1300439E+00
        -11   -1    0    0    0    0  0.00000000000E+00  0.00000000000E+00  0.45593999997E+02  0.45594000000E+02  0.51100000000E-03 0.  1.
         11   -1    0    0    0    0 -0.00000000000E+00 -0.00000000000E+00 -0.45593999997E+02  0.45594000000E+02  0.51100000000E-03 0. -1.
    9900012    2    1    2    0    0 -0.31552488235E+02 -0.99655780716E+01 -0.23628211669E+02  0.50528872528E+02  0.30000038537E+02 0.  0.
        -12    1    1    2    0    0  0.31552488235E+02  0.99655780716E+01  0.23628211669E+02  0.40659127472E+02  0.00000000000E+00 0.  1.
         11    1    3    3    0    0 -0.27762330684E+02 -0.11590598269E+02 -0.29426988897E+02  0.42083686258E+02  0.51100000000E-03 0. -1.
        -11    1    3    3    0    0 -0.18246637607E+01  0.97375208072E+00 -0.22028777367E+00  0.20799321909E+01  0.51100000000E-03 0.  1.
         12    1    3    3    0    0 -0.19654937898E+01  0.65126811716E+00  0.60190650019E+01  0.63652540794E+01  0.00000000000E+00 0. -1.
</event>
<event>
 7    1  0.2937071E-011  0.5052887E+02  0.7816164E-02  0.1300439E+00
        -11   -1    0    0    0    0  0.00000000000E+00  0.00000000000E+00  0.45593999997E+02  0.45594000000E+02  0.51100000000E-03 0.  1.
         11   -1    0    0    0    0 -0.00000000000E+00 -0.00000000000E+00 -0.45593999997E+02  0.45594000000E+02  0.51100000000E-03 0. -1.
    9900012    2    1    2    0    0  0.15007392170E+02  0.34037346451E+02 -0.16413474480E+02  0.50528869197E+02  0.30000028411E+02 0.  0.
        -12    1    1    2    0    0 -0.15007392170E+02 -0.34037346451E+02  0.16413474480E+02  0.40659130803E+02  0.00000000000E+00 0.  1.
         11    1    3    3    0    0  0.59410329395E+01  0.14536025514E+02 -0.13057782822E+02  0.20422967527E+02  0.51100000000E-03 0. -1.
        -11    1    3    3    0    0  0.38386253014E+01  0.21362601311E+02 -0.77297520468E+01  0.23040070441E+02  0.51100000000E-03 0.  1.
        -12    1    3    3    0    0  0.52277339290E+01 -0.18612803742E+01  0.43740603887E+01  0.70658312284E+01  0.00000000000E+00 0.  1.
</event>
<event>
 7    1  0.2937071E-011  0.5052891E+02  0.7816164E-02  0.1300439E+00
        -11   -1    0    0    0    0  0.00000000000E+00  0.00000000000E+00  0.45593999997E+02  0.45594000000E+02  0.51100000000E-03 0.  1.
         11   -1    0    0    0    0 -0.00000000000E+00 -0.00000000000E+00 -0.45593999997E+02  0.45594000000E+02  0.51100000000E-03 0. -1.
    9900012    2    1    2    0    0 -0.14747336422E+02  0.24525462819E+02 -0.28882158437E+02  0.50528913267E+02  0.30000162365E+02 0.  0.
        -12    1    1    2    0    0  0.14747336422E+02 -0.24525462819E+02  0.28882158437E+02  0.40659086733E+02  0.00000000000E+00 0.  1.
         11    1    3    3    0    0 -0.74916829851E+01 -0.79106829911E-01 -0.41528357937E+01  0.85660736181E+01  0.51100000000E-03 0. -1.
        -11    1    3    3    0    0 -0.11855501737E+02  0.56939046547E+01 -0.45225646845E+01  0.13907805838E+02  0.51100000000E-03 0.  1.
         12    1    3    3    0    0  0.45998482997E+01  0.18910664994E+02 -0.20206757959E+02  0.28055033810E+02  0.00000000000E+00 0. -1.
</event>
<event>
 7    1  0.2937071E-011  0.5052886E+02  0.7816164E-02  0.1300439E+00
        -11   -1    0    0    0    0  0.00000000000E+00  0.00000000000E+00  0.45593999997E+02  0.45594000000E+02  0.51100000000E-03 0.  1.
         11   -1    0    0    0    0 -0.00000000000E+00 -0.00000000000E+00 -0.45593999997E+02  0.45594000000E+02  0.51100000000E-03 0. -1.
    9900012    2    1    2    0    0 -0.19896333458E-01 -0.40481367521E+02 -0.37978672189E+01  0.50528864401E+02  0.30000013835E+02 0.  0.
        -12    1    1    2    0    0  0.19896333458E-01  0.40481367521E+02  0.37978672189E+01  0.40659135599E+02  0.00000000000E+00 0.  1.
         11    1    3    3    0    0  0.34895142099E+01 -0.14951159391E+02 -0.37052470538E+01  0.15793756125E+02  0.51100000000E-03 0. -1.
        -11    1    3    3    0    0  0.42319787483E+01 -0.94324805312E+01 -0.99369443534E+01  0.14339602381E+02  0.51100000000E-03 0.  1.
        -12    1    3    3    0    0 -0.77413892916E+01 -0.16097727598E+02  0.98443241883E+01  0.20395505895E+02  0.00000000000E+00 0.  1.
</event>
<event>
 7    1  0.2937071E-011  0.5052885E+02  0.7816164E-02  0.1300439E+00
        -11   -1    0    0    0    0  0.00000000000E+00  0.00000000000E+00  0.45593999997E+02  0.45594000000E+02  0.51100000000E-03 0.  1.
         11   -1    0    0    0    0 -0.00000000000E+00 -0.00000000000E+00 -0.45593999997E+02  0.45594000000E+02  0.51100000000E-03 0. -1.
    9900012    2    1    2    0    0 -0.17309809320E+02  0.18769188034E+02 -0.31642610186E+02  0.50528847309E+02  0.29999961881E+02 0.  0.
        -12    1    1    2    0    0  0.17309809320E+02 -0.18769188034E+02  0.31642610186E+02  0.40659152691E+02  0.00000000000E+00 0.  1.
         11    1    3    3    0    0  0.59193168536E+01 -0.10727498220E+01 -0.41682211775E+01  0.73186865105E+01  0.51100000000E-03 0. -1.
        -11    1    3    3    0    0 -0.28394675728E+01 -0.17558299393E+01 -0.11779270185E+01  0.35402015755E+01  0.51100000000E-03 0.  1.
         12    1    3    3    0    0 -0.20389658600E+02  0.21597767795E+02 -0.26296461990E+02  0.39669959223E+02  0.00000000000E+00 0. -1.
</event>
<event>
 7    1  0.2937071E-011  0.5052884E+02  0.7816164E-02  0.1300439E+00
        -11   -1    0    0    0    0  0.00000000000E+00  0.00000000000E+00  0.45593999997E+02  0.45594000000E+02  0.51100000000E-03 0. -1.
         11   -1    0    0    0    0 -0.00000000000E+00 -0.00000000000E+00 -0.45593999997E+02  0.45594000000E+02  0.51100000000E-03 0.  1.
    9900012    2    1    2    0    0  0.30555291848E+02 -0.12577892666E+01  0.26794770448E+02  0.50528836001E+02  0.29999927508E+02 0.  0.
        -12    1    1    2    0    0 -0.30555291848E+02  0.12577892666E+01 -0.26794770448E+02  0.40659163999E+02  0.00000000000E+00 0.  1.
         11    1    3    3    0    0  0.11290004603E+01  0.19179990332E+01  0.87684727987E+01  0.90465174411E+01  0.51100000000E-03 0. -1.
        -11    1    3    3    0    0  0.24674237098E+02  0.37154932023E+01  0.20985368360E+02  0.32603811918E+02  0.51100000000E-03 0.  1.
        -12    1    3    3    0    0  0.47520542898E+01 -0.68912815022E+01 -0.29590707108E+01  0.88785066417E+01  0.00000000000E+00 0.  1.
</event>
<event>
 7    1  0.2937071E-011  0.5052885E+02  0.7816164E-02  0.1300439E+00
        -11   -1    0    0    0    0  0.00000000000E+00  0.00000000000E+00  0.45593999997E+02  0.45594000000E+02  0.51100000000E-03 0.  1.
         11   -1    0    0    0    0 -0.00000000000E+00 -0.00000000000E+00 -0.45593999997E+02  0.45594000000E+02  0.51100000000E-03 0. -1.
    9900012    2    1    2    0    0  0.18991748250E+02 -0.19722660047E+02 -0.30058219764E+02  0.50528851013E+02  0.29999973140E+02 0.  0.
        -12    1    1    2    0    0 -0.18991748250E+02  0.19722660047E+02  0.30058219764E+02  0.40659148987E+02  0.00000000000E+00 0.  1.
         11    1    3    3    0    0  0.65260689359E+01 -0.16295147320E+02 -0.22334107574E+02  0.28406579578E+02  0.51100000000E-03 0. -1.
        -11    1    3    3    0    0  0.14956600998E+02 -0.60959693738E+01 -0.86977685184E+01  0.18344261595E+02  0.51100000000E-03 0.  1.
        -12    1    3    3    0    0 -0.24909216839E+01  0.26684566460E+01  0.97365632828E+00  0.37780098402E+01  0.00000000000E+00 0.  1.
</event>
<event>
 7    1  0.2937071E-011  0.5052887E+02  0.7816164E-02  0.1300439E+00
        -11   -1    0    0    0    0  0.00000000000E+00  0.00000000000E+00  0.45593999997E+02  0.45594000000E+02  0.51100000000E-03 0. -1.
         11   -1    0    0    0    0 -0.00000000000E+00 -0.00000000000E+00 -0.45593999997E+02  0.45594000000E+02  0.51100000000E-03 0.  1.
    9900012    2    1    2    0    0 -0.38859878198E+02  0.75972284776E+01 -0.92388618910E+01  0.50528873311E+02  0.30000040916E+02 0.  0.
        -12    1    1    2    0    0  0.38859878198E+02 -0.75972284776E+01  0.92388618910E+01  0.40659126689E+02  0.00000000000E+00 0.  1.
         11    1    3    3    0    0 -0.25780982175E+02  0.37259860964E+01 -0.12576412749E+01  0.26079180895E+02  0.51100000000E-03 0. -1.
        -11    1    3    3    0    0 -0.59999409778E+01  0.10086575818E+02  0.53803620425E+00  0.11748522745E+02  0.51100000000E-03 0.  1.
        -12    1    3    3    0    0 -0.70789550446E+01 -0.62153334364E+01 -0.85192568204E+01  0.12701169671E+02  0.00000000000E+00 0.  1.
</event>
<event>
 7    1  0.2937071E-011  0.5052885E+02  0.7816164E-02  0.1300439E+00
        -11   -1    0    0    0    0  0.00000000000E+00  0.00000000000E+00  0.45593999997E+02  0.45594000000E+02  0.51100000000E-03 0.  1.
         11   -1    0    0    0    0 -0.00000000000E+00 -0.00000000000E+00 -0.45593999997E+02  0.45594000000E+02  0.51100000000E-03 0. -1.
    9900012    2    1    2    0    0  0.86238980942E+01  0.63556989972E+01 -0.39222444821E+02  0.50528847207E+02  0.29999961570E+02 0.  0.
        -12    1    1    2    0    0 -0.86238980942E+01 -0.63556989972E+01  0.39222444821E+02  0.40659152793E+02  0.00000000000E+00 0.  1.
         11    1    3    3    0    0  0.50874420897E+01  0.13421729048E+02 -0.47534743784E+01  0.15120198298E+02  0.51100000000E-03 0.  1.
        -11    1    3    3    0    0  0.21188835642E+01 -0.41722699451E+01 -0.16397521758E+02  0.17052161861E+02  0.51100000000E-03 0. -1.
        -12    1    3    3    0    0  0.14175724404E+01 -0.28937601055E+01 -0.18071448685E+02  0.18356487048E+02  0.00000000000E+00 0.  1.
</event>
<event>
 7    1  0.2937071E-011  0.5052886E+02  0.7816164E-02  0.1300439E+00
        -11   -1    0    0    0    0  0.00000000000E+00  0.00000000000E+00  0.45593999997E+02  0.45594000000E+02  0.51100000000E-03 0.  1.
         11   -1    0    0    0    0 -0.00000000000E+00 -0.00000000000E+00 -0.45593999997E+02  0.45594000000E+02  0.51100000000E-03 0. -1.
    9900012    2    1    2    0    0  0.78049774233E+01  0.26817015811E+02 -0.29548194281E+02  0.50528858410E+02  0.29999995622E+02 0.  0.
        -12    1    1    2    0    0 -0.78049774233E+01 -0.26817015811E+02  0.29548194281E+02  0.40659141590E+02  0.00000000000E+00 0.  1.
         11    1    3    3    0    0  0.37146453927E+01  0.46067756643E+01 -0.54138248044E+01  0.80206278861E+01  0.51100000000E-03 0. -1.
        -11    1    3    3    0    0  0.31991602028E+01  0.28356793162E+02 -0.21645967356E+02  0.35817457301E+02  0.51100000000E-03 0.  1.
         12    1    3    3    0    0  0.89117182779E+00 -0.61465530157E+01 -0.24884021208E+01  0.66907732226E+01  0.00000000000E+00 0. -1.
</event>
<event>
 7    1  0.2937071E-011  0.5052887E+02  0.7816164E-02  0.1300439E+00
        -11   -1    0    0    0    0  0.00000000000E+00  0.00000000000E+00  0.45593999997E+02  0.45594000000E+02  0.51100000000E-03 0.  1.
         11   -1    0    0    0    0 -0.00000000000E+00 -0.00000000000E+00 -0.45593999997E+02  0.45594000000E+02  0.51100000000E-03 0. -1.
    9900012    2    1    2    0    0  0.88305991887E+01 -0.13229992891E+02 -0.37418616339E+02  0.50528867660E+02  0.30000023738E+02 0.  0.
        -12    1    1    2    0    0 -0.88305991887E+01  0.13229992891E+02  0.37418616339E+02  0.40659132340E+02  0.00000000000E+00 0.  1.
         11    1    3    3    0    0 -0.17629900133E+01 -0.12340981693E+02 -0.71064236649E+01  0.14349537292E+02  0.51100000000E-03 0. -1.
        -11    1    3    3    0    0  0.56147973755E+01 -0.50369509520E+01 -0.30145963263E+01  0.81230915133E+01  0.51100000000E-03 0.  1.
        -12    1    3    3    0    0  0.49787918265E+01  0.41479397538E+01 -0.27297596348E+02  0.28056238854E+02  0.00000000000E+00 0.  1.
</event>
<event>
 7    1  0.2937071E-011  0.5052885E+02  0.7816164E-02  0.1300439E+00
        -11   -1    0    0    0    0  0.00000000000E+00  0.00000000000E+00  0.45593999997E+02  0.45594000000E+02  0.51100000000E-03 0.  1.
         11   -1    0    0    0    0 -0.00000000000E+00 -0.00000000000E+00 -0.45593999997E+02  0.45594000000E+02  0.51100000000E-03 0. -1.
    9900012    2    1    2    0    0 -0.12106216971E+02  0.22908718594E+02 -0.31333637116E+02  0.50528847379E+02  0.29999962092E+02 0.  0.
        -12    1    1    2    0    0  0.12106216971E+02 -0.22908718594E+02  0.31333637116E+02  0.40659152621E+02  0.00000000000E+00 0.  1.
         11    1    3    3    0    0 -0.62045318789E+01 -0.14073278594E+01 -0.74071685400E+01  0.97643706187E+01  0.51100000000E-03 0.  1.
        -11    1    3    3    0    0 -0.91441887936E+01  0.10075017099E+02 -0.22226594406E+02  0.26060384828E+02  0.51100000000E-03 0. -1.
         12    1    3    3    0    0  0.32425037014E+01  0.14241029355E+02 -0.16998741695E+01  0.14704091932E+02  0.00000000000E+00 0. -1.
</event>
<event>
 7    1  0.2937071E-011  0.5052888E+02  0.7816164E-02  0.1300439E+00
        -11   -1    0    0    0    0  0.00000000000E+00  0.00000000000E+00  0.45593999997E+02  0.45594000000E+02  0.51100000000E-03 0.  1.
         11   -1    0    0    0    0 -0.00000000000E+00 -0.00000000000E+00 -0.45593999997E+02  0.45594000000E+02  0.51100000000E-03 0. -1.
    9900012    2    1    2    0    0 -0.18525363810E+02  0.25825617117E+02 -0.25357684090E+02  0.50528883603E+02  0.30000072198E+02 0.  0.
        -12    1    1    2    0    0  0.18525363810E+02 -0.25825617117E+02  0.25357684090E+02  0.40659116397E+02  0.00000000000E+00 0.  1.
         11    1    3    3    0    0 -0.13844646781E+02  0.30963337363E+02 -0.18301972145E+02  0.38540429289E+02  0.51100000000E-03 0.  1.
        -11    1    3    3    0    0 -0.55345847389E+01 -0.20770592472E+01 -0.64581851053E+01  0.87552246381E+01  0.51100000000E-03 0. -1.
        -12    1    3    3    0    0  0.85386770925E+00 -0.30606609982E+01 -0.59752684036E+00  0.32332296757E+01  0.00000000000E+00 0.  1.
</event>
<event>
 7    1  0.2937071E-011  0.5052886E+02  0.7816164E-02  0.1300439E+00
        -11   -1    0    0    0    0  0.00000000000E+00  0.00000000000E+00  0.45593999997E+02  0.45594000000E+02  0.51100000000E-03 0.  1.
         11   -1    0    0    0    0 -0.00000000000E+00 -0.00000000000E+00 -0.45593999997E+02  0.45594000000E+02  0.51100000000E-03 0. -1.
    9900012    2    1    2    0    0  0.25145831101E+02  0.20144413763E+02 -0.24800315732E+02  0.50528857264E+02  0.29999992139E+02 0.  0.
        -12    1    1    2    0    0 -0.25145831101E+02 -0.20144413763E+02  0.24800315732E+02  0.40659142736E+02  0.00000000000E+00 0.  1.
         11    1    3    3    0    0  0.32054121416E+01  0.10907380514E+02 -0.84066289741E+01  0.14139201803E+02  0.51100000000E-03 0.  1.
        -11    1    3    3    0    0  0.15219403525E+01  0.11178971057E+02 -0.95074962319E+01  0.14753920875E+02  0.51100000000E-03 0. -1.
         12    1    3    3    0    0  0.20418478607E+02 -0.19419378074E+01 -0.68861905260E+01  0.21635734585E+02  0.00000000000E+00 0. -1.
</event>
<event>
 7    1  0.2937071E-011  0.5052886E+02  0.7816164E-02  0.1300439E+00
        -11   -1    0    0    0    0  0.00000000000E+00  0.00000000000E+00  0.45593999997E+02  0.45594000000E+02  0.51100000000E-03 0.  1.
         11   -1    0    0    0    0 -0.00000000000E+00 -0.00000000000E+00 -0.45593999997E+02  0.45594000000E+02  0.51100000000E-03 0. -1.
    9900012    2    1    2    0    0  0.27089967856E+02  0.23685394628E+02 -0.18928853485E+02  0.50528858699E+02  0.29999996502E+02 0.  0.
        -12    1    1    2    0    0 -0.27089967856E+02 -0.23685394628E+02  0.18928853485E+02  0.40659141301E+02  0.00000000000E+00 0.  1.
         11    1    3    3    0    0  0.78983865430E+00  0.30500093133E+01  0.25518042451E+01  0.40543935524E+01  0.51100000000E-03 0.  1.
        -11    1    3    3    0    0  0.69900559226E+01 -0.35016359342E+01  0.14954793333E+01  0.79598237867E+01  0.51100000000E-03 0. -1.
        -12    1    3    3    0    0  0.19310073279E+02  0.24137021248E+02 -0.22976137063E+02  0.38514641360E+02  0.00000000000E+00 0.  1.
</event>
<event>
 7    1  0.2937071E-011  0.5052887E+02  0.7816164E-02  0.1300439E+00
        -11   -1    0    0    0    0  0.00000000000E+00  0.00000000000E+00  0.45593999997E+02  0.45594000000E+02  0.51100000000E-03 0. -1.
         11   -1    0    0    0    0 -0.00000000000E+00 -0.00000000000E+00 -0.45593999997E+02  0.45594000000E+02  0.51100000000E-03 0.  1.
    9900012    2    1    2    0    0 -0.39220857890E+02 -0.10653724517E+02  0.11779014004E+01  0.50528868290E+02  0.30000025655E+02 0.  0.
        -12    1    1    2    0    0  0.39220857890E+02  0.10653724517E+02 -0.11779014004E+01  0.40659131710E+02  0.00000000000E+00 0.  1.
         11    1    3    3    0    0 -0.60409504554E+01 -0.12005203229E+01  0.55689703447E+01  0.83034789343E+01  0.51100000000E-03 0. -1.
        -11    1    3    3    0    0 -0.16854408325E+02  0.69703071579E+01  0.15907894443E+01  0.18308109492E+02  0.51100000000E-03 0.  1.
        -12    1    3    3    0    0 -0.16325499109E+02 -0.16423511352E+02 -0.59818583886E+01  0.23917279863E+02  0.00000000000E+00 0.  1.
</event>
<event>
 7    1  0.2937071E-011  0.5052885E+02  0.7816164E-02  0.1300439E+00
        -11   -1    0    0    0    0  0.00000000000E+00  0.00000000000E+00  0.45593999997E+02  0.45594000000E+02  0.51100000000E-03 0. -1.
         11   -1    0    0    0    0 -0.00000000000E+00 -0.00000000000E+00 -0.45593999997E+02  0.45594000000E+02  0.51100000000E-03 0.  1.
    9900012    2    1    2    0    0 -0.32934029764E+02  0.73415703233E+01 -0.22685178239E+02  0.50528852407E+02  0.29999977375E+02 0.  0.
        -12    1    1    2    0    0  0.32934029764E+02 -0.73415703233E+01  0.22685178239E+02  0.40659147593E+02  0.00000000000E+00 0.  1.
         11    1    3    3    0    0 -0.83720861907E+01 -0.46238550114E+00 -0.27489498370E+01  0.88239646987E+01  0.51100000000E-03 0. -1.
        -11    1    3    3    0    0 -0.86155194632E+01  0.12018451363E+01 -0.22623093107E+02  0.24237903155E+02  0.51100000000E-03 0.  1.
         12    1    3    3    0    0 -0.15946424110E+02  0.66021106882E+01  0.26868647055E+01  0.17466984553E+02  0.00000000000E+00 0. -1.
</event>
<event>
 7    1  0.2937071E-011  0.5052884E+02  0.7816164E-02  0.1300439E+00
        -11   -1    0    0    0    0  0.00000000000E+00  0.00000000000E+00  0.45593999997E+02  0.45594000000E+02  0.51100000000E-03 0.  1.
         11   -1    0    0    0    0 -0.00000000000E+00 -0.00000000000E+00 -0.45593999997E+02  0.45594000000E+02  0.51100000000E-03 0. -1.
    9900012    2    1    2    0    0  0.33992209176E+02  0.98331948736E+01  0.20025121070E+02  0.50528837687E+02  0.29999932634E+02 0.  0.
        -12    1    1    2    0    0 -0.33992209176E+02 -0.98331948736E+01 -0.20025121070E+02  0.40659162313E+02  0.00000000000E+00 0.  1.
         11    1    3    3    0    0  0.20320592922E+02  0.13036701859E+02  0.55020521736E+01  0.24761960150E+02  0.51100000000E-03 0. -1.
        -11    1    3    3    0    0  0.11523698500E+02  0.38497644001E+01  0.13757091589E+02  0.18354124395E+02  0.51100000000E-03 0.  1.
         12    1    3    3    0    0  0.21479177536E+01 -0.70532713855E+01  0.76597730784E+00  0.74127531424E+01  0.00000000000E+00 0. -1.
</event>
<event>
 7    1  0.2937071E-011  0.5052886E+02  0.7816164E-02  0.1300439E+00
        -11   -1    0    0    0    0  0.00000000000E+00  0.00000000000E+00  0.45593999997E+02  0.45594000000E+02  0.51100000000E-03 0.  1.
         11   -1    0    0    0    0 -0.00000000000E+00 -0.00000000000E+00 -0.45593999997E+02  0.45594000000E+02  0.51100000000E-03 0. -1.
    9900012    2    1    2    0    0 -0.19287218139E+02  0.49790673955E+01 -0.35445416188E+02  0.50528862965E+02  0.30000009470E+02 0.  0.
        -12    1    1    2    0    0  0.19287218139E+02 -0.49790673955E+01  0.35445416188E+02  0.40659137035E+02  0.00000000000E+00 0.  1.
         11    1    3    3    0    0  0.82180505626E+00  0.58458282943E+01 -0.16422218648E+02  0.17451026834E+02  0.51100000000E-03 0. -1.
        -11    1    3    3    0    0 -0.13870539326E+01  0.62654148764E+01 -0.18183759600E+01  0.66697701293E+01  0.51100000000E-03 0.  1.
        -12    1    3    3    0    0 -0.18721969263E+02 -0.71321757751E+01 -0.17204821580E+02  0.26408066002E+02  0.00000000000E+00 0.  1.
</event>
<event>
 7    1  0.2937071E-011  0.5052888E+02  0.7816164E-02  0.1300439E+00
        -11   -1    0    0    0    0  0.00000000000E+00  0.00000000000E+00  0.45593999997E+02  0.45594000000E+02  0.51100000000E-03 0. -1.
         11   -1    0    0    0    0 -0.00000000000E+00 -0.00000000000E+00 -0.45593999997E+02  0.45594000000E+02  0.51100000000E-03 0.  1.
    9900012    2    1    2    0    0  0.13970159352E+02  0.93479234519E+01  0.37021815310E+02  0.50528882523E+02  0.30000068916E+02 0.  0.
        -12    1    1    2    0    0 -0.13970159352E+02 -0.93479234519E+01 -0.37021815310E+02  0.40659117477E+02  0.00000000000E+00 0.  1.
         11    1    3    3    0    0  0.77479188724E+01 -0.23606599902E+01  0.32853213143E+02  0.33836911451E+02  0.51100000000E-03 0. -1.
        -11    1    3    3    0    0  0.17871331972E+01 -0.14256805351E+01  0.83563804515E+00  0.24340709226E+01  0.51100000000E-03 0.  1.
        -12    1    3    3    0    0  0.44351072825E+01  0.13134263977E+02  0.33329641213E+01  0.14257900149E+02  0.00000000000E+00 0.  1.
</event>
<event>
 7    1  0.2937071E-011  0.5052886E+02  0.7816164E-02  0.1300439E+00
        -11   -1    0    0    0    0  0.00000000000E+00  0.00000000000E+00  0.45593999997E+02  0.45594000000E+02  0.51100000000E-03 0.  1.
         11   -1    0    0    0    0 -0.00000000000E+00 -0.00000000000E+00 -0.45593999997E+02  0.45594000000E+02  0.51100000000E-03 0. -1.
    9900012    2    1    2    0    0 -0.25212579899E+01  0.22261412591E+02 -0.33929904551E+02  0.50528860127E+02  0.30000000841E+02 0.  0.
        -12    1    1    2    0    0  0.25212579899E+01 -0.22261412591E+02  0.33929904551E+02  0.40659139873E+02  0.00000000000E+00 0.  1.
         11    1    3    3    0    0 -0.24292800824E+01  0.36778027000E+01 -0.69909435701E+01  0.82644374691E+01  0.51100000000E-03 0. -1.
        -11    1    3    3    0    0 -0.67940730570E+01  0.23354769840E+02 -0.20710168499E+02  0.31945512713E+02  0.51100000000E-03 0.  1.
         12    1    3    3    0    0  0.67020951495E+01 -0.47711599491E+01 -0.62287924824E+01  0.10318909944E+02  0.00000000000E+00 0. -1.
</event>
<event>
 7    1  0.2937071E-011  0.5052886E+02  0.7816164E-02  0.1300439E+00
        -11   -1    0    0    0    0  0.00000000000E+00  0.00000000000E+00  0.45593999997E+02  0.45594000000E+02  0.51100000000E-03 0. -1.
         11   -1    0    0    0    0 -0.00000000000E+00 -0.00000000000E+00 -0.45593999997E+02  0.45594000000E+02  0.51100000000E-03 0.  1.
    9900012    2    1    2    0    0 -0.29990975372E+02  0.14969809294E+02  0.23013300598E+02  0.50528858365E+02  0.29999995485E+02 0.  0.
        -12    1    1    2    0    0  0.29990975372E+02 -0.14969809294E+02 -0.23013300598E+02  0.40659141635E+02  0.00000000000E+00 0.  1.
         11    1    3    3    0    0 -0.11332802030E+02  0.60604367494E+01  0.51022958408E+00  0.12861634030E+02  0.51100000000E-03 0.  1.
        -11    1    3    3    0    0 -0.70035408123E+01  0.14443639299E+02  0.17714196892E+02  0.23905251973E+02  0.51100000000E-03 0. -1.
         12    1    3    3    0    0 -0.11654632530E+02 -0.55342667537E+01  0.47888741227E+01  0.13761972361E+02  0.00000000000E+00 0. -1.
</event>
<event>
 7    1  0.2937071E-011  0.5052887E+02  0.7816164E-02  0.1300439E+00
        -11   -1    0    0    0    0  0.00000000000E+00  0.00000000000E+00  0.45593999997E+02  0.45594000000E+02  0.51100000000E-03 0.  1.
         11   -1    0    0    0    0 -0.00000000000E+00 -0.00000000000E+00 -0.45593999997E+02  0.45594000000E+02  0.51100000000E-03 0. -1.
    9900012    2    1    2    0    0 -0.65373519614E+01  0.40080753436E+02  0.19902932112E+01  0.50528867769E+02  0.30000024072E+02 0.  0.
        -12    1    1    2    0    0  0.65373519614E+01 -0.40080753436E+02 -0.19902932112E+01  0.40659132231E+02  0.00000000000E+00 0.  1.
         11    1    3    3    0    0 -0.51830078012E+01  0.10020569935E+02 -0.65413365221E+00  0.11300587718E+02  0.51100000000E-03 0. -1.
        -11    1    3    3    0    0 -0.82446331318E+01  0.29750768107E+02 -0.19618954968E+01  0.30934304787E+02  0.51100000000E-03 0.  1.
        -12    1    3    3    0    0  0.68902889715E+01  0.30941539422E+00  0.46063223602E+01  0.82939752642E+01  0.00000000000E+00 0.  1.
</event>
<event>
 7    1  0.2937071E-011  0.5052886E+02  0.7816164E-02  0.1300439E+00
        -11   -1    0    0    0    0  0.00000000000E+00  0.00000000000E+00  0.45593999997E+02  0.45594000000E+02  0.51100000000E-03 0.  1.
         11   -1    0    0    0    0 -0.00000000000E+00 -0.00000000000E+00 -0.45593999997E+02  0.45594000000E+02  0.51100000000E-03 0. -1.
    9900012    2    1    2    0    0  0.11233631407E+02 -0.64915366501E+01 -0.38533502857E+02  0.50528863695E+02  0.30000011688E+02 0.  0.
        -12    1    1    2    0    0 -0.11233631407E+02  0.64915366501E+01  0.38533502857E+02  0.40659136305E+02  0.00000000000E+00 0.  1.
         11    1    3    3    0    0 -0.25613928246E+01 -0.43581586356E+01 -0.67634548373E+01  0.84438499213E+01  0.51100000000E-03 0. -1.
        -11    1    3    3    0    0  0.31321275574E+01 -0.70923792844E+01  0.46980778339E+00  0.77674182688E+01  0.51100000000E-03 0.  1.
         12    1    3    3    0    0  0.10662896674E+02  0.49590012699E+01 -0.32239855803E+02  0.34317595505E+02  0.00000000000E+00 0. -1.
</event>
<event>
 7    1  0.2937071E-011  0.5052886E+02  0.7816164E-02  0.1300439E+00
        -11   -1    0    0    0    0  0.00000000000E+00  0.00000000000E+00  0.45593999997E+02  0.45594000000E+02  0.51100000000E-03 0.  1.
         11   -1    0    0    0    0 -0.00000000000E+00 -0.00000000000E+00 -0.45593999997E+02  0.45594000000E+02  0.51100000000E-03 0. -1.
    9900012    2    1    2    0    0  0.26874570922E+02  0.60766904664E+01 -0.29899783800E+02  0.50528858340E+02  0.29999995410E+02 0.  0.
        -12    1    1    2    0    0 -0.26874570922E+02 -0.60766904664E+01  0.29899783800E+02  0.40659141660E+02  0.00000000000E+00 0.  1.
         11    1    3    3    0    0  0.82684028702E+01  0.11592225026E+02 -0.21434080939E+02  0.25732586210E+02  0.51100000000E-03 0. -1.
        -11    1    3    3    0    0  0.48943692063E+01  0.38843221055E+01 -0.25209362393E+00  0.62535077839E+01  0.51100000000E-03 0.  1.
        -12    1    3    3    0    0  0.13711798846E+02 -0.93998566649E+01 -0.82136092365E+01  0.18542764346E+02  0.00000000000E+00 0.  1.
</event>
<event>
 7    1  0.2937071E-011  0.5052886E+02  0.7816164E-02  0.1300439E+00
        -11   -1    0    0    0    0  0.00000000000E+00  0.00000000000E+00  0.45593999997E+02  0.45594000000E+02  0.51100000000E-03 0.  1.
         11   -1    0    0    0    0 -0.00000000000E+00 -0.00000000000E+00 -0.45593999997E+02  0.45594000000E+02  0.51100000000E-03 0. -1.
    9900012    2    1    2    0    0 -0.36143784779E+02 -0.11604060244E+02 -0.14564966316E+02  0.50528860363E+02  0.30000001559E+02 0.  0.
        -12    1    1    2    0    0  0.36143784779E+02  0.11604060244E+02  0.14564966316E+02  0.40659139637E+02  0.00000000000E+00 0.  1.
         11    1    3    3    0    0 -0.14872305797E+02 -0.28952459290E+01 -0.65302414419E+01  0.16498847907E+02  0.51100000000E-03 0. -1.
        -11    1    3    3    0    0 -0.16075737070E+02 -0.13677657919E+02 -0.13451097913E+02  0.25028777114E+02  0.51100000000E-03 0.  1.
        -12    1    3    3    0    0 -0.51957419120E+01  0.49688436040E+01  0.54163730395E+01  0.90012353419E+01  0.00000000000E+00 0.  1.
</event>
<event>
 7    1  0.2937071E-011  0.5052886E+02  0.7816164E-02  0.1300439E+00
        -11   -1    0    0    0    0  0.00000000000E+00  0.00000000000E+00  0.45593999997E+02  0.45594000000E+02  0.51100000000E-03 0. -1.
         11   -1    0    0    0    0 -0.00000000000E+00 -0.00000000000E+00 -0.45593999997E+02  0.45594000000E+02  0.51100000000E-03 0.  1.
    9900012    2    1    2    0    0  0.12923090469E+02 -0.22168188878E+02  0.31539353213E+02  0.50528859988E+02  0.30000000421E+02 0.  0.
        -12    1    1    2    0    0 -0.12923090469E+02  0.22168188878E+02 -0.31539353213E+02  0.40659140012E+02  0.00000000000E+00 0.  1.
         11    1    3    3    0    0  0.43851702631E+01 -0.33431129184E+01  0.19791415944E+02  0.20545224933E+02  0.51100000000E-03 0. -1.
        -11    1    3    3    0    0 -0.52313348989E+01 -0.35245307927E+01  0.57710069103E+01  0.85494855490E+01  0.51100000000E-03 0.  1.
        -12    1    3    3    0    0  0.13769255105E+02 -0.15300545167E+02  0.59769303585E+01  0.21434149506E+02  0.00000000000E+00 0.  1.
</event>
<event>
 7    1  0.2937071E-011  0.5052887E+02  0.7816164E-02  0.1300439E+00
        -11   -1    0    0    0    0  0.00000000000E+00  0.00000000000E+00  0.45593999997E+02  0.45594000000E+02  0.51100000000E-03 0.  1.
         11   -1    0    0    0    0 -0.00000000000E+00 -0.00000000000E+00 -0.45593999997E+02  0.45594000000E+02  0.51100000000E-03 0. -1.
    9900012    2    1    2    0    0 -0.33898456652E+02 -0.16891903508E+02 -0.14789297154E+02  0.50528867228E+02  0.30000022425E+02 0.  0.
        -12    1    1    2    0    0  0.33898456652E+02  0.16891903508E+02  0.14789297154E+02  0.40659132772E+02  0.00000000000E+00 0.  1.
         11    1    3    3    0    0  0.25789273617E+01  0.49166032629E+00 -0.33755522639E+01  0.42763243050E+01  0.51100000000E-03 0. -1.
        -11    1    3    3    0    0 -0.13344332912E+01 -0.79600149020E+01 -0.44196002482E+01  0.92019245848E+01  0.51100000000E-03 0.  1.
         12    1    3    3    0    0 -0.35142950722E+02 -0.94235489326E+01 -0.69941446417E+01  0.37050618338E+02  0.00000000000E+00 0. -1.
</event>
<event>
 7    1  0.2937071E-011  0.5052885E+02  0.7816164E-02  0.1300439E+00
        -11   -1    0    0    0    0  0.00000000000E+00  0.00000000000E+00  0.45593999997E+02  0.45594000000E+02  0.51100000000E-03 0.  1.
         11   -1    0    0    0    0 -0.00000000000E+00 -0.00000000000E+00 -0.45593999997E+02  0.45594000000E+02  0.51100000000E-03 0. -1.
    9900012    2    1    2    0    0 -0.11509043134E+02  0.13786178711E+02 -0.36478065772E+02  0.50528854906E+02  0.29999984971E+02 0.  0.
        -12    1    1    2    0    0  0.11509043134E+02 -0.13786178711E+02  0.36478065772E+02  0.40659145094E+02  0.00000000000E+00 0.  1.
         11    1    3    3    0    0  0.56958553750E+01  0.11363656060E+02 -0.66147350087E+01  0.14329346356E+02  0.51100000000E-03 0.  1.
        -11    1    3    3    0    0 -0.29672893786E+01 -0.28503251739E+01 -0.12370389732E+02  0.13036705958E+02  0.51100000000E-03 0. -1.
        -12    1    3    3    0    0 -0.14237609131E+02  0.52728478249E+01 -0.17492941031E+02  0.23162802591E+02  0.00000000000E+00 0.  1.
</event>
<event>
 7    1  0.2937071E-011  0.5052890E+02  0.7816164E-02  0.1300439E+00
        -11   -1    0    0    0    0  0.00000000000E+00  0.00000000000E+00  0.45593999997E+02  0.45594000000E+02  0.51100000000E-03 0.  1.
         11   -1    0    0    0    0 -0.00000000000E+00 -0.00000000000E+00 -0.45593999997E+02  0.45594000000E+02  0.51100000000E-03 0. -1.
    9900012    2    1    2    0    0 -0.33382607081E+02 -0.21513926706E+02  0.87129068062E+01  0.50528902090E+02  0.30000128392E+02 0.  0.
        -12    1    1    2    0    0  0.33382607081E+02  0.21513926706E+02 -0.87129068062E+01  0.40659097910E+02  0.00000000000E+00 0.  1.
         11    1    3    3    0    0 -0.12514107614E+02 -0.33342169570E+01 -0.68922701780E+01  0.14670490127E+02  0.51100000000E-03 0. -1.
        -11    1    3    3    0    0  0.76578061834E+00  0.76636361462E-01 -0.22580305571E+01  0.23855807145E+01  0.51100000000E-03 0.  1.
         12    1    3    3    0    0 -0.21634280086E+02 -0.18256346110E+02  0.17863207541E+02  0.33472831249E+02  0.00000000000E+00 0. -1.
</event>
<event>
 7    1  0.2937071E-011  0.5052887E+02  0.7816164E-02  0.1300439E+00
        -11   -1    0    0    0    0  0.00000000000E+00  0.00000000000E+00  0.45593999997E+02  0.45594000000E+02  0.51100000000E-03 0.  1.
         11   -1    0    0    0    0 -0.00000000000E+00 -0.00000000000E+00 -0.45593999997E+02  0.45594000000E+02  0.51100000000E-03 0. -1.
    9900012    2    1    2    0    0  0.22396148793E+02 -0.28989117835E+02 -0.17641106025E+02  0.50528867504E+02  0.30000023264E+02 0.  0.
        -12    1    1    2    0    0 -0.22396148793E+02  0.28989117835E+02  0.17641106025E+02  0.40659132496E+02  0.00000000000E+00 0.  1.
         11    1    3    3    0    0 -0.15765468583E+01  0.14349800811E+01 -0.18962702361E+01  0.28531577066E+01  0.51100000000E-03 0. -1.
        -11    1    3    3    0    0 -0.33243689310E+01 -0.10695917407E+02 -0.54597804110E+01  0.12460468706E+02  0.51100000000E-03 0.  1.
        -12    1    3    3    0    0  0.27297064582E+02 -0.19728180509E+02 -0.10285055378E+02  0.35215241091E+02  0.00000000000E+00 0.  1.
</event>
