<event>
 7    1  0.3681059E-013  0.7246155E+02  0.7816164E-02  0.1226708E+00
        -11   -1    0    0    0    0  0.00000000000E+00  0.00000000000E+00  0.45593999997E+02  0.45594000000E+02  0.51100000000E-03 0.  1.
         11   -1    0    0    0    0 -0.00000000000E+00 -0.00000000000E+00 -0.45593999997E+02  0.45594000000E+02  0.51100000000E-03 0. -1.
    9900012    2    1    2    0    0 -0.76126860960E+01  0.12613877560E+02  0.11559286882E+02  0.72461547855E+02  0.69999970769E+02 0.  0.
        -12    1    1    2    0    0  0.76126860960E+01 -0.12613877560E+02 -0.11559286882E+02  0.18726452145E+02  0.00000000000E+00 0.  1.
         11    1    3    3    0    0 -0.78653020588E+01  0.18437448537E+02 -0.12993377511E+01  0.20087079526E+02  0.51100000000E-03 0. -1.
        -11    1    3    3    0    0  0.21522045219E+00 -0.86512404196E+01 -0.18744149322E+02  0.20645421156E+02  0.51100000000E-03 0.  1.
        -12    1    3    3    0    0  0.37395510568E-01  0.28276694425E+01  0.31602773955E+02  0.31729047174E+02  0.00000000000E+00 0.  1.
</event>
<event>
 7    1  0.3681059E-013  0.7246156E+02  0.7816164E-02  0.1226708E+00
        -11   -1    0    0    0    0  0.00000000000E+00  0.00000000000E+00  0.45593999997E+02  0.45594000000E+02  0.51100000000E-03 0.  1.
         11   -1    0    0    0    0 -0.00000000000E+00 -0.00000000000E+00 -0.45593999997E+02  0.45594000000E+02  0.51100000000E-03 0. -1.
    9900012    2    1    2    0    0 -0.17269022244E+02 -0.51102119629E+01  0.51328614523E+01  0.72461557139E+02  0.69999982862E+02 0.  0.
        -12    1    1    2    0    0  0.17269022244E+02  0.51102119629E+01 -0.51328614523E+01  0.18726442861E+02  0.00000000000E+00 0.  1.
         11    1    3    3    0    0 -0.36511292327E+02  0.14598329415E+00  0.10375221516E+02  0.37957094202E+02  0.51100000000E-03 0. -1.
        -11    1    3    3    0    0 -0.90050373443E+00 -0.12472793350E+02 -0.13118475719E+00  0.12505946211E+02  0.51100000000E-03 0.  1.
        -12    1    3    3    0    0  0.20142773817E+02  0.72165980933E+01 -0.51111753068E+01  0.21998516725E+02  0.00000000000E+00 0.  1.
</event>
<event>
 7    1  0.3681059E-013  0.7246152E+02  0.7816164E-02  0.1226708E+00
        -11   -1    0    0    0    0  0.00000000000E+00  0.00000000000E+00  0.45593999997E+02  0.45594000000E+02  0.51100000000E-03 0. -1.
         11   -1    0    0    0    0 -0.00000000000E+00 -0.00000000000E+00 -0.45593999997E+02  0.45594000000E+02  0.51100000000E-03 0.  1.
    9900012    2    1    2    0    0 -0.12349652624E+02 -0.51545355749E+01  0.13099535652E+02  0.72461521654E+02  0.69999936637E+02 0.  0.
        -12    1    1    2    0    0  0.12349652624E+02  0.51545355749E+01 -0.13099535652E+02  0.18726478346E+02  0.00000000000E+00 0.  1.
         11    1    3    3    0    0  0.14815066081E+02 -0.10224582410E+02 -0.83133134591E+01  0.19827744434E+02  0.51100000000E-03 0. -1.
        -11    1    3    3    0    0  0.59385898292E+01 -0.41148218548E-01  0.18012264789E+02  0.18966028193E+02  0.51100000000E-03 0.  1.
        -12    1    3    3    0    0 -0.33103308534E+02  0.51111950535E+01  0.34005843223E+01  0.33667749027E+02  0.00000000000E+00 0.  1.
</event>
<event>
 7    1  0.3681059E-013  0.7246156E+02  0.7816164E-02  0.1226708E+00
        -11   -1    0    0    0    0  0.00000000000E+00  0.00000000000E+00  0.45593999997E+02  0.45594000000E+02  0.51100000000E-03 0. -1.
         11   -1    0    0    0    0 -0.00000000000E+00 -0.00000000000E+00 -0.45593999997E+02  0.45594000000E+02  0.51100000000E-03 0.  1.
    9900012    2    1    2    0    0 -0.13335833559E+02  0.79070557093E+01 -0.10503035459E+02  0.72461555048E+02  0.69999980138E+02 0.  0.
        -12    1    1    2    0    0  0.13335833559E+02 -0.79070557093E+01  0.10503035459E+02  0.18726444952E+02  0.00000000000E+00 0.  1.
         11    1    3    3    0    0 -0.23430601417E+00 -0.11462833025E+02  0.10050745176E+02  0.15246931466E+02  0.51100000000E-03 0. -1.
        -11    1    3    3    0    0 -0.17385049574E+02 -0.74485351575E+01  0.53789913777E+01  0.19663523926E+02  0.51100000000E-03 0.  1.
         12    1    3    3    0    0  0.42835220292E+01  0.26818423892E+02 -0.25932772014E+02  0.37551099656E+02  0.00000000000E+00 0. -1.
</event>
<event>
 7    1  0.3681059E-013  0.7246149E+02  0.7816164E-02  0.1226708E+00
        -11   -1    0    0    0    0  0.00000000000E+00  0.00000000000E+00  0.45593999997E+02  0.45594000000E+02  0.51100000000E-03 0. -1.
         11   -1    0    0    0    0 -0.00000000000E+00 -0.00000000000E+00 -0.45593999997E+02  0.45594000000E+02  0.51100000000E-03 0.  1.
    9900012    2    1    2    0    0  0.67604760086E+01  0.14985502973E+02  0.89673210069E+01  0.72461489881E+02  0.69999895246E+02 0.  0.
        -12    1    1    2    0    0 -0.67604760086E+01 -0.14985502973E+02 -0.89673210069E+01  0.18726510119E+02  0.00000000000E+00 0.  1.
         11    1    3    3    0    0  0.23167683203E+02 -0.12841232588E+02  0.17410714056E+02  0.31698135017E+02  0.51100000000E-03 0. -1.
        -11    1    3    3    0    0 -0.68330154577E+01 -0.22048419634E+01  0.21749401149E+01  0.75021192402E+01  0.51100000000E-03 0.  1.
        -12    1    3    3    0    0 -0.95741917370E+01  0.30031577524E+02 -0.10618333164E+02  0.33261235623E+02  0.00000000000E+00 0.  1.
</event>
<event>
 7    1  0.3681059E-013  0.7246156E+02  0.7816164E-02  0.1226708E+00
        -11   -1    0    0    0    0  0.00000000000E+00  0.00000000000E+00  0.45593999997E+02  0.45594000000E+02  0.51100000000E-03 0. -1.
         11   -1    0    0    0    0 -0.00000000000E+00 -0.00000000000E+00 -0.45593999997E+02  0.45594000000E+02  0.51100000000E-03 0.  1.
    9900012    2    1    2    0    0  0.16611199251E+02  0.84730020625E+01  0.17192245998E+01  0.72461563133E+02  0.69999990672E+02 0.  0.
        -12    1    1    2    0    0 -0.16611199251E+02 -0.84730020625E+01 -0.17192245998E+01  0.18726436867E+02  0.00000000000E+00 0.  1.
         11    1    3    3    0    0  0.29180864138E+02  0.12512719160E+02 -0.82853406092E+01  0.32813683760E+02  0.51100000000E-03 0. -1.
        -11    1    3    3    0    0 -0.30592082951E+01  0.15124073974E+02  0.97496325772E+01  0.18252443798E+02  0.51100000000E-03 0.  1.
        -12    1    3    3    0    0 -0.95104565924E+01 -0.19163791071E+02  0.25493263181E+00  0.21395435575E+02  0.00000000000E+00 0.  1.
</event>
<event>
 7    1  0.3681059E-013  0.7246157E+02  0.7816164E-02  0.1226708E+00
        -11   -1    0    0    0    0  0.00000000000E+00  0.00000000000E+00  0.45593999997E+02  0.45594000000E+02  0.51100000000E-03 0.  1.
         11   -1    0    0    0    0 -0.00000000000E+00 -0.00000000000E+00 -0.45593999997E+02  0.45594000000E+02  0.51100000000E-03 0. -1.
    9900012    2    1    2    0    0 -0.14426910782E+02 -0.11492678274E+02  0.32344801746E+01  0.72461567595E+02  0.69999996484E+02 0.  0.
        -12    1    1    2    0    0  0.14426910782E+02  0.11492678274E+02 -0.32344801746E+01  0.18726432405E+02  0.00000000000E+00 0.  1.
         11    1    3    3    0    0 -0.15353239348E+01  0.12505663846E+01  0.18883920878E+01  0.27362676780E+01  0.51100000000E-03 0. -1.
        -11    1    3    3    0    0 -0.35884547043E+02  0.18849801447E+01 -0.13864509387E+02  0.38515951078E+02  0.51100000000E-03 0.  1.
         12    1    3    3    0    0  0.22992960196E+02 -0.14628224803E+02  0.15210597474E+02  0.31209348839E+02  0.00000000000E+00 0. -1.
</event>
<event>
 7    1  0.3681059E-013  0.7246159E+02  0.7816164E-02  0.1226708E+00
        -11   -1    0    0    0    0  0.00000000000E+00  0.00000000000E+00  0.45593999997E+02  0.45594000000E+02  0.51100000000E-03 0.  1.
         11   -1    0    0    0    0 -0.00000000000E+00 -0.00000000000E+00 -0.45593999997E+02  0.45594000000E+02  0.51100000000E-03 0. -1.
    9900012    2    1    2    0    0  0.88029508778E+01 -0.10101391874E+02 -0.13082364210E+02  0.72461593103E+02  0.70000029713E+02 0.  0.
        -12    1    1    2    0    0 -0.88029508778E+01  0.10101391874E+02  0.13082364210E+02  0.18726406897E+02  0.00000000000E+00 0.  1.
         11    1    3    3    0    0 -0.58320146695E+01 -0.14290579996E+02 -0.19413654533E+02  0.24801674426E+02  0.51100000000E-03 0. -1.
        -11    1    3    3    0    0  0.32490236150E+01 -0.18768690065E+02 -0.49192646380E+01  0.19672799649E+02  0.51100000000E-03 0.  1.
        -12    1    3    3    0    0  0.11385941932E+02  0.22957878187E+02  0.11250554961E+02  0.27987119028E+02  0.00000000000E+00 0.  1.
</event>
<event>
 7    1  0.3681059E-013  0.7246181E+02  0.7816164E-02  0.1226707E+00
        -11   -1    0    0    0    0  0.00000000000E+00  0.00000000000E+00  0.45593999997E+02  0.45594000000E+02  0.51100000000E-03 0.  1.
         11   -1    0    0    0    0 -0.00000000000E+00 -0.00000000000E+00 -0.45593999997E+02  0.45594000000E+02  0.51100000000E-03 0. -1.
    9900012    2    1    2    0    0 -0.17390891047E+02 -0.47622675662E+01 -0.50544971722E+01  0.72461809105E+02  0.70000311094E+02 0.  0.
        -12    1    1    2    0    0  0.17390891047E+02  0.47622675662E+01  0.50544971722E+01  0.18726190895E+02  0.00000000000E+00 0.  1.
         11    1    3    3    0    0  0.96124092983E+01 -0.24549491241E+02 -0.50826889712E+01  0.26849760896E+02  0.51100000000E-03 0. -1.
        -11    1    3    3    0    0  0.32582901262E+00 -0.48138107855E+01 -0.66740670785E+01  0.82354180497E+01  0.51100000000E-03 0.  1.
        -12    1    3    3    0    0 -0.27329129358E+02  0.24601034461E+02  0.67022588775E+01  0.37376630159E+02  0.00000000000E+00 0.  1.
</event>
<event>
 7    1  0.3681059E-013  0.7246153E+02  0.7816164E-02  0.1226708E+00
        -11   -1    0    0    0    0  0.00000000000E+00  0.00000000000E+00  0.45593999997E+02  0.45594000000E+02  0.51100000000E-03 0. -1.
         11   -1    0    0    0    0 -0.00000000000E+00 -0.00000000000E+00 -0.45593999997E+02  0.45594000000E+02  0.51100000000E-03 0.  1.
    9900012    2    1    2    0    0  0.10226243222E+02 -0.15467940927E+02  0.26167356469E+01  0.72461533371E+02  0.69999951901E+02 0.  0.
        -12    1    1    2    0    0 -0.10226243222E+02  0.15467940927E+02 -0.26167356469E+01  0.18726466629E+02  0.00000000000E+00 0.  1.
         11    1    3    3    0    0 -0.89725650067E+01 -0.15786606291E+02  0.21630898705E+02  0.28242160682E+02  0.51100000000E-03 0. -1.
        -11    1    3    3    0    0  0.67218848082E+01 -0.17170107416E+02 -0.88744058128E+01  0.20463416207E+02  0.51100000000E-03 0.  1.
        -12    1    3    3    0    0  0.12476923420E+02  0.17488772780E+02 -0.10139757245E+02  0.23755956482E+02  0.00000000000E+00 0.  1.
</event>
<event>
 7    1  0.3681059E-013  0.7246159E+02  0.7816164E-02  0.1226708E+00
        -11   -1    0    0    0    0  0.00000000000E+00  0.00000000000E+00  0.45593999997E+02  0.45594000000E+02  0.51100000000E-03 0.  1.
         11   -1    0    0    0    0 -0.00000000000E+00 -0.00000000000E+00 -0.45593999997E+02  0.45594000000E+02  0.51100000000E-03 0. -1.
    9900012    2    1    2    0    0  0.26911730754E+01 -0.70156449085E+01 -0.17152744776E+02  0.72461592460E+02  0.70000028875E+02 0.  0.
        -12    1    1    2    0    0 -0.26911730754E+01  0.70156449085E+01  0.17152744776E+02  0.18726407540E+02  0.00000000000E+00 0.  1.
         11    1    3    3    0    0  0.13132533647E+01 -0.58795934898E+01  0.86654747898E+01  0.10553895376E+02  0.51100000000E-03 0. -1.
        -11    1    3    3    0    0  0.25298640637E+02 -0.12743241967E+02 -0.65566993273E+01  0.29075793029E+02  0.51100000000E-03 0.  1.
         12    1    3    3    0    0 -0.23920720926E+02  0.11607190548E+02 -0.19261520238E+02  0.32831904056E+02  0.00000000000E+00 0. -1.
</event>
<event>
 7    1  0.3681059E-013  0.7246151E+02  0.7816164E-02  0.1226708E+00
        -11   -1    0    0    0    0  0.00000000000E+00  0.00000000000E+00  0.45593999997E+02  0.45594000000E+02  0.51100000000E-03 0.  1.
         11   -1    0    0    0    0 -0.00000000000E+00 -0.00000000000E+00 -0.45593999997E+02  0.45594000000E+02  0.51100000000E-03 0. -1.
    9900012    2    1    2    0    0  0.25136018659E+00 -0.17263359275E+02  0.72522076583E+01  0.72461514176E+02  0.69999926895E+02 0.  0.
        -12    1    1    2    0    0 -0.25136018659E+00  0.17263359275E+02 -0.72522076583E+01  0.18726485824E+02  0.00000000000E+00 0.  1.
         11    1    3    3    0    0  0.39921726922E+01  0.85416392513E+01  0.53134044733E+01  0.10822629591E+02  0.51100000000E-03 0. -1.
        -11    1    3    3    0    0  0.10191833527E+02 -0.33024415920E+02  0.18183502143E+02  0.39052852238E+02  0.51100000000E-03 0.  1.
         12    1    3    3    0    0 -0.13932646032E+02  0.72194173934E+01 -0.16244698958E+02  0.22586032347E+02  0.00000000000E+00 0. -1.
</event>
<event>
 7    1  0.3681059E-013  0.7246157E+02  0.7816164E-02  0.1226708E+00
        -11   -1    0    0    0    0  0.00000000000E+00  0.00000000000E+00  0.45593999997E+02  0.45594000000E+02  0.51100000000E-03 0.  1.
         11   -1    0    0    0    0 -0.00000000000E+00 -0.00000000000E+00 -0.45593999997E+02  0.45594000000E+02  0.51100000000E-03 0. -1.
    9900012    2    1    2    0    0  0.14774121923E+02  0.10595628388E+02 -0.44874338673E+01  0.72461572625E+02  0.70000003036E+02 0.  0.
        -12    1    1    2    0    0 -0.14774121923E+02 -0.10595628388E+02  0.44874338673E+01  0.18726427375E+02  0.00000000000E+00 0.  1.
         11    1    3    3    0    0 -0.88427556044E+01  0.16620430825E+02 -0.21438218801E+02  0.28531215766E+02  0.51100000000E-03 0. -1.
        -11    1    3    3    0    0  0.11861619428E+02  0.92808682063E+01 -0.38606225371E+01  0.15547891714E+02  0.51100000000E-03 0.  1.
        -12    1    3    3    0    0  0.11755258099E+02 -0.15305670643E+02  0.20811407470E+02  0.28382465145E+02  0.00000000000E+00 0.  1.
</event>
<event>
 7    1  0.3681059E-013  0.7246129E+02  0.7816164E-02  0.1226709E+00
        -11   -1    0    0    0    0  0.00000000000E+00  0.00000000000E+00  0.45593999997E+02  0.45594000000E+02  0.51100000000E-03 0.  1.
         11   -1    0    0    0    0 -0.00000000000E+00 -0.00000000000E+00 -0.45593999997E+02  0.45594000000E+02  0.51100000000E-03 0. -1.
    9900012    2    1    2    0    0  0.85770798759E+01 -0.78869141453E+01 -0.14660144225E+02  0.72461293332E+02  0.69999639204E+02 0.  0.
        -12    1    1    2    0    0 -0.85770798759E+01  0.78869141453E+01  0.14660144225E+02  0.18726706668E+02  0.00000000000E+00 0.  1.
         11    1    3    3    0    0  0.17572582629E+02  0.33765841721E+01  0.34900548601E+01  0.18231222233E+02  0.51100000000E-03 0.  1.
        -11    1    3    3    0    0  0.19825550392E+02 -0.80116172148E+01 -0.32697859450E+01  0.21631688772E+02  0.51100000000E-03 0. -1.
        -12    1    3    3    0    0 -0.28821053145E+02 -0.32518811026E+01 -0.14880413140E+02  0.32598382327E+02  0.00000000000E+00 0.  1.
</event>
<event>
 7    1  0.3681059E-013  0.7246162E+02  0.7816164E-02  0.1226708E+00
        -11   -1    0    0    0    0  0.00000000000E+00  0.00000000000E+00  0.45593999997E+02  0.45594000000E+02  0.51100000000E-03 0. -1.
         11   -1    0    0    0    0 -0.00000000000E+00 -0.00000000000E+00 -0.45593999997E+02  0.45594000000E+02  0.51100000000E-03 0.  1.
    9900012    2    1    2    0    0  0.56551852089E+01 -0.17726376625E+02  0.21146482828E+01  0.72461620602E+02  0.70000065535E+02 0.  0.
        -12    1    1    2    0    0 -0.56551852089E+01  0.17726376625E+02 -0.21146482828E+01  0.18726379398E+02  0.00000000000E+00 0.  1.
         11    1    3    3    0    0 -0.12680679332E+02  0.10932689928E+02 -0.26417230961E+01  0.16949986388E+02  0.51100000000E-03 0. -1.
        -11    1    3    3    0    0 -0.62620902773E+01  0.70865911306E+01  0.74467588505E+01  0.12036933419E+02  0.51100000000E-03 0.  1.
         12    1    3    3    0    0  0.24597954819E+02 -0.35745657683E+02 -0.26903874716E+01  0.43474700795E+02  0.00000000000E+00 0. -1.
</event>
<event>
 7    1  0.3681059E-013  0.7246158E+02  0.7816164E-02  0.1226708E+00
        -11   -1    0    0    0    0  0.00000000000E+00  0.00000000000E+00  0.45593999997E+02  0.45594000000E+02  0.51100000000E-03 0.  1.
         11   -1    0    0    0    0 -0.00000000000E+00 -0.00000000000E+00 -0.45593999997E+02  0.45594000000E+02  0.51100000000E-03 0. -1.
    9900012    2    1    2    0    0  0.10220861902E+02  0.14269521207E+02 -0.65263798479E+01  0.72461577826E+02  0.70000009812E+02 0.  0.
        -12    1    1    2    0    0 -0.10220861902E+02 -0.14269521207E+02  0.65263798479E+01  0.18726422174E+02  0.00000000000E+00 0.  1.
         11    1    3    3    0    0  0.12886686442E+02 -0.17204670258E+02 -0.42409464702E+01  0.21910111670E+02  0.51100000000E-03 0. -1.
        -11    1    3    3    0    0 -0.18107324684E+02  0.53224285277E+01 -0.63443146325E+01  0.19911147156E+02  0.51100000000E-03 0.  1.
        -12    1    3    3    0    0  0.15441500144E+02  0.26151762937E+02  0.40588812548E+01  0.30640319001E+02  0.00000000000E+00 0.  1.
</event>
<event>
 7    1  0.3681059E-013  0.7246156E+02  0.7816164E-02  0.1226708E+00
        -11   -1    0    0    0    0  0.00000000000E+00  0.00000000000E+00  0.45593999997E+02  0.45594000000E+02  0.51100000000E-03 0. -1.
         11   -1    0    0    0    0 -0.00000000000E+00 -0.00000000000E+00 -0.45593999997E+02  0.45594000000E+02  0.51100000000E-03 0.  1.
    9900012    2    1    2    0    0 -0.74279616403E+01  0.15135740331E+02  0.81495071526E+01  0.72461555694E+02  0.69999980981E+02 0.  0.
        -12    1    1    2    0    0  0.74279616403E+01 -0.15135740331E+02 -0.81495071526E+01  0.18726444306E+02  0.00000000000E+00 0.  1.
         11    1    3    3    0    0  0.26760369658E+02  0.11710316902E+02  0.16549782437E+02  0.33572968369E+02  0.51100000000E-03 0.  1.
        -11    1    3    3    0    0 -0.15242606466E+02  0.85954992999E+01  0.75082301765E-01  0.17499294206E+02  0.51100000000E-03 0. -1.
        -12    1    3    3    0    0 -0.18945724832E+02 -0.51700758701E+01 -0.84753575858E+01  0.21389293119E+02  0.00000000000E+00 0.  1.
</event>
<event>
 7    1  0.3681059E-013  0.7246154E+02  0.7816164E-02  0.1226708E+00
        -11   -1    0    0    0    0  0.00000000000E+00  0.00000000000E+00  0.45593999997E+02  0.45594000000E+02  0.51100000000E-03 0. -1.
         11   -1    0    0    0    0 -0.00000000000E+00 -0.00000000000E+00 -0.45593999997E+02  0.45594000000E+02  0.51100000000E-03 0.  1.
    9900012    2    1    2    0    0  0.15526669837E+02 -0.33112922773E+01  0.99316726997E+01  0.72461541301E+02  0.69999962231E+02 0.  0.
        -12    1    1    2    0    0 -0.15526669837E+02  0.33112922773E+01 -0.99316726997E+01  0.18726458699E+02  0.00000000000E+00 0.  1.
         11    1    3    3    0    0 -0.20088213852E+01 -0.74463865542E+01 -0.87973504615E+00  0.77626007294E+01  0.51100000000E-03 0. -1.
        -11    1    3    3    0    0 -0.20799429167E+02 -0.42093447207E+01  0.13862877014E+02  0.25347863736E+02  0.51100000000E-03 0.  1.
         12    1    3    3    0    0  0.38334920389E+02  0.83444389975E+01 -0.30514692677E+01  0.39351076836E+02  0.00000000000E+00 0. -1.
</event>
<event>
 7    1  0.3681059E-013  0.7246154E+02  0.7816164E-02  0.1226708E+00
        -11   -1    0    0    0    0  0.00000000000E+00  0.00000000000E+00  0.45593999997E+02  0.45594000000E+02  0.51100000000E-03 0.  1.
         11   -1    0    0    0    0 -0.00000000000E+00 -0.00000000000E+00 -0.45593999997E+02  0.45594000000E+02  0.51100000000E-03 0. -1.
    9900012    2    1    2    0    0 -0.50396485103E+01 -0.88722526556E+01 -0.15702401370E+02  0.72461539227E+02  0.69999959529E+02 0.  0.
        -12    1    1    2    0    0  0.50396485103E+01  0.88722526556E+01  0.15702401370E+02  0.18726460773E+02  0.00000000000E+00 0.  1.
         11    1    3    3    0    0  0.21037298184E+02  0.11714087042E+02 -0.15340824702E+02  0.28550458016E+02  0.51100000000E-03 0. -1.
        -11    1    3    3    0    0 -0.16497398551E+01  0.66122415284E+01 -0.25784727611E+01  0.72864189874E+01  0.51100000000E-03 0.  1.
        -12    1    3    3    0    0 -0.24427206839E+02 -0.27198581226E+02  0.22168960930E+01  0.36624662223E+02  0.00000000000E+00 0.  1.
</event>
<event>
 7    1  0.3681059E-013  0.7246129E+02  0.7816164E-02  0.1226709E+00
        -11   -1    0    0    0    0  0.00000000000E+00  0.00000000000E+00  0.45593999997E+02  0.45594000000E+02  0.51100000000E-03 0.  1.
         11   -1    0    0    0    0 -0.00000000000E+00 -0.00000000000E+00 -0.45593999997E+02  0.45594000000E+02  0.51100000000E-03 0. -1.
    9900012    2    1    2    0    0  0.15500683467E+02  0.10486504908E+02  0.67194691454E+00  0.72461294850E+02  0.69999641181E+02 0.  0.
        -12    1    1    2    0    0 -0.15500683467E+02 -0.10486504908E+02 -0.67194691454E+00  0.18726705150E+02  0.00000000000E+00 0.  1.
         11    1    3    3    0    0  0.14016041509E+02  0.59832123557E+01  0.16007888195E+00  0.15240533954E+02  0.51100000000E-03 0. -1.
        -11    1    3    3    0    0  0.43415471185E+01  0.27180552296E+02 -0.13242403302E+02  0.30544929202E+02  0.51100000000E-03 0.  1.
        -12    1    3    3    0    0 -0.28569051605E+01 -0.22677259744E+02  0.13754271335E+02  0.26675831693E+02  0.00000000000E+00 0.  1.
</event>
<event>
 7    1  0.3681059E-013  0.7246159E+02  0.7816164E-02  0.1226708E+00
        -11   -1    0    0    0    0  0.00000000000E+00  0.00000000000E+00  0.45593999997E+02  0.45594000000E+02  0.51100000000E-03 0.  1.
         11   -1    0    0    0    0 -0.00000000000E+00 -0.00000000000E+00 -0.45593999997E+02  0.45594000000E+02  0.51100000000E-03 0. -1.
    9900012    2    1    2    0    0  0.71875773318E+01 -0.14779944399E+02 -0.89761059016E+01  0.72461588130E+02  0.70000023235E+02 0.  0.
        -12    1    1    2    0    0 -0.71875773318E+01  0.14779944399E+02  0.89761059016E+01  0.18726411870E+02  0.00000000000E+00 0.  1.
         11    1    3    3    0    0 -0.57420186961E+01  0.17965910397E+02 -0.10979893358E+02  0.21824361927E+02  0.51100000000E-03 0. -1.
        -11    1    3    3    0    0  0.97525111406E+01  0.38635186706E+01 -0.72395318445E+01  0.12745551053E+02  0.51100000000E-03 0.  1.
        -12    1    3    3    0    0  0.31770848874E+01 -0.36609373467E+02  0.92433193007E+01  0.37891675150E+02  0.00000000000E+00 0.  1.
</event>
<event>
 7    1  0.3681059E-013  0.7246152E+02  0.7816164E-02  0.1226708E+00
        -11   -1    0    0    0    0  0.00000000000E+00  0.00000000000E+00  0.45593999997E+02  0.45594000000E+02  0.51100000000E-03 0.  1.
         11   -1    0    0    0    0 -0.00000000000E+00 -0.00000000000E+00 -0.45593999997E+02  0.45594000000E+02  0.51100000000E-03 0. -1.
    9900012    2    1    2    0    0  0.96210700205E+01  0.28496164493E+00 -0.16063459048E+02  0.72461523875E+02  0.69999939531E+02 0.  0.
        -12    1    1    2    0    0 -0.96210700205E+01 -0.28496164493E+00  0.16063459048E+02  0.18726476125E+02  0.00000000000E+00 0.  1.
         11    1    3    3    0    0  0.14956497606E+02  0.83407625070E+01 -0.76859667835E+01  0.18770701252E+02  0.51100000000E-03 0. -1.
        -11    1    3    3    0    0  0.10926152103E+02 -0.23779569146E+02  0.60517835670E+01  0.26860245589E+02  0.51100000000E-03 0.  1.
        -12    1    3    3    0    0 -0.16261579688E+02  0.15723768284E+02 -0.14429275831E+02  0.26830577034E+02  0.00000000000E+00 0.  1.
</event>
<event>
 7    1  0.3681059E-013  0.7246143E+02  0.7816164E-02  0.1226708E+00
        -11   -1    0    0    0    0  0.00000000000E+00  0.00000000000E+00  0.45593999997E+02  0.45594000000E+02  0.51100000000E-03 0.  1.
         11   -1    0    0    0    0 -0.00000000000E+00 -0.00000000000E+00 -0.45593999997E+02  0.45594000000E+02  0.51100000000E-03 0. -1.
    9900012    2    1    2    0    0 -0.17716161570E+02  0.10585941577E+01 -0.59750699349E+01  0.72461428955E+02  0.69999815879E+02 0.  0.
        -12    1    1    2    0    0  0.17716161570E+02 -0.10585941577E+01  0.59750699349E+01  0.18726571045E+02  0.00000000000E+00 0.  1.
         11    1    3    3    0    0  0.87568593991E+01 -0.28966179110E+00 -0.36983494543E+01  0.95102197364E+01  0.51100000000E-03 0. -1.
        -11    1    3    3    0    0  0.14662638465E+02  0.55226435496E+01  0.11427020107E+02  0.19392507505E+02  0.51100000000E-03 0.  1.
         12    1    3    3    0    0 -0.41135659434E+02 -0.41743876008E+01 -0.13703740588E+02  0.43558701714E+02  0.00000000000E+00 0. -1.
</event>
<event>
 7    1  0.3681059E-013  0.7246160E+02  0.7816164E-02  0.1226708E+00
        -11   -1    0    0    0    0  0.00000000000E+00  0.00000000000E+00  0.45593999997E+02  0.45594000000E+02  0.51100000000E-03 0. -1.
         11   -1    0    0    0    0 -0.00000000000E+00 -0.00000000000E+00 -0.45593999997E+02  0.45594000000E+02  0.51100000000E-03 0.  1.
    9900012    2    1    2    0    0  0.15176509463E+02  0.10506273191E+02  0.31574982940E+01  0.72461601219E+02  0.70000040285E+02 0.  0.
        -12    1    1    2    0    0 -0.15176509463E+02 -0.10506273191E+02 -0.31574982940E+01  0.18726398781E+02  0.00000000000E+00 0.  1.
         11    1    3    3    0    0  0.10703276902E+02 -0.64174646070E+01  0.14997019380E+02  0.19510371062E+02  0.51100000000E-03 0. -1.
        -11    1    3    3    0    0 -0.53045118128E+01 -0.11394595946E+02  0.98471351475E+01  0.15966863600E+02  0.51100000000E-03 0.  1.
        -12    1    3    3    0    0  0.97777443731E+01  0.28318333744E+02 -0.21686656234E+02  0.36984366557E+02  0.00000000000E+00 0.  1.
</event>
<event>
 7    1  0.3681059E-013  0.7246201E+02  0.7816164E-02  0.1226707E+00
        -11   -1    0    0    0    0  0.00000000000E+00  0.00000000000E+00  0.45593999997E+02  0.45594000000E+02  0.51100000000E-03 0. -1.
         11   -1    0    0    0    0 -0.00000000000E+00 -0.00000000000E+00 -0.45593999997E+02  0.45594000000E+02  0.51100000000E-03 0.  1.
    9900012    2    1    2    0    0  0.49628243934E+01  0.27284434800E+01  0.17849051251E+02  0.72462011098E+02  0.70000574227E+02 0.  0.
        -12    1    1    2    0    0 -0.49628243934E+01 -0.27284434800E+01 -0.17849051251E+02  0.18725988902E+02  0.00000000000E+00 0.  1.
         11    1    3    3    0    0  0.29695474817E+02  0.12101493115E+02  0.50587891117E+01  0.32463190042E+02  0.51100000000E-03 0. -1.
        -11    1    3    3    0    0 -0.20787802338E+01  0.27043911101E+01 -0.68653867156E+01  0.76660676721E+01  0.51100000000E-03 0.  1.
        -12    1    3    3    0    0 -0.22653870189E+02 -0.12077440745E+02  0.19655648855E+02  0.32332753384E+02  0.00000000000E+00 0.  1.
</event>
<event>
 7    1  0.3681059E-013  0.7246157E+02  0.7816164E-02  0.1226708E+00
        -11   -1    0    0    0    0  0.00000000000E+00  0.00000000000E+00  0.45593999997E+02  0.45594000000E+02  0.51100000000E-03 0. -1.
         11   -1    0    0    0    0 -0.00000000000E+00 -0.00000000000E+00 -0.45593999997E+02  0.45594000000E+02  0.51100000000E-03 0.  1.
    9900012    2    1    2    0    0  0.10621715309E+02 -0.63644365464E+01  0.14048213580E+02  0.72461569656E+02  0.69999999169E+02 0.  0.
        -12    1    1    2    0    0 -0.10621715309E+02  0.63644365464E+01 -0.14048213580E+02  0.18726430344E+02  0.00000000000E+00 0.  1.
         11    1    3    3    0    0  0.10056759727E+02 -0.26851602625E+02  0.22999849178E+02  0.36757856877E+02  0.51100000000E-03 0. -1.
        -11    1    3    3    0    0  0.10293492885E+02 -0.15369737775E+01 -0.38148939058E+01  0.11084750784E+02  0.51100000000E-03 0.  1.
        -12    1    3    3    0    0 -0.97285373039E+01  0.22024139856E+02 -0.51367416923E+01  0.24618961995E+02  0.00000000000E+00 0.  1.
</event>
<event>
 7    1  0.3681059E-013  0.7246143E+02  0.7816164E-02  0.1226708E+00
        -11   -1    0    0    0    0  0.00000000000E+00  0.00000000000E+00  0.45593999997E+02  0.45594000000E+02  0.51100000000E-03 0.  1.
         11   -1    0    0    0    0 -0.00000000000E+00 -0.00000000000E+00 -0.45593999997E+02  0.45594000000E+02  0.51100000000E-03 0. -1.
    9900012    2    1    2    0    0 -0.71069329720E+01 -0.14912096107E+02 -0.88207356991E+01  0.72461428375E+02  0.69999815123E+02 0.  0.
        -12    1    1    2    0    0  0.71069329720E+01  0.14912096107E+02  0.88207356991E+01  0.18726571625E+02  0.00000000000E+00 0.  1.
         11    1    3    3    0    0  0.14542851490E+01 -0.77492460156E+01 -0.49658347720E+01  0.93180080677E+01  0.51100000000E-03 0. -1.
        -11    1    3    3    0    0 -0.23441330104E+02  0.18036325591E+02 -0.13247667206E+02  0.32408419964E+02  0.51100000000E-03 0.  1.
         12    1    3    3    0    0  0.14880111983E+02 -0.25199175682E+02  0.93927662789E+01  0.30735000343E+02  0.00000000000E+00 0. -1.
</event>
<event>
 7    1  0.3681059E-013  0.7246157E+02  0.7816164E-02  0.1226708E+00
        -11   -1    0    0    0    0  0.00000000000E+00  0.00000000000E+00  0.45593999997E+02  0.45594000000E+02  0.51100000000E-03 0.  1.
         11   -1    0    0    0    0 -0.00000000000E+00 -0.00000000000E+00 -0.45593999997E+02  0.45594000000E+02  0.51100000000E-03 0. -1.
    9900012    2    1    2    0    0  0.14440706293E+02  0.92929045548E+01  0.74690783241E+01  0.72461569365E+02  0.69999998789E+02 0.  0.
        -12    1    1    2    0    0 -0.14440706293E+02 -0.92929045548E+01 -0.74690783241E+01  0.18726430635E+02  0.00000000000E+00 0.  1.
         11    1    3    3    0    0  0.13275711052E+01 -0.78430585436E+00 -0.29364074091E+01  0.33166352597E+01  0.51100000000E-03 0. -1.
        -11    1    3    3    0    0 -0.64643266253E+01 -0.24667235829E+02 -0.57095788552E+01  0.26131577318E+02  0.51100000000E-03 0.  1.
        -12    1    3    3    0    0  0.19577461813E+02  0.34744446238E+02  0.16115064588E+02  0.43013356788E+02  0.00000000000E+00 0.  1.
</event>
<event>
 7    1  0.3681059E-013  0.7246154E+02  0.7816164E-02  0.1226708E+00
        -11   -1    0    0    0    0  0.00000000000E+00  0.00000000000E+00  0.45593999997E+02  0.45594000000E+02  0.51100000000E-03 0.  1.
         11   -1    0    0    0    0 -0.00000000000E+00 -0.00000000000E+00 -0.45593999997E+02  0.45594000000E+02  0.51100000000E-03 0. -1.
    9900012    2    1    2    0    0  0.18241983241E+02 -0.57051994365E+00 -0.41934166208E+01  0.72461543087E+02  0.69999964557E+02 0.  0.
        -12    1    1    2    0    0 -0.18241983241E+02  0.57051994365E+00  0.41934166208E+01  0.18726456913E+02  0.00000000000E+00 0.  1.
         11    1    3    3    0    0  0.48158760521E+01 -0.19338908980E+02 -0.11525997701E+02  0.23022482185E+02  0.51100000000E-03 0. -1.
        -11    1    3    3    0    0 -0.13528468104E+02 -0.11638412705E+01  0.82764673450E+01  0.15902008921E+02  0.51100000000E-03 0.  1.
        -12    1    3    3    0    0  0.26954575293E+02  0.19932230307E+02 -0.94388626429E+00  0.33537051980E+02  0.00000000000E+00 0.  1.
</event>
<event>
 7    1  0.3681059E-013  0.7246163E+02  0.7816164E-02  0.1226708E+00
        -11   -1    0    0    0    0  0.00000000000E+00  0.00000000000E+00  0.45593999997E+02  0.45594000000E+02  0.51100000000E-03 0.  1.
         11   -1    0    0    0    0 -0.00000000000E+00 -0.00000000000E+00 -0.45593999997E+02  0.45594000000E+02  0.51100000000E-03 0. -1.
    9900012    2    1    2    0    0 -0.11520916850E+02  0.26831957528E+01  0.14517085902E+02  0.72461632290E+02  0.70000080761E+02 0.  0.
        -12    1    1    2    0    0  0.11520916850E+02 -0.26831957528E+01 -0.14517085902E+02  0.18726367710E+02  0.00000000000E+00 0.  1.
         11    1    3    3    0    0  0.11733262277E+02  0.12877768746E+02 -0.10940989867E+02  0.20572108085E+02  0.51100000000E-03 0. -1.
        -11    1    3    3    0    0  0.62588896723E+01  0.76475891203E+01  0.17415262219E+01  0.10034551964E+02  0.51100000000E-03 0.  1.
        -12    1    3    3    0    0 -0.29513068799E+02 -0.17842162114E+02  0.23716549547E+02  0.41854972241E+02  0.00000000000E+00 0.  1.
</event>
<event>
 7    1  0.3681059E-013  0.7246175E+02  0.7816164E-02  0.1226708E+00
        -11   -1    0    0    0    0  0.00000000000E+00  0.00000000000E+00  0.45593999997E+02  0.45594000000E+02  0.51100000000E-03 0. -1.
         11   -1    0    0    0    0 -0.00000000000E+00 -0.00000000000E+00 -0.45593999997E+02  0.45594000000E+02  0.51100000000E-03 0.  1.
    9900012    2    1    2    0    0 -0.14490191118E+02 -0.74450637701E+01  0.92345938663E+01  0.72461752723E+02  0.70000237647E+02 0.  0.
        -12    1    1    2    0    0  0.14490191118E+02  0.74450637701E+01 -0.92345938663E+01  0.18726247277E+02  0.00000000000E+00 0.  1.
         11    1    3    3    0    0 -0.18590890862E+02 -0.52170547211E+01  0.17126333565E+02  0.25809885406E+02  0.51100000000E-03 0. -1.
        -11    1    3    3    0    0 -0.61738004820E+01 -0.13381700739E+02  0.13796760096E+02  0.20187528736E+02  0.51100000000E-03 0.  1.
        -12    1    3    3    0    0  0.10274500226E+02  0.11153691690E+02 -0.21688499795E+02  0.26464338582E+02  0.00000000000E+00 0.  1.
</event>
<event>
 7    1  0.3681059E-013  0.7246149E+02  0.7816164E-02  0.1226708E+00
        -11   -1    0    0    0    0  0.00000000000E+00  0.00000000000E+00  0.45593999997E+02  0.45594000000E+02  0.51100000000E-03 0. -1.
         11   -1    0    0    0    0 -0.00000000000E+00 -0.00000000000E+00 -0.45593999997E+02  0.45594000000E+02  0.51100000000E-03 0.  1.
    9900012    2    1    2    0    0 -0.12438011780E+02 -0.11083004835E+02  0.85524811274E+01  0.72461492941E+02  0.69999899233E+02 0.  0.
        -12    1    1    2    0    0  0.12438011780E+02  0.11083004835E+02 -0.85524811274E+01  0.18726507059E+02  0.00000000000E+00 0.  1.
         11    1    3    3    0    0  0.13359954579E+01 -0.35853804087E+01  0.24361967210E+02  0.24660601840E+02  0.51100000000E-03 0. -1.
        -11    1    3    3    0    0 -0.29128354071E+02 -0.47998582133E+01 -0.10299562203E+02  0.31266285862E+02  0.51100000000E-03 0.  1.
         12    1    3    3    0    0  0.15354346834E+02 -0.26977662133E+01 -0.55099238789E+01  0.16534605238E+02  0.00000000000E+00 0. -1.
</event>
<event>
 7    1  0.3681059E-013  0.7246157E+02  0.7816164E-02  0.1226708E+00
        -11   -1    0    0    0    0  0.00000000000E+00  0.00000000000E+00  0.45593999997E+02  0.45594000000E+02  0.51100000000E-03 0. -1.
         11   -1    0    0    0    0 -0.00000000000E+00 -0.00000000000E+00 -0.45593999997E+02  0.45594000000E+02  0.51100000000E-03 0.  1.
    9900012    2    1    2    0    0 -0.18441771357E+02 -0.30863563978E+01  0.10270232355E+01  0.72461566722E+02  0.69999995346E+02 0.  0.
        -12    1    1    2    0    0  0.18441771357E+02  0.30863563978E+01 -0.10270232355E+01  0.18726433278E+02  0.00000000000E+00 0.  1.
         11    1    3    3    0    0 -0.28853295059E+02  0.54487962933E+01  0.77641930769E+01  0.30372433409E+02  0.51100000000E-03 0. -1.
        -11    1    3    3    0    0 -0.40323523643E+01  0.57792421183E+00  0.14370997067E+02  0.14937182430E+02  0.51100000000E-03 0.  1.
        -12    1    3    3    0    0  0.14443876067E+02 -0.91130769030E+01 -0.21108166909E+02  0.27151950882E+02  0.00000000000E+00 0.  1.
</event>
<event>
 7    1  0.3681059E-013  0.7246157E+02  0.7816164E-02  0.1226708E+00
        -11   -1    0    0    0    0  0.00000000000E+00  0.00000000000E+00  0.45593999997E+02  0.45594000000E+02  0.51100000000E-03 0.  1.
         11   -1    0    0    0    0 -0.00000000000E+00 -0.00000000000E+00 -0.45593999997E+02  0.45594000000E+02  0.51100000000E-03 0. -1.
    9900012    2    1    2    0    0  0.15625255109E+02  0.46705665971E+01 -0.92041487515E+01  0.72461570981E+02  0.70000000894E+02 0.  0.
        -12    1    1    2    0    0 -0.15625255109E+02 -0.46705665971E+01  0.92041487515E+01  0.18726429019E+02  0.00000000000E+00 0.  1.
         11    1    3    3    0    0  0.18190823732E+01  0.23439251158E+01  0.12403888690E+02  0.12753803375E+02  0.51100000000E-03 0. -1.
        -11    1    3    3    0    0  0.32784712596E+01 -0.10783818238E+02  0.15385518380E+02  0.19072317260E+02  0.51100000000E-03 0.  1.
         12    1    3    3    0    0  0.10527701476E+02  0.13110459719E+02 -0.36993555822E+02  0.40635450345E+02  0.00000000000E+00 0. -1.
</event>
<event>
 7    1  0.3681059E-013  0.7246159E+02  0.7816164E-02  0.1226708E+00
        -11   -1    0    0    0    0  0.00000000000E+00  0.00000000000E+00  0.45593999997E+02  0.45594000000E+02  0.51100000000E-03 0.  1.
         11   -1    0    0    0    0 -0.00000000000E+00 -0.00000000000E+00 -0.45593999997E+02  0.45594000000E+02  0.51100000000E-03 0. -1.
    9900012    2    1    2    0    0 -0.12461969015E+02 -0.87500074858E+01 -0.10900235247E+02  0.72461590008E+02  0.70000025681E+02 0.  0.
        -12    1    1    2    0    0  0.12461969015E+02  0.87500074858E+01  0.10900235247E+02  0.18726409992E+02  0.00000000000E+00 0.  1.
         11    1    3    3    0    0  0.54213140556E+01  0.11058081268E+02 -0.18891733377E+02  0.22551483270E+02  0.51100000000E-03 0. -1.
        -11    1    3    3    0    0 -0.12232408773E+02  0.10250241445E+02  0.10686383445E+02  0.19206719279E+02  0.51100000000E-03 0.  1.
         12    1    3    3    0    0 -0.56508742979E+01 -0.30058330198E+02 -0.26948853149E+01  0.30703387460E+02  0.00000000000E+00 0. -1.
</event>
<event>
 7    1  0.3681059E-013  0.7246154E+02  0.7816164E-02  0.1226708E+00
        -11   -1    0    0    0    0  0.00000000000E+00  0.00000000000E+00  0.45593999997E+02  0.45594000000E+02  0.51100000000E-03 0. -1.
         11   -1    0    0    0    0 -0.00000000000E+00 -0.00000000000E+00 -0.45593999997E+02  0.45594000000E+02  0.51100000000E-03 0.  1.
    9900012    2    1    2    0    0 -0.55648214464E+01  0.52819398327E+01  0.17082566599E+02  0.72461542574E+02  0.69999963889E+02 0.  0.
        -12    1    1    2    0    0  0.55648214464E+01 -0.52819398327E+01 -0.17082566599E+02  0.18726457426E+02  0.00000000000E+00 0.  1.
         11    1    3    3    0    0 -0.11210940584E+02 -0.10769249735E+02 -0.70203838527E+01  0.17057189637E+02  0.51100000000E-03 0. -1.
        -11    1    3    3    0    0 -0.34933735327E+01  0.18196995628E+01 -0.13558660619E+02  0.14119215388E+02  0.51100000000E-03 0.  1.
         12    1    3    3    0    0  0.91394926700E+01  0.14231490005E+02  0.37661611070E+02  0.41285137549E+02  0.00000000000E+00 0. -1.
</event>
<event>
 7    1  0.3681059E-013  0.7246105E+02  0.7816164E-02  0.1226709E+00
        -11   -1    0    0    0    0  0.00000000000E+00  0.00000000000E+00  0.45593999997E+02  0.45594000000E+02  0.51100000000E-03 0. -1.
         11   -1    0    0    0    0 -0.00000000000E+00 -0.00000000000E+00 -0.45593999997E+02  0.45594000000E+02  0.51100000000E-03 0.  1.
    9900012    2    1    2    0    0 -0.80044368909E+01 -0.91661479643E+01  0.14234092197E+02  0.72461049925E+02  0.69999322119E+02 0.  0.
        -12    1    1    2    0    0  0.80044368909E+01  0.91661479643E+01 -0.14234092197E+02  0.18726950075E+02  0.00000000000E+00 0.  1.
         11    1    3    3    0    0  0.94413022334E+01  0.16722297449E+01 -0.32556394063E+00  0.95937757074E+01  0.51100000000E-03 0. -1.
        -11    1    3    3    0    0  0.80705193949E+01  0.83142907153E+01 -0.15284425973E+02  0.19180051902E+02  0.51100000000E-03 0.  1.
         12    1    3    3    0    0 -0.25516258519E+02 -0.19152668425E+02  0.29844082110E+02  0.43687222315E+02  0.00000000000E+00 0. -1.
</event>
<event>
 7    1  0.3681059E-013  0.7246155E+02  0.7816164E-02  0.1226708E+00
        -11   -1    0    0    0    0  0.00000000000E+00  0.00000000000E+00  0.45593999997E+02  0.45594000000E+02  0.51100000000E-03 0.  1.
         11   -1    0    0    0    0 -0.00000000000E+00 -0.00000000000E+00 -0.45593999997E+02  0.45594000000E+02  0.51100000000E-03 0. -1.
    9900012    2    1    2    0    0 -0.13819930610E+02  0.11666812892E+02 -0.48553824979E+01  0.72461554947E+02  0.69999980007E+02 0.  0.
        -12    1    1    2    0    0  0.13819930610E+02 -0.11666812892E+02  0.48553824979E+01  0.18726445053E+02  0.00000000000E+00 0.  1.
         11    1    3    3    0    0 -0.61538786278E+01  0.37703506030E+01 -0.26576626868E+02  0.27539115124E+02  0.51100000000E-03 0. -1.
        -11    1    3    3    0    0  0.43599295165E+01  0.29359451054E+01 -0.96345790553E+01  0.10975147966E+02  0.51100000000E-03 0.  1.
        -12    1    3    3    0    0 -0.12025981499E+02  0.49605171833E+01  0.31355823426E+02  0.33947291857E+02  0.00000000000E+00 0.  1.
</event>
<event>
 7    1  0.3681059E-013  0.7246149E+02  0.7816164E-02  0.1226708E+00
        -11   -1    0    0    0    0  0.00000000000E+00  0.00000000000E+00  0.45593999997E+02  0.45594000000E+02  0.51100000000E-03 0.  1.
         11   -1    0    0    0    0 -0.00000000000E+00 -0.00000000000E+00 -0.45593999997E+02  0.45594000000E+02  0.51100000000E-03 0. -1.
    9900012    2    1    2    0    0  0.11053226480E+02  0.12945821849E+02 -0.78047371974E+01  0.72461493607E+02  0.69999900101E+02 0.  0.
        -12    1    1    2    0    0 -0.11053226480E+02 -0.12945821849E+02  0.78047371974E+01  0.18726506393E+02  0.00000000000E+00 0.  1.
         11    1    3    3    0    0  0.10574473184E+02  0.26200563423E+02 -0.65921471951E+01  0.29012849080E+02  0.51100000000E-03 0. -1.
        -11    1    3    3    0    0 -0.17996767631E+02  0.36682503407E+01 -0.98085528071E+00  0.18392981897E+02  0.51100000000E-03 0.  1.
         12    1    3    3    0    0  0.18475520927E+02 -0.16922991915E+02 -0.23173472158E+00  0.25055662631E+02  0.00000000000E+00 0. -1.
</event>
<event>
 7    1  0.3681059E-013  0.7246159E+02  0.7816164E-02  0.1226708E+00
        -11   -1    0    0    0    0  0.00000000000E+00  0.00000000000E+00  0.45593999997E+02  0.45594000000E+02  0.51100000000E-03 0.  1.
         11   -1    0    0    0    0 -0.00000000000E+00 -0.00000000000E+00 -0.45593999997E+02  0.45594000000E+02  0.51100000000E-03 0. -1.
    9900012    2    1    2    0    0 -0.63534999857E+01  0.17294965660E+02 -0.33459825402E+01  0.72461590883E+02  0.70000026821E+02 0.  0.
        -12    1    1    2    0    0  0.63534999857E+01 -0.17294965660E+02  0.33459825402E+01  0.18726409117E+02  0.00000000000E+00 0.  1.
         11    1    3    3    0    0 -0.93033329373E+01  0.66049389596E+01 -0.22065979672E+02  0.24841189214E+02  0.51100000000E-03 0. -1.
        -11    1    3    3    0    0 -0.10253763246E+02  0.14339261693E+02 -0.66073791926E+01  0.18825821275E+02  0.51100000000E-03 0.  1.
         12    1    3    3    0    0  0.13203596198E+02 -0.36492349927E+01  0.25327376325E+02  0.28794580394E+02  0.00000000000E+00 0. -1.
</event>
<event>
 7    1  0.3686050E-013  0.7246162E+02  0.7816164E-02  0.1226708E+00
        -11   -1    0    0    0    0  0.00000000000E+00  0.00000000000E+00  0.45593999997E+02  0.45594000000E+02  0.51100000000E-03 0.  1.
         11   -1    0    0    0    0 -0.00000000000E+00 -0.00000000000E+00 -0.45593999997E+02  0.45594000000E+02  0.51100000000E-03 0. -1.
    9900012    2    1    2    0    0 -0.11253121062E+02  0.14966860825E+02 -0.19399190090E+00  0.72461620493E+02  0.70000065393E+02 0.  0.
        -12    1    1    2    0    0  0.11253121062E+02 -0.14966860825E+02  0.19399190090E+00  0.18726379507E+02  0.00000000000E+00 0.  1.
         11    1    3    3    0    0 -0.26274224814E+02 -0.85006676400E+01 -0.55910511654E+01  0.28175451962E+02  0.51100000000E-03 0.  1.
        -11    1    3    3    0    0  0.12942500525E+02 -0.11405390514E+01 -0.89017744814E+01  0.15749626610E+02  0.51100000000E-03 0. -1.
        -12    1    3    3    0    0  0.20786032267E+01  0.24608067517E+02  0.14298833746E+02  0.28536541920E+02  0.00000000000E+00 0.  1.
</event>
<event>
 7    1  0.3681059E-013  0.7246153E+02  0.7816164E-02  0.1226708E+00
        -11   -1    0    0    0    0  0.00000000000E+00  0.00000000000E+00  0.45593999997E+02  0.45594000000E+02  0.51100000000E-03 0.  1.
         11   -1    0    0    0    0 -0.00000000000E+00 -0.00000000000E+00 -0.45593999997E+02  0.45594000000E+02  0.51100000000E-03 0. -1.
    9900012    2    1    2    0    0 -0.12935519573E+02  0.11746909261E+01 -0.13489738265E+02  0.72461531998E+02  0.69999950111E+02 0.  0.
        -12    1    1    2    0    0  0.12935519573E+02 -0.11746909261E+01  0.13489738265E+02  0.18726468002E+02  0.00000000000E+00 0.  1.
         11    1    3    3    0    0  0.12141838228E+01  0.20003805985E+02 -0.20522813054E+02  0.28684705892E+02  0.51100000000E-03 0. -1.
        -11    1    3    3    0    0 -0.41700288253E-01  0.27463639649E+01  0.16189119531E+02  0.16420470316E+02  0.51100000000E-03 0.  1.
         12    1    3    3    0    0 -0.14108003108E+02 -0.21575479023E+02 -0.91560447419E+01  0.27356355790E+02  0.00000000000E+00 0. -1.
</event>
<event>
 7    1  0.3681059E-013  0.7246157E+02  0.7816164E-02  0.1226708E+00
        -11   -1    0    0    0    0  0.00000000000E+00  0.00000000000E+00  0.45593999997E+02  0.45594000000E+02  0.51100000000E-03 0. -1.
         11   -1    0    0    0    0 -0.00000000000E+00 -0.00000000000E+00 -0.45593999997E+02  0.45594000000E+02  0.51100000000E-03 0.  1.
    9900012    2    1    2    0    0 -0.88051419537E+01 -0.10963516638E+02 -0.12367295279E+02  0.72461569096E+02  0.69999998438E+02 0.  0.
        -12    1    1    2    0    0  0.88051419537E+01  0.10963516638E+02  0.12367295279E+02  0.18726430904E+02  0.00000000000E+00 0.  1.
         11    1    3    3    0    0 -0.18146076865E+02  0.90630042229E+01  0.50674777139E+01  0.20906876423E+02  0.51100000000E-03 0. -1.
        -11    1    3    3    0    0  0.17492756781E+02 -0.22039178845E+02  0.41057249638E+01  0.28435522181E+02  0.51100000000E-03 0.  1.
         12    1    3    3    0    0 -0.81518218698E+01  0.20126579843E+01 -0.21540497957E+02  0.23119170491E+02  0.00000000000E+00 0. -1.
</event>
<event>
 7    1  0.3681059E-013  0.7246160E+02  0.7816164E-02  0.1226708E+00
        -11   -1    0    0    0    0  0.00000000000E+00  0.00000000000E+00  0.45593999997E+02  0.45594000000E+02  0.51100000000E-03 0. -1.
         11   -1    0    0    0    0 -0.00000000000E+00 -0.00000000000E+00 -0.45593999997E+02  0.45594000000E+02  0.51100000000E-03 0.  1.
    9900012    2    1    2    0    0  0.10450945307E+02 -0.11193261775E+02  0.10778070274E+02  0.72461597094E+02  0.70000034911E+02 0.  0.
        -12    1    1    2    0    0 -0.10450945307E+02  0.11193261775E+02 -0.10778070274E+02  0.18726402906E+02  0.00000000000E+00 0.  1.
         11    1    3    3    0    0 -0.68656461608E+01 -0.20458722915E+02  0.39417264022E+01  0.21937038264E+02  0.51100000000E-03 0. -1.
        -11    1    3    3    0    0 -0.47280163609E-01 -0.74946784655E+01 -0.15767960016E+02  0.17458551029E+02  0.51100000000E-03 0.  1.
         12    1    3    3    0    0  0.17363871632E+02  0.16760139606E+02  0.22604303887E+02  0.33066007801E+02  0.00000000000E+00 0. -1.
</event>
<event>
 7    1  0.3681059E-013  0.7246160E+02  0.7816164E-02  0.1226708E+00
        -11   -1    0    0    0    0  0.00000000000E+00  0.00000000000E+00  0.45593999997E+02  0.45594000000E+02  0.51100000000E-03 0.  1.
         11   -1    0    0    0    0 -0.00000000000E+00 -0.00000000000E+00 -0.45593999997E+02  0.45594000000E+02  0.51100000000E-03 0. -1.
    9900012    2    1    2    0    0  0.13761040510E+02  0.54143703836E+01 -0.11488971978E+02  0.72461598326E+02  0.70000036516E+02 0.  0.
        -12    1    1    2    0    0 -0.13761040510E+02 -0.54143703836E+01  0.11488971978E+02  0.18726401674E+02  0.00000000000E+00 0.  1.
         11    1    3    3    0    0 -0.87109063570E+01  0.37965116710E+01  0.11715979275E+02  0.15085011139E+02  0.51100000000E-03 0. -1.
        -11    1    3    3    0    0  0.29149639622E+02 -0.43089877458E+01  0.30701485365E+01  0.29625912269E+02  0.51100000000E-03 0.  1.
         12    1    3    3    0    0 -0.66776927551E+01  0.59268464584E+01 -0.26275099789E+02  0.27750674918E+02  0.00000000000E+00 0. -1.
</event>
<event>
 7    1  0.3681059E-013  0.7246156E+02  0.7816164E-02  0.1226708E+00
        -11   -1    0    0    0    0  0.00000000000E+00  0.00000000000E+00  0.45593999997E+02  0.45594000000E+02  0.51100000000E-03 0. -1.
         11   -1    0    0    0    0 -0.00000000000E+00 -0.00000000000E+00 -0.45593999997E+02  0.45594000000E+02  0.51100000000E-03 0.  1.
    9900012    2    1    2    0    0 -0.40092054449E+01 -0.15523057428E+02 -0.96768076977E+01  0.72461557534E+02  0.69999983378E+02 0.  0.
        -12    1    1    2    0    0  0.40092054449E+01  0.15523057428E+02  0.96768076977E+01  0.18726442466E+02  0.00000000000E+00 0.  1.
         11    1    3    3    0    0  0.82898694638E+01  0.46738917334E+01 -0.45251709583E+01  0.10537759350E+02  0.51100000000E-03 0. -1.
        -11    1    3    3    0    0  0.77154485985E+00 -0.19288075089E+02 -0.28927511073E+02  0.34776802890E+02  0.51100000000E-03 0.  1.
         12    1    3    3    0    0 -0.13070619769E+02 -0.90887407223E+00  0.23775874333E+02  0.27146995295E+02  0.00000000000E+00 0. -1.
</event>
<event>
 7    1  0.3681059E-013  0.7246162E+02  0.7816164E-02  0.1226708E+00
        -11   -1    0    0    0    0  0.00000000000E+00  0.00000000000E+00  0.45593999997E+02  0.45594000000E+02  0.51100000000E-03 0. -1.
         11   -1    0    0    0    0 -0.00000000000E+00 -0.00000000000E+00 -0.45593999997E+02  0.45594000000E+02  0.51100000000E-03 0.  1.
    9900012    2    1    2    0    0  0.14890690841E+02 -0.11264072722E+02  0.14371368088E+01  0.72461618337E+02  0.70000062584E+02 0.  0.
        -12    1    1    2    0    0 -0.14890690841E+02  0.11264072722E+02 -0.14371368088E+01  0.18726381663E+02  0.00000000000E+00 0.  1.
         11    1    3    3    0    0  0.18481651529E+02 -0.12820369359E+02 -0.89195629605E+01  0.24196940248E+02  0.51100000000E-03 0. -1.
        -11    1    3    3    0    0  0.10531476810E+02 -0.19140224571E+02  0.24092754694E+01  0.21978735381E+02  0.51100000000E-03 0.  1.
         12    1    3    3    0    0 -0.14122437498E+02  0.20696521208E+02  0.79474242999E+01  0.26285942707E+02  0.00000000000E+00 0. -1.
</event>
<event>
 7    1  0.3681059E-013  0.7246153E+02  0.7816164E-02  0.1226708E+00
        -11   -1    0    0    0    0  0.00000000000E+00  0.00000000000E+00  0.45593999997E+02  0.45594000000E+02  0.51100000000E-03 0. -1.
         11   -1    0    0    0    0 -0.00000000000E+00 -0.00000000000E+00 -0.45593999997E+02  0.45594000000E+02  0.51100000000E-03 0.  1.
    9900012    2    1    2    0    0 -0.82781293042E+01 -0.58636146601E+01  0.15740756237E+02  0.72461526531E+02  0.69999942990E+02 0.  0.
        -12    1    1    2    0    0  0.82781293042E+01  0.58636146601E+01 -0.15740756237E+02  0.18726473469E+02  0.00000000000E+00 0.  1.
         11    1    3    3    0    0 -0.10735595978E+02  0.20780118795E+02  0.22214863471E+02  0.32257813278E+02  0.51100000000E-03 0. -1.
        -11    1    3    3    0    0  0.16418784939E+01  0.77848707960E+00  0.86759275072E+01  0.88641708859E+01  0.51100000000E-03 0.  1.
        -12    1    3    3    0    0  0.81558818024E+00 -0.27422220535E+02 -0.15150034741E+02  0.31339542368E+02  0.00000000000E+00 0.  1.
</event>
<event>
 7    1  0.3681059E-013  0.7246155E+02  0.7816164E-02  0.1226708E+00
        -11   -1    0    0    0    0  0.00000000000E+00  0.00000000000E+00  0.45593999997E+02  0.45594000000E+02  0.51100000000E-03 0.  1.
         11   -1    0    0    0    0 -0.00000000000E+00 -0.00000000000E+00 -0.45593999997E+02  0.45594000000E+02  0.51100000000E-03 0. -1.
    9900012    2    1    2    0    0  0.26372945999E+01 -0.83159847084E+01 -0.16570119486E+02  0.72461553881E+02  0.69999978618E+02 0.  0.
        -12    1    1    2    0    0 -0.26372945999E+01  0.83159847084E+01  0.16570119486E+02  0.18726446119E+02  0.00000000000E+00 0.  1.
         11    1    3    3    0    0  0.33022824634E+01  0.15486396349E+01  0.12732634925E+02  0.13244747886E+02  0.51100000000E-03 0.  1.
        -11    1    3    3    0    0 -0.21863192442E+02 -0.18297282794E+02 -0.18400136568E+02  0.33931618992E+02  0.51100000000E-03 0. -1.
         12    1    3    3    0    0  0.21198204579E+02  0.84326584509E+01 -0.10902617843E+02  0.25285187002E+02  0.00000000000E+00 0. -1.
</event>
<event>
 7    1  0.3681059E-013  0.7246166E+02  0.7816164E-02  0.1226708E+00
        -11   -1    0    0    0    0  0.00000000000E+00  0.00000000000E+00  0.45593999997E+02  0.45594000000E+02  0.51100000000E-03 0.  1.
         11   -1    0    0    0    0 -0.00000000000E+00 -0.00000000000E+00 -0.45593999997E+02  0.45594000000E+02  0.51100000000E-03 0. -1.
    9900012    2    1    2    0    0 -0.11344226069E+02  0.75015315512E+01  0.12872896520E+02  0.72461657444E+02  0.70000113528E+02 0.  0.
        -12    1    1    2    0    0  0.11344226069E+02 -0.75015315512E+01 -0.12872896520E+02  0.18726342556E+02  0.00000000000E+00 0.  1.
         11    1    3    3    0    0  0.83480934284E+01 -0.64828110582E+01  0.72066547561E+01  0.12792707928E+02  0.51100000000E-03 0. -1.
        -11    1    3    3    0    0 -0.11286743457E+01 -0.20177445431E+02 -0.94506258108E+00  0.20231073957E+02  0.51100000000E-03 0.  1.
        -12    1    3    3    0    0 -0.18563645151E+02  0.34161788041E+02  0.66113043452E+01  0.39437875559E+02  0.00000000000E+00 0.  1.
</event>
<event>
 7    1  0.3681059E-013  0.7246155E+02  0.7816164E-02  0.1226708E+00
        -11   -1    0    0    0    0  0.00000000000E+00  0.00000000000E+00  0.45593999997E+02  0.45594000000E+02  0.51100000000E-03 0.  1.
         11   -1    0    0    0    0 -0.00000000000E+00 -0.00000000000E+00 -0.45593999997E+02  0.45594000000E+02  0.51100000000E-03 0. -1.
    9900012    2    1    2    0    0  0.62702427364E+01 -0.61136562455E+01 -0.16552558840E+02  0.72461549701E+02  0.69999973173E+02 0.  0.
        -12    1    1    2    0    0 -0.62702427364E+01  0.61136562455E+01  0.16552558840E+02  0.18726450299E+02  0.00000000000E+00 0.  1.
         11    1    3    3    0    0  0.15212457652E+02  0.19877054216E+02 -0.19013365624E+02  0.31432852634E+02  0.51100000000E-03 0. -1.
        -11    1    3    3    0    0  0.10766162322E+02 -0.12918606580E+02 -0.20875937961E+01  0.16945757440E+02  0.51100000000E-03 0.  1.
        -12    1    3    3    0    0 -0.19708377237E+02 -0.13072103882E+02  0.45484005802E+01  0.24082939626E+02  0.00000000000E+00 0.  1.
</event>
<event>
 7    1  0.3681059E-013  0.7246161E+02  0.7816164E-02  0.1226708E+00
        -11   -1    0    0    0    0  0.00000000000E+00  0.00000000000E+00  0.45593999997E+02  0.45594000000E+02  0.51100000000E-03 0. -1.
         11   -1    0    0    0    0 -0.00000000000E+00 -0.00000000000E+00 -0.45593999997E+02  0.45594000000E+02  0.51100000000E-03 0.  1.
    9900012    2    1    2    0    0  0.47710379368E+01  0.40634003986E+01  0.17646634388E+02  0.72461608702E+02  0.70000050034E+02 0.  0.
        -12    1    1    2    0    0 -0.47710379368E+01 -0.40634003986E+01 -0.17646634388E+02  0.18726391298E+02  0.00000000000E+00 0.  1.
         11    1    3    3    0    0  0.84102239127E+01  0.11679929263E+02  0.27073116169E+02  0.30661151857E+02  0.51100000000E-03 0. -1.
        -11    1    3    3    0    0 -0.65788951224E+01 -0.23419657224E+02 -0.30868616177E+01  0.24521234072E+02  0.51100000000E-03 0.  1.
         12    1    3    3    0    0  0.29397091465E+01  0.15803128360E+02 -0.63396201630E+01  0.17279222773E+02  0.00000000000E+00 0. -1.
</event>
<event>
 7    1  0.3681059E-013  0.7246157E+02  0.7816164E-02  0.1226708E+00
        -11   -1    0    0    0    0  0.00000000000E+00  0.00000000000E+00  0.45593999997E+02  0.45594000000E+02  0.51100000000E-03 0. -1.
         11   -1    0    0    0    0 -0.00000000000E+00 -0.00000000000E+00 -0.45593999997E+02  0.45594000000E+02  0.51100000000E-03 0.  1.
    9900012    2    1    2    0    0 -0.18208000153E+02 -0.20525867048E+01  0.38645769721E+01  0.72461565824E+02  0.69999994177E+02 0.  0.
        -12    1    1    2    0    0  0.18208000153E+02  0.20525867048E+01 -0.38645769721E+01  0.18726434176E+02  0.00000000000E+00 0.  1.
         11    1    3    3    0    0  0.26399724006E+01  0.12814406627E+01  0.12899266969E+02  0.13228856075E+02  0.51100000000E-03 0. -1.
        -11    1    3    3    0    0  0.15926824754E+02 -0.11417301668E+02  0.27282153810E+01  0.19785390660E+02  0.51100000000E-03 0.  1.
         12    1    3    3    0    0 -0.36774797308E+02  0.80832743005E+01 -0.11762905378E+02  0.39447319090E+02  0.00000000000E+00 0. -1.
</event>
<event>
 7    1  0.3681059E-013  0.7246155E+02  0.7816164E-02  0.1226708E+00
        -11   -1    0    0    0    0  0.00000000000E+00  0.00000000000E+00  0.45593999997E+02  0.45594000000E+02  0.51100000000E-03 0. -1.
         11   -1    0    0    0    0 -0.00000000000E+00 -0.00000000000E+00 -0.45593999997E+02  0.45594000000E+02  0.51100000000E-03 0.  1.
    9900012    2    1    2    0    0 -0.80911961949E+01 -0.61375987533E+01 -0.15733484023E+02  0.72461545615E+02  0.69999967851E+02 0.  0.
        -12    1    1    2    0    0  0.80911961949E+01  0.61375987533E+01  0.15733484023E+02  0.18726454385E+02  0.00000000000E+00 0.  1.
         11    1    3    3    0    0 -0.94028352208E+01 -0.52791211998E+01  0.58638518244E+01  0.12274656383E+02  0.51100000000E-03 0. -1.
        -11    1    3    3    0    0  0.96500998981E+01  0.23084212710E+02  0.25811482946E+01  0.25152885148E+02  0.51100000000E-03 0.  1.
         12    1    3    3    0    0 -0.83384608722E+01 -0.23942690264E+02 -0.24178484142E+02  0.35034004084E+02  0.00000000000E+00 0. -1.
</event>
<event>
 7    1  0.3681059E-013  0.7246154E+02  0.7816164E-02  0.1226708E+00
        -11   -1    0    0    0    0  0.00000000000E+00  0.00000000000E+00  0.45593999997E+02  0.45594000000E+02  0.51100000000E-03 0.  1.
         11   -1    0    0    0    0 -0.00000000000E+00 -0.00000000000E+00 -0.45593999997E+02  0.45594000000E+02  0.51100000000E-03 0. -1.
    9900012    2    1    2    0    0 -0.57355437049E+01  0.10648439588E+01 -0.17794660928E+02  0.72461539796E+02  0.69999960270E+02 0.  0.
        -12    1    1    2    0    0  0.57355437049E+01 -0.10648439588E+01  0.17794660928E+02  0.18726460204E+02  0.00000000000E+00 0.  1.
         11    1    3    3    0    0 -0.38588198751E+01  0.24606204088E+01 -0.40597459425E+02  0.40854606297E+02  0.51100000000E-03 0. -1.
        -11    1    3    3    0    0  0.27433066418E+01  0.74307308217E+00 -0.36740504854E+01  0.46450550230E+01  0.51100000000E-03 0.  1.
        -12    1    3    3    0    0 -0.46200304716E+01 -0.21388495321E+01  0.26476848983E+02  0.26961878476E+02  0.00000000000E+00 0.  1.
</event>
<event>
 7    1  0.3681059E-013  0.7246162E+02  0.7816164E-02  0.1226708E+00
        -11   -1    0    0    0    0  0.00000000000E+00  0.00000000000E+00  0.45593999997E+02  0.45594000000E+02  0.51100000000E-03 0.  1.
         11   -1    0    0    0    0 -0.00000000000E+00 -0.00000000000E+00 -0.45593999997E+02  0.45594000000E+02  0.51100000000E-03 0. -1.
    9900012    2    1    2    0    0 -0.45698610839E+01 -0.16926521710E+02 -0.65792527859E+01  0.72461619284E+02  0.70000063818E+02 0.  0.
        -12    1    1    2    0    0  0.45698610839E+01  0.16926521710E+02  0.65792527859E+01  0.18726380716E+02  0.00000000000E+00 0.  1.
         11    1    3    3    0    0  0.11026556549E+02  0.10991430940E+02 -0.23078924540E+02  0.27839419204E+02  0.51100000000E-03 0. -1.
        -11    1    3    3    0    0 -0.14589864516E+02 -0.56207389420E+01 -0.18281329420E+01  0.15741630258E+02  0.51100000000E-03 0.  1.
        -12    1    3    3    0    0 -0.10065531168E+01 -0.22297213707E+02  0.18327804696E+02  0.28880569822E+02  0.00000000000E+00 0.  1.
</event>
<event>
 7    1  0.3681059E-013  0.7246157E+02  0.7816164E-02  0.1226708E+00
        -11   -1    0    0    0    0  0.00000000000E+00  0.00000000000E+00  0.45593999997E+02  0.45594000000E+02  0.51100000000E-03 0. -1.
         11   -1    0    0    0    0 -0.00000000000E+00 -0.00000000000E+00 -0.45593999997E+02  0.45594000000E+02  0.51100000000E-03 0.  1.
    9900012    2    1    2    0    0  0.11077383101E+02 -0.81218624111E+01  0.12728155644E+02  0.72461574514E+02  0.70000005496E+02 0.  0.
        -12    1    1    2    0    0 -0.11077383101E+02  0.81218624111E+01 -0.12728155644E+02  0.18726425486E+02  0.00000000000E+00 0.  1.
         11    1    3    3    0    0  0.25327271308E+02 -0.18259246413E+00  0.32535691677E+02  0.41231968727E+02  0.51100000000E-03 0. -1.
        -11    1    3    3    0    0 -0.77422952689E+00 -0.58073427885E+01  0.13896611561E+01  0.60212805958E+01  0.51100000000E-03 0.  1.
        -12    1    3    3    0    0 -0.13475658680E+02 -0.21319271585E+01 -0.21197197189E+02  0.25208325191E+02  0.00000000000E+00 0.  1.
</event>
<event>
 7    1  0.3681059E-013  0.7246158E+02  0.7816164E-02  0.1226708E+00
        -11   -1    0    0    0    0  0.00000000000E+00  0.00000000000E+00  0.45593999997E+02  0.45594000000E+02  0.51100000000E-03 0. -1.
         11   -1    0    0    0    0 -0.00000000000E+00 -0.00000000000E+00 -0.45593999997E+02  0.45594000000E+02  0.51100000000E-03 0.  1.
    9900012    2    1    2    0    0 -0.14982031145E+02  0.28913822508E+01  0.10856224648E+02  0.72461575831E+02  0.70000007212E+02 0.  0.
        -12    1    1    2    0    0  0.14982031145E+02 -0.28913822508E+01 -0.10856224648E+02  0.18726424169E+02  0.00000000000E+00 0.  1.
         11    1    3    3    0    0 -0.20911258889E+01  0.41300909969E+01 -0.76769174511E+01  0.89646818649E+01  0.51100000000E-03 0. -1.
        -11    1    3    3    0    0 -0.12419187490E+02  0.25187932960E+02 -0.44959057116E+01  0.28440839530E+02  0.51100000000E-03 0.  1.
         12    1    3    3    0    0 -0.47171776630E+00 -0.26426641706E+02  0.23029047811E+02  0.35056054436E+02  0.00000000000E+00 0. -1.
</event>
<event>
 7    1  0.3681059E-013  0.7246175E+02  0.7816164E-02  0.1226708E+00
        -11   -1    0    0    0    0  0.00000000000E+00  0.00000000000E+00  0.45593999997E+02  0.45594000000E+02  0.51100000000E-03 0. -1.
         11   -1    0    0    0    0 -0.00000000000E+00 -0.00000000000E+00 -0.45593999997E+02  0.45594000000E+02  0.51100000000E-03 0.  1.
    9900012    2    1    2    0    0 -0.12076110264E+01 -0.88177983328E+01  0.16476055624E+02  0.72461753693E+02  0.70000238910E+02 0.  0.
        -12    1    1    2    0    0  0.12076110264E+01  0.88177983328E+01 -0.16476055624E+02  0.18726246307E+02  0.00000000000E+00 0.  1.
         11    1    3    3    0    0  0.11943064793E+02 -0.32064271642E+01  0.12007173078E+02  0.17236304053E+02  0.51100000000E-03 0. -1.
        -11    1    3    3    0    0 -0.26942213941E+01 -0.29012937589E+02  0.51278440181E+01  0.29585539728E+02  0.51100000000E-03 0.  1.
         12    1    3    3    0    0 -0.10456454425E+02  0.23401566420E+02 -0.65896147186E+00  0.25639909912E+02  0.00000000000E+00 0. -1.
</event>
<event>
 7    1  0.3681059E-013  0.7246158E+02  0.7816164E-02  0.1226708E+00
        -11   -1    0    0    0    0  0.00000000000E+00  0.00000000000E+00  0.45593999997E+02  0.45594000000E+02  0.51100000000E-03 0.  1.
         11   -1    0    0    0    0 -0.00000000000E+00 -0.00000000000E+00 -0.45593999997E+02  0.45594000000E+02  0.51100000000E-03 0. -1.
    9900012    2    1    2    0    0 -0.38622978136E+01  0.64352388158E+01 -0.17156601971E+02  0.72461584587E+02  0.70000018619E+02 0.  0.
        -12    1    1    2    0    0  0.38622978136E+01 -0.64352388158E+01  0.17156601971E+02  0.18726415413E+02  0.00000000000E+00 0.  1.
         11    1    3    3    0    0 -0.16369843462E+02  0.28981047084E+02  0.56034608728E+01  0.33753098215E+02  0.51100000000E-03 0. -1.
        -11    1    3    3    0    0  0.33382190257E+01  0.12149707660E+01 -0.91846737797E+01  0.98477455758E+01  0.51100000000E-03 0.  1.
        -12    1    3    3    0    0  0.91693266232E+01 -0.23760779035E+02 -0.13575389065E+02  0.28860740796E+02  0.00000000000E+00 0.  1.
</event>
<event>
 7    1  0.3681059E-013  0.7246178E+02  0.7816164E-02  0.1226707E+00
        -11   -1    0    0    0    0  0.00000000000E+00  0.00000000000E+00  0.45593999997E+02  0.45594000000E+02  0.51100000000E-03 0.  1.
         11   -1    0    0    0    0 -0.00000000000E+00 -0.00000000000E+00 -0.45593999997E+02  0.45594000000E+02  0.51100000000E-03 0. -1.
    9900012    2    1    2    0    0  0.10317248833E+02  0.94771184105E+01 -0.12426183069E+02  0.72461777142E+02  0.70000269457E+02 0.  0.
        -12    1    1    2    0    0 -0.10317248833E+02 -0.94771184105E+01  0.12426183069E+02  0.18726222858E+02  0.00000000000E+00 0.  1.
         11    1    3    3    0    0 -0.24201261054E+02 -0.44301767363E+01 -0.13720882111E+02  0.28170731419E+02  0.51100000000E-03 0. -1.
        -11    1    3    3    0    0  0.91137209620E+01 -0.69015890571E+01  0.21303937131E+00  0.11434038102E+02  0.51100000000E-03 0.  1.
        -12    1    3    3    0    0  0.25404788925E+02  0.20808884204E+02  0.10816596710E+01  0.32857007621E+02  0.00000000000E+00 0.  1.
</event>
<event>
 7    1  0.3681059E-013  0.7246157E+02  0.7816164E-02  0.1226708E+00
        -11   -1    0    0    0    0  0.00000000000E+00  0.00000000000E+00  0.45593999997E+02  0.45594000000E+02  0.51100000000E-03 0. -1.
         11   -1    0    0    0    0 -0.00000000000E+00 -0.00000000000E+00 -0.45593999997E+02  0.45594000000E+02  0.51100000000E-03 0.  1.
    9900012    2    1    2    0    0  0.13990897719E+02  0.37891111787E+01  0.11856500793E+02  0.72461569653E+02  0.69999999164E+02 0.  0.
        -12    1    1    2    0    0 -0.13990897719E+02 -0.37891111787E+01 -0.11856500793E+02  0.18726430347E+02  0.00000000000E+00 0.  1.
         11    1    3    3    0    0  0.57997515293E+01  0.72684919999E+01 -0.26431225039E+01  0.96671707643E+01  0.51100000000E-03 0. -1.
        -11    1    3    3    0    0 -0.12860275192E+02 -0.10533239018E+02 -0.17312336506E+02  0.24001099929E+02  0.51100000000E-03 0.  1.
        -12    1    3    3    0    0  0.21051421382E+02  0.70538581963E+01  0.31811959803E+02  0.38793298960E+02  0.00000000000E+00 0.  1.
</event>
<event>
 7    1  0.3681059E-013  0.7246170E+02  0.7816164E-02  0.1226708E+00
        -11   -1    0    0    0    0  0.00000000000E+00  0.00000000000E+00  0.45593999997E+02  0.45594000000E+02  0.51100000000E-03 0.  1.
         11   -1    0    0    0    0 -0.00000000000E+00 -0.00000000000E+00 -0.45593999997E+02  0.45594000000E+02  0.51100000000E-03 0. -1.
    9900012    2    1    2    0    0  0.11237094126E+02 -0.40509703611E+01 -0.14421915782E+02  0.72461700310E+02  0.70000169369E+02 0.  0.
        -12    1    1    2    0    0 -0.11237094126E+02  0.40509703611E+01  0.14421915782E+02  0.18726299690E+02  0.00000000000E+00 0.  1.
         11    1    3    3    0    0 -0.26964924558E+01  0.11952719270E+02 -0.10315769722E+02  0.16017292990E+02  0.51100000000E-03 0. -1.
        -11    1    3    3    0    0  0.27276451682E+02  0.79607089024E+01 -0.56570820586E+01  0.28972060339E+02  0.51100000000E-03 0.  1.
        -12    1    3    3    0    0 -0.13342865100E+02 -0.23964398534E+02  0.15509359988E+01  0.27472346981E+02  0.00000000000E+00 0.  1.
</event>
<event>
 7    1  0.3681059E-013  0.7246158E+02  0.7816164E-02  0.1226708E+00
        -11   -1    0    0    0    0  0.00000000000E+00  0.00000000000E+00  0.45593999997E+02  0.45594000000E+02  0.51100000000E-03 0.  1.
         11   -1    0    0    0    0 -0.00000000000E+00 -0.00000000000E+00 -0.45593999997E+02  0.45594000000E+02  0.51100000000E-03 0. -1.
    9900012    2    1    2    0    0  0.13691741615E+02 -0.11473193404E+02  0.56196742418E+01  0.72461582993E+02  0.70000016542E+02 0.  0.
        -12    1    1    2    0    0 -0.13691741615E+02  0.11473193404E+02 -0.56196742418E+01  0.18726417007E+02  0.00000000000E+00 0.  1.
         11    1    3    3    0    0 -0.19297931927E+02  0.92288450423E+01  0.10843885248E+02  0.23982735562E+02  0.51100000000E-03 0. -1.
        -11    1    3    3    0    0 -0.29526329731E+01 -0.21944365004E+01  0.55332741502E+01  0.66446005230E+01  0.51100000000E-03 0.  1.
        -12    1    3    3    0    0  0.35942306516E+02 -0.18507601946E+02 -0.10757485156E+02  0.41834246908E+02  0.00000000000E+00 0.  1.
</event>
<event>
 7    1  0.3681059E-013  0.7246152E+02  0.7816164E-02  0.1226708E+00
        -11   -1    0    0    0    0  0.00000000000E+00  0.00000000000E+00  0.45593999997E+02  0.45594000000E+02  0.51100000000E-03 0. -1.
         11   -1    0    0    0    0 -0.00000000000E+00 -0.00000000000E+00 -0.45593999997E+02  0.45594000000E+02  0.51100000000E-03 0.  1.
    9900012    2    1    2    0    0 -0.94467044707E+01 -0.22450074083E+01  0.16012516505E+02  0.72461522263E+02  0.69999937430E+02 0.  0.
        -12    1    1    2    0    0  0.94467044707E+01  0.22450074083E+01 -0.16012516505E+02  0.18726477737E+02  0.00000000000E+00 0.  1.
         11    1    3    3    0    0  0.74862378537E+01 -0.47658561746E+01  0.47203110847E+01  0.10051789854E+02  0.51100000000E-03 0. -1.
        -11    1    3    3    0    0  0.89246621414E+01  0.19538179797E+02 -0.11125152910E+02  0.24190061837E+02  0.51100000000E-03 0.  1.
         12    1    3    3    0    0 -0.25857604466E+02 -0.17017331031E+02  0.22417358330E+02  0.38219670572E+02  0.00000000000E+00 0. -1.
</event>
<event>
 7    1  0.3681059E-013  0.7246090E+02  0.7816164E-02  0.1226710E+00
        -11   -1    0    0    0    0  0.00000000000E+00  0.00000000000E+00  0.45593999997E+02  0.45594000000E+02  0.51100000000E-03 0.  1.
         11   -1    0    0    0    0 -0.00000000000E+00 -0.00000000000E+00 -0.45593999997E+02  0.45594000000E+02  0.51100000000E-03 0. -1.
    9900012    2    1    2    0    0  0.17990267902E+02  0.20884479789E+01  0.47637256958E+01  0.72460895669E+02  0.69999121169E+02 0.  0.
        -12    1    1    2    0    0 -0.17990267902E+02 -0.20884479789E+01 -0.47637256958E+01  0.18727104331E+02  0.00000000000E+00 0.  1.
         11    1    3    3    0    0 -0.36290816007E+01 -0.40134436518E+01 -0.27751708482E+02  0.28274286678E+02  0.51100000000E-03 0. -1.
        -11    1    3    3    0    0 -0.20700081026E+01 -0.36402816218E+01  0.32932511397E+01  0.53274841305E+01  0.51100000000E-03 0.  1.
        -12    1    3    3    0    0  0.23689357605E+02  0.97421732525E+01  0.29222183038E+02  0.38859124860E+02  0.00000000000E+00 0.  1.
</event>
<event>
 7    1  0.3681059E-013  0.7246155E+02  0.7816164E-02  0.1226708E+00
        -11   -1    0    0    0    0  0.00000000000E+00  0.00000000000E+00  0.45593999997E+02  0.45594000000E+02  0.51100000000E-03 0.  1.
         11   -1    0    0    0    0 -0.00000000000E+00 -0.00000000000E+00 -0.45593999997E+02  0.45594000000E+02  0.51100000000E-03 0. -1.
    9900012    2    1    2    0    0  0.15805725589E+02  0.41093639543E+01 -0.91636383729E+01  0.72461545404E+02  0.69999967576E+02 0.  0.
        -12    1    1    2    0    0 -0.15805725589E+02 -0.41093639543E+01  0.91636383729E+01  0.18726454596E+02  0.00000000000E+00 0.  1.
         11    1    3    3    0    0 -0.14753070800E+01  0.79114619104E+01  0.89731829465E+01  0.12053454816E+02  0.51100000000E-03 0. -1.
        -11    1    3    3    0    0 -0.12797021424E+02  0.16596013737E+02 -0.35886508550E+01  0.21261934167E+02  0.51100000000E-03 0.  1.
         12    1    3    3    0    0  0.30078054093E+02 -0.20398111693E+02 -0.14548170464E+02  0.39146156421E+02  0.00000000000E+00 0. -1.
</event>
<event>
 7    1  0.3681059E-013  0.7246158E+02  0.7816164E-02  0.1226708E+00
        -11   -1    0    0    0    0  0.00000000000E+00  0.00000000000E+00  0.45593999997E+02  0.45594000000E+02  0.51100000000E-03 0. -1.
         11   -1    0    0    0    0 -0.00000000000E+00 -0.00000000000E+00 -0.45593999997E+02  0.45594000000E+02  0.51100000000E-03 0.  1.
    9900012    2    1    2    0    0  0.11702766861E+02  0.68781352922E+01 -0.12900200714E+02  0.72461583478E+02  0.70000017174E+02 0.  0.
        -12    1    1    2    0    0 -0.11702766861E+02 -0.68781352922E+01  0.12900200714E+02  0.18726416522E+02  0.00000000000E+00 0.  1.
         11    1    3    3    0    0  0.23335537902E+01 -0.96189685573E+01  0.43440009265E+01  0.10809272580E+02  0.51100000000E-03 0. -1.
        -11    1    3    3    0    0  0.16758387462E+02 -0.16849250854E+02 -0.88324636423E+00  0.23780683949E+02  0.51100000000E-03 0.  1.
         12    1    3    3    0    0 -0.73891743907E+01  0.33346354704E+02 -0.16360955276E+02  0.37871626949E+02  0.00000000000E+00 0. -1.
</event>
<event>
 7    1  0.3681059E-013  0.7246155E+02  0.7816164E-02  0.1226708E+00
        -11   -1    0    0    0    0  0.00000000000E+00  0.00000000000E+00  0.45593999997E+02  0.45594000000E+02  0.51100000000E-03 0.  1.
         11   -1    0    0    0    0 -0.00000000000E+00 -0.00000000000E+00 -0.45593999997E+02  0.45594000000E+02  0.51100000000E-03 0. -1.
    9900012    2    1    2    0    0 -0.13083496314E+02 -0.12916427458E+02  0.35592162052E+01  0.72461548278E+02  0.69999971320E+02 0.  0.
        -12    1    1    2    0    0  0.13083496314E+02  0.12916427458E+02 -0.35592162052E+01  0.18726451722E+02  0.00000000000E+00 0.  1.
         11    1    3    3    0    0 -0.45622676661E+01 -0.27776327584E+02  0.74584872175E+01  0.29119884824E+02  0.51100000000E-03 0. -1.
        -11    1    3    3    0    0 -0.53194219103E+01  0.84092578923E+01  0.17847263702E+02  0.20433714535E+02  0.51100000000E-03 0.  1.
         12    1    3    3    0    0 -0.32018067379E+01  0.64506422336E+01 -0.21746534715E+02  0.22907948920E+02  0.00000000000E+00 0. -1.
</event>
<event>
 7    1  0.3681059E-013  0.7246149E+02  0.7816164E-02  0.1226708E+00
        -11   -1    0    0    0    0  0.00000000000E+00  0.00000000000E+00  0.45593999997E+02  0.45594000000E+02  0.51100000000E-03 0.  1.
         11   -1    0    0    0    0 -0.00000000000E+00 -0.00000000000E+00 -0.45593999997E+02  0.45594000000E+02  0.51100000000E-03 0. -1.
    9900012    2    1    2    0    0 -0.11256819084E+02  0.86413192682E+01 -0.12218582910E+02  0.72461490904E+02  0.69999896579E+02 0.  0.
        -12    1    1    2    0    0  0.11256819084E+02 -0.86413192682E+01  0.12218582910E+02  0.18726509096E+02  0.00000000000E+00 0.  1.
         11    1    3    3    0    0 -0.54790209745E+01  0.24107828168E+02 -0.31381337447E+02  0.39949911014E+02  0.51100000000E-03 0. -1.
        -11    1    3    3    0    0  0.26976275736E+01  0.37374153019E+01  0.91799758561E+00  0.46998071761E+01  0.51100000000E-03 0.  1.
        -12    1    3    3    0    0 -0.84754256834E+01 -0.19203924202E+02  0.18244756951E+02  0.27811772713E+02  0.00000000000E+00 0.  1.
</event>
<event>
 7    1  0.3681059E-013  0.7246161E+02  0.7816164E-02  0.1226708E+00
        -11   -1    0    0    0    0  0.00000000000E+00  0.00000000000E+00  0.45593999997E+02  0.45594000000E+02  0.51100000000E-03 0.  1.
         11   -1    0    0    0    0 -0.00000000000E+00 -0.00000000000E+00 -0.45593999997E+02  0.45594000000E+02  0.51100000000E-03 0. -1.
    9900012    2    1    2    0    0  0.35041613749E+01  0.64846913829E-01 -0.18395496949E+02  0.72461610597E+02  0.70000052502E+02 0.  0.
        -12    1    1    2    0    0 -0.35041613749E+01 -0.64846913829E-01  0.18395496949E+02  0.18726389403E+02  0.00000000000E+00 0.  1.
         11    1    3    3    0    0 -0.16932413308E+02  0.58957042208E+01 -0.91714749525E+01  0.20139064074E+02  0.51100000000E-03 0. -1.
        -11    1    3    3    0    0  0.84933538197E+01 -0.11893073276E+02 -0.26619964760E+02  0.30367824669E+02  0.51100000000E-03 0.  1.
        -12    1    3    3    0    0  0.11943220864E+02  0.60622159695E+01  0.17395942763E+02  0.21954721854E+02  0.00000000000E+00 0.  1.
</event>
<event>
 7    1  0.3681059E-013  0.7246127E+02  0.7816164E-02  0.1226709E+00
        -11   -1    0    0    0    0  0.00000000000E+00  0.00000000000E+00  0.45593999997E+02  0.45594000000E+02  0.51100000000E-03 0.  1.
         11   -1    0    0    0    0 -0.00000000000E+00 -0.00000000000E+00 -0.45593999997E+02  0.45594000000E+02  0.51100000000E-03 0. -1.
    9900012    2    1    2    0    0  0.14244917364E+02 -0.11449376188E+02 -0.40846702680E+01  0.72461269986E+02  0.69999608792E+02 0.  0.
        -12    1    1    2    0    0 -0.14244917364E+02  0.11449376188E+02  0.40846702680E+01  0.18726730014E+02  0.00000000000E+00 0.  1.
         11    1    3    3    0    0  0.10155753902E+02 -0.34994025495E+01 -0.28216154848E+02  0.30191663588E+02  0.51100000000E-03 0. -1.
        -11    1    3    3    0    0 -0.44765780676E+01 -0.10294409808E+02 -0.46489117447E+01  0.12150185396E+02  0.51100000000E-03 0.  1.
        -12    1    3    3    0    0  0.85657415295E+01  0.23444361695E+01  0.28780396325E+02  0.30119421002E+02  0.00000000000E+00 0.  1.
</event>
<event>
 7    1  0.3681059E-013  0.7246157E+02  0.7816164E-02  0.1226708E+00
        -11   -1    0    0    0    0  0.00000000000E+00  0.00000000000E+00  0.45593999997E+02  0.45594000000E+02  0.51100000000E-03 0. -1.
         11   -1    0    0    0    0 -0.00000000000E+00 -0.00000000000E+00 -0.45593999997E+02  0.45594000000E+02  0.51100000000E-03 0.  1.
    9900012    2    1    2    0    0 -0.48145495867E+01 -0.14874423431E+02  0.10307808413E+02  0.72461567494E+02  0.69999996352E+02 0.  0.
        -12    1    1    2    0    0  0.48145495867E+01  0.14874423431E+02 -0.10307808413E+02  0.18726432506E+02  0.00000000000E+00 0.  1.
         11    1    3    3    0    0 -0.10202872664E+02 -0.42791043403E+01 -0.38818469411E+01  0.11725104711E+02  0.51100000000E-03 0. -1.
        -11    1    3    3    0    0 -0.26256678274E+02 -0.53171144473E+01  0.88457774004E+01  0.28212278145E+02  0.51100000000E-03 0.  1.
         12    1    3    3    0    0  0.31645001351E+02 -0.52782046437E+01  0.53438779536E+01  0.32524184638E+02  0.00000000000E+00 0. -1.
</event>
<event>
 7    1  0.3681059E-013  0.7246160E+02  0.7816164E-02  0.1226708E+00
        -11   -1    0    0    0    0  0.00000000000E+00  0.00000000000E+00  0.45593999997E+02  0.45594000000E+02  0.51100000000E-03 0.  1.
         11   -1    0    0    0    0 -0.00000000000E+00 -0.00000000000E+00 -0.45593999997E+02  0.45594000000E+02  0.51100000000E-03 0. -1.
    9900012    2    1    2    0    0  0.18109172601E+02 -0.35469749447E+01 -0.31866583347E+01  0.72461602725E+02  0.70000042247E+02 0.  0.
        -12    1    1    2    0    0 -0.18109172601E+02  0.35469749447E+01  0.31866583347E+01  0.18726397275E+02  0.00000000000E+00 0.  1.
         11    1    3    3    0    0  0.42284123706E+00  0.25947020510E+02  0.15123385952E+00  0.25950906343E+02  0.51100000000E-03 0. -1.
        -11    1    3    3    0    0  0.18554676467E+02 -0.18637789117E+01  0.14261115988E+00  0.18648593213E+02  0.51100000000E-03 0.  1.
        -12    1    3    3    0    0 -0.86834510276E+00 -0.27630216543E+02 -0.34805033541E+01  0.27862103170E+02  0.00000000000E+00 0.  1.
</event>
<event>
 7    1  0.3681059E-013  0.7246163E+02  0.7816164E-02  0.1226708E+00
        -11   -1    0    0    0    0  0.00000000000E+00  0.00000000000E+00  0.45593999997E+02  0.45594000000E+02  0.51100000000E-03 0.  1.
         11   -1    0    0    0    0 -0.00000000000E+00 -0.00000000000E+00 -0.45593999997E+02  0.45594000000E+02  0.51100000000E-03 0. -1.
    9900012    2    1    2    0    0 -0.27783665198E+00 -0.17384364782E+02  0.69558356810E+01  0.72461628699E+02  0.70000076083E+02 0.  0.
        -12    1    1    2    0    0  0.27783665198E+00  0.17384364782E+02 -0.69558356810E+01  0.18726371301E+02  0.00000000000E+00 0.  1.
         11    1    3    3    0    0  0.56578881298E+01 -0.88112827040E+01 -0.17071978365E+02  0.20027552186E+02  0.51100000000E-03 0. -1.
        -11    1    3    3    0    0 -0.94761245266E+00  0.17887654139E+02  0.27661946042E+01  0.18125064767E+02  0.51100000000E-03 0.  1.
         12    1    3    3    0    0 -0.49881123291E+01 -0.26460736217E+02  0.21261619442E+02  0.34309011747E+02  0.00000000000E+00 0. -1.
</event>
<event>
 7    1  0.3681059E-013  0.7246163E+02  0.7816164E-02  0.1226708E+00
        -11   -1    0    0    0    0  0.00000000000E+00  0.00000000000E+00  0.45593999997E+02  0.45594000000E+02  0.51100000000E-03 0.  1.
         11   -1    0    0    0    0 -0.00000000000E+00 -0.00000000000E+00 -0.45593999997E+02  0.45594000000E+02  0.51100000000E-03 0. -1.
    9900012    2    1    2    0    0 -0.98398936592E+01 -0.28768450432E+01 -0.15670898949E+02  0.72461633067E+02  0.70000081773E+02 0.  0.
        -12    1    1    2    0    0  0.98398936592E+01  0.28768450432E+01  0.15670898949E+02  0.18726366933E+02  0.00000000000E+00 0.  1.
         11    1    3    3    0    0  0.52897243155E+01 -0.21250600344E+01 -0.58822888570E+00  0.57308879737E+01  0.51100000000E-03 0. -1.
        -11    1    3    3    0    0  0.22031709921E+02  0.60007660962E+01 -0.17669496380E+02  0.28872418298E+02  0.51100000000E-03 0.  1.
        -12    1    3    3    0    0 -0.37161327895E+02 -0.67525511050E+01  0.25868263161E+01  0.37858326796E+02  0.00000000000E+00 0.  1.
</event>
<event>
 7    1  0.3681059E-013  0.7246161E+02  0.7816164E-02  0.1226708E+00
        -11   -1    0    0    0    0  0.00000000000E+00  0.00000000000E+00  0.45593999997E+02  0.45594000000E+02  0.51100000000E-03 0. -1.
         11   -1    0    0    0    0 -0.00000000000E+00 -0.00000000000E+00 -0.45593999997E+02  0.45594000000E+02  0.51100000000E-03 0.  1.
    9900012    2    1    2    0    0  0.41936570206E+01  0.17510588683E+02 -0.51449058294E+01  0.72461614037E+02  0.70000056983E+02 0.  0.
        -12    1    1    2    0    0 -0.41936570206E+01 -0.17510588683E+02  0.51449058294E+01  0.18726385963E+02  0.00000000000E+00 0.  1.
         11    1    3    3    0    0  0.27661571690E+02  0.81144099297E+01 -0.79781904836E+01  0.29910829486E+02  0.51100000000E-03 0. -1.
        -11    1    3    3    0    0  0.60350261079E+01  0.59169038908E+01 -0.72946979919E+01  0.11164403738E+02  0.51100000000E-03 0.  1.
        -12    1    3    3    0    0 -0.29502940777E+02  0.34792748628E+01  0.10127982646E+02  0.31386380813E+02  0.00000000000E+00 0.  1.
</event>
<event>
 7    1  0.3681059E-013  0.7246156E+02  0.7816164E-02  0.1226708E+00
        -11   -1    0    0    0    0  0.00000000000E+00  0.00000000000E+00  0.45593999997E+02  0.45594000000E+02  0.51100000000E-03 0. -1.
         11   -1    0    0    0    0 -0.00000000000E+00 -0.00000000000E+00 -0.45593999997E+02  0.45594000000E+02  0.51100000000E-03 0.  1.
    9900012    2    1    2    0    0  0.96714426893E+00 -0.18697738347E+02  0.37254202247E+00  0.72461559471E+02  0.69999985900E+02 0.  0.
        -12    1    1    2    0    0 -0.96714426893E+00  0.18697738347E+02 -0.37254202247E+00  0.18726440529E+02  0.00000000000E+00 0.  1.
         11    1    3    3    0    0  0.36505134261E+01  0.47008929918E+01 -0.40936741371E+01  0.72237671194E+01  0.51100000000E-03 0. -1.
        -11    1    3    3    0    0 -0.11817749244E+02 -0.39083178943E+02 -0.99884553020E+01  0.42034786939E+02  0.51100000000E-03 0.  1.
         12    1    3    3    0    0  0.91343800865E+01  0.15684547604E+02  0.14454671461E+02  0.23203005412E+02  0.00000000000E+00 0. -1.
</event>
<event>
 7    1  0.3681059E-013  0.7246157E+02  0.7816164E-02  0.1226708E+00
        -11   -1    0    0    0    0  0.00000000000E+00  0.00000000000E+00  0.45593999997E+02  0.45594000000E+02  0.51100000000E-03 0. -1.
         11   -1    0    0    0    0 -0.00000000000E+00 -0.00000000000E+00 -0.45593999997E+02  0.45594000000E+02  0.51100000000E-03 0.  1.
    9900012    2    1    2    0    0 -0.18467013435E+02 -0.25494744453E+01  0.17744381076E+01  0.72461573866E+02  0.70000004653E+02 0.  0.
        -12    1    1    2    0    0  0.18467013435E+02  0.25494744453E+01 -0.17744381076E+01  0.18726426134E+02  0.00000000000E+00 0.  1.
         11    1    3    3    0    0 -0.84613883853E+01 -0.15161031344E+02 -0.44332369676E+01  0.17919418380E+02  0.51100000000E-03 0. -1.
        -11    1    3    3    0    0 -0.15284855943E+02  0.21920850213E+02 -0.15102331816E+02  0.30695780195E+02  0.51100000000E-03 0.  1.
         12    1    3    3    0    0  0.52792308930E+01 -0.93092933139E+01  0.21310006891E+02  0.23846375291E+02  0.00000000000E+00 0. -1.
</event>
<event>
 7    1  0.3681059E-013  0.7246160E+02  0.7816164E-02  0.1226708E+00
        -11   -1    0    0    0    0  0.00000000000E+00  0.00000000000E+00  0.45593999997E+02  0.45594000000E+02  0.51100000000E-03 0.  1.
         11   -1    0    0    0    0 -0.00000000000E+00 -0.00000000000E+00 -0.45593999997E+02  0.45594000000E+02  0.51100000000E-03 0. -1.
    9900012    2    1    2    0    0  0.10935387151E+02 -0.89334554252E+01 -0.12299952296E+02  0.72461597664E+02  0.70000035654E+02 0.  0.
        -12    1    1    2    0    0 -0.10935387151E+02  0.89334554252E+01  0.12299952296E+02  0.18726402336E+02  0.00000000000E+00 0.  1.
         11    1    3    3    0    0 -0.11896724886E+02 -0.14839871251E+02 -0.30586988597E+02  0.36018296927E+02  0.51100000000E-03 0. -1.
        -11    1    3    3    0    0  0.21459224524E+01 -0.50671932216E+01 -0.15899476038E+01  0.57279458762E+01  0.51100000000E-03 0.  1.
        -12    1    3    3    0    0  0.20686189585E+02  0.10973609048E+02  0.19876983905E+02  0.30715354861E+02  0.00000000000E+00 0.  1.
</event>
<event>
 7    1  0.3681059E-013  0.7246157E+02  0.7816164E-02  0.1226708E+00
        -11   -1    0    0    0    0  0.00000000000E+00  0.00000000000E+00  0.45593999997E+02  0.45594000000E+02  0.51100000000E-03 0.  1.
         11   -1    0    0    0    0 -0.00000000000E+00 -0.00000000000E+00 -0.45593999997E+02  0.45594000000E+02  0.51100000000E-03 0. -1.
    9900012    2    1    2    0    0 -0.38636103364E+01 -0.28412278741E+01 -0.18101910803E+02  0.72461568536E+02  0.69999997710E+02 0.  0.
        -12    1    1    2    0    0  0.38636103364E+01  0.28412278741E+01  0.18101910803E+02  0.18726431464E+02  0.00000000000E+00 0.  1.
         11    1    3    3    0    0  0.12291424117E+02 -0.35185500104E+01 -0.11965078319E+02  0.17510636779E+02  0.51100000000E-03 0. -1.
        -11    1    3    3    0    0 -0.22198638121E+02  0.22702766791E+02 -0.42156156304E+01  0.32030712915E+02  0.51100000000E-03 0.  1.
         12    1    3    3    0    0  0.60436036686E+01 -0.22025444655E+02 -0.19212168535E+01  0.22920218842E+02  0.00000000000E+00 0. -1.
</event>
<event>
 7    1  0.3681059E-013  0.7246156E+02  0.7816164E-02  0.1226708E+00
        -11   -1    0    0    0    0  0.00000000000E+00  0.00000000000E+00  0.45593999997E+02  0.45594000000E+02  0.51100000000E-03 0.  1.
         11   -1    0    0    0    0 -0.00000000000E+00 -0.00000000000E+00 -0.45593999997E+02  0.45594000000E+02  0.51100000000E-03 0. -1.
    9900012    2    1    2    0    0  0.38139384319E+01 -0.15311974241E+02  0.10083497830E+02  0.72461558534E+02  0.69999984680E+02 0.  0.
        -12    1    1    2    0    0 -0.38139384319E+01  0.15311974241E+02 -0.10083497830E+02  0.18726441466E+02  0.00000000000E+00 0.  1.
         11    1    3    3    0    0 -0.37350649135E+01 -0.53114703290E+01  0.26439878483E+02  0.27225532161E+02  0.51100000000E-03 0. -1.
        -11    1    3    3    0    0 -0.11913319004E+02  0.68653848096E+01  0.15969504384E+01  0.13842359959E+02  0.51100000000E-03 0.  1.
         12    1    3    3    0    0  0.19462322350E+02 -0.16865888721E+02 -0.17953331092E+02  0.31393666414E+02  0.00000000000E+00 0. -1.
</event>
<event>
 7    1  0.3681059E-013  0.7246174E+02  0.7816164E-02  0.1226708E+00
        -11   -1    0    0    0    0  0.00000000000E+00  0.00000000000E+00  0.45593999997E+02  0.45594000000E+02  0.51100000000E-03 0.  1.
         11   -1    0    0    0    0 -0.00000000000E+00 -0.00000000000E+00 -0.45593999997E+02  0.45594000000E+02  0.51100000000E-03 0. -1.
    9900012    2    1    2    0    0  0.68565203346E+01 -0.56439249649E+01 -0.16486576927E+02  0.72461735587E+02  0.70000215323E+02 0.  0.
        -12    1    1    2    0    0 -0.68565203346E+01  0.56439249649E+01  0.16486576927E+02  0.18726264413E+02  0.00000000000E+00 0.  1.
         11    1    3    3    0    0 -0.17551676129E+02  0.50144037922E+01 -0.62466994777E+01  0.19293181048E+02  0.51100000000E-03 0. -1.
        -11    1    3    3    0    0  0.17184064086E+02  0.10524314981E+02 -0.20324684061E+02  0.28620727572E+02  0.51100000000E-03 0.  1.
        -12    1    3    3    0    0  0.72241323781E+01 -0.21182643738E+02  0.10084806612E+02  0.24547826966E+02  0.00000000000E+00 0.  1.
</event>
<event>
 7    1  0.3681059E-013  0.7246164E+02  0.7816164E-02  0.1226708E+00
        -11   -1    0    0    0    0  0.00000000000E+00  0.00000000000E+00  0.45593999997E+02  0.45594000000E+02  0.51100000000E-03 0. -1.
         11   -1    0    0    0    0 -0.00000000000E+00 -0.00000000000E+00 -0.45593999997E+02  0.45594000000E+02  0.51100000000E-03 0.  1.
    9900012    2    1    2    0    0 -0.18114860362E+02 -0.44275314025E+01 -0.17103239797E+01  0.72461644018E+02  0.70000096038E+02 0.  0.
        -12    1    1    2    0    0  0.18114860362E+02  0.44275314025E+01  0.17103239797E+01  0.18726355982E+02  0.00000000000E+00 0.  1.
         11    1    3    3    0    0  0.73271566743E+01 -0.28816587014E+02 -0.57949871883E+01  0.30292982502E+02  0.51100000000E-03 0. -1.
        -11    1    3    3    0    0 -0.12917129169E+02 -0.16426520601E+01  0.21845307871E+00  0.13022989432E+02  0.51100000000E-03 0.  1.
        -12    1    3    3    0    0 -0.12524887868E+02  0.26031707672E+02  0.38662101299E+01  0.29145672083E+02  0.00000000000E+00 0.  1.
</event>
<event>
 7    1  0.3681059E-013  0.7246158E+02  0.7816164E-02  0.1226708E+00
        -11   -1    0    0    0    0  0.00000000000E+00  0.00000000000E+00  0.45593999997E+02  0.45594000000E+02  0.51100000000E-03 0.  1.
         11   -1    0    0    0    0 -0.00000000000E+00 -0.00000000000E+00 -0.45593999997E+02  0.45594000000E+02  0.51100000000E-03 0. -1.
    9900012    2    1    2    0    0  0.14901989074E+01 -0.20334221848E+01 -0.18555945751E+02  0.72461584932E+02  0.70000019069E+02 0.  0.
        -12    1    1    2    0    0 -0.14901989074E+01  0.20334221848E+01  0.18555945751E+02  0.18726415068E+02  0.00000000000E+00 0.  1.
         11    1    3    3    0    0 -0.43840986197E+01  0.75894398037E+01 -0.83375885924E-02  0.87647011939E+01  0.51100000000E-03 0. -1.
        -11    1    3    3    0    0 -0.24501765416E+01 -0.16071689780E+02  0.18822537306E+02  0.24871479417E+02  0.51100000000E-03 0.  1.
         12    1    3    3    0    0  0.83244740687E+01  0.64488277915E+01 -0.37370145469E+02  0.38825404322E+02  0.00000000000E+00 0. -1.
</event>
<event>
 7    1  0.3681059E-013  0.7246159E+02  0.7816164E-02  0.1226708E+00
        -11   -1    0    0    0    0  0.00000000000E+00  0.00000000000E+00  0.45593999997E+02  0.45594000000E+02  0.51100000000E-03 0.  1.
         11   -1    0    0    0    0 -0.00000000000E+00 -0.00000000000E+00 -0.45593999997E+02  0.45594000000E+02  0.51100000000E-03 0. -1.
    9900012    2    1    2    0    0 -0.42553495944E+01  0.30636807739E+01 -0.17977323790E+02  0.72461593225E+02  0.70000029871E+02 0.  0.
        -12    1    1    2    0    0  0.42553495944E+01 -0.30636807739E+01  0.17977323790E+02  0.18726406775E+02  0.00000000000E+00 0.  1.
         11    1    3    3    0    0 -0.14181082210E+02  0.23205481258E+01  0.31091978041E+01  0.14702215734E+02  0.51100000000E-03 0. -1.
        -11    1    3    3    0    0 -0.13435821865E+02 -0.18862064491E+02 -0.10990416093E+02  0.25633728410E+02  0.51100000000E-03 0.  1.
         12    1    3    3    0    0  0.23361554480E+02  0.19605197139E+02 -0.10096105501E+02  0.32125649081E+02  0.00000000000E+00 0. -1.
</event>
<event>
 7    1  0.3681059E-013  0.7246153E+02  0.7816164E-02  0.1226708E+00
        -11   -1    0    0    0    0  0.00000000000E+00  0.00000000000E+00  0.45593999997E+02  0.45594000000E+02  0.51100000000E-03 0. -1.
         11   -1    0    0    0    0 -0.00000000000E+00 -0.00000000000E+00 -0.45593999997E+02  0.45594000000E+02  0.51100000000E-03 0.  1.
    9900012    2    1    2    0    0  0.26789256413E+01  0.13410506031E+02 -0.12793059860E+02  0.72461529559E+02  0.69999946935E+02 0.  0.
        -12    1    1    2    0    0 -0.26789256413E+01 -0.13410506031E+02  0.12793059860E+02  0.18726470441E+02  0.00000000000E+00 0.  1.
         11    1    3    3    0    0  0.46864622391E+00 -0.12108558537E+02  0.12268743093E+02  0.17244096858E+02  0.51100000000E-03 0. -1.
        -11    1    3    3    0    0  0.17699279551E+02  0.19491716941E+02 -0.27894383993E+02  0.38357374578E+02  0.51100000000E-03 0.  1.
         12    1    3    3    0    0 -0.15489000134E+02  0.60273476262E+01  0.28325810403E+01  0.16860058123E+02  0.00000000000E+00 0. -1.
</event>
<event>
 7    1  0.3681059E-013  0.7246157E+02  0.7816164E-02  0.1226708E+00
        -11   -1    0    0    0    0  0.00000000000E+00  0.00000000000E+00  0.45593999997E+02  0.45594000000E+02  0.51100000000E-03 0. -1.
         11   -1    0    0    0    0 -0.00000000000E+00 -0.00000000000E+00 -0.45593999997E+02  0.45594000000E+02  0.51100000000E-03 0.  1.
    9900012    2    1    2    0    0  0.10103282250E+02 -0.39816630816E+01  0.15256116142E+02  0.72461573943E+02  0.70000004753E+02 0.  0.
        -12    1    1    2    0    0 -0.10103282250E+02  0.39816630816E+01 -0.15256116142E+02  0.18726426057E+02  0.00000000000E+00 0.  1.
         11    1    3    3    0    0 -0.37681598743E+01 -0.70247572726E+01 -0.73327229866E+01  0.10831208161E+02  0.51100000000E-03 0.  1.
        -11    1    3    3    0    0 -0.25507859417E+01 -0.59721204581E+01 -0.16801027332E+02  0.18012419365E+02  0.51100000000E-03 0. -1.
         12    1    3    3    0    0  0.16422228066E+02  0.90152146491E+01  0.39389866461E+02  0.43617946417E+02  0.00000000000E+00 0. -1.
</event>
<event>
 7    1  0.3681059E-013  0.7246169E+02  0.7816164E-02  0.1226708E+00
        -11   -1    0    0    0    0  0.00000000000E+00  0.00000000000E+00  0.45593999997E+02  0.45594000000E+02  0.51100000000E-03 0.  1.
         11   -1    0    0    0    0 -0.00000000000E+00 -0.00000000000E+00 -0.45593999997E+02  0.45594000000E+02  0.51100000000E-03 0. -1.
    9900012    2    1    2    0    0 -0.84397636251E+01  0.15792699846E+02 -0.54804855240E+01  0.72461689630E+02  0.70000155457E+02 0.  0.
        -12    1    1    2    0    0  0.84397636251E+01 -0.15792699846E+02  0.54804855240E+01  0.18726310370E+02  0.00000000000E+00 0.  1.
         11    1    3    3    0    0 -0.15560003505E+02 -0.32124776763E+01  0.42833869351E+01  0.16455428460E+02  0.51100000000E-03 0. -1.
        -11    1    3    3    0    0 -0.87627531435E+01 -0.13787390131E+02 -0.10750497492E+02  0.19556358707E+02  0.51100000000E-03 0.  1.
        -12    1    3    3    0    0  0.15882993023E+02  0.32792567653E+02  0.98662503298E+00  0.36449902464E+02  0.00000000000E+00 0.  1.
</event>
<event>
 7    1  0.3681059E-013  0.7246153E+02  0.7816164E-02  0.1226708E+00
        -11   -1    0    0    0    0  0.00000000000E+00  0.00000000000E+00  0.45593999997E+02  0.45594000000E+02  0.51100000000E-03 0.  1.
         11   -1    0    0    0    0 -0.00000000000E+00 -0.00000000000E+00 -0.45593999997E+02  0.45594000000E+02  0.51100000000E-03 0. -1.
    9900012    2    1    2    0    0 -0.17055798389E+02 -0.74557486646E+01 -0.20474621036E+01  0.72461533491E+02  0.69999952057E+02 0.  0.
        -12    1    1    2    0    0  0.17055798389E+02  0.74557486646E+01  0.20474621036E+01  0.18726466509E+02  0.00000000000E+00 0.  1.
         11    1    3    3    0    0  0.21185386111E+01  0.19487772239E+01  0.38844029435E+01  0.48347207782E+01  0.51100000000E-03 0. -1.
        -11    1    3    3    0    0  0.17790193062E+01  0.17810755594E+02  0.18295299482E+02  0.25595036783E+02  0.51100000000E-03 0.  1.
         12    1    3    3    0    0 -0.20953356307E+02 -0.27215281482E+02 -0.24227164529E+02  0.42031775930E+02  0.00000000000E+00 0. -1.
</event>
<event>
 7    1  0.3681059E-013  0.7246168E+02  0.7816164E-02  0.1226708E+00
        -11   -1    0    0    0    0  0.00000000000E+00  0.00000000000E+00  0.45593999997E+02  0.45594000000E+02  0.51100000000E-03 0.  1.
         11   -1    0    0    0    0 -0.00000000000E+00 -0.00000000000E+00 -0.45593999997E+02  0.45594000000E+02  0.51100000000E-03 0. -1.
    9900012    2    1    2    0    0  0.12317843841E+02  0.36972946795E+01 -0.13611601469E+02  0.72461682706E+02  0.70000146437E+02 0.  0.
        -12    1    1    2    0    0 -0.12317843841E+02 -0.36972946795E+01  0.13611601469E+02  0.18726317294E+02  0.00000000000E+00 0.  1.
         11    1    3    3    0    0 -0.17705064609E+01  0.29469234282E+02 -0.20814693457E+02  0.36122318949E+02  0.51100000000E-03 0.  1.
        -11    1    3    3    0    0  0.98868692340E+01 -0.66401216061E+01 -0.53691606744E+01  0.13064045499E+02  0.51100000000E-03 0. -1.
        -12    1    3    3    0    0  0.42014810682E+01 -0.19131817996E+02  0.12572252662E+02  0.23275318258E+02  0.00000000000E+00 0.  1.
</event>
<event>
 7    1  0.3681059E-013  0.7246165E+02  0.7816164E-02  0.1226708E+00
        -11   -1    0    0    0    0  0.00000000000E+00  0.00000000000E+00  0.45593999997E+02  0.45594000000E+02  0.51100000000E-03 0.  1.
         11   -1    0    0    0    0 -0.00000000000E+00 -0.00000000000E+00 -0.45593999997E+02  0.45594000000E+02  0.51100000000E-03 0. -1.
    9900012    2    1    2    0    0 -0.73379601236E+00 -0.75910425025E+01 -0.17103038814E+02  0.72461646390E+02  0.70000099129E+02 0.  0.
        -12    1    1    2    0    0  0.73379601236E+00  0.75910425025E+01  0.17103038814E+02  0.18726353610E+02  0.00000000000E+00 0.  1.
         11    1    3    3    0    0  0.66233383411E+01  0.66204787294E+01  0.62702903511E+01  0.11270132685E+02  0.51100000000E-03 0. -1.
        -11    1    3    3    0    0 -0.25661365465E+02  0.36156696313E+01  0.92534183495E+00  0.25931351723E+02  0.51100000000E-03 0.  1.
         12    1    3    3    0    0  0.18304231111E+02 -0.17827190863E+02 -0.24298671000E+02  0.35260161982E+02  0.00000000000E+00 0. -1.
</event>
<event>
 7    1  0.3681059E-013  0.7246156E+02  0.7816164E-02  0.1226708E+00
        -11   -1    0    0    0    0  0.00000000000E+00  0.00000000000E+00  0.45593999997E+02  0.45594000000E+02  0.51100000000E-03 0.  1.
         11   -1    0    0    0    0 -0.00000000000E+00 -0.00000000000E+00 -0.45593999997E+02  0.45594000000E+02  0.51100000000E-03 0. -1.
    9900012    2    1    2    0    0  0.47630775598E+01  0.15477655512E+02 -0.94039826669E+01  0.72461558320E+02  0.69999984402E+02 0.  0.
        -12    1    1    2    0    0 -0.47630775598E+01 -0.15477655512E+02  0.94039826669E+01  0.18726441680E+02  0.00000000000E+00 0.  1.
         11    1    3    3    0    0 -0.19164295615E+01 -0.66839799579E+01  0.10694065836E+02  0.12755835320E+02  0.51100000000E-03 0. -1.
        -11    1    3    3    0    0  0.28859564693E+02  0.10281224631E+02 -0.14660882971E+02  0.33963503116E+02  0.51100000000E-03 0.  1.
        -12    1    3    3    0    0 -0.22180057571E+02  0.11880410839E+02 -0.54371655315E+01  0.25742219884E+02  0.00000000000E+00 0.  1.
</event>
<event>
 7    1  0.3681059E-013  0.7246105E+02  0.7816164E-02  0.1226709E+00
        -11   -1    0    0    0    0  0.00000000000E+00  0.00000000000E+00  0.45593999997E+02  0.45594000000E+02  0.51100000000E-03 0. -1.
         11   -1    0    0    0    0 -0.00000000000E+00 -0.00000000000E+00 -0.45593999997E+02  0.45594000000E+02  0.51100000000E-03 0.  1.
    9900012    2    1    2    0    0 -0.16562127414E+02  0.25548214317E+01  0.83586695302E+01  0.72461053283E+02  0.69999326493E+02 0.  0.
        -12    1    1    2    0    0  0.16562127414E+02 -0.25548214317E+01 -0.83586695302E+01  0.18726946717E+02  0.00000000000E+00 0.  1.
         11    1    3    3    0    0  0.80135120474E+01 -0.13913125100E+02  0.27868964519E+02  0.32163187171E+02  0.51100000000E-03 0. -1.
        -11    1    3    3    0    0 -0.99947804221E+01 -0.22506522921E+01 -0.11760365899E+01  0.10312329211E+02  0.51100000000E-03 0.  1.
        -12    1    3    3    0    0 -0.14580859039E+02  0.18718598824E+02 -0.18334258399E+02  0.29985536902E+02  0.00000000000E+00 0.  1.
</event>
<event>
 7    1  0.3681059E-013  0.7246157E+02  0.7816164E-02  0.1226708E+00
        -11   -1    0    0    0    0  0.00000000000E+00  0.00000000000E+00  0.45593999997E+02  0.45594000000E+02  0.51100000000E-03 0. -1.
         11   -1    0    0    0    0 -0.00000000000E+00 -0.00000000000E+00 -0.45593999997E+02  0.45594000000E+02  0.51100000000E-03 0.  1.
    9900012    2    1    2    0    0  0.14787883889E+02 -0.56258178128E+01  0.10017373446E+02  0.72461571970E+02  0.70000002183E+02 0.  0.
        -12    1    1    2    0    0 -0.14787883889E+02  0.56258178128E+01 -0.10017373446E+02  0.18726428030E+02  0.00000000000E+00 0.  1.
         11    1    3    3    0    0  0.18745668696E+01  0.11074000714E+02  0.10353249698E+02  0.15275381250E+02  0.51100000000E-03 0. -1.
        -11    1    3    3    0    0  0.14661281142E+02  0.12219722609E+02 -0.15406811671E+02  0.24528445354E+02  0.51100000000E-03 0.  1.
        -12    1    3    3    0    0 -0.17479641220E+01 -0.28919541135E+02  0.15070935420E+02  0.32657745367E+02  0.00000000000E+00 0.  1.
</event>
<event>
 7    1  0.3681059E-013  0.7246157E+02  0.7816164E-02  0.1226708E+00
        -11   -1    0    0    0    0  0.00000000000E+00  0.00000000000E+00  0.45593999997E+02  0.45594000000E+02  0.51100000000E-03 0.  1.
         11   -1    0    0    0    0 -0.00000000000E+00 -0.00000000000E+00 -0.45593999997E+02  0.45594000000E+02  0.51100000000E-03 0. -1.
    9900012    2    1    2    0    0 -0.11437621837E+02  0.36569785060E+01 -0.14369633737E+02  0.72461573250E+02  0.70000003850E+02 0.  0.
        -12    1    1    2    0    0  0.11437621837E+02 -0.36569785060E+01  0.14369633737E+02  0.18726426750E+02  0.00000000000E+00 0.  1.
         11    1    3    3    0    0  0.94630611671E+01  0.10202176999E+02 -0.28208039881E+02  0.31453576209E+02  0.51100000000E-03 0. -1.
        -11    1    3    3    0    0  0.60413988820E+01  0.39501098078E+01 -0.26899953731E+01  0.77031125731E+01  0.51100000000E-03 0.  1.
        -12    1    3    3    0    0 -0.26942081886E+02 -0.10495308301E+02  0.16528401517E+02  0.33304884468E+02  0.00000000000E+00 0.  1.
</event>
<event>
 7    1  0.3681059E-013  0.7246160E+02  0.7816164E-02  0.1226708E+00
        -11   -1    0    0    0    0  0.00000000000E+00  0.00000000000E+00  0.45593999997E+02  0.45594000000E+02  0.51100000000E-03 0.  1.
         11   -1    0    0    0    0 -0.00000000000E+00 -0.00000000000E+00 -0.45593999997E+02  0.45594000000E+02  0.51100000000E-03 0. -1.
    9900012    2    1    2    0    0 -0.23533676182E+01  0.16427030609E+02  0.86771219789E+01  0.72461598327E+02  0.70000036518E+02 0.  0.
        -12    1    1    2    0    0  0.23533676182E+01 -0.16427030609E+02 -0.86771219789E+01  0.18726401673E+02  0.00000000000E+00 0.  1.
         11    1    3    3    0    0  0.18756568810E+02  0.73926944818E+01  0.83681775482E+01  0.21828586784E+02  0.51100000000E-03 0. -1.
        -11    1    3    3    0    0  0.70774092520E+01  0.33062006100E+01  0.16045640635E+02  0.17846099513E+02  0.51100000000E-03 0.  1.
        -12    1    3    3    0    0 -0.28187345681E+02  0.57281355172E+01 -0.15736696204E+02  0.32786912030E+02  0.00000000000E+00 0.  1.
</event>
<event>
 7    1  0.3681059E-013  0.7246156E+02  0.7816164E-02  0.1226708E+00
        -11   -1    0    0    0    0  0.00000000000E+00  0.00000000000E+00  0.45593999997E+02  0.45594000000E+02  0.51100000000E-03 0.  1.
         11   -1    0    0    0    0 -0.00000000000E+00 -0.00000000000E+00 -0.45593999997E+02  0.45594000000E+02  0.51100000000E-03 0. -1.
    9900012    2    1    2    0    0  0.48667598483E+01  0.17012050551E+02 -0.61305931390E+01  0.72461564472E+02  0.69999992415E+02 0.  0.
        -12    1    1    2    0    0 -0.48667598483E+01 -0.17012050551E+02  0.61305931390E+01  0.18726435528E+02  0.00000000000E+00 0.  1.
         11    1    3    3    0    0 -0.32086989329E+01  0.62197120207E+01  0.15258833907E+02  0.16787274315E+02  0.51100000000E-03 0. -1.
        -11    1    3    3    0    0 -0.33006917095E+01 -0.57592595988E+01  0.13711398005E+02  0.15233714990E+02  0.51100000000E-03 0.  1.
         12    1    3    3    0    0  0.11376150491E+02  0.16551598129E+02 -0.35100825050E+02  0.40440575167E+02  0.00000000000E+00 0. -1.
</event>
<event>
 7    1  0.3681059E-013  0.7246159E+02  0.7816164E-02  0.1226708E+00
        -11   -1    0    0    0    0  0.00000000000E+00  0.00000000000E+00  0.45593999997E+02  0.45594000000E+02  0.51100000000E-03 0.  1.
         11   -1    0    0    0    0 -0.00000000000E+00 -0.00000000000E+00 -0.45593999997E+02  0.45594000000E+02  0.51100000000E-03 0. -1.
    9900012    2    1    2    0    0  0.10601828280E+02  0.15433897718E+02  0.27316282230E+00  0.72461586046E+02  0.70000020520E+02 0.  0.
        -12    1    1    2    0    0 -0.10601828280E+02 -0.15433897718E+02 -0.27316282230E+00  0.18726413954E+02  0.00000000000E+00 0.  1.
         11    1    3    3    0    0  0.16965868740E+02  0.37848506963E+01  0.30192988604E+01  0.17643184598E+02  0.51100000000E-03 0. -1.
        -11    1    3    3    0    0  0.22776074523E+01  0.37315677211E+01  0.24642577489E+02  0.25027359408E+02  0.51100000000E-03 0.  1.
         12    1    3    3    0    0 -0.86416479123E+01  0.79174793005E+01 -0.27388713527E+02  0.29791042040E+02  0.00000000000E+00 0. -1.
</event>
<event>
 7    1  0.3681059E-013  0.7246152E+02  0.7816164E-02  0.1226708E+00
        -11   -1    0    0    0    0  0.00000000000E+00  0.00000000000E+00  0.45593999997E+02  0.45594000000E+02  0.51100000000E-03 0.  1.
         11   -1    0    0    0    0 -0.00000000000E+00 -0.00000000000E+00 -0.45593999997E+02  0.45594000000E+02  0.51100000000E-03 0. -1.
    9900012    2    1    2    0    0  0.50164679083E+01 -0.14411110432E+02 -0.10855220936E+02  0.72461524738E+02  0.69999940654E+02 0.  0.
        -12    1    1    2    0    0 -0.50164679083E+01  0.14411110432E+02  0.10855220936E+02  0.18726475262E+02  0.00000000000E+00 0.  1.
         11    1    3    3    0    0 -0.52167670858E+01 -0.22821153528E+02 -0.87778315849E+01  0.25001400656E+02  0.51100000000E-03 0. -1.
        -11    1    3    3    0    0  0.25849746395E+02 -0.51186563539E+01 -0.42212233696E+01  0.26687614329E+02  0.51100000000E-03 0.  1.
         12    1    3    3    0    0 -0.15616511401E+02  0.13528699450E+02  0.21438340184E+01  0.20772509753E+02  0.00000000000E+00 0. -1.
</event>
<event>
 7    1  0.3681059E-013  0.7246160E+02  0.7816164E-02  0.1226708E+00
        -11   -1    0    0    0    0  0.00000000000E+00  0.00000000000E+00  0.45593999997E+02  0.45594000000E+02  0.51100000000E-03 0. -1.
         11   -1    0    0    0    0 -0.00000000000E+00 -0.00000000000E+00 -0.45593999997E+02  0.45594000000E+02  0.51100000000E-03 0.  1.
    9900012    2    1    2    0    0  0.76350430867E+01  0.75030009540E+01  0.15365189049E+02  0.72461603102E+02  0.70000042738E+02 0.  0.
        -12    1    1    2    0    0 -0.76350430867E+01 -0.75030009540E+01 -0.15365189049E+02  0.18726396898E+02  0.00000000000E+00 0.  1.
         11    1    3    3    0    0 -0.57522939743E+00  0.15294468300E+01  0.16534455015E+02  0.16615002238E+02  0.51100000000E-03 0. -1.
        -11    1    3    3    0    0  0.11210010773E+02 -0.13947792000E+02 -0.20991797986E+02  0.27583705809E+02  0.51100000000E-03 0.  1.
         12    1    3    3    0    0 -0.29997382892E+01  0.19921346124E+02  0.19822532021E+02  0.28262895055E+02  0.00000000000E+00 0. -1.
</event>
<event>
 7    1  0.3681059E-013  0.7246161E+02  0.7816164E-02  0.1226708E+00
        -11   -1    0    0    0    0  0.00000000000E+00  0.00000000000E+00  0.45593999997E+02  0.45594000000E+02  0.51100000000E-03 0.  1.
         11   -1    0    0    0    0 -0.00000000000E+00 -0.00000000000E+00 -0.45593999997E+02  0.45594000000E+02  0.51100000000E-03 0. -1.
    9900012    2    1    2    0    0  0.12568451316E+02 -0.13837588340E+02 -0.11103439961E+01  0.72461609975E+02  0.70000051692E+02 0.  0.
        -12    1    1    2    0    0 -0.12568451316E+02  0.13837588340E+02  0.11103439961E+01  0.18726390025E+02  0.00000000000E+00 0.  1.
         11    1    3    3    0    0 -0.40041568419E+01 -0.65168293415E+01  0.62312693536E+00  0.76740226817E+01  0.51100000000E-03 0. -1.
        -11    1    3    3    0    0 -0.18372959311E+02  0.14399056730E+02  0.22425646247E+01  0.23450534427E+02  0.51100000000E-03 0.  1.
         12    1    3    3    0    0  0.34945567469E+02 -0.21719815728E+02 -0.39760355561E+01  0.41337052867E+02  0.00000000000E+00 0. -1.
</event>
<event>
 7    1  0.3681059E-013  0.7246157E+02  0.7816164E-02  0.1226708E+00
        -11   -1    0    0    0    0  0.00000000000E+00  0.00000000000E+00  0.45593999997E+02  0.45594000000E+02  0.51100000000E-03 0.  1.
         11   -1    0    0    0    0 -0.00000000000E+00 -0.00000000000E+00 -0.45593999997E+02  0.45594000000E+02  0.51100000000E-03 0. -1.
    9900012    2    1    2    0    0  0.15269175621E+02 -0.10691165749E+02 -0.17973498668E+01  0.72461569060E+02  0.69999998392E+02 0.  0.
        -12    1    1    2    0    0 -0.15269175621E+02  0.10691165749E+02  0.17973498668E+01  0.18726430940E+02  0.00000000000E+00 0.  1.
         11    1    3    3    0    0  0.41280511555E+01  0.22082748273E+01  0.15818987617E+02  0.16497201386E+02  0.51100000000E-03 0. -1.
        -11    1    3    3    0    0  0.57441688551E+01  0.12587298563E+02  0.10697155150E+02  0.17488987664E+02  0.51100000000E-03 0.  1.
         12    1    3    3    0    0  0.53969556100E+01 -0.25486739140E+02 -0.28313492634E+02  0.38475380010E+02  0.00000000000E+00 0. -1.
</event>
<event>
 7    1  0.3681059E-013  0.7246158E+02  0.7816164E-02  0.1226708E+00
        -11   -1    0    0    0    0  0.00000000000E+00  0.00000000000E+00  0.45593999997E+02  0.45594000000E+02  0.51100000000E-03 0.  1.
         11   -1    0    0    0    0 -0.00000000000E+00 -0.00000000000E+00 -0.45593999997E+02  0.45594000000E+02  0.51100000000E-03 0. -1.
    9900012    2    1    2    0    0 -0.16978444968E+02  0.55692672441E+01  0.56030845761E+01  0.72461577813E+02  0.70000009794E+02 0.  0.
        -12    1    1    2    0    0  0.16978444968E+02 -0.55692672441E+01 -0.56030845761E+01  0.18726422187E+02  0.00000000000E+00 0.  1.
         11    1    3    3    0    0  0.67526910454E+01  0.17697550941E+02 -0.12291288441E+02  0.22580476466E+02  0.51100000000E-03 0. -1.
        -11    1    3    3    0    0  0.27212025983E+01  0.17121613108E+01  0.19711020067E+02  0.19971498498E+02  0.51100000000E-03 0.  1.
         12    1    3    3    0    0 -0.26452338612E+02 -0.13840445007E+02 -0.18166470498E+01  0.29909602848E+02  0.00000000000E+00 0. -1.
</event>
<event>
 7    1  0.3681059E-013  0.7246152E+02  0.7816164E-02  0.1226708E+00
        -11   -1    0    0    0    0  0.00000000000E+00  0.00000000000E+00  0.45593999997E+02  0.45594000000E+02  0.51100000000E-03 0. -1.
         11   -1    0    0    0    0 -0.00000000000E+00 -0.00000000000E+00 -0.45593999997E+02  0.45594000000E+02  0.51100000000E-03 0.  1.
    9900012    2    1    2    0    0 -0.12724126239E+02 -0.13660346593E+02  0.14739094094E+01  0.72461524984E+02  0.69999940975E+02 0.  0.
        -12    1    1    2    0    0  0.12724126239E+02  0.13660346593E+02 -0.14739094094E+01  0.18726475016E+02  0.00000000000E+00 0.  1.
         11    1    3    3    0    0 -0.53989004474E+01  0.98800358796E+00 -0.89158898751E+01  0.10469831405E+02  0.51100000000E-03 0. -1.
        -11    1    3    3    0    0  0.15865491566E+02 -0.29545127461E+02  0.64141525369E+01  0.34143370255E+02  0.51100000000E-03 0.  1.
         12    1    3    3    0    0 -0.23190717357E+02  0.14896777280E+02  0.39756467476E+01  0.27848323324E+02  0.00000000000E+00 0. -1.
</event>
<event>
 7    1  0.3681059E-013  0.7246154E+02  0.7816164E-02  0.1226708E+00
        -11   -1    0    0    0    0  0.00000000000E+00  0.00000000000E+00  0.45593999997E+02  0.45594000000E+02  0.51100000000E-03 0.  1.
         11   -1    0    0    0    0 -0.00000000000E+00 -0.00000000000E+00 -0.45593999997E+02  0.45594000000E+02  0.51100000000E-03 0. -1.
    9900012    2    1    2    0    0 -0.75926268777E+01 -0.85404525643E+00  0.17096871657E+02  0.72461537529E+02  0.69999957317E+02 0.  0.
        -12    1    1    2    0    0  0.75926268777E+01  0.85404525643E+00 -0.17096871657E+02  0.18726462471E+02  0.00000000000E+00 0.  1.
         11    1    3    3    0    0  0.29887893572E+01 -0.94521000165E+01  0.68409239878E+01  0.12044637720E+02  0.51100000000E-03 0. -1.
        -11    1    3    3    0    0  0.13290989890E+02 -0.17893007640E+02 -0.27510440061E+01  0.22458369888E+02  0.51100000000E-03 0.  1.
        -12    1    3    3    0    0 -0.23872406125E+02  0.26491062400E+02  0.13006991676E+02  0.37958529921E+02  0.00000000000E+00 0.  1.
</event>
<event>
 7    1  0.3681059E-013  0.7246157E+02  0.7816164E-02  0.1226708E+00
        -11   -1    0    0    0    0  0.00000000000E+00  0.00000000000E+00  0.45593999997E+02  0.45594000000E+02  0.51100000000E-03 0.  1.
         11   -1    0    0    0    0 -0.00000000000E+00 -0.00000000000E+00 -0.45593999997E+02  0.45594000000E+02  0.51100000000E-03 0. -1.
    9900012    2    1    2    0    0  0.19647457819E+01  0.26869521566E+01 -0.18428218444E+02  0.72461570204E+02  0.69999999882E+02 0.  0.
        -12    1    1    2    0    0 -0.19647457819E+01 -0.26869521566E+01  0.18428218444E+02  0.18726429796E+02  0.00000000000E+00 0.  1.
         11    1    3    3    0    0  0.32146344024E+01  0.30429233274E+02 -0.75827010617E+01  0.31524109308E+02  0.51100000000E-03 0. -1.
        -11    1    3    3    0    0 -0.83930756665E+01 -0.32761329484E+01  0.55966614873E+01  0.10606572788E+02  0.51100000000E-03 0.  1.
        -12    1    3    3    0    0  0.71431870460E+01 -0.24466148169E+02 -0.16442178870E+02  0.30330888108E+02  0.00000000000E+00 0.  1.
</event>
<event>
 7    1  0.3681059E-013  0.7246188E+02  0.7816164E-02  0.1226707E+00
        -11   -1    0    0    0    0  0.00000000000E+00  0.00000000000E+00  0.45593999997E+02  0.45594000000E+02  0.51100000000E-03 0. -1.
         11   -1    0    0    0    0 -0.00000000000E+00 -0.00000000000E+00 -0.45593999997E+02  0.45594000000E+02  0.51100000000E-03 0.  1.
    9900012    2    1    2    0    0  0.67253828566E+00  0.14752469319E+02  0.11514339411E+02  0.72461877315E+02  0.70000399951E+02 0.  0.
        -12    1    1    2    0    0 -0.67253828566E+00 -0.14752469319E+02 -0.11514339411E+02  0.18726122685E+02  0.00000000000E+00 0.  1.
         11    1    3    3    0    0  0.55614470641E+01 -0.41064445258E+01  0.25859248877E+01  0.73810289172E+01  0.51100000000E-03 0. -1.
        -11    1    3    3    0    0  0.21081106790E+00 -0.22605013830E+02  0.15610315456E+01  0.22659830346E+02  0.51100000000E-03 0.  1.
         12    1    3    3    0    0 -0.50997198464E+01  0.41463927674E+02  0.73673829773E+01  0.42421018052E+02  0.00000000000E+00 0. -1.
</event>
<event>
 7    1  0.3681059E-013  0.7246159E+02  0.7816164E-02  0.1226708E+00
        -11   -1    0    0    0    0  0.00000000000E+00  0.00000000000E+00  0.45593999997E+02  0.45594000000E+02  0.51100000000E-03 0.  1.
         11   -1    0    0    0    0 -0.00000000000E+00 -0.00000000000E+00 -0.45593999997E+02  0.45594000000E+02  0.51100000000E-03 0. -1.
    9900012    2    1    2    0    0 -0.11535112243E+02  0.13591502641E+02  0.57350291705E+01  0.72461593028E+02  0.70000029615E+02 0.  0.
        -12    1    1    2    0    0  0.11535112243E+02 -0.13591502641E+02 -0.57350291705E+01  0.18726406972E+02  0.00000000000E+00 0.  1.
         11    1    3    3    0    0 -0.26391485498E+02 -0.15330011465E+01 -0.23719158705E+01  0.26542166160E+02  0.51100000000E-03 0. -1.
        -11    1    3    3    0    0 -0.81258981018E+01  0.18618515459E+02  0.99108426779E+01  0.22603188728E+02  0.51100000000E-03 0.  1.
        -12    1    3    3    0    0  0.22982271357E+02 -0.34940116712E+01 -0.18038976369E+01  0.23316238139E+02  0.00000000000E+00 0.  1.
</event>
<event>
 7    1  0.3681059E-013  0.7246178E+02  0.7816164E-02  0.1226707E+00
        -11   -1    0    0    0    0  0.00000000000E+00  0.00000000000E+00  0.45593999997E+02  0.45594000000E+02  0.51100000000E-03 0.  1.
         11   -1    0    0    0    0 -0.00000000000E+00 -0.00000000000E+00 -0.45593999997E+02  0.45594000000E+02  0.51100000000E-03 0. -1.
    9900012    2    1    2    0    0  0.71570296236E+01 -0.77899350894E+01 -0.15452030598E+02  0.72461777441E+02  0.70000269847E+02 0.  0.
        -12    1    1    2    0    0 -0.71570296236E+01  0.77899350894E+01  0.15452030598E+02  0.18726222559E+02  0.00000000000E+00 0.  1.
         11    1    3    3    0    0 -0.20004908497E+02 -0.24654564164E+01 -0.13223903920E+00  0.20156694340E+02  0.51100000000E-03 0. -1.
        -11    1    3    3    0    0 -0.22081526381E+01 -0.17597237797E+02 -0.21807716421E+01  0.17868813094E+02  0.51100000000E-03 0.  1.
        -12    1    3    3    0    0  0.29370090758E+02  0.12272759124E+02 -0.13139019916E+02  0.34436270007E+02  0.00000000000E+00 0.  1.
</event>
<event>
 7    1  0.3681059E-013  0.7246156E+02  0.7816164E-02  0.1226708E+00
        -11   -1    0    0    0    0  0.00000000000E+00  0.00000000000E+00  0.45593999997E+02  0.45594000000E+02  0.51100000000E-03 0.  1.
         11   -1    0    0    0    0 -0.00000000000E+00 -0.00000000000E+00 -0.45593999997E+02  0.45594000000E+02  0.51100000000E-03 0. -1.
    9900012    2    1    2    0    0 -0.14356490033E+02 -0.11000214184E+02  0.48544703864E+01  0.72461564117E+02  0.69999991953E+02 0.  0.
        -12    1    1    2    0    0  0.14356490033E+02  0.11000214184E+02 -0.48544703864E+01  0.18726435883E+02  0.00000000000E+00 0.  1.
         11    1    3    3    0    0  0.31685465453E+01 -0.89376733538E+00 -0.69925156109E+01  0.77287632963E+01  0.51100000000E-03 0. -1.
        -11    1    3    3    0    0 -0.70263365104E+01 -0.33402782122E+02 -0.44542656309E+01  0.34423186093E+02  0.51100000000E-03 0.  1.
         12    1    3    3    0    0 -0.10498700067E+02  0.23296335274E+02  0.16301251628E+02  0.30309614727E+02  0.00000000000E+00 0. -1.
</event>
<event>
 7    1  0.3681059E-013  0.7246157E+02  0.7816164E-02  0.1226708E+00
        -11   -1    0    0    0    0  0.00000000000E+00  0.00000000000E+00  0.45593999997E+02  0.45594000000E+02  0.51100000000E-03 0.  1.
         11   -1    0    0    0    0 -0.00000000000E+00 -0.00000000000E+00 -0.45593999997E+02  0.45594000000E+02  0.51100000000E-03 0. -1.
    9900012    2    1    2    0    0  0.51997994985E+01 -0.12265674848E+02  0.13160333248E+02  0.72461573072E+02  0.70000003618E+02 0.  0.
        -12    1    1    2    0    0 -0.51997994985E+01  0.12265674848E+02 -0.13160333248E+02  0.18726426928E+02  0.00000000000E+00 0.  1.
         11    1    3    3    0    0 -0.31586266899E+01 -0.13507845969E+02  0.43375424746E+00  0.13879011791E+02  0.51100000000E-03 0. -1.
        -11    1    3    3    0    0  0.29918724714E+02 -0.10352099578E+02  0.12675986274E+02  0.34102443937E+02  0.51100000000E-03 0.  1.
        -12    1    3    3    0    0 -0.21560298525E+02  0.11594270699E+02  0.50592726490E-01  0.24480117344E+02  0.00000000000E+00 0.  1.
</event>
<event>
 7    1  0.3681059E-013  0.7246154E+02  0.7816164E-02  0.1226708E+00
        -11   -1    0    0    0    0  0.00000000000E+00  0.00000000000E+00  0.45593999997E+02  0.45594000000E+02  0.51100000000E-03 0. -1.
         11   -1    0    0    0    0 -0.00000000000E+00 -0.00000000000E+00 -0.45593999997E+02  0.45594000000E+02  0.51100000000E-03 0.  1.
    9900012    2    1    2    0    0  0.10162237478E+02  0.71001966567E+01  0.14035539472E+02  0.72461541942E+02  0.69999963066E+02 0.  0.
        -12    1    1    2    0    0 -0.10162237478E+02 -0.71001966567E+01 -0.14035539472E+02  0.18726458058E+02  0.00000000000E+00 0.  1.
         11    1    3    3    0    0 -0.76935568301E+01 -0.13165202599E+02  0.28783337899E+02  0.32572901576E+02  0.51100000000E-03 0. -1.
        -11    1    3    3    0    0  0.61915772782E+01  0.93509903399E+01  0.67620550711E+01  0.13095878687E+02  0.51100000000E-03 0.  1.
        -12    1    3    3    0    0  0.11664217030E+02  0.10914408916E+02 -0.21509853498E+02  0.26792761680E+02  0.00000000000E+00 0.  1.
</event>
<event>
 7    1  0.3681059E-013  0.7246152E+02  0.7816164E-02  0.1226708E+00
        -11   -1    0    0    0    0  0.00000000000E+00  0.00000000000E+00  0.45593999997E+02  0.45594000000E+02  0.51100000000E-03 0.  1.
         11   -1    0    0    0    0 -0.00000000000E+00 -0.00000000000E+00 -0.45593999997E+02  0.45594000000E+02  0.51100000000E-03 0. -1.
    9900012    2    1    2    0    0 -0.32770361890E+01  0.13770857403E+02 -0.12259920204E+02  0.72461518131E+02  0.69999932047E+02 0.  0.
        -12    1    1    2    0    0  0.32770361890E+01 -0.13770857403E+02  0.12259920204E+02  0.18726481869E+02  0.00000000000E+00 0.  1.
         11    1    3    3    0    0  0.22613137721E+01  0.55741507396E+01  0.38311278289E+01  0.71317765771E+01  0.51100000000E-03 0. -1.
        -11    1    3    3    0    0 -0.15149399137E+02 -0.15998896340E+02  0.13559566910E+02  0.25871428901E+02  0.51100000000E-03 0.  1.
         12    1    3    3    0    0  0.96110491761E+01  0.24195603003E+02 -0.29650614942E+02  0.39458312653E+02  0.00000000000E+00 0. -1.
</event>
<event>
 7    1  0.3681059E-013  0.7246157E+02  0.7816164E-02  0.1226708E+00
        -11   -1    0    0    0    0  0.00000000000E+00  0.00000000000E+00  0.45593999997E+02  0.45594000000E+02  0.51100000000E-03 0. -1.
         11   -1    0    0    0    0 -0.00000000000E+00 -0.00000000000E+00 -0.45593999997E+02  0.45594000000E+02  0.51100000000E-03 0.  1.
    9900012    2    1    2    0    0  0.11958342916E+02  0.13350777030E+02 -0.54253189023E+01  0.72461566869E+02  0.69999995538E+02 0.  0.
        -12    1    1    2    0    0 -0.11958342916E+02 -0.13350777030E+02  0.54253189023E+01  0.18726433131E+02  0.00000000000E+00 0.  1.
         11    1    3    3    0    0  0.52755390026E+01  0.21300831817E+02 -0.58801204864E+01  0.22718551121E+02  0.51100000000E-03 0. -1.
        -11    1    3    3    0    0  0.14797276074E+02  0.83645403688E+01 -0.17334627082E+02  0.24277854335E+02  0.51100000000E-03 0.  1.
         12    1    3    3    0    0 -0.81144721608E+01 -0.16314595155E+02  0.17789428666E+02  0.25465161413E+02  0.00000000000E+00 0. -1.
</event>
<event>
 7    1  0.3681059E-013  0.7246162E+02  0.7816164E-02  0.1226708E+00
        -11   -1    0    0    0    0  0.00000000000E+00  0.00000000000E+00  0.45593999997E+02  0.45594000000E+02  0.51100000000E-03 0.  1.
         11   -1    0    0    0    0 -0.00000000000E+00 -0.00000000000E+00 -0.45593999997E+02  0.45594000000E+02  0.51100000000E-03 0. -1.
    9900012    2    1    2    0    0 -0.93661293065E+01  0.15618973535E+02 -0.43589579121E+01  0.72461622172E+02  0.70000067580E+02 0.  0.
        -12    1    1    2    0    0  0.93661293065E+01 -0.15618973535E+02  0.43589579121E+01  0.18726377828E+02  0.00000000000E+00 0.  1.
         11    1    3    3    0    0  0.12830952436E+01  0.39700042757E+01  0.13595982173E+02  0.14221743876E+02  0.51100000000E-03 0. -1.
        -11    1    3    3    0    0 -0.99985211981E+01 -0.78203515153E+01  0.15189203808E+02  0.19794954825E+02  0.51100000000E-03 0.  1.
         12    1    3    3    0    0 -0.65070335197E+00  0.19469320775E+02 -0.33144143893E+02  0.38444923471E+02  0.00000000000E+00 0. -1.
</event>
<event>
 7    1  0.3681059E-013  0.7246090E+02  0.7816164E-02  0.1226710E+00
        -11   -1    0    0    0    0  0.00000000000E+00  0.00000000000E+00  0.45593999997E+02  0.45594000000E+02  0.51100000000E-03 0. -1.
         11   -1    0    0    0    0 -0.00000000000E+00 -0.00000000000E+00 -0.45593999997E+02  0.45594000000E+02  0.51100000000E-03 0.  1.
    9900012    2    1    2    0    0 -0.13852023230E+02  0.12334102358E+02  0.25875827126E+01  0.72460901644E+02  0.69999128954E+02 0.  0.
        -12    1    1    2    0    0  0.13852023230E+02 -0.12334102358E+02 -0.25875827126E+01  0.18727098356E+02  0.00000000000E+00 0.  1.
         11    1    3    3    0    0 -0.42404454313E+01  0.25648755965E+02  0.10715323784E+02  0.28118645487E+02  0.51100000000E-03 0. -1.
        -11    1    3    3    0    0  0.93570833821E+00  0.53949977781E+01 -0.19349660411E+02  0.20109473126E+02  0.51100000000E-03 0.  1.
         12    1    3    3    0    0 -0.10547286137E+02 -0.18709651385E+02  0.11221919339E+02  0.24232783032E+02  0.00000000000E+00 0. -1.
</event>
<event>
 7    1  0.3681059E-013  0.7246208E+02  0.7816164E-02  0.1226707E+00
        -11   -1    0    0    0    0  0.00000000000E+00  0.00000000000E+00  0.45593999997E+02  0.45594000000E+02  0.51100000000E-03 0. -1.
         11   -1    0    0    0    0 -0.00000000000E+00 -0.00000000000E+00 -0.45593999997E+02  0.45594000000E+02  0.51100000000E-03 0.  1.
    9900012    2    1    2    0    0 -0.14185921124E+02  0.22090958951E+01  0.12022469628E+02  0.72462075757E+02  0.70000658455E+02 0.  0.
        -12    1    1    2    0    0  0.14185921124E+02 -0.22090958951E+01 -0.12022469628E+02  0.18725924243E+02  0.00000000000E+00 0.  1.
         11    1    3    3    0    0  0.10243026898E+00 -0.16223019210E+02  0.19657778712E+02  0.25487744279E+02  0.51100000000E-03 0. -1.
        -11    1    3    3    0    0  0.16473058994E+01  0.46179374529E+01 -0.21291863111E+02  0.21849082316E+02  0.51100000000E-03 0.  1.
         12    1    3    3    0    0 -0.15935657293E+02  0.13814177652E+02  0.13656554027E+02  0.25125249162E+02  0.00000000000E+00 0. -1.
</event>
<event>
 7    1  0.3681059E-013  0.7246158E+02  0.7816164E-02  0.1226708E+00
        -11   -1    0    0    0    0  0.00000000000E+00  0.00000000000E+00  0.45593999997E+02  0.45594000000E+02  0.51100000000E-03 0. -1.
         11   -1    0    0    0    0 -0.00000000000E+00 -0.00000000000E+00 -0.45593999997E+02  0.45594000000E+02  0.51100000000E-03 0.  1.
    9900012    2    1    2    0    0 -0.11304536418E+02 -0.39145222395E+01  0.14407038272E+02  0.72461580701E+02  0.70000013556E+02 0.  0.
        -12    1    1    2    0    0  0.11304536418E+02  0.39145222395E+01 -0.14407038272E+02  0.18726419299E+02  0.00000000000E+00 0.  1.
         11    1    3    3    0    0  0.15940632726E-01 -0.17049785638E+01  0.20306379592E+01  0.26515461130E+01  0.51100000000E-03 0. -1.
        -11    1    3    3    0    0 -0.36633979180E+02 -0.15705044993E+02  0.48470124537E+01  0.40152090839E+02  0.51100000000E-03 0.  1.
         12    1    3    3    0    0  0.25313502129E+02  0.13495501317E+02  0.75293878595E+01  0.29657943748E+02  0.00000000000E+00 0. -1.
</event>
<event>
 7    1  0.3681059E-013  0.7246155E+02  0.7816164E-02  0.1226708E+00
        -11   -1    0    0    0    0  0.00000000000E+00  0.00000000000E+00  0.45593999997E+02  0.45594000000E+02  0.51100000000E-03 0.  1.
         11   -1    0    0    0    0 -0.00000000000E+00 -0.00000000000E+00 -0.45593999997E+02  0.45594000000E+02  0.51100000000E-03 0. -1.
    9900012    2    1    2    0    0 -0.11384717502E+02 -0.90001995816E+01 -0.11834881465E+02  0.72461553343E+02  0.69999977917E+02 0.  0.
        -12    1    1    2    0    0  0.11384717502E+02  0.90001995816E+01  0.11834881465E+02  0.18726446657E+02  0.00000000000E+00 0.  1.
         11    1    3    3    0    0 -0.51074664021E+01  0.27896189813E+01  0.20134693289E+02  0.20958865933E+02  0.51100000000E-03 0. -1.
        -11    1    3    3    0    0 -0.92947079658E+01  0.81467190712E+01  0.14777583332E+01  0.12447666358E+02  0.51100000000E-03 0.  1.
         12    1    3    3    0    0  0.30174568654E+01 -0.19936537634E+02 -0.33447333087E+02  0.39055021052E+02  0.00000000000E+00 0. -1.
</event>
<event>
 7    1  0.3681059E-013  0.7246155E+02  0.7816164E-02  0.1226708E+00
        -11   -1    0    0    0    0  0.00000000000E+00  0.00000000000E+00  0.45593999997E+02  0.45594000000E+02  0.51100000000E-03 0.  1.
         11   -1    0    0    0    0 -0.00000000000E+00 -0.00000000000E+00 -0.45593999997E+02  0.45594000000E+02  0.51100000000E-03 0. -1.
    9900012    2    1    2    0    0 -0.36820514454E+01 -0.18360412837E+02 -0.13240675934E+00  0.72461553622E+02  0.69999978281E+02 0.  0.
        -12    1    1    2    0    0  0.36820514454E+01  0.18360412837E+02  0.13240675934E+00  0.18726446378E+02  0.00000000000E+00 0.  1.
         11    1    3    3    0    0 -0.11022412667E+02 -0.87911967034E+01 -0.93093431549E+01  0.16895046336E+02  0.51100000000E-03 0. -1.
        -11    1    3    3    0    0  0.20647249313E+02 -0.25065423388E+02  0.12643431293E+02  0.34848826507E+02  0.51100000000E-03 0.  1.
         12    1    3    3    0    0 -0.13306888091E+02  0.15496207254E+02 -0.34664948976E+01  0.20717680778E+02  0.00000000000E+00 0. -1.
</event>
<event>
 7    1  0.3681059E-013  0.7246157E+02  0.7816164E-02  0.1226708E+00
        -11   -1    0    0    0    0  0.00000000000E+00  0.00000000000E+00  0.45593999997E+02  0.45594000000E+02  0.51100000000E-03 0. -1.
         11   -1    0    0    0    0 -0.00000000000E+00 -0.00000000000E+00 -0.45593999997E+02  0.45594000000E+02  0.51100000000E-03 0.  1.
    9900012    2    1    2    0    0 -0.84190237542E+01  0.13903539590E+02  0.93000378773E+01  0.72461572721E+02  0.70000003161E+02 0.  0.
        -12    1    1    2    0    0  0.84190237542E+01 -0.13903539590E+02 -0.93000378773E+01  0.18726427279E+02  0.00000000000E+00 0.  1.
         11    1    3    3    0    0  0.12525885296E+02  0.96385180329E+01  0.20509343603E+02  0.25892701821E+02  0.51100000000E-03 0. -1.
        -11    1    3    3    0    0  0.50947679796E+01 -0.31144071048E+00 -0.18460980222E+02  0.19153627518E+02  0.51100000000E-03 0.  1.
         12    1    3    3    0    0 -0.26039677030E+02  0.45764622678E+01  0.72516744959E+01  0.27415243382E+02  0.00000000000E+00 0. -1.
</event>
<event>
 7    1  0.3681059E-013  0.7246164E+02  0.7816164E-02  0.1226708E+00
        -11   -1    0    0    0    0  0.00000000000E+00  0.00000000000E+00  0.45593999997E+02  0.45594000000E+02  0.51100000000E-03 0. -1.
         11   -1    0    0    0    0 -0.00000000000E+00 -0.00000000000E+00 -0.45593999997E+02  0.45594000000E+02  0.51100000000E-03 0.  1.
    9900012    2    1    2    0    0 -0.32495012892E+01 -0.15942718825E+02  0.92707520448E+01  0.72461644624E+02  0.70000096829E+02 0.  0.
        -12    1    1    2    0    0  0.32495012892E+01  0.15942718825E+02 -0.92707520448E+01  0.18726355376E+02  0.00000000000E+00 0.  1.
         11    1    3    3    0    0 -0.74086723739E+01  0.56171351432E+00  0.40816006592E+01  0.84772290648E+01  0.51100000000E-03 0. -1.
        -11    1    3    3    0    0 -0.42665118447E+01 -0.37909984492E+02 -0.56310185214E+01  0.38562655735E+02  0.51100000000E-03 0.  1.
         12    1    3    3    0    0  0.84256829294E+01  0.21405552152E+02  0.10820169907E+02  0.25421759825E+02  0.00000000000E+00 0. -1.
</event>
<event>
 7    1  0.3681059E-013  0.7246158E+02  0.7816164E-02  0.1226708E+00
        -11   -1    0    0    0    0  0.00000000000E+00  0.00000000000E+00  0.45593999997E+02  0.45594000000E+02  0.51100000000E-03 0. -1.
         11   -1    0    0    0    0 -0.00000000000E+00 -0.00000000000E+00 -0.45593999997E+02  0.45594000000E+02  0.51100000000E-03 0.  1.
    9900012    2    1    2    0    0 -0.11261842385E+02 -0.81136095909E+01  0.12570562293E+02  0.72461580404E+02  0.70000013170E+02 0.  0.
        -12    1    1    2    0    0  0.11261842385E+02  0.81136095909E+01 -0.12570562293E+02  0.18726419596E+02  0.00000000000E+00 0.  1.
         11    1    3    3    0    0 -0.14743781337E+01  0.23884485049E+01 -0.67280205811E+01  0.72900437820E+01  0.51100000000E-03 0.  1.
        -11    1    3    3    0    0 -0.74743558563E+01 -0.19827937138E+02  0.38361017701E+02  0.43824431154E+02  0.51100000000E-03 0. -1.
         12    1    3    3    0    0 -0.23131083950E+01  0.93258790426E+01 -0.19062434827E+02  0.21347105469E+02  0.00000000000E+00 0. -1.
</event>
<event>
 7    1  0.3681059E-013  0.7246160E+02  0.7816164E-02  0.1226708E+00
        -11   -1    0    0    0    0  0.00000000000E+00  0.00000000000E+00  0.45593999997E+02  0.45594000000E+02  0.51100000000E-03 0. -1.
         11   -1    0    0    0    0 -0.00000000000E+00 -0.00000000000E+00 -0.45593999997E+02  0.45594000000E+02  0.51100000000E-03 0.  1.
    9900012    2    1    2    0    0  0.12001788782E+02  0.97594805140E+01  0.10554042354E+02  0.72461596077E+02  0.70000033587E+02 0.  0.
        -12    1    1    2    0    0 -0.12001788782E+02 -0.97594805140E+01 -0.10554042354E+02  0.18726403923E+02  0.00000000000E+00 0.  1.
         11    1    3    3    0    0 -0.20512687543E+02  0.62791508240E+01  0.54781597915E+01  0.22140648596E+02  0.51100000000E-03 0. -1.
        -11    1    3    3    0    0  0.39791305158E+01  0.15557806145E+02  0.10041424986E+02  0.18939615300E+02  0.51100000000E-03 0.  1.
        -12    1    3    3    0    0  0.28535345809E+02 -0.12077476455E+02 -0.49655424235E+01  0.31381332182E+02  0.00000000000E+00 0.  1.
</event>
<event>
 7    1  0.3681059E-013  0.7246155E+02  0.7816164E-02  0.1226708E+00
        -11   -1    0    0    0    0  0.00000000000E+00  0.00000000000E+00  0.45593999997E+02  0.45594000000E+02  0.51100000000E-03 0. -1.
         11   -1    0    0    0    0 -0.00000000000E+00 -0.00000000000E+00 -0.45593999997E+02  0.45594000000E+02  0.51100000000E-03 0.  1.
    9900012    2    1    2    0    0 -0.17174983295E+02 -0.25357256005E+00  0.74589192489E+01  0.72461552750E+02  0.69999977146E+02 0.  0.
        -12    1    1    2    0    0  0.17174983295E+02  0.25357256005E+00 -0.74589192489E+01  0.18726447250E+02  0.00000000000E+00 0.  1.
         11    1    3    3    0    0 -0.33201797305E+02  0.12254303478E+01  0.81427275366E+01  0.34207675101E+02  0.51100000000E-03 0. -1.
        -11    1    3    3    0    0 -0.87930814034E+01  0.76091254793E+01  0.15364070950E+01  0.11729348582E+02  0.51100000000E-03 0.  1.
        -12    1    3    3    0    0  0.24819895413E+02 -0.90881283872E+01 -0.22202153827E+01  0.26524529068E+02  0.00000000000E+00 0.  1.
</event>
<event>
 7    1  0.3681059E-013  0.7246157E+02  0.7816164E-02  0.1226708E+00
        -11   -1    0    0    0    0  0.00000000000E+00  0.00000000000E+00  0.45593999997E+02  0.45594000000E+02  0.51100000000E-03 0. -1.
         11   -1    0    0    0    0 -0.00000000000E+00 -0.00000000000E+00 -0.45593999997E+02  0.45594000000E+02  0.51100000000E-03 0.  1.
    9900012    2    1    2    0    0  0.30891483764E+01 -0.14894882281E+02  0.10921480935E+02  0.72461572105E+02  0.70000002359E+02 0.  0.
        -12    1    1    2    0    0 -0.30891483764E+01  0.14894882281E+02 -0.10921480935E+02  0.18726427895E+02  0.00000000000E+00 0.  1.
         11    1    3    3    0    0  0.14823746601E+02 -0.39701584226E+01 -0.16803677768E+02  0.22756739837E+02  0.51100000000E-03 0. -1.
        -11    1    3    3    0    0  0.50180879796E+01  0.86145527039E+01 -0.22251815843E+01  0.10214849906E+02  0.51100000000E-03 0.  1.
         12    1    3    3    0    0 -0.16752686204E+02 -0.19539276563E+02  0.29950340288E+02  0.39489982363E+02  0.00000000000E+00 0. -1.
</event>
<event>
 7    1  0.3681059E-013  0.7246140E+02  0.7816164E-02  0.1226708E+00
        -11   -1    0    0    0    0  0.00000000000E+00  0.00000000000E+00  0.45593999997E+02  0.45594000000E+02  0.51100000000E-03 0. -1.
         11   -1    0    0    0    0 -0.00000000000E+00 -0.00000000000E+00 -0.45593999997E+02  0.45594000000E+02  0.51100000000E-03 0.  1.
    9900012    2    1    2    0    0  0.16061726562E+02  0.69446919148E+01 -0.66691501527E+01  0.72461404749E+02  0.69999784346E+02 0.  0.
        -12    1    1    2    0    0 -0.16061726562E+02 -0.69446919148E+01  0.66691501527E+01  0.18726595251E+02  0.00000000000E+00 0.  1.
         11    1    3    3    0    0 -0.56539581853E+00 -0.17499312623E+02 -0.33374738691E+01  0.17823701827E+02  0.51100000000E-03 0. -1.
        -11    1    3    3    0    0 -0.94437214234E+00 -0.11282940492E+02  0.72457648720E+01  0.13442384228E+02  0.51100000000E-03 0.  1.
         12    1    3    3    0    0  0.17571494522E+02  0.35726945030E+02 -0.10577441155E+02  0.41195318694E+02  0.00000000000E+00 0. -1.
</event>
<event>
 7    1  0.3681059E-013  0.7246158E+02  0.7816164E-02  0.1226708E+00
        -11   -1    0    0    0    0  0.00000000000E+00  0.00000000000E+00  0.45593999997E+02  0.45594000000E+02  0.51100000000E-03 0.  1.
         11   -1    0    0    0    0 -0.00000000000E+00 -0.00000000000E+00 -0.45593999997E+02  0.45594000000E+02  0.51100000000E-03 0. -1.
    9900012    2    1    2    0    0 -0.15687960255E+02 -0.63052245769E+01 -0.80505167560E+01  0.72461580856E+02  0.70000013759E+02 0.  0.
        -12    1    1    2    0    0  0.15687960255E+02  0.63052245769E+01  0.80505167560E+01  0.18726419144E+02  0.00000000000E+00 0.  1.
         11    1    3    3    0    0 -0.25455658983E+02  0.20790803537E+01 -0.24417473012E+02  0.35334489354E+02  0.51100000000E-03 0. -1.
        -11    1    3    3    0    0  0.83950226190E+01 -0.15197311399E+02 -0.20119233952E+01  0.17478058089E+02  0.51100000000E-03 0.  1.
        -12    1    3    3    0    0  0.13726761092E+01  0.68130064689E+01  0.18378879651E+02  0.19649033413E+02  0.00000000000E+00 0.  1.
</event>
<event>
 7    1  0.3681059E-013  0.7246159E+02  0.7816164E-02  0.1226708E+00
        -11   -1    0    0    0    0  0.00000000000E+00  0.00000000000E+00  0.45593999997E+02  0.45594000000E+02  0.51100000000E-03 0.  1.
         11   -1    0    0    0    0 -0.00000000000E+00 -0.00000000000E+00 -0.45593999997E+02  0.45594000000E+02  0.51100000000E-03 0. -1.
    9900012    2    1    2    0    0 -0.30535984785E+01 -0.26889861183E+01 -0.18279040632E+02  0.72461589868E+02  0.70000025498E+02 0.  0.
        -12    1    1    2    0    0  0.30535984785E+01  0.26889861183E+01  0.18279040632E+02  0.18726410132E+02  0.00000000000E+00 0.  1.
         11    1    3    3    0    0  0.41902371457E+01 -0.30642953375E+01 -0.71921756533E+01  0.88699145509E+01  0.51100000000E-03 0. -1.
        -11    1    3    3    0    0  0.19561016685E+02 -0.95544208750E+01 -0.23845845896E+02  0.32288460768E+02  0.51100000000E-03 0.  1.
        -12    1    3    3    0    0 -0.26804852309E+02  0.99297300942E+01  0.12758980917E+02  0.31303214549E+02  0.00000000000E+00 0.  1.
</event>
<event>
 7    1  0.3681059E-013  0.7246161E+02  0.7816164E-02  0.1226708E+00
        -11   -1    0    0    0    0  0.00000000000E+00  0.00000000000E+00  0.45593999997E+02  0.45594000000E+02  0.51100000000E-03 0. -1.
         11   -1    0    0    0    0 -0.00000000000E+00 -0.00000000000E+00 -0.45593999997E+02  0.45594000000E+02  0.51100000000E-03 0.  1.
    9900012    2    1    2    0    0 -0.11275722791E+02 -0.13789578253E+02 -0.57778250851E+01  0.72461610717E+02  0.70000052658E+02 0.  0.
        -12    1    1    2    0    0  0.11275722791E+02  0.13789578253E+02  0.57778250851E+01  0.18726389283E+02  0.00000000000E+00 0.  1.
         11    1    3    3    0    0 -0.33376969512E+02 -0.85416455928E+01  0.12913482440E+00  0.34452844285E+02  0.51100000000E-03 0. -1.
        -11    1    3    3    0    0 -0.61748146014E+01  0.17920730380E+01  0.35862004890E+01  0.73621121524E+01  0.51100000000E-03 0.  1.
        -12    1    3    3    0    0  0.28276061323E+02 -0.70400056984E+01 -0.94931603985E+01  0.30646654280E+02  0.00000000000E+00 0.  1.
</event>
<event>
 7    1  0.3681059E-013  0.7246161E+02  0.7816164E-02  0.1226708E+00
        -11   -1    0    0    0    0  0.00000000000E+00  0.00000000000E+00  0.45593999997E+02  0.45594000000E+02  0.51100000000E-03 0.  1.
         11   -1    0    0    0    0 -0.00000000000E+00 -0.00000000000E+00 -0.45593999997E+02  0.45594000000E+02  0.51100000000E-03 0. -1.
    9900012    2    1    2    0    0 -0.76935311758E+00 -0.10757768430E+02 -0.15308701106E+02  0.72461606451E+02  0.70000047101E+02 0.  0.
        -12    1    1    2    0    0  0.76935311758E+00  0.10757768430E+02  0.15308701106E+02  0.18726393549E+02  0.00000000000E+00 0.  1.
         11    1    3    3    0    0  0.16029512858E+01 -0.32215620376E+01 -0.27454681179E+01  0.45260921593E+01  0.51100000000E-03 0. -1.
        -11    1    3    3    0    0  0.73295041818E+01  0.25902558379E+02 -0.18433951102E+02  0.32626288720E+02  0.51100000000E-03 0.  1.
         12    1    3    3    0    0 -0.97018085852E+01 -0.33438764772E+02  0.58707181142E+01  0.35309225572E+02  0.00000000000E+00 0. -1.
</event>
<event>
 7    1  0.3681059E-013  0.7246177E+02  0.7816164E-02  0.1226707E+00
        -11   -1    0    0    0    0  0.00000000000E+00  0.00000000000E+00  0.45593999997E+02  0.45594000000E+02  0.51100000000E-03 0. -1.
         11   -1    0    0    0    0 -0.00000000000E+00 -0.00000000000E+00 -0.45593999997E+02  0.45594000000E+02  0.51100000000E-03 0.  1.
    9900012    2    1    2    0    0 -0.16365934851E+02  0.18642765916E+00 -0.90990633627E+01  0.72461774195E+02  0.70000265618E+02 0.  0.
        -12    1    1    2    0    0  0.16365934851E+02 -0.18642765916E+00  0.90990633627E+01  0.18726225805E+02  0.00000000000E+00 0.  1.
         11    1    3    3    0    0 -0.68906528876E+01  0.96444625454E+01 -0.17050001398E+01  0.11975131763E+02  0.51100000000E-03 0. -1.
        -11    1    3    3    0    0 -0.38722150782E+01  0.23154130520E+02  0.68595050825E+01  0.24457322421E+02  0.51100000000E-03 0.  1.
        -12    1    3    3    0    0 -0.56030668856E+01 -0.32612165406E+02 -0.14253568305E+02  0.36029320011E+02  0.00000000000E+00 0.  1.
</event>
<event>
 7    1  0.3681059E-013  0.7246151E+02  0.7816164E-02  0.1226708E+00
        -11   -1    0    0    0    0  0.00000000000E+00  0.00000000000E+00  0.45593999997E+02  0.45594000000E+02  0.51100000000E-03 0.  1.
         11   -1    0    0    0    0 -0.00000000000E+00 -0.00000000000E+00 -0.45593999997E+02  0.45594000000E+02  0.51100000000E-03 0. -1.
    9900012    2    1    2    0    0 -0.10846318746E+02 -0.11330564098E+02 -0.10230205465E+02  0.72461510287E+02  0.69999921829E+02 0.  0.
        -12    1    1    2    0    0  0.10846318746E+02  0.11330564098E+02  0.10230205465E+02  0.18726489713E+02  0.00000000000E+00 0.  1.
         11    1    3    3    0    0 -0.26499439072E+02 -0.12742970668E+01  0.91105575411E+01  0.28050781863E+02  0.51100000000E-03 0. -1.
        -11    1    3    3    0    0 -0.87216490574E+01 -0.88220233049E+01  0.12644506018E+01  0.12469727064E+02  0.51100000000E-03 0.  1.
        -12    1    3    3    0    0  0.24374769383E+02 -0.12342437266E+01 -0.20605213608E+02  0.31941001360E+02  0.00000000000E+00 0.  1.
</event>
<event>
 7    1  0.3681059E-013  0.7246160E+02  0.7816164E-02  0.1226708E+00
        -11   -1    0    0    0    0  0.00000000000E+00  0.00000000000E+00  0.45593999997E+02  0.45594000000E+02  0.51100000000E-03 0.  1.
         11   -1    0    0    0    0 -0.00000000000E+00 -0.00000000000E+00 -0.45593999997E+02  0.45594000000E+02  0.51100000000E-03 0. -1.
    9900012    2    1    2    0    0  0.69392655587E+01  0.22219310496E+01 -0.17250733625E+02  0.72461596323E+02  0.70000033907E+02 0.  0.
        -12    1    1    2    0    0 -0.69392655587E+01 -0.22219310496E+01  0.17250733625E+02  0.18726403677E+02  0.00000000000E+00 0.  1.
         11    1    3    3    0    0  0.18418416831E+02  0.16407630542E+02 -0.31219344123E+02  0.39788137256E+02  0.51100000000E-03 0. -1.
        -11    1    3    3    0    0  0.38764681520E+01 -0.10966035821E+01  0.11693971448E+02  0.12368448295E+02  0.51100000000E-03 0.  1.
        -12    1    3    3    0    0 -0.15355619424E+02 -0.13089095910E+02  0.22746390504E+01  0.20305010772E+02  0.00000000000E+00 0.  1.
</event>
<event>
 7    1  0.3681059E-013  0.7246152E+02  0.7816164E-02  0.1226708E+00
        -11   -1    0    0    0    0  0.00000000000E+00  0.00000000000E+00  0.45593999997E+02  0.45594000000E+02  0.51100000000E-03 0.  1.
         11   -1    0    0    0    0 -0.00000000000E+00 -0.00000000000E+00 -0.45593999997E+02  0.45594000000E+02  0.51100000000E-03 0. -1.
    9900012    2    1    2    0    0 -0.78508341640E+01  0.82511878548E+01 -0.14864836522E+02  0.72461519740E+02  0.69999934144E+02 0.  0.
        -12    1    1    2    0    0  0.78508341640E+01 -0.82511878548E+01  0.14864836522E+02  0.18726480260E+02  0.00000000000E+00 0.  1.
         11    1    3    3    0    0 -0.33315604878E+02  0.16877535628E+01 -0.25274214586E+01  0.33453936988E+02  0.51100000000E-03 0. -1.
        -11    1    3    3    0    0  0.88442516721E+01 -0.29087744969E+01  0.71202142096E+01  0.11720887653E+02  0.51100000000E-03 0.  1.
        -12    1    3    3    0    0  0.16620519042E+02  0.94722087889E+01 -0.19457629273E+02  0.27286695100E+02  0.00000000000E+00 0.  1.
</event>
<event>
 7    1  0.3681059E-013  0.7246168E+02  0.7816164E-02  0.1226708E+00
        -11   -1    0    0    0    0  0.00000000000E+00  0.00000000000E+00  0.45593999997E+02  0.45594000000E+02  0.51100000000E-03 0.  1.
         11   -1    0    0    0    0 -0.00000000000E+00 -0.00000000000E+00 -0.45593999997E+02  0.45594000000E+02  0.51100000000E-03 0. -1.
    9900012    2    1    2    0    0 -0.88833069147E+00 -0.18246778829E+02  0.41159212823E+01  0.72461684905E+02  0.70000149302E+02 0.  0.
        -12    1    1    2    0    0  0.88833069147E+00  0.18246778829E+02 -0.41159212823E+01  0.18726315095E+02  0.00000000000E+00 0.  1.
         11    1    3    3    0    0  0.87398273376E+01  0.46231606589E+01 -0.51994045895E+00  0.99009360523E+01  0.51100000000E-03 0. -1.
        -11    1    3    3    0    0 -0.18419885231E+01  0.19101213257E+02 -0.22514542699E+01  0.19321447053E+02  0.51100000000E-03 0.  1.
        -12    1    3    3    0    0 -0.77861695059E+01 -0.41971152745E+02  0.68873160112E+01  0.43239301800E+02  0.00000000000E+00 0.  1.
</event>
<event>
 7    1  0.3681059E-013  0.7246163E+02  0.7816164E-02  0.1226708E+00
        -11   -1    0    0    0    0  0.00000000000E+00  0.00000000000E+00  0.45593999997E+02  0.45594000000E+02  0.51100000000E-03 0.  1.
         11   -1    0    0    0    0 -0.00000000000E+00 -0.00000000000E+00 -0.45593999997E+02  0.45594000000E+02  0.51100000000E-03 0. -1.
    9900012    2    1    2    0    0  0.68014655507E+01 -0.63499701722E+01  0.16250997969E+02  0.72461628493E+02  0.70000075815E+02 0.  0.
        -12    1    1    2    0    0 -0.68014655507E+01  0.63499701722E+01 -0.16250997969E+02  0.18726371507E+02  0.00000000000E+00 0.  1.
         11    1    3    3    0    0  0.82119497023E+01 -0.25035816179E+01 -0.10954827803E+02  0.13918056304E+02  0.51100000000E-03 0. -1.
        -11    1    3    3    0    0 -0.74268483575E+01  0.65929618155E+01 -0.13120798164E+02  0.16455411473E+02  0.51100000000E-03 0.  1.
        -12    1    3    3    0    0  0.60163642059E+01 -0.10439350370E+02  0.40326623936E+02  0.42088160716E+02  0.00000000000E+00 0.  1.
</event>
<event>
 7    1  0.3681059E-013  0.7246159E+02  0.7816164E-02  0.1226708E+00
        -11   -1    0    0    0    0  0.00000000000E+00  0.00000000000E+00  0.45593999997E+02  0.45594000000E+02  0.51100000000E-03 0.  1.
         11   -1    0    0    0    0 -0.00000000000E+00 -0.00000000000E+00 -0.45593999997E+02  0.45594000000E+02  0.51100000000E-03 0. -1.
    9900012    2    1    2    0    0 -0.17898661268E+01 -0.97546391030E+01 -0.15884642299E+02  0.72461589085E+02  0.70000024479E+02 0.  0.
        -12    1    1    2    0    0  0.17898661268E+01  0.97546391030E+01  0.15884642299E+02  0.18726410915E+02  0.00000000000E+00 0.  1.
         11    1    3    3    0    0  0.12204346758E+02  0.26181297143E+01  0.11070904377E+02  0.16684292222E+02  0.51100000000E-03 0. -1.
        -11    1    3    3    0    0 -0.57679421827E+01  0.23398099650E+01  0.11896355819E+02  0.13426360256E+02  0.51100000000E-03 0.  1.
         12    1    3    3    0    0 -0.82262707018E+01 -0.14712578782E+02 -0.38851902494E+02  0.42350936607E+02  0.00000000000E+00 0. -1.
</event>
<event>
 7    1  0.3681059E-013  0.7246149E+02  0.7816164E-02  0.1226708E+00
        -11   -1    0    0    0    0  0.00000000000E+00  0.00000000000E+00  0.45593999997E+02  0.45594000000E+02  0.51100000000E-03 0. -1.
         11   -1    0    0    0    0 -0.00000000000E+00 -0.00000000000E+00 -0.45593999997E+02  0.45594000000E+02  0.51100000000E-03 0.  1.
    9900012    2    1    2    0    0 -0.35334715307E+01 -0.16874843155E+02  0.73100271384E+01  0.72461488063E+02  0.69999892879E+02 0.  0.
        -12    1    1    2    0    0  0.35334715307E+01  0.16874843155E+02 -0.73100271384E+01  0.18726511937E+02  0.00000000000E+00 0.  1.
         11    1    3    3    0    0 -0.67993621419E+01 -0.27212721344E+01  0.16346615188E+01  0.75039167178E+01  0.51100000000E-03 0. -1.
        -11    1    3    3    0    0 -0.10225943662E+02 -0.36648608577E+02 -0.32188928778E+00  0.38049888927E+02  0.51100000000E-03 0.  1.
        -12    1    3    3    0    0  0.13491834273E+02  0.22495037556E+02  0.59972549074E+01  0.26907682419E+02  0.00000000000E+00 0.  1.
</event>
<event>
 7    1  0.3681059E-013  0.7246123E+02  0.7816164E-02  0.1226709E+00
        -11   -1    0    0    0    0  0.00000000000E+00  0.00000000000E+00  0.45593999997E+02  0.45594000000E+02  0.51100000000E-03 0.  1.
         11   -1    0    0    0    0 -0.00000000000E+00 -0.00000000000E+00 -0.45593999997E+02  0.45594000000E+02  0.51100000000E-03 0. -1.
    9900012    2    1    2    0    0 -0.58491247868E+00 -0.12518889344E+02 -0.13914992984E+02  0.72461234589E+02  0.69999562680E+02 0.  0.
        -12    1    1    2    0    0  0.58491247868E+00  0.12518889344E+02  0.13914992984E+02  0.18726765411E+02  0.00000000000E+00 0.  1.
         11    1    3    3    0    0 -0.43037581545E+01  0.30221928387E+00  0.69226119729E+01  0.81569741655E+01  0.51100000000E-03 0. -1.
        -11    1    3    3    0    0  0.96954936295E+01  0.19127505277E+00  0.19348811716E+02  0.21642913342E+02  0.51100000000E-03 0.  1.
         12    1    3    3    0    0 -0.59766479536E+01 -0.13012383681E+02 -0.40186416673E+02  0.42661347081E+02  0.00000000000E+00 0. -1.
</event>
<event>
 7    1  0.5182172E-013  0.7246156E+02  0.7816164E-02  0.1226708E+00
        -11   -1    0    0    0    0  0.00000000000E+00  0.00000000000E+00  0.45593999997E+02  0.45594000000E+02  0.51100000000E-03 0. -1.
         11   -1    0    0    0    0 -0.00000000000E+00 -0.00000000000E+00 -0.45593999997E+02  0.45594000000E+02  0.51100000000E-03 0.  1.
    9900012    2    1    2    0    0 -0.68394869907E+01 -0.36074926487E+01  0.17055406251E+02  0.72461562328E+02  0.69999989622E+02 0.  0.
        -12    1    1    2    0    0  0.68394869907E+01  0.36074926487E+01 -0.17055406251E+02  0.18726437672E+02  0.00000000000E+00 0.  1.
         11    1    3    3    0    0 -0.76486908866E+01  0.77998166532E+01  0.47612690576E+01  0.11916765308E+02  0.51100000000E-03 0. -1.
        -11    1    3    3    0    0 -0.12479745571E+02  0.60735194971E+01 -0.18249189056E+02  0.22927376432E+02  0.51100000000E-03 0.  1.
         12    1    3    3    0    0  0.13288949466E+02 -0.17480828799E+02  0.30543326249E+02  0.37617420589E+02  0.00000000000E+00 0. -1.
</event>
<event>
 7    1  0.3681059E-013  0.7246154E+02  0.7816164E-02  0.1226708E+00
        -11   -1    0    0    0    0  0.00000000000E+00  0.00000000000E+00  0.45593999997E+02  0.45594000000E+02  0.51100000000E-03 0. -1.
         11   -1    0    0    0    0 -0.00000000000E+00 -0.00000000000E+00 -0.45593999997E+02  0.45594000000E+02  0.51100000000E-03 0.  1.
    9900012    2    1    2    0    0 -0.60790775191E+01  0.50661875498E+00  0.17705037620E+02  0.72461542696E+02  0.69999964048E+02 0.  0.
        -12    1    1    2    0    0  0.60790775191E+01 -0.50661875498E+00 -0.17705037620E+02  0.18726457304E+02  0.00000000000E+00 0.  1.
         11    1    3    3    0    0 -0.13968275877E+02  0.51745335260E+01  0.11133131588E+02  0.18596643444E+02  0.51100000000E-03 0. -1.
        -11    1    3    3    0    0 -0.21452201132E+02 -0.51174161471E+01 -0.44859644653E+01  0.22505749463E+02  0.51100000000E-03 0.  1.
        -12    1    3    3    0    0  0.29341399490E+02  0.44950137615E+00  0.11057870497E+02  0.31359149788E+02  0.00000000000E+00 0.  1.
</event>
<event>
 7    1  0.3681059E-013  0.7246161E+02  0.7816164E-02  0.1226708E+00
        -11   -1    0    0    0    0  0.00000000000E+00  0.00000000000E+00  0.45593999997E+02  0.45594000000E+02  0.51100000000E-03 0.  1.
         11   -1    0    0    0    0 -0.00000000000E+00 -0.00000000000E+00 -0.45593999997E+02  0.45594000000E+02  0.51100000000E-03 0. -1.
    9900012    2    1    2    0    0 -0.14717677037E+02  0.73319777872E+01 -0.89615803511E+01  0.72461605846E+02  0.70000046312E+02 0.  0.
        -12    1    1    2    0    0  0.14717677037E+02 -0.73319777872E+01  0.89615803511E+01  0.18726394154E+02  0.00000000000E+00 0.  1.
         11    1    3    3    0    0  0.91872212327E+01 -0.10948600692E+02  0.48112139756E+01  0.15080605800E+02  0.51100000000E-03 0. -1.
        -11    1    3    3    0    0 -0.28032693222E+02 -0.26577261909E+01  0.54241344349E+01  0.28676063754E+02  0.51100000000E-03 0.  1.
        -12    1    3    3    0    0  0.41277949524E+01  0.20938304671E+02 -0.19196928762E+02  0.28704936292E+02  0.00000000000E+00 0.  1.
</event>
<event>
 7    1  0.3681059E-013  0.7246163E+02  0.7816164E-02  0.1226708E+00
        -11   -1    0    0    0    0  0.00000000000E+00  0.00000000000E+00  0.45593999997E+02  0.45594000000E+02  0.51100000000E-03 0.  1.
         11   -1    0    0    0    0 -0.00000000000E+00 -0.00000000000E+00 -0.45593999997E+02  0.45594000000E+02  0.51100000000E-03 0. -1.
    9900012    2    1    2    0    0 -0.10329099896E+02 -0.48742705393E+01 -0.14840086048E+02  0.72461628972E+02  0.70000076439E+02 0.  0.
        -12    1    1    2    0    0  0.10329099896E+02  0.48742705393E+01  0.14840086048E+02  0.18726371028E+02  0.00000000000E+00 0.  1.
         11    1    3    3    0    0  0.88488853861E+01 -0.11476634003E+02 -0.30964898079E+02  0.34188313997E+02  0.51100000000E-03 0. -1.
        -11    1    3    3    0    0 -0.35694904332E+01 -0.46635064019E+01 -0.63716345005E+01  0.86652917079E+01  0.51100000000E-03 0.  1.
        -12    1    3    3    0    0 -0.15608494849E+02  0.11265869866E+02  0.22496446532E+02  0.29608023268E+02  0.00000000000E+00 0.  1.
</event>
<event>
 7    1  0.3681059E-013  0.7246156E+02  0.7816164E-02  0.1226708E+00
        -11   -1    0    0    0    0  0.00000000000E+00  0.00000000000E+00  0.45593999997E+02  0.45594000000E+02  0.51100000000E-03 0.  1.
         11   -1    0    0    0    0 -0.00000000000E+00 -0.00000000000E+00 -0.45593999997E+02  0.45594000000E+02  0.51100000000E-03 0. -1.
    9900012    2    1    2    0    0  0.15131485048E+02 -0.75374453685E+01 -0.80563370022E+01  0.72461561782E+02  0.69999988911E+02 0.  0.
        -12    1    1    2    0    0 -0.15131485048E+02  0.75374453685E+01  0.80563370022E+01  0.18726438218E+02  0.00000000000E+00 0.  1.
         11    1    3    3    0    0 -0.96664484729E+00  0.20545921722E+02 -0.33845403459E+01  0.20845249226E+02  0.51100000000E-03 0. -1.
        -11    1    3    3    0    0 -0.18074760749E+01  0.10181113370E+01  0.12988716353E+02  0.13153336961E+02  0.51100000000E-03 0.  1.
         12    1    3    3    0    0  0.17905605971E+02 -0.29101478428E+02 -0.17660513009E+02  0.38462975595E+02  0.00000000000E+00 0. -1.
</event>
<event>
 7    1  0.3681059E-013  0.7246191E+02  0.7816164E-02  0.1226707E+00
        -11   -1    0    0    0    0  0.00000000000E+00  0.00000000000E+00  0.45593999997E+02  0.45594000000E+02  0.51100000000E-03 0. -1.
         11   -1    0    0    0    0 -0.00000000000E+00 -0.00000000000E+00 -0.45593999997E+02  0.45594000000E+02  0.51100000000E-03 0.  1.
    9900012    2    1    2    0    0  0.12658303420E+02 -0.35723854291E+01  0.13329357264E+02  0.72461912630E+02  0.70000445954E+02 0.  0.
        -12    1    1    2    0    0 -0.12658303420E+02  0.35723854291E+01 -0.13329357264E+02  0.18726087370E+02  0.00000000000E+00 0.  1.
         11    1    3    3    0    0  0.28732053718E+02  0.12317123866E+02 -0.13127393536E+02  0.33905322776E+02  0.51100000000E-03 0. -1.
        -11    1    3    3    0    0  0.73248129936E+00  0.11563131750E+01  0.85591359552E+01  0.86678946448E+01  0.51100000000E-03 0.  1.
        -12    1    3    3    0    0 -0.16806231597E+02 -0.17045822470E+02  0.17897614845E+02  0.29888695209E+02  0.00000000000E+00 0.  1.
</event>
<event>
 7    1  0.3681059E-013  0.7246156E+02  0.7816164E-02  0.1226708E+00
        -11   -1    0    0    0    0  0.00000000000E+00  0.00000000000E+00  0.45593999997E+02  0.45594000000E+02  0.51100000000E-03 0. -1.
         11   -1    0    0    0    0 -0.00000000000E+00 -0.00000000000E+00 -0.45593999997E+02  0.45594000000E+02  0.51100000000E-03 0.  1.
    9900012    2    1    2    0    0  0.14837417440E+02  0.11032817526E+02  0.29677429478E+01  0.72461561016E+02  0.69999987913E+02 0.  0.
        -12    1    1    2    0    0 -0.14837417440E+02 -0.11032817526E+02 -0.29677429478E+01  0.18726438984E+02  0.00000000000E+00 0.  1.
         11    1    3    3    0    0  0.14456745357E+01 -0.20068311188E+02  0.12208814033E+02  0.23534702657E+02  0.51100000000E-03 0. -1.
        -11    1    3    3    0    0  0.13740329709E+02 -0.15341271843E+01 -0.86024381467E+01  0.16283493147E+02  0.51100000000E-03 0.  1.
        -12    1    3    3    0    0 -0.34858680489E+00  0.32635255898E+02 -0.63863293827E+00  0.32643365212E+02  0.00000000000E+00 0.  1.
</event>
<event>
 7    1  0.3681059E-013  0.7246151E+02  0.7816164E-02  0.1226708E+00
        -11   -1    0    0    0    0  0.00000000000E+00  0.00000000000E+00  0.45593999997E+02  0.45594000000E+02  0.51100000000E-03 0. -1.
         11   -1    0    0    0    0 -0.00000000000E+00 -0.00000000000E+00 -0.45593999997E+02  0.45594000000E+02  0.51100000000E-03 0.  1.
    9900012    2    1    2    0    0  0.13730810613E+02  0.93199193359E+01  0.86767110562E+01  0.72461511507E+02  0.69999923419E+02 0.  0.
        -12    1    1    2    0    0 -0.13730810613E+02 -0.93199193359E+01 -0.86767110562E+01  0.18726488493E+02  0.00000000000E+00 0.  1.
         11    1    3    3    0    0 -0.17116807872E+01 -0.10601634318E+02  0.22180758823E+02  0.24643671877E+02  0.51100000000E-03 0. -1.
        -11    1    3    3    0    0 -0.12096295986E+02  0.44667141493E+00 -0.44265107799E+01  0.12888517754E+02  0.51100000000E-03 0.  1.
        -12    1    3    3    0    0  0.27538787387E+02  0.19474882239E+02 -0.90775369874E+01  0.34929321876E+02  0.00000000000E+00 0.  1.
</event>
<event>
 7    1  0.3681059E-013  0.7246157E+02  0.7816164E-02  0.1226708E+00
        -11   -1    0    0    0    0  0.00000000000E+00  0.00000000000E+00  0.45593999997E+02  0.45594000000E+02  0.51100000000E-03 0.  1.
         11   -1    0    0    0    0 -0.00000000000E+00 -0.00000000000E+00 -0.45593999997E+02  0.45594000000E+02  0.51100000000E-03 0. -1.
    9900012    2    1    2    0    0 -0.91052465605E+01  0.15287428581E+02 -0.58367913878E+01  0.72461571583E+02  0.70000001679E+02 0.  0.
        -12    1    1    2    0    0  0.91052465605E+01 -0.15287428581E+02  0.58367913878E+01  0.18726428417E+02  0.00000000000E+00 0.  1.
         11    1    3    3    0    0 -0.21143653679E+02  0.12618812229E+01  0.13216389207E+02  0.24966364955E+02  0.51100000000E-03 0.  1.
        -11    1    3    3    0    0 -0.67816147270E+00 -0.11449489075E+02 -0.14772945221E+02  0.18702690016E+02  0.51100000000E-03 0. -1.
         12    1    3    3    0    0  0.12716568591E+02  0.25475036433E+02 -0.42802353735E+01  0.28792516612E+02  0.00000000000E+00 0. -1.
</event>
<event>
 7    1  0.3681059E-013  0.7246158E+02  0.7816164E-02  0.1226708E+00
        -11   -1    0    0    0    0  0.00000000000E+00  0.00000000000E+00  0.45593999997E+02  0.45594000000E+02  0.51100000000E-03 0.  1.
         11   -1    0    0    0    0 -0.00000000000E+00 -0.00000000000E+00 -0.45593999997E+02  0.45594000000E+02  0.51100000000E-03 0. -1.
    9900012    2    1    2    0    0 -0.14124710988E+02  0.11205570735E+02 -0.50602882041E+01  0.72461580355E+02  0.70000013106E+02 0.  0.
        -12    1    1    2    0    0  0.14124710988E+02 -0.11205570735E+02  0.50602882041E+01  0.18726419645E+02  0.00000000000E+00 0.  1.
         11    1    3    3    0    0 -0.26708976638E+02  0.16566682062E+01 -0.15221601048E+02  0.30786541237E+02  0.51100000000E-03 0. -1.
        -11    1    3    3    0    0  0.93029770624E+01  0.17963261879E+02 -0.77120044459E+01  0.21649461249E+02  0.51100000000E-03 0.  1.
        -12    1    3    3    0    0  0.32812885873E+01 -0.84143593498E+01  0.17873317290E+02  0.20025577870E+02  0.00000000000E+00 0.  1.
</event>
<event>
 7    1  0.3681059E-013  0.7246157E+02  0.7816164E-02  0.1226708E+00
        -11   -1    0    0    0    0  0.00000000000E+00  0.00000000000E+00  0.45593999997E+02  0.45594000000E+02  0.51100000000E-03 0. -1.
         11   -1    0    0    0    0 -0.00000000000E+00 -0.00000000000E+00 -0.45593999997E+02  0.45594000000E+02  0.51100000000E-03 0.  1.
    9900012    2    1    2    0    0 -0.74613428126E+01  0.16929280723E+02  0.28995006819E+01  0.72461567169E+02  0.69999995928E+02 0.  0.
        -12    1    1    2    0    0  0.74613428126E+01 -0.16929280723E+02 -0.28995006819E+01  0.18726432831E+02  0.00000000000E+00 0.  1.
         11    1    3    3    0    0  0.58789685560E+01 -0.96538365730E+01 -0.21800441556E+02  0.24556426534E+02  0.51100000000E-03 0. -1.
        -11    1    3    3    0    0 -0.16937495013E+02  0.56082991608E+01  0.41425034592E+01  0.18316443213E+02  0.51100000000E-03 0.  1.
         12    1    3    3    0    0  0.35971836444E+01  0.20974818136E+02  0.20557438778E+02  0.29588697422E+02  0.00000000000E+00 0. -1.
</event>
<event>
 7    1  0.3681059E-013  0.7246157E+02  0.7816164E-02  0.1226708E+00
        -11   -1    0    0    0    0  0.00000000000E+00  0.00000000000E+00  0.45593999997E+02  0.45594000000E+02  0.51100000000E-03 0. -1.
         11   -1    0    0    0    0 -0.00000000000E+00 -0.00000000000E+00 -0.45593999997E+02  0.45594000000E+02  0.51100000000E-03 0.  1.
    9900012    2    1    2    0    0  0.67787728411E+01 -0.76535647659E+01  0.15689181135E+02  0.72461568959E+02  0.69999998260E+02 0.  0.
        -12    1    1    2    0    0 -0.67787728411E+01  0.76535647659E+01 -0.15689181135E+02  0.18726431041E+02  0.00000000000E+00 0.  1.
         11    1    3    3    0    0  0.53994891881E+01  0.18984595202E+02  0.31653611310E+02  0.37303088983E+02  0.51100000000E-03 0. -1.
        -11    1    3    3    0    0  0.21355247822E+01  0.14013810650E+01 -0.38137130778E+01  0.45900700088E+01  0.51100000000E-03 0.  1.
        -12    1    3    3    0    0 -0.75624112920E+00 -0.28039541032E+02 -0.12150717097E+02  0.30568409967E+02  0.00000000000E+00 0.  1.
</event>
<event>
 7    1  0.3681059E-013  0.7246166E+02  0.7816164E-02  0.1226708E+00
        -11   -1    0    0    0    0  0.00000000000E+00  0.00000000000E+00  0.45593999997E+02  0.45594000000E+02  0.51100000000E-03 0.  1.
         11   -1    0    0    0    0 -0.00000000000E+00 -0.00000000000E+00 -0.45593999997E+02  0.45594000000E+02  0.51100000000E-03 0. -1.
    9900012    2    1    2    0    0 -0.10556058535E+02 -0.10783459426E+02 -0.11088845895E+02  0.72461658332E+02  0.70000114685E+02 0.  0.
        -12    1    1    2    0    0  0.10556058535E+02  0.10783459426E+02  0.11088845895E+02  0.18726341668E+02  0.00000000000E+00 0.  1.
         11    1    3    3    0    0  0.83201836305E+01  0.94160512070E+01 -0.21929768865E+01  0.12755258675E+02  0.51100000000E-03 0. -1.
        -11    1    3    3    0    0 -0.67217137928E+01  0.16877553931E+02  0.40190563969E+01  0.18606076362E+02  0.51100000000E-03 0.  1.
         12    1    3    3    0    0 -0.12154528373E+02 -0.37077064565E+02 -0.12914925405E+02  0.41100323295E+02  0.00000000000E+00 0. -1.
</event>
<event>
 7    1  0.3681059E-013  0.7246158E+02  0.7816164E-02  0.1226708E+00
        -11   -1    0    0    0    0  0.00000000000E+00  0.00000000000E+00  0.45593999997E+02  0.45594000000E+02  0.51100000000E-03 0. -1.
         11   -1    0    0    0    0 -0.00000000000E+00 -0.00000000000E+00 -0.45593999997E+02  0.45594000000E+02  0.51100000000E-03 0.  1.
    9900012    2    1    2    0    0 -0.61880950747E+01  0.17260331247E+02 -0.38035841231E+01  0.72461579958E+02  0.70000012588E+02 0.  0.
        -12    1    1    2    0    0  0.61880950747E+01 -0.17260331247E+02  0.38035841231E+01  0.18726420042E+02  0.00000000000E+00 0.  1.
         11    1    3    3    0    0 -0.28655071041E+02  0.15476221489E+02 -0.32373534333E+01  0.32727770859E+02  0.51100000000E-03 0. -1.
        -11    1    3    3    0    0 -0.65672080022E+01 -0.23408870674E+01 -0.68152560541E+01  0.97496506887E+01  0.51100000000E-03 0.  1.
        -12    1    3    3    0    0  0.29034183968E+02  0.41249968263E+01  0.62490253643E+01  0.29984158409E+02  0.00000000000E+00 0.  1.
</event>
<event>
 7    1  0.3681059E-013  0.7246157E+02  0.7816164E-02  0.1226708E+00
        -11   -1    0    0    0    0  0.00000000000E+00  0.00000000000E+00  0.45593999997E+02  0.45594000000E+02  0.51100000000E-03 0. -1.
         11   -1    0    0    0    0 -0.00000000000E+00 -0.00000000000E+00 -0.45593999997E+02  0.45594000000E+02  0.51100000000E-03 0.  1.
    9900012    2    1    2    0    0 -0.12940598517E+02 -0.73940681290E+01  0.11337898931E+02  0.72461567194E+02  0.69999995961E+02 0.  0.
        -12    1    1    2    0    0  0.12940598517E+02  0.73940681290E+01 -0.11337898931E+02  0.18726432806E+02  0.00000000000E+00 0.  1.
         11    1    3    3    0    0 -0.22647490297E+01 -0.20462607008E+02 -0.19132440125E+01  0.20676263605E+02  0.51100000000E-03 0. -1.
        -11    1    3    3    0    0 -0.57897413904E+01 -0.17222600497E+02  0.10485571557E+02  0.20978233586E+02  0.51100000000E-03 0.  1.
        -12    1    3    3    0    0 -0.48861080972E+01  0.30291139376E+02  0.27655713862E+01  0.30807070003E+02  0.00000000000E+00 0.  1.
</event>
<event>
 7    1  0.3681059E-013  0.7246158E+02  0.7816164E-02  0.1226708E+00
        -11   -1    0    0    0    0  0.00000000000E+00  0.00000000000E+00  0.45593999997E+02  0.45594000000E+02  0.51100000000E-03 0. -1.
         11   -1    0    0    0    0 -0.00000000000E+00 -0.00000000000E+00 -0.45593999997E+02  0.45594000000E+02  0.51100000000E-03 0.  1.
    9900012    2    1    2    0    0  0.20984312268E+01 -0.17267292826E+02  0.69365741224E+01  0.72461578139E+02  0.70000010219E+02 0.  0.
        -12    1    1    2    0    0 -0.20984312268E+01  0.17267292826E+02 -0.69365741224E+01  0.18726421861E+02  0.00000000000E+00 0.  1.
         11    1    3    3    0    0 -0.15874722098E+02 -0.27381359603E+02  0.20891844469E+01  0.31719242540E+02  0.51100000000E-03 0. -1.
        -11    1    3    3    0    0 -0.12071422815E+01  0.59326236413E+00  0.16370346350E+02  0.16425510421E+02  0.51100000000E-03 0.  1.
        -12    1    3    3    0    0  0.19180295607E+02  0.95208044129E+01 -0.11522956674E+02  0.24316825178E+02  0.00000000000E+00 0.  1.
</event>
<event>
 7    1  0.3681059E-013  0.7246157E+02  0.7816164E-02  0.1226708E+00
        -11   -1    0    0    0    0  0.00000000000E+00  0.00000000000E+00  0.45593999997E+02  0.45594000000E+02  0.51100000000E-03 0. -1.
         11   -1    0    0    0    0 -0.00000000000E+00 -0.00000000000E+00 -0.45593999997E+02  0.45594000000E+02  0.51100000000E-03 0.  1.
    9900012    2    1    2    0    0 -0.11183875631E+02 -0.10919183982E+02  0.10313660295E+02  0.72461568369E+02  0.69999997491E+02 0.  0.
        -12    1    1    2    0    0  0.11183875631E+02  0.10919183982E+02 -0.10313660295E+02  0.18726431631E+02  0.00000000000E+00 0.  1.
         11    1    3    3    0    0 -0.51380376125E+01 -0.24224175723E+02  0.16002995779E+02  0.29483995559E+02  0.51100000000E-03 0. -1.
        -11    1    3    3    0    0 -0.16239499038E+02  0.12935314654E+02  0.10941120466E+02  0.23468102001E+02  0.51100000000E-03 0.  1.
         12    1    3    3    0    0  0.10193661020E+02  0.36967708638E+00 -0.16630455950E+02  0.19509470808E+02  0.00000000000E+00 0. -1.
</event>
<event>
 7    1  0.3681059E-013  0.7246160E+02  0.7816164E-02  0.1226708E+00
        -11   -1    0    0    0    0  0.00000000000E+00  0.00000000000E+00  0.45593999997E+02  0.45594000000E+02  0.51100000000E-03 0.  1.
         11   -1    0    0    0    0 -0.00000000000E+00 -0.00000000000E+00 -0.45593999997E+02  0.45594000000E+02  0.51100000000E-03 0. -1.
    9900012    2    1    2    0    0  0.14794910135E+02 -0.31441793556E+01 -0.11040965000E+02  0.72461597840E+02  0.70000035884E+02 0.  0.
        -12    1    1    2    0    0 -0.14794910135E+02  0.31441793556E+01  0.11040965000E+02  0.18726402160E+02  0.00000000000E+00 0.  1.
         11    1    3    3    0    0  0.12496510967E+01  0.22151945280E+01 -0.45902048540E+01  0.52477324173E+01  0.51100000000E-03 0. -1.
        -11    1    3    3    0    0  0.37131125180E+02  0.39043393241E+01  0.77996461321E+01  0.38141824848E+02  0.51100000000E-03 0.  1.
         12    1    3    3    0    0 -0.23585866142E+02 -0.92637132077E+01 -0.14250406278E+02  0.29072040574E+02  0.00000000000E+00 0. -1.
</event>
<event>
 7    1  0.3681059E-013  0.7246151E+02  0.7816164E-02  0.1226708E+00
        -11   -1    0    0    0    0  0.00000000000E+00  0.00000000000E+00  0.45593999997E+02  0.45594000000E+02  0.51100000000E-03 0.  1.
         11   -1    0    0    0    0 -0.00000000000E+00 -0.00000000000E+00 -0.45593999997E+02  0.45594000000E+02  0.51100000000E-03 0. -1.
    9900012    2    1    2    0    0 -0.13856991573E+02 -0.91505207852E+01  0.86563916096E+01  0.72461511760E+02  0.69999923749E+02 0.  0.
        -12    1    1    2    0    0  0.13856991573E+02  0.91505207852E+01 -0.86563916096E+01  0.18726488240E+02  0.00000000000E+00 0.  1.
         11    1    3    3    0    0  0.80347182368E+00  0.83888400159E+01 -0.26491718443E+02  0.27799808455E+02  0.51100000000E-03 0. -1.
        -11    1    3    3    0    0  0.24887144772E+01 -0.38078431086E+00  0.73364335428E+01  0.77564137222E+01  0.51100000000E-03 0.  1.
        -12    1    3    3    0    0 -0.17149177874E+02 -0.17158576490E+02  0.27811676510E+02  0.36905289583E+02  0.00000000000E+00 0.  1.
</event>
<event>
 7    1  0.3681059E-013  0.7246165E+02  0.7816164E-02  0.1226708E+00
        -11   -1    0    0    0    0  0.00000000000E+00  0.00000000000E+00  0.45593999997E+02  0.45594000000E+02  0.51100000000E-03 0.  1.
         11   -1    0    0    0    0 -0.00000000000E+00 -0.00000000000E+00 -0.45593999997E+02  0.45594000000E+02  0.51100000000E-03 0. -1.
    9900012    2    1    2    0    0 -0.18722086103E+02  0.10583717471E+00 -0.38524768611E+00  0.72461651575E+02  0.70000105883E+02 0.  0.
        -12    1    1    2    0    0  0.18722086103E+02 -0.10583717471E+00  0.38524768611E+00  0.18726348425E+02  0.00000000000E+00 0.  1.
         11    1    3    3    0    0 -0.82615379412E+01 -0.20026750617E+02  0.95226792008E+01  0.23664428344E+02  0.51100000000E-03 0. -1.
        -11    1    3    3    0    0  0.37817770500E+01 -0.11583523543E+02  0.13332062067E+01  0.12257948212E+02  0.51100000000E-03 0.  1.
        -12    1    3    3    0    0 -0.14242325212E+02  0.31716111335E+02 -0.11241133094E+02  0.36539275018E+02  0.00000000000E+00 0.  1.
</event>
<event>
 7    1  0.3681059E-013  0.7246159E+02  0.7816164E-02  0.1226708E+00
        -11   -1    0    0    0    0  0.00000000000E+00  0.00000000000E+00  0.45593999997E+02  0.45594000000E+02  0.51100000000E-03 0. -1.
         11   -1    0    0    0    0 -0.00000000000E+00 -0.00000000000E+00 -0.45593999997E+02  0.45594000000E+02  0.51100000000E-03 0.  1.
    9900012    2    1    2    0    0 -0.13952637997E+02 -0.12327179056E+02  0.20107299471E+01  0.72461588559E+02  0.70000023793E+02 0.  0.
        -12    1    1    2    0    0  0.13952637997E+02  0.12327179056E+02 -0.20107299471E+01  0.18726411441E+02  0.00000000000E+00 0.  1.
         11    1    3    3    0    0  0.65937224668E+00  0.19574570971E+02  0.87581156967E+01  0.21454677608E+02  0.51100000000E-03 0. -1.
        -11    1    3    3    0    0  0.10605425813E+02 -0.97969300111E+00 -0.17692675948E+01  0.10796534774E+02  0.51100000000E-03 0.  1.
         12    1    3    3    0    0 -0.25217436056E+02 -0.30922057025E+02 -0.49781181548E+01  0.40210376177E+02  0.00000000000E+00 0. -1.
</event>
<event>
 7    1  0.3681059E-013  0.7246159E+02  0.7816164E-02  0.1226708E+00
        -11   -1    0    0    0    0  0.00000000000E+00  0.00000000000E+00  0.45593999997E+02  0.45594000000E+02  0.51100000000E-03 0. -1.
         11   -1    0    0    0    0 -0.00000000000E+00 -0.00000000000E+00 -0.45593999997E+02  0.45594000000E+02  0.51100000000E-03 0.  1.
    9900012    2    1    2    0    0  0.64981485665E+01 -0.16684166238E+01  0.17483391881E+02  0.72461587090E+02  0.70000021879E+02 0.  0.
        -12    1    1    2    0    0 -0.64981485665E+01  0.16684166238E+01 -0.17483391881E+02  0.18726412910E+02  0.00000000000E+00 0.  1.
         11    1    3    3    0    0 -0.12974130604E+02  0.82888514617E+01  0.11302484191E+02  0.19099195602E+02  0.51100000000E-03 0. -1.
        -11    1    3    3    0    0 -0.97910035281E+01 -0.59141892967E+01 -0.13629665310E+02  0.17793514601E+02  0.51100000000E-03 0.  1.
        -12    1    3    3    0    0  0.29263282699E+02 -0.40430787887E+01  0.19810573000E+02  0.35568876887E+02  0.00000000000E+00 0.  1.
</event>
<event>
 7    1  0.3681059E-013  0.7246149E+02  0.7816164E-02  0.1226708E+00
        -11   -1    0    0    0    0  0.00000000000E+00  0.00000000000E+00  0.45593999997E+02  0.45594000000E+02  0.51100000000E-03 0.  1.
         11   -1    0    0    0    0 -0.00000000000E+00 -0.00000000000E+00 -0.45593999997E+02  0.45594000000E+02  0.51100000000E-03 0. -1.
    9900012    2    1    2    0    0 -0.10976471168E+02 -0.14975782201E+02 -0.24341899308E+01  0.72461487980E+02  0.69999892770E+02 0.  0.
        -12    1    1    2    0    0  0.10976471168E+02  0.14975782201E+02  0.24341899308E+01  0.18726512020E+02  0.00000000000E+00 0.  1.
         11    1    3    3    0    0 -0.19653658519E+02 -0.29342687629E+01 -0.25096453507E+02  0.32011063794E+02  0.51100000000E-03 0. -1.
        -11    1    3    3    0    0 -0.68616012637E+01 -0.49604067871E+01 -0.35382669952E+01  0.91764122067E+01  0.51100000000E-03 0.  1.
        -12    1    3    3    0    0  0.15538788615E+02 -0.70811066508E+01  0.26200530572E+02  0.31274011979E+02  0.00000000000E+00 0.  1.
</event>
<event>
 7    1  0.3681059E-013  0.7246160E+02  0.7816164E-02  0.1226708E+00
        -11   -1    0    0    0    0  0.00000000000E+00  0.00000000000E+00  0.45593999997E+02  0.45594000000E+02  0.51100000000E-03 0. -1.
         11   -1    0    0    0    0 -0.00000000000E+00 -0.00000000000E+00 -0.45593999997E+02  0.45594000000E+02  0.51100000000E-03 0.  1.
    9900012    2    1    2    0    0 -0.60265672996E+01  0.11427234743E+02  0.13556429873E+02  0.72461601569E+02  0.70000040741E+02 0.  0.
        -12    1    1    2    0    0  0.60265672996E+01 -0.11427234743E+02 -0.13556429873E+02  0.18726398431E+02  0.00000000000E+00 0.  1.
         11    1    3    3    0    0  0.60482196589E+01  0.89209950083E+01 -0.20739398713E+01  0.10975715914E+02  0.51100000000E-03 0. -1.
        -11    1    3    3    0    0  0.12842270595E+02 -0.16978213050E+02 -0.72041999049E+01  0.22474076821E+02  0.51100000000E-03 0.  1.
         12    1    3    3    0    0 -0.24917057554E+02  0.19484452785E+02  0.22834569649E+02  0.39011808834E+02  0.00000000000E+00 0. -1.
</event>
<event>
 7    1  0.3681059E-013  0.7246160E+02  0.7816164E-02  0.1226708E+00
        -11   -1    0    0    0    0  0.00000000000E+00  0.00000000000E+00  0.45593999997E+02  0.45594000000E+02  0.51100000000E-03 0. -1.
         11   -1    0    0    0    0 -0.00000000000E+00 -0.00000000000E+00 -0.45593999997E+02  0.45594000000E+02  0.51100000000E-03 0.  1.
    9900012    2    1    2    0    0 -0.16341125815E+02 -0.36482099491E+01  0.83866622994E+01  0.72461603303E+02  0.70000042999E+02 0.  0.
        -12    1    1    2    0    0  0.16341125815E+02  0.36482099491E+01 -0.83866622994E+01  0.18726396697E+02  0.00000000000E+00 0.  1.
         11    1    3    3    0    0 -0.11844042790E+02  0.81358530580E+01 -0.20680345769E+02  0.25182338175E+02  0.51100000000E-03 0. -1.
        -11    1    3    3    0    0 -0.70155299802E+00 -0.17904252173E+02  0.61344477819E+00  0.17928489541E+02  0.51100000000E-03 0.  1.
         12    1    3    3    0    0 -0.37955300270E+01  0.61201891658E+01  0.28453563290E+02  0.29350775586E+02  0.00000000000E+00 0. -1.
</event>
<event>
 7    1  0.3681059E-013  0.7246171E+02  0.7816164E-02  0.1226708E+00
        -11   -1    0    0    0    0  0.00000000000E+00  0.00000000000E+00  0.45593999997E+02  0.45594000000E+02  0.51100000000E-03 0. -1.
         11   -1    0    0    0    0 -0.00000000000E+00 -0.00000000000E+00 -0.45593999997E+02  0.45594000000E+02  0.51100000000E-03 0.  1.
    9900012    2    1    2    0    0  0.12431459822E+02 -0.97213056294E+01 -0.10081113868E+02  0.72461712774E+02  0.70000185606E+02 0.  0.
        -12    1    1    2    0    0 -0.12431459822E+02  0.97213056294E+01  0.10081113868E+02  0.18726287226E+02  0.00000000000E+00 0.  1.
         11    1    3    3    0    0  0.29004048645E+02 -0.10585517248E+02  0.32291373454E+01  0.31043764937E+02  0.51100000000E-03 0. -1.
        -11    1    3    3    0    0  0.35350960082E+01  0.12643096861E+01 -0.19902434013E+02  0.20253450636E+02  0.51100000000E-03 0.  1.
        -12    1    3    3    0    0 -0.20107684831E+02 -0.40009806758E+00  0.65921827997E+01  0.21164497201E+02  0.00000000000E+00 0.  1.
</event>
<event>
 7    1  0.3681059E-013  0.7246159E+02  0.7816164E-02  0.1226708E+00
        -11   -1    0    0    0    0  0.00000000000E+00  0.00000000000E+00  0.45593999997E+02  0.45594000000E+02  0.51100000000E-03 0. -1.
         11   -1    0    0    0    0 -0.00000000000E+00 -0.00000000000E+00 -0.45593999997E+02  0.45594000000E+02  0.51100000000E-03 0.  1.
    9900012    2    1    2    0    0 -0.76715495380E+01  0.93149751123E+01  0.14319816438E+02  0.72461586129E+02  0.70000020627E+02 0.  0.
        -12    1    1    2    0    0  0.76715495380E+01 -0.93149751123E+01 -0.14319816438E+02  0.18726413871E+02  0.00000000000E+00 0.  1.
         11    1    3    3    0    0  0.41503764513E+01  0.19038422051E+01 -0.21675468941E+01  0.50545523668E+01  0.51100000000E-03 0. -1.
        -11    1    3    3    0    0  0.76310783203E+00  0.19644022219E+02 -0.19299079250E+02  0.27548582589E+02  0.51100000000E-03 0.  1.
         12    1    3    3    0    0 -0.12585033821E+02 -0.12232889312E+02  0.35786442582E+02  0.39858451173E+02  0.00000000000E+00 0. -1.
</event>
<event>
 7    1  0.3681059E-013  0.7246158E+02  0.7816164E-02  0.1226708E+00
        -11   -1    0    0    0    0  0.00000000000E+00  0.00000000000E+00  0.45593999997E+02  0.45594000000E+02  0.51100000000E-03 0. -1.
         11   -1    0    0    0    0 -0.00000000000E+00 -0.00000000000E+00 -0.45593999997E+02  0.45594000000E+02  0.51100000000E-03 0.  1.
    9900012    2    1    2    0    0 -0.14641874734E+02  0.40012536619E+01 -0.10967414262E+02  0.72461582772E+02  0.70000016254E+02 0.  0.
        -12    1    1    2    0    0  0.14641874734E+02 -0.40012536619E+01  0.10967414262E+02  0.18726417228E+02  0.00000000000E+00 0.  1.
         11    1    3    3    0    0 -0.40520437182E+01 -0.22215483720E+02 -0.54952844043E+01  0.23241018182E+02  0.51100000000E-03 0. -1.
        -11    1    3    3    0    0 -0.11540526056E+02 -0.75296944072E+01 -0.69403748293E+01  0.15428831535E+02  0.51100000000E-03 0.  1.
         12    1    3    3    0    0  0.95069503960E+00  0.33746431789E+02  0.14682449713E+01  0.33791733055E+02  0.00000000000E+00 0. -1.
</event>
<event>
 7    1  0.3681059E-013  0.7246151E+02  0.7816164E-02  0.1226708E+00
        -11   -1    0    0    0    0  0.00000000000E+00  0.00000000000E+00  0.45593999997E+02  0.45594000000E+02  0.51100000000E-03 0.  1.
         11   -1    0    0    0    0 -0.00000000000E+00 -0.00000000000E+00 -0.45593999997E+02  0.45594000000E+02  0.51100000000E-03 0. -1.
    9900012    2    1    2    0    0 -0.26796037050E+01 -0.17825769457E+02  0.50737809675E+01  0.72461505773E+02  0.69999915949E+02 0.  0.
        -12    1    1    2    0    0  0.26796037050E+01  0.17825769457E+02 -0.50737809675E+01  0.18726494227E+02  0.00000000000E+00 0.  1.
         11    1    3    3    0    0 -0.13875222500E+02  0.97842058314E+01  0.31516426010E+01  0.17268043737E+02  0.51100000000E-03 0. -1.
        -11    1    3    3    0    0 -0.12423949195E+02 -0.27649878140E+02  0.68218372374E+01  0.31071011221E+02  0.51100000000E-03 0.  1.
         12    1    3    3    0    0  0.23619567990E+02  0.39902851682E-01 -0.48996988709E+01  0.24122450814E+02  0.00000000000E+00 0. -1.
</event>
<event>
 7    1  0.3681059E-013  0.7246153E+02  0.7816164E-02  0.1226708E+00
        -11   -1    0    0    0    0  0.00000000000E+00  0.00000000000E+00  0.45593999997E+02  0.45594000000E+02  0.51100000000E-03 0. -1.
         11   -1    0    0    0    0 -0.00000000000E+00 -0.00000000000E+00 -0.45593999997E+02  0.45594000000E+02  0.51100000000E-03 0.  1.
    9900012    2    1    2    0    0 -0.16615090749E+02  0.72946598708E+01  0.46267993464E+01  0.72461532757E+02  0.69999951101E+02 0.  0.
        -12    1    1    2    0    0  0.16615090749E+02 -0.72946598708E+01 -0.46267993464E+01  0.18726467243E+02  0.00000000000E+00 0.  1.
         11    1    3    3    0    0 -0.34704850642E+02  0.14418273326E+02  0.13644130280E+02  0.39980939898E+02  0.51100000000E-03 0. -1.
        -11    1    3    3    0    0 -0.27874524257E+01  0.73141847373E+00  0.52592221075E+01  0.59970227152E+01  0.51100000000E-03 0.  1.
        -12    1    3    3    0    0  0.20877212319E+02 -0.78550319288E+01 -0.14276553041E+02  0.26483570144E+02  0.00000000000E+00 0.  1.
</event>
<event>
 7    1  0.3681059E-013  0.7246168E+02  0.7816164E-02  0.1226708E+00
        -11   -1    0    0    0    0  0.00000000000E+00  0.00000000000E+00  0.45593999997E+02  0.45594000000E+02  0.51100000000E-03 0.  1.
         11   -1    0    0    0    0 -0.00000000000E+00 -0.00000000000E+00 -0.45593999997E+02  0.45594000000E+02  0.51100000000E-03 0. -1.
    9900012    2    1    2    0    0 -0.86560876604E+01 -0.11390822191E+02 -0.12082888568E+02  0.72461684828E+02  0.70000149202E+02 0.  0.
        -12    1    1    2    0    0  0.86560876604E+01  0.11390822191E+02  0.12082888568E+02  0.18726315172E+02  0.00000000000E+00 0.  1.
         11    1    3    3    0    0 -0.61337574351E+01  0.15844245729E+02 -0.13999924665E+02  0.22015017463E+02  0.51100000000E-03 0. -1.
        -11    1    3    3    0    0  0.28177885620E+01 -0.22914479595E+02 -0.18066358507E+02  0.29315637763E+02  0.51100000000E-03 0.  1.
        -12    1    3    3    0    0 -0.53401187874E+01 -0.43205883246E+01  0.19983394604E+02  0.21131029602E+02  0.00000000000E+00 0.  1.
</event>
<event>
 7    1  0.3681059E-013  0.7246080E+02  0.7816164E-02  0.1226710E+00
        -11   -1    0    0    0    0  0.00000000000E+00  0.00000000000E+00  0.45593999997E+02  0.45594000000E+02  0.51100000000E-03 0.  1.
         11   -1    0    0    0    0 -0.00000000000E+00 -0.00000000000E+00 -0.45593999997E+02  0.45594000000E+02  0.51100000000E-03 0. -1.
    9900012    2    1    2    0    0 -0.10911171171E+02 -0.10880757122E+02 -0.10642527698E+02  0.72460802460E+02  0.69998999747E+02 0.  0.
        -12    1    1    2    0    0  0.10911171171E+02  0.10880757122E+02  0.10642527698E+02  0.18727197540E+02  0.00000000000E+00 0.  1.
         11    1    3    3    0    0  0.14794659506E+02 -0.56334788683E+01  0.46548236873E+01  0.16501073234E+02  0.51100000000E-03 0.  1.
        -11    1    3    3    0    0 -0.15713646006E+02  0.19775163482E+02 -0.14238850302E+02  0.28995182698E+02  0.51100000000E-03 0. -1.
         12    1    3    3    0    0 -0.99921846717E+01 -0.25022441735E+02 -0.10585010839E+01  0.26964546528E+02  0.00000000000E+00 0. -1.
</event>
<event>
 7    1  0.3681059E-013  0.7246157E+02  0.7816164E-02  0.1226708E+00
        -11   -1    0    0    0    0  0.00000000000E+00  0.00000000000E+00  0.45593999997E+02  0.45594000000E+02  0.51100000000E-03 0. -1.
         11   -1    0    0    0    0 -0.00000000000E+00 -0.00000000000E+00 -0.45593999997E+02  0.45594000000E+02  0.51100000000E-03 0.  1.
    9900012    2    1    2    0    0  0.59759706617E+01  0.93732640368E+01  0.15070129030E+02  0.72461572337E+02  0.70000002661E+02 0.  0.
        -12    1    1    2    0    0 -0.59759706617E+01 -0.93732640368E+01 -0.15070129030E+02  0.18726427663E+02  0.00000000000E+00 0.  1.
         11    1    3    3    0    0 -0.13158782240E+02  0.19551738035E+02  0.11444917756E+02  0.26199430393E+02  0.51100000000E-03 0. -1.
        -11    1    3    3    0    0  0.32981324711E+01 -0.49684859888E+01 -0.17996810049E+02  0.18959132443E+02  0.51100000000E-03 0.  1.
         12    1    3    3    0    0  0.15836620430E+02 -0.52099880095E+01  0.21622021322E+02  0.27303009500E+02  0.00000000000E+00 0. -1.
</event>
<event>
 7    1  0.3681059E-013  0.7246157E+02  0.7816164E-02  0.1226708E+00
        -11   -1    0    0    0    0  0.00000000000E+00  0.00000000000E+00  0.45593999997E+02  0.45594000000E+02  0.51100000000E-03 0. -1.
         11   -1    0    0    0    0 -0.00000000000E+00 -0.00000000000E+00 -0.45593999997E+02  0.45594000000E+02  0.51100000000E-03 0.  1.
    9900012    2    1    2    0    0 -0.17983774136E+02 -0.20631559928E+01 -0.47964923886E+01  0.72461572576E+02  0.70000002972E+02 0.  0.
        -12    1    1    2    0    0  0.17983774136E+02  0.20631559928E+01  0.47964923886E+01  0.18726427424E+02  0.00000000000E+00 0.  1.
         11    1    3    3    0    0 -0.16691633649E+01 -0.24945738835E+01 -0.21911618568E+01  0.37162071717E+01  0.51100000000E-03 0. -1.
        -11    1    3    3    0    0  0.17769512551E+02  0.11583638813E+02 -0.19761614285E+02  0.28990647869E+02  0.51100000000E-03 0.  1.
         12    1    3    3    0    0 -0.34084123322E+02 -0.11152220922E+02  0.17156283753E+02  0.39754717536E+02  0.00000000000E+00 0. -1.
</event>
<event>
 7    1  0.3681059E-013  0.7246155E+02  0.7816164E-02  0.1226708E+00
        -11   -1    0    0    0    0  0.00000000000E+00  0.00000000000E+00  0.45593999997E+02  0.45594000000E+02  0.51100000000E-03 0. -1.
         11   -1    0    0    0    0 -0.00000000000E+00 -0.00000000000E+00 -0.45593999997E+02  0.45594000000E+02  0.51100000000E-03 0.  1.
    9900012    2    1    2    0    0  0.14294951542E+02 -0.10313594408E+02 -0.63217053472E+01  0.72461552721E+02  0.69999977107E+02 0.  0.
        -12    1    1    2    0    0 -0.14294951542E+02  0.10313594408E+02  0.63217053472E+01  0.18726447279E+02  0.00000000000E+00 0.  1.
         11    1    3    3    0    0  0.38483179837E+01  0.81290971693E+00 -0.81455348045E+01  0.90454469775E+01  0.51100000000E-03 0. -1.
        -11    1    3    3    0    0 -0.12735680731E+02 -0.21624303631E+02 -0.18227850586E+02  0.31017134111E+02  0.51100000000E-03 0.  1.
         12    1    3    3    0    0  0.23182314290E+02  0.10497799506E+02  0.20051680043E+02  0.32398971633E+02  0.00000000000E+00 0. -1.
</event>
<event>
 7    1  0.3681059E-013  0.7246157E+02  0.7816164E-02  0.1226708E+00
        -11   -1    0    0    0    0  0.00000000000E+00  0.00000000000E+00  0.45593999997E+02  0.45594000000E+02  0.51100000000E-03 0. -1.
         11   -1    0    0    0    0 -0.00000000000E+00 -0.00000000000E+00 -0.45593999997E+02  0.45594000000E+02  0.51100000000E-03 0.  1.
    9900012    2    1    2    0    0  0.69721961397E+01 -0.10092768955E+02  0.14149335159E+02  0.72461569758E+02  0.69999999301E+02 0.  0.
        -12    1    1    2    0    0 -0.69721961397E+01  0.10092768955E+02 -0.14149335159E+02  0.18726430242E+02  0.00000000000E+00 0.  1.
         11    1    3    3    0    0 -0.11399543066E+01 -0.20435878513E+02  0.10367197945E+02  0.22943483168E+02  0.51100000000E-03 0. -1.
        -11    1    3    3    0    0 -0.12153784798E+02 -0.12147983564E+02 -0.51747752211E+01  0.17946205405E+02  0.51100000000E-03 0.  1.
        -12    1    3    3    0    0  0.20265935244E+02  0.22491093122E+02  0.89569124347E+01  0.31571881184E+02  0.00000000000E+00 0.  1.
</event>
<event>
 7    1  0.3681059E-013  0.7246159E+02  0.7816164E-02  0.1226708E+00
        -11   -1    0    0    0    0  0.00000000000E+00  0.00000000000E+00  0.45593999997E+02  0.45594000000E+02  0.51100000000E-03 0. -1.
         11   -1    0    0    0    0 -0.00000000000E+00 -0.00000000000E+00 -0.45593999997E+02  0.45594000000E+02  0.51100000000E-03 0.  1.
    9900012    2    1    2    0    0 -0.10006080352E+02  0.53129924820E+01  0.14910700961E+02  0.72461587203E+02  0.70000022026E+02 0.  0.
        -12    1    1    2    0    0  0.10006080352E+02 -0.53129924820E+01 -0.14910700961E+02  0.18726412797E+02  0.00000000000E+00 0.  1.
         11    1    3    3    0    0 -0.45492281724E+01 -0.38771056877E+01  0.21367077097E+02  0.22187370494E+02  0.51100000000E-03 0. -1.
        -11    1    3    3    0    0 -0.25324182970E+02 -0.28682215034E+01  0.19491541973E+01  0.25560519166E+02  0.51100000000E-03 0.  1.
        -12    1    3    3    0    0  0.19867330790E+02  0.12058319673E+02 -0.84055303341E+01  0.24713697543E+02  0.00000000000E+00 0.  1.
</event>
<event>
 7    1  0.3681059E-013  0.7246157E+02  0.7816164E-02  0.1226708E+00
        -11   -1    0    0    0    0  0.00000000000E+00  0.00000000000E+00  0.45593999997E+02  0.45594000000E+02  0.51100000000E-03 0. -1.
         11   -1    0    0    0    0 -0.00000000000E+00 -0.00000000000E+00 -0.45593999997E+02  0.45594000000E+02  0.51100000000E-03 0.  1.
    9900012    2    1    2    0    0  0.11189363516E+02  0.13489678313E+02 -0.65958983310E+01  0.72461570771E+02  0.70000000621E+02 0.  0.
        -12    1    1    2    0    0 -0.11189363516E+02 -0.13489678313E+02  0.65958983310E+01  0.18726429229E+02  0.00000000000E+00 0.  1.
         11    1    3    3    0    0 -0.53744568149E+01  0.92516654614E+01 -0.11291694775E+02  0.15555721488E+02  0.51100000000E-03 0. -1.
        -11    1    3    3    0    0 -0.14785163018E+02  0.17120968781E+01 -0.13903154577E+02  0.20367376577E+02  0.51100000000E-03 0.  1.
        -12    1    3    3    0    0  0.31348983349E+02  0.25259159734E+01  0.18598951022E+02  0.36538472705E+02  0.00000000000E+00 0.  1.
</event>
<event>
 7    1  0.3681059E-013  0.7246156E+02  0.7816164E-02  0.1226708E+00
        -11   -1    0    0    0    0  0.00000000000E+00  0.00000000000E+00  0.45593999997E+02  0.45594000000E+02  0.51100000000E-03 0.  1.
         11   -1    0    0    0    0 -0.00000000000E+00 -0.00000000000E+00 -0.45593999997E+02  0.45594000000E+02  0.51100000000E-03 0. -1.
    9900012    2    1    2    0    0  0.11062279230E+02 -0.15108909734E+02 -0.16294704975E+00  0.72461555413E+02  0.69999980614E+02 0.  0.
        -12    1    1    2    0    0 -0.11062279230E+02  0.15108909734E+02  0.16294704975E+00  0.18726444587E+02  0.00000000000E+00 0.  1.
         11    1    3    3    0    0 -0.18398606605E+02 -0.45846687639E+01  0.23114190349E+02  0.29896382866E+02  0.51100000000E-03 0. -1.
        -11    1    3    3    0    0 -0.14774557331E+01  0.89044886633E+00 -0.40267743569E+01  0.43807175907E+01  0.51100000000E-03 0.  1.
        -12    1    3    3    0    0  0.30938341569E+02 -0.11414689836E+02 -0.19250363042E+02  0.38184454957E+02  0.00000000000E+00 0.  1.
</event>
<event>
 7    1  0.3681059E-013  0.7246156E+02  0.7816164E-02  0.1226708E+00
        -11   -1    0    0    0    0  0.00000000000E+00  0.00000000000E+00  0.45593999997E+02  0.45594000000E+02  0.51100000000E-03 0. -1.
         11   -1    0    0    0    0 -0.00000000000E+00 -0.00000000000E+00 -0.45593999997E+02  0.45594000000E+02  0.51100000000E-03 0.  1.
    9900012    2    1    2    0    0 -0.10687741300E+02  0.12357626618E+02  0.91510033373E+01  0.72461558485E+02  0.69999984616E+02 0.  0.
        -12    1    1    2    0    0  0.10687741300E+02 -0.12357626618E+02 -0.91510033373E+01  0.18726441515E+02  0.00000000000E+00 0.  1.
         11    1    3    3    0    0 -0.73374849602E+01  0.33752183558E+02 -0.20446155301E+01  0.34600997578E+02  0.51100000000E-03 0. -1.
        -11    1    3    3    0    0  0.75252648962E+01  0.34707510244E+01 -0.51301503744E+00  0.83029458099E+01  0.51100000000E-03 0.  1.
        -12    1    3    3    0    0 -0.10875521236E+02 -0.24865307964E+02  0.11708633905E+02  0.29557615097E+02  0.00000000000E+00 0.  1.
</event>
<event>
 7    1  0.3681059E-013  0.7246150E+02  0.7816164E-02  0.1226708E+00
        -11   -1    0    0    0    0  0.00000000000E+00  0.00000000000E+00  0.45593999997E+02  0.45594000000E+02  0.51100000000E-03 0.  1.
         11   -1    0    0    0    0 -0.00000000000E+00 -0.00000000000E+00 -0.45593999997E+02  0.45594000000E+02  0.51100000000E-03 0. -1.
    9900012    2    1    2    0    0  0.16179292280E+02 -0.54930825434E+01 -0.76640991197E+01  0.72461498196E+02  0.69999906079E+02 0.  0.
        -12    1    1    2    0    0 -0.16179292280E+02  0.54930825434E+01  0.76640991197E+01  0.18726501804E+02  0.00000000000E+00 0.  1.
         11    1    3    3    0    0  0.15589380282E+02  0.27882326983E+01  0.13538729344E+02  0.20835071674E+02  0.51100000000E-03 0. -1.
        -11    1    3    3    0    0 -0.66996992252E+01 -0.14599912630E+02  0.10029862343E+02  0.18937834020E+02  0.51100000000E-03 0.  1.
         12    1    3    3    0    0  0.72896112229E+01  0.63185973883E+01 -0.31232690806E+02  0.32688592502E+02  0.00000000000E+00 0. -1.
</event>
<event>
 7    1  0.3681059E-013  0.7246172E+02  0.7816164E-02  0.1226708E+00
        -11   -1    0    0    0    0  0.00000000000E+00  0.00000000000E+00  0.45593999997E+02  0.45594000000E+02  0.51100000000E-03 0.  1.
         11   -1    0    0    0    0 -0.00000000000E+00 -0.00000000000E+00 -0.45593999997E+02  0.45594000000E+02  0.51100000000E-03 0. -1.
    9900012    2    1    2    0    0  0.37178444567E+01  0.17438745185E+02 -0.57220142253E+01  0.72461717725E+02  0.70000192056E+02 0.  0.
        -12    1    1    2    0    0 -0.37178444567E+01 -0.17438745185E+02  0.57220142253E+01  0.18726282275E+02  0.00000000000E+00 0.  1.
         11    1    3    3    0    0 -0.13923858500E+02 -0.83240162095E+01 -0.90498272896E+01  0.18575856794E+02  0.51100000000E-03 0. -1.
        -11    1    3    3    0    0  0.26468086619E+02  0.12092404722E+02  0.16048462818E+02  0.33231596716E+02  0.51100000000E-03 0.  1.
         12    1    3    3    0    0 -0.88263836622E+01  0.13670356673E+02 -0.12720649754E+02  0.20654264215E+02  0.00000000000E+00 0. -1.
</event>
<event>
 7    1  0.3681059E-013  0.7246157E+02  0.7816164E-02  0.1226708E+00
        -11   -1    0    0    0    0  0.00000000000E+00  0.00000000000E+00  0.45593999997E+02  0.45594000000E+02  0.51100000000E-03 0. -1.
         11   -1    0    0    0    0 -0.00000000000E+00 -0.00000000000E+00 -0.45593999997E+02  0.45594000000E+02  0.51100000000E-03 0.  1.
    9900012    2    1    2    0    0  0.13595185466E+02 -0.70562574454E+01  0.10773084221E+02  0.72461569997E+02  0.69999999613E+02 0.  0.
        -12    1    1    2    0    0 -0.13595185466E+02  0.70562574454E+01 -0.10773084221E+02  0.18726430003E+02  0.00000000000E+00 0.  1.
         11    1    3    3    0    0  0.23773858725E+02 -0.42793333163E+01 -0.52872131001E+01  0.24727791550E+02  0.51100000000E-03 0. -1.
        -11    1    3    3    0    0 -0.48290041021E+01 -0.16790400239E+02 -0.81302557150E+01  0.19270129191E+02  0.51100000000E-03 0.  1.
         12    1    3    3    0    0 -0.53496691565E+01  0.14013476110E+02  0.24190553036E+02  0.28463649256E+02  0.00000000000E+00 0. -1.
</event>
<event>
 7    1  0.3681059E-013  0.7246165E+02  0.7816164E-02  0.1226708E+00
        -11   -1    0    0    0    0  0.00000000000E+00  0.00000000000E+00  0.45593999997E+02  0.45594000000E+02  0.51100000000E-03 0.  1.
         11   -1    0    0    0    0 -0.00000000000E+00 -0.00000000000E+00 -0.45593999997E+02  0.45594000000E+02  0.51100000000E-03 0. -1.
    9900012    2    1    2    0    0 -0.55513181560E+01 -0.28022781340E+01 -0.17663700872E+02  0.72461648927E+02  0.70000102434E+02 0.  0.
        -12    1    1    2    0    0  0.55513181560E+01  0.28022781340E+01  0.17663700872E+02  0.18726351073E+02  0.00000000000E+00 0.  1.
         11    1    3    3    0    0 -0.14623367183E+02  0.78259887050E+01 -0.28402912732E+02  0.32890947370E+02  0.51100000000E-03 0. -1.
        -11    1    3    3    0    0  0.92213185210E+01 -0.17677639868E+02 -0.64791958769E+01  0.20964533051E+02  0.51100000000E-03 0.  1.
        -12    1    3    3    0    0 -0.14926949355E+00  0.70493730291E+01  0.17218407737E+02  0.18606168506E+02  0.00000000000E+00 0.  1.
</event>
<event>
 7    1  0.3681059E-013  0.7246145E+02  0.7816164E-02  0.1226708E+00
        -11   -1    0    0    0    0  0.00000000000E+00  0.00000000000E+00  0.45593999997E+02  0.45594000000E+02  0.51100000000E-03 0.  1.
         11   -1    0    0    0    0 -0.00000000000E+00 -0.00000000000E+00 -0.45593999997E+02  0.45594000000E+02  0.51100000000E-03 0. -1.
    9900012    2    1    2    0    0  0.53798977465E+01  0.13990603796E+02 -0.11225117703E+02  0.72461453020E+02  0.69999847228E+02 0.  0.
        -12    1    1    2    0    0 -0.53798977465E+01 -0.13990603796E+02  0.11225117703E+02  0.18726546980E+02  0.00000000000E+00 0.  1.
         11    1    3    3    0    0 -0.17890411639E+02  0.44208124142E+01  0.14307980735E+01  0.18483982103E+02  0.51100000000E-03 0. -1.
        -11    1    3    3    0    0 -0.21899753955E+01 -0.15037308849E+02  0.26103224045E+01  0.15418509428E+02  0.51100000000E-03 0.  1.
         12    1    3    3    0    0  0.25460284781E+02  0.24607100231E+02 -0.15266238181E+02  0.38558961489E+02  0.00000000000E+00 0. -1.
</event>
<event>
 7    1  0.3681059E-013  0.7246160E+02  0.7816164E-02  0.1226708E+00
        -11   -1    0    0    0    0  0.00000000000E+00  0.00000000000E+00  0.45593999997E+02  0.45594000000E+02  0.51100000000E-03 0. -1.
         11   -1    0    0    0    0 -0.00000000000E+00 -0.00000000000E+00 -0.45593999997E+02  0.45594000000E+02  0.51100000000E-03 0.  1.
    9900012    2    1    2    0    0 -0.25360885076E+01  0.48391433756E+01  0.17911698936E+02  0.72461601193E+02  0.70000040251E+02 0.  0.
        -12    1    1    2    0    0  0.25360885076E+01 -0.48391433756E+01 -0.17911698936E+02  0.18726398807E+02  0.00000000000E+00 0.  1.
         11    1    3    3    0    0  0.70396687975E+01 -0.97636629754E+00  0.36141313357E+02  0.36833473355E+02  0.51100000000E-03 0. -1.
        -11    1    3    3    0    0 -0.20445663514E+01 -0.78806311558E+01 -0.18265566446E+02  0.19997887810E+02  0.51100000000E-03 0.  1.
        -12    1    3    3    0    0 -0.75311909537E+01  0.13696140829E+02  0.35952024654E-01  0.15630240028E+02  0.00000000000E+00 0.  1.
</event>
<event>
 7    1  0.3681059E-013  0.7246151E+02  0.7816164E-02  0.1226708E+00
        -11   -1    0    0    0    0  0.00000000000E+00  0.00000000000E+00  0.45593999997E+02  0.45594000000E+02  0.51100000000E-03 0.  1.
         11   -1    0    0    0    0 -0.00000000000E+00 -0.00000000000E+00 -0.45593999997E+02  0.45594000000E+02  0.51100000000E-03 0. -1.
    9900012    2    1    2    0    0  0.29920291659E+01 -0.14408996937E+02  0.11580586102E+02  0.72461510588E+02  0.69999922221E+02 0.  0.
        -12    1    1    2    0    0 -0.29920291659E+01  0.14408996937E+02 -0.11580586102E+02  0.18726489412E+02  0.00000000000E+00 0.  1.
         11    1    3    3    0    0  0.11379649782E+02  0.27746986727E+00 -0.23768780508E+02  0.26353905703E+02  0.51100000000E-03 0. -1.
        -11    1    3    3    0    0  0.55632410486E+01 -0.10329174967E+02  0.56822316960E+01  0.13035691917E+02  0.51100000000E-03 0.  1.
        -12    1    3    3    0    0 -0.13950861664E+02 -0.43572918373E+01  0.29667134914E+02  0.33071912968E+02  0.00000000000E+00 0.  1.
</event>
<event>
 7    1  0.3681059E-013  0.7246151E+02  0.7816164E-02  0.1226708E+00
        -11   -1    0    0    0    0  0.00000000000E+00  0.00000000000E+00  0.45593999997E+02  0.45594000000E+02  0.51100000000E-03 0.  1.
         11   -1    0    0    0    0 -0.00000000000E+00 -0.00000000000E+00 -0.45593999997E+02  0.45594000000E+02  0.51100000000E-03 0. -1.
    9900012    2    1    2    0    0  0.15585844944E+02 -0.96006329503E+01 -0.39484849496E+01  0.72461514770E+02  0.69999927669E+02 0.  0.
        -12    1    1    2    0    0 -0.15585844944E+02  0.96006329503E+01  0.39484849496E+01  0.18726485230E+02  0.00000000000E+00 0.  1.
         11    1    3    3    0    0 -0.15659101340E+01 -0.14032860907E+02 -0.12210343143E+02  0.18667237067E+02  0.51100000000E-03 0. -1.
        -11    1    3    3    0    0 -0.13031982771E+02 -0.12903969708E+02  0.33024557943E+01  0.18634677988E+02  0.51100000000E-03 0.  1.
        -12    1    3    3    0    0  0.30183737849E+02  0.17336197664E+02  0.49594023987E+01  0.35159599716E+02  0.00000000000E+00 0.  1.
</event>
<event>
 7    1  0.3681059E-013  0.7246159E+02  0.7816164E-02  0.1226708E+00
        -11   -1    0    0    0    0  0.00000000000E+00  0.00000000000E+00  0.45593999997E+02  0.45594000000E+02  0.51100000000E-03 0. -1.
         11   -1    0    0    0    0 -0.00000000000E+00 -0.00000000000E+00 -0.45593999997E+02  0.45594000000E+02  0.51100000000E-03 0.  1.
    9900012    2    1    2    0    0 -0.17813699458E+00 -0.18233903069E+02 -0.42627905142E+01  0.72461592526E+02  0.70000028961E+02 0.  0.
        -12    1    1    2    0    0  0.17813699458E+00  0.18233903069E+02  0.42627905142E+01  0.18726407474E+02  0.00000000000E+00 0.  1.
         11    1    3    3    0    0  0.21105825896E+02  0.82296029421E+01  0.55747753668E+01  0.23329388590E+02  0.51100000000E-03 0. -1.
        -11    1    3    3    0    0 -0.29600364605E+02 -0.14210320314E+02 -0.34877535945E+01  0.33019376335E+02  0.51100000000E-03 0.  1.
         12    1    3    3    0    0  0.83164017146E+01 -0.12253185697E+02 -0.63498122865E+01  0.16112827600E+02  0.00000000000E+00 0. -1.
</event>
<event>
 7    1  0.3681059E-013  0.7246165E+02  0.7816164E-02  0.1226708E+00
        -11   -1    0    0    0    0  0.00000000000E+00  0.00000000000E+00  0.45593999997E+02  0.45594000000E+02  0.51100000000E-03 0.  1.
         11   -1    0    0    0    0 -0.00000000000E+00 -0.00000000000E+00 -0.45593999997E+02  0.45594000000E+02  0.51100000000E-03 0. -1.
    9900012    2    1    2    0    0  0.18431647836E+02 -0.15661075872E+01 -0.29151104409E+01  0.72461649480E+02  0.70000103154E+02 0.  0.
        -12    1    1    2    0    0 -0.18431647836E+02  0.15661075872E+01  0.29151104409E+01  0.18726350520E+02  0.00000000000E+00 0.  1.
         11    1    3    3    0    0  0.25101615601E+02 -0.16753996217E+02 -0.85108408126E+01  0.31356369474E+02  0.51100000000E-03 0. -1.
        -11    1    3    3    0    0  0.44597405518E+01 -0.21735408725E+01  0.16882320622E+02  0.17596201737E+02  0.51100000000E-03 0.  1.
        -12    1    3    3    0    0 -0.11129708317E+02  0.17361429502E+02 -0.11286590250E+02  0.23509078269E+02  0.00000000000E+00 0.  1.
</event>
<event>
 7    1  0.3681059E-013  0.7246156E+02  0.7816164E-02  0.1226708E+00
        -11   -1    0    0    0    0  0.00000000000E+00  0.00000000000E+00  0.45593999997E+02  0.45594000000E+02  0.51100000000E-03 0.  1.
         11   -1    0    0    0    0 -0.00000000000E+00 -0.00000000000E+00 -0.45593999997E+02  0.45594000000E+02  0.51100000000E-03 0. -1.
    9900012    2    1    2    0    0 -0.69209634744E+01  0.11706522785E+02 -0.12873892899E+02  0.72461560683E+02  0.69999987480E+02 0.  0.
        -12    1    1    2    0    0  0.69209634744E+01 -0.11706522785E+02  0.12873892899E+02  0.18726439317E+02  0.00000000000E+00 0.  1.
         11    1    3    3    0    0 -0.21734167795E+00  0.47783771471E+01 -0.55449225752E+01  0.73229974867E+01  0.51100000000E-03 0. -1.
        -11    1    3    3    0    0 -0.15997950213E+02  0.32295797852E+02 -0.11435188315E+02  0.37811592164E+02  0.51100000000E-03 0.  1.
         12    1    3    3    0    0  0.92943284163E+01 -0.25367652215E+02  0.41062179910E+01  0.27326971032E+02  0.00000000000E+00 0. -1.
</event>
<event>
 7    1  0.3681059E-013  0.7246154E+02  0.7816164E-02  0.1226708E+00
        -11   -1    0    0    0    0  0.00000000000E+00  0.00000000000E+00  0.45593999997E+02  0.45594000000E+02  0.51100000000E-03 0. -1.
         11   -1    0    0    0    0 -0.00000000000E+00 -0.00000000000E+00 -0.45593999997E+02  0.45594000000E+02  0.51100000000E-03 0.  1.
    9900012    2    1    2    0    0  0.67911316163E+01  0.17421826835E+02  0.10202475380E+01  0.72461536802E+02  0.69999956369E+02 0.  0.
        -12    1    1    2    0    0 -0.67911316163E+01 -0.17421826835E+02 -0.10202475380E+01  0.18726463198E+02  0.00000000000E+00 0.  1.
         11    1    3    3    0    0  0.27068464451E+02  0.10358153505E+02  0.21610192883E+02  0.36152365738E+02  0.51100000000E-03 0. -1.
        -11    1    3    3    0    0 -0.41540170114E+01  0.11458182010E+02 -0.41719728732E+01  0.12882202848E+02  0.51100000000E-03 0.  1.
        -12    1    3    3    0    0 -0.16123315823E+02 -0.43945086803E+01 -0.16417972472E+02  0.23426968215E+02  0.00000000000E+00 0.  1.
</event>
<event>
 7    1  0.3681059E-013  0.7246156E+02  0.7816164E-02  0.1226708E+00
        -11   -1    0    0    0    0  0.00000000000E+00  0.00000000000E+00  0.45593999997E+02  0.45594000000E+02  0.51100000000E-03 0.  1.
         11   -1    0    0    0    0 -0.00000000000E+00 -0.00000000000E+00 -0.45593999997E+02  0.45594000000E+02  0.51100000000E-03 0. -1.
    9900012    2    1    2    0    0  0.70069613155E+01  0.22482002160E+01 -0.17219980099E+02  0.72461558115E+02  0.69999984134E+02 0.  0.
        -12    1    1    2    0    0 -0.70069613155E+01 -0.22482002160E+01  0.17219980099E+02  0.18726441885E+02  0.00000000000E+00 0.  1.
         11    1    3    3    0    0  0.13858772032E+02  0.11507323406E+02 -0.16303008026E+02  0.24295516565E+02  0.51100000000E-03 0. -1.
        -11    1    3    3    0    0 -0.13638270937E+02  0.16311151706E+02  0.28202757031E+01  0.21447845100E+02  0.51100000000E-03 0.  1.
         12    1    3    3    0    0  0.67864602209E+01 -0.25570274896E+02 -0.37372477759E+01  0.26718196450E+02  0.00000000000E+00 0. -1.
</event>
<event>
 7    1  0.3681059E-013  0.7246159E+02  0.7816164E-02  0.1226708E+00
        -11   -1    0    0    0    0  0.00000000000E+00  0.00000000000E+00  0.45593999997E+02  0.45594000000E+02  0.51100000000E-03 0. -1.
         11   -1    0    0    0    0 -0.00000000000E+00 -0.00000000000E+00 -0.45593999997E+02  0.45594000000E+02  0.51100000000E-03 0.  1.
    9900012    2    1    2    0    0 -0.15740439625E+02  0.53806110202E+01 -0.86003416087E+01  0.72461593769E+02  0.70000030580E+02 0.  0.
        -12    1    1    2    0    0  0.15740439625E+02 -0.53806110202E+01  0.86003416087E+01  0.18726406231E+02  0.00000000000E+00 0.  1.
         11    1    3    3    0    0  0.52608802126E+01  0.97275834555E+01  0.12387983873E+02  0.16606170094E+02  0.51100000000E-03 0. -1.
        -11    1    3    3    0    0 -0.75279181428E+01 -0.72827787374E+01  0.14439603883E+02  0.17838457844E+02  0.51100000000E-03 0.  1.
        -12    1    3    3    0    0 -0.13473401695E+02  0.29358063020E+01 -0.35427929365E+02  0.38016965830E+02  0.00000000000E+00 0.  1.
</event>
<event>
 7    1  0.3681059E-013  0.7246162E+02  0.7816164E-02  0.1226708E+00
        -11   -1    0    0    0    0  0.00000000000E+00  0.00000000000E+00  0.45593999997E+02  0.45594000000E+02  0.51100000000E-03 0.  1.
         11   -1    0    0    0    0 -0.00000000000E+00 -0.00000000000E+00 -0.45593999997E+02  0.45594000000E+02  0.51100000000E-03 0. -1.
    9900012    2    1    2    0    0 -0.11717425860E+02 -0.23025533727E+01  0.14424891302E+02  0.72461619947E+02  0.70000064681E+02 0.  0.
        -12    1    1    2    0    0  0.11717425860E+02  0.23025533727E+01 -0.14424891302E+02  0.18726380053E+02  0.00000000000E+00 0.  1.
         11    1    3    3    0    0 -0.64510752801E+01 -0.75578187423E+01  0.49137814395E+01  0.11085226417E+02  0.51100000000E-03 0. -1.
        -11    1    3    3    0    0 -0.20432613327E+02 -0.21949680698E+01  0.29024923052E+02  0.35563404373E+02  0.51100000000E-03 0.  1.
         12    1    3    3    0    0  0.15166262747E+02  0.74502334395E+01 -0.19513813189E+02  0.25812989156E+02  0.00000000000E+00 0. -1.
</event>
<event>
 7    1  0.3681059E-013  0.7246157E+02  0.7816164E-02  0.1226708E+00
        -11   -1    0    0    0    0  0.00000000000E+00  0.00000000000E+00  0.45593999997E+02  0.45594000000E+02  0.51100000000E-03 0. -1.
         11   -1    0    0    0    0 -0.00000000000E+00 -0.00000000000E+00 -0.45593999997E+02  0.45594000000E+02  0.51100000000E-03 0.  1.
    9900012    2    1    2    0    0 -0.89952994069E+00 -0.18625818808E+02 -0.17172043837E+01  0.72461572917E+02  0.70000003417E+02 0.  0.
        -12    1    1    2    0    0  0.89952994069E+00  0.18625818808E+02  0.17172043837E+01  0.18726427083E+02  0.00000000000E+00 0.  1.
         11    1    3    3    0    0  0.17670722322E+02 -0.34844300609E+02  0.66631188944E+01  0.39633027465E+02  0.51100000000E-03 0. -1.
        -11    1    3    3    0    0  0.34937597886E+01  0.35695312069E+01  0.19716474570E+01  0.53698514368E+01  0.51100000000E-03 0.  1.
        -12    1    3    3    0    0 -0.22064012052E+02  0.12648950594E+02 -0.10351970735E+02  0.27458694016E+02  0.00000000000E+00 0.  1.
</event>
<event>
 7    1  0.3681059E-013  0.7246156E+02  0.7816164E-02  0.1226708E+00
        -11   -1    0    0    0    0  0.00000000000E+00  0.00000000000E+00  0.45593999997E+02  0.45594000000E+02  0.51100000000E-03 0.  1.
         11   -1    0    0    0    0 -0.00000000000E+00 -0.00000000000E+00 -0.45593999997E+02  0.45594000000E+02  0.51100000000E-03 0. -1.
    9900012    2    1    2    0    0  0.45802691175E+00 -0.12304090648E+02 -0.14109538718E+02  0.72461560986E+02  0.69999987874E+02 0.  0.
        -12    1    1    2    0    0 -0.45802691175E+00  0.12304090648E+02  0.14109538718E+02  0.18726439014E+02  0.00000000000E+00 0.  1.
         11    1    3    3    0    0  0.97838963816E+00 -0.18086149514E+02 -0.23010014268E+02  0.29283558653E+02  0.51100000000E-03 0. -1.
        -11    1    3    3    0    0 -0.19022887577E+02 -0.48790435994E+01 -0.94943615213E+00  0.19661555063E+02  0.51100000000E-03 0.  1.
        -12    1    3    3    0    0  0.18502524851E+02  0.10661102466E+02  0.98499117022E+01  0.23516447270E+02  0.00000000000E+00 0.  1.
</event>
<event>
 7    1  0.3681059E-013  0.7246157E+02  0.7816164E-02  0.1226708E+00
        -11   -1    0    0    0    0  0.00000000000E+00  0.00000000000E+00  0.45593999997E+02  0.45594000000E+02  0.51100000000E-03 0. -1.
         11   -1    0    0    0    0 -0.00000000000E+00 -0.00000000000E+00 -0.45593999997E+02  0.45594000000E+02  0.51100000000E-03 0.  1.
    9900012    2    1    2    0    0 -0.14763650826E+02  0.10073863722E+01  0.11476009193E+02  0.72461574821E+02  0.70000005896E+02 0.  0.
        -12    1    1    2    0    0  0.14763650826E+02 -0.10073863722E+01 -0.11476009193E+02  0.18726425179E+02  0.00000000000E+00 0.  1.
         11    1    3    3    0    0 -0.51086995067E+01  0.17863187846E+02  0.24574338578E+02  0.30807310942E+02  0.51100000000E-03 0. -1.
        -11    1    3    3    0    0 -0.58461629527E+01  0.65069399137E+00  0.10494045594E+02  0.12030212680E+02  0.51100000000E-03 0.  1.
        -12    1    3    3    0    0 -0.38087883665E+01 -0.17506495466E+02 -0.23592374979E+02  0.29624051199E+02  0.00000000000E+00 0.  1.
</event>
<event>
 7    1  0.3681059E-013  0.7246160E+02  0.7816164E-02  0.1226708E+00
        -11   -1    0    0    0    0  0.00000000000E+00  0.00000000000E+00  0.45593999997E+02  0.45594000000E+02  0.51100000000E-03 0.  1.
         11   -1    0    0    0    0 -0.00000000000E+00 -0.00000000000E+00 -0.45593999997E+02  0.45594000000E+02  0.51100000000E-03 0. -1.
    9900012    2    1    2    0    0 -0.13994183930E+01  0.18668972109E+02  0.43490230091E+00  0.72461600681E+02  0.70000039585E+02 0.  0.
        -12    1    1    2    0    0  0.13994183930E+01 -0.18668972109E+02 -0.43490230091E+00  0.18726399319E+02  0.00000000000E+00 0.  1.
         11    1    3    3    0    0 -0.14071212553E+02 -0.41678028872E+00  0.69199112126E+01  0.15686232817E+02  0.51100000000E-03 0. -1.
        -11    1    3    3    0    0  0.76948888460E+01  0.17973338113E+02  0.21075113223E+02  0.28747392837E+02  0.51100000000E-03 0.  1.
        -12    1    3    3    0    0  0.49769053145E+01  0.11124142840E+01 -0.27560122135E+02  0.28027975027E+02  0.00000000000E+00 0.  1.
</event>
<event>
 7    1  0.3681059E-013  0.7246167E+02  0.7816164E-02  0.1226708E+00
        -11   -1    0    0    0    0  0.00000000000E+00  0.00000000000E+00  0.45593999997E+02  0.45594000000E+02  0.51100000000E-03 0.  1.
         11   -1    0    0    0    0 -0.00000000000E+00 -0.00000000000E+00 -0.45593999997E+02  0.45594000000E+02  0.51100000000E-03 0. -1.
    9900012    2    1    2    0    0  0.26917430634E+01  0.14472747168E+02 -0.11574526439E+02  0.72461666841E+02  0.70000125770E+02 0.  0.
        -12    1    1    2    0    0 -0.26917430634E+01 -0.14472747168E+02  0.11574526439E+02  0.18726333159E+02  0.00000000000E+00 0.  1.
         11    1    3    3    0    0 -0.69771654743E+01  0.34169838920E+02 -0.22359359605E+01  0.34946503970E+02  0.51100000000E-03 0. -1.
        -11    1    3    3    0    0  0.44973514325E+01  0.58564964574E+01  0.38171353643E+01  0.83123548597E+01  0.51100000000E-03 0.  1.
        -12    1    3    3    0    0  0.51715571052E+01 -0.25553588209E+02 -0.13155725843E+02  0.29202808011E+02  0.00000000000E+00 0.  1.
</event>
<event>
 7    1  0.3681059E-013  0.7246159E+02  0.7816164E-02  0.1226708E+00
        -11   -1    0    0    0    0  0.00000000000E+00  0.00000000000E+00  0.45593999997E+02  0.45594000000E+02  0.51100000000E-03 0.  1.
         11   -1    0    0    0    0 -0.00000000000E+00 -0.00000000000E+00 -0.45593999997E+02  0.45594000000E+02  0.51100000000E-03 0. -1.
    9900012    2    1    2    0    0  0.53653720041E+01  0.58554818670E+01 -0.16958907875E+02  0.72461589747E+02  0.70000025341E+02 0.  0.
        -12    1    1    2    0    0 -0.53653720041E+01 -0.58554818670E+01  0.16958907875E+02  0.18726410253E+02  0.00000000000E+00 0.  1.
         11    1    3    3    0    0  0.78413830235E+01  0.18352176051E+01 -0.17993640304E+02  0.19713609589E+02  0.51100000000E-03 0. -1.
        -11    1    3    3    0    0  0.18036467092E+00 -0.23998944449E+02  0.44101104142E+01  0.24401453649E+02  0.51100000000E-03 0.  1.
         12    1    3    3    0    0 -0.26563756903E+01  0.28019208711E+02 -0.33753779860E+01  0.28346526509E+02  0.00000000000E+00 0. -1.
</event>
<event>
 7    1  0.3681059E-013  0.7246159E+02  0.7816164E-02  0.1226708E+00
        -11   -1    0    0    0    0  0.00000000000E+00  0.00000000000E+00  0.45593999997E+02  0.45594000000E+02  0.51100000000E-03 0.  1.
         11   -1    0    0    0    0 -0.00000000000E+00 -0.00000000000E+00 -0.45593999997E+02  0.45594000000E+02  0.51100000000E-03 0. -1.
    9900012    2    1    2    0    0 -0.18194495977E+02  0.18007135215E+01 -0.40491989968E+01  0.72461594430E+02  0.70000031441E+02 0.  0.
        -12    1    1    2    0    0  0.18194495977E+02 -0.18007135215E+01  0.40491989968E+01  0.18726405570E+02  0.00000000000E+00 0.  1.
         11    1    3    3    0    0 -0.24486684441E+02 -0.76308262368E+01  0.83848366029E+01  0.26983934277E+02  0.51100000000E-03 0. -1.
        -11    1    3    3    0    0 -0.11771215747E+02  0.14701482970E+01  0.10057303883E+02  0.15552241569E+02  0.51100000000E-03 0.  1.
         12    1    3    3    0    0  0.18063404211E+02  0.79613914613E+01 -0.22491339483E+02  0.29925418583E+02  0.00000000000E+00 0. -1.
</event>
<event>
 7    1  0.3681059E-013  0.7246159E+02  0.7816164E-02  0.1226708E+00
        -11   -1    0    0    0    0  0.00000000000E+00  0.00000000000E+00  0.45593999997E+02  0.45594000000E+02  0.51100000000E-03 0.  1.
         11   -1    0    0    0    0 -0.00000000000E+00 -0.00000000000E+00 -0.45593999997E+02  0.45594000000E+02  0.51100000000E-03 0. -1.
    9900012    2    1    2    0    0 -0.43188897030E+01 -0.12123347876E+02 -0.13603313011E+02  0.72461588254E+02  0.70000023396E+02 0.  0.
        -12    1    1    2    0    0  0.43188897030E+01  0.12123347876E+02  0.13603313011E+02  0.18726411746E+02  0.00000000000E+00 0.  1.
         11    1    3    3    0    0 -0.15717191347E+02 -0.14011760144E+02 -0.23897522209E+02  0.31850448885E+02  0.51100000000E-03 0. -1.
        -11    1    3    3    0    0 -0.38908742491E+01  0.15792656697E+02 -0.22744646097E+01  0.16423157355E+02  0.51100000000E-03 0.  1.
        -12    1    3    3    0    0  0.15289175893E+02 -0.13904244430E+02  0.12568673808E+02  0.24187982014E+02  0.00000000000E+00 0.  1.
</event>
<event>
 7    1  0.3681059E-013  0.7246153E+02  0.7816164E-02  0.1226708E+00
        -11   -1    0    0    0    0  0.00000000000E+00  0.00000000000E+00  0.45593999997E+02  0.45594000000E+02  0.51100000000E-03 0. -1.
         11   -1    0    0    0    0 -0.00000000000E+00 -0.00000000000E+00 -0.45593999997E+02  0.45594000000E+02  0.51100000000E-03 0.  1.
    9900012    2    1    2    0    0  0.72970551449E+01  0.15546843745E+02  0.74652059912E+01  0.72461530373E+02  0.69999947995E+02 0.  0.
        -12    1    1    2    0    0 -0.72970551449E+01 -0.15546843745E+02 -0.74652059912E+01  0.18726469627E+02  0.00000000000E+00 0.  1.
         11    1    3    3    0    0  0.23400696462E+01  0.17394400282E+02  0.48987381950E+01  0.18221929735E+02  0.51100000000E-03 0. -1.
        -11    1    3    3    0    0 -0.58272981622E+01  0.19166529245E+02  0.17242796720E+02  0.26431558527E+02  0.51100000000E-03 0.  1.
        -12    1    3    3    0    0  0.10784283661E+02 -0.21014085782E+02 -0.14676328924E+02  0.27808042110E+02  0.00000000000E+00 0.  1.
</event>
<event>
 7    1  0.3681059E-013  0.7246149E+02  0.7816164E-02  0.1226708E+00
        -11   -1    0    0    0    0  0.00000000000E+00  0.00000000000E+00  0.45593999997E+02  0.45594000000E+02  0.51100000000E-03 0.  1.
         11   -1    0    0    0    0 -0.00000000000E+00 -0.00000000000E+00 -0.45593999997E+02  0.45594000000E+02  0.51100000000E-03 0. -1.
    9900012    2    1    2    0    0  0.41035207050E+01 -0.66131750428E+01 -0.17032588987E+02  0.72461493280E+02  0.69999899674E+02 0.  0.
        -12    1    1    2    0    0 -0.41035207050E+01  0.66131750428E+01  0.17032588987E+02  0.18726506720E+02  0.00000000000E+00 0.  1.
         11    1    3    3    0    0 -0.96181825154E+01  0.39141629185E+01 -0.11578501281E+01  0.10448479479E+02  0.51100000000E-03 0. -1.
        -11    1    3    3    0    0 -0.67860660173E+01  0.21143420061E+02 -0.64361761890E+01  0.23119672750E+02  0.51100000000E-03 0.  1.
         12    1    3    3    0    0  0.20507769238E+02 -0.31670758022E+02 -0.94385626704E+01  0.38893341051E+02  0.00000000000E+00 0. -1.
</event>
<event>
 7    1  0.3681059E-013  0.7246135E+02  0.7816164E-02  0.1226709E+00
        -11   -1    0    0    0    0  0.00000000000E+00  0.00000000000E+00  0.45593999997E+02  0.45594000000E+02  0.51100000000E-03 0.  1.
         11   -1    0    0    0    0 -0.00000000000E+00 -0.00000000000E+00 -0.45593999997E+02  0.45594000000E+02  0.51100000000E-03 0. -1.
    9900012    2    1    2    0    0 -0.54303177722E+01  0.78098377344E+00 -0.17905003143E+02  0.72461349890E+02  0.69999712882E+02 0.  0.
        -12    1    1    2    0    0  0.54303177722E+01 -0.78098377344E+00  0.17905003143E+02  0.18726650110E+02  0.00000000000E+00 0.  1.
         11    1    3    3    0    0 -0.27132949497E+02 -0.84171129254E+01 -0.29525794352E+02  0.40973372705E+02  0.51100000000E-03 0. -1.
        -11    1    3    3    0    0 -0.20667207606E+01 -0.20943773198E+01  0.95903051579E+00  0.30947521469E+01  0.51100000000E-03 0.  1.
        -12    1    3    3    0    0  0.23769352485E+02  0.11292474019E+02  0.10661760693E+02  0.28393225039E+02  0.00000000000E+00 0.  1.
</event>
<event>
 7    1  0.3681059E-013  0.7246155E+02  0.7816164E-02  0.1226708E+00
        -11   -1    0    0    0    0  0.00000000000E+00  0.00000000000E+00  0.45593999997E+02  0.45594000000E+02  0.51100000000E-03 0.  1.
         11   -1    0    0    0    0 -0.00000000000E+00 -0.00000000000E+00 -0.45593999997E+02  0.45594000000E+02  0.51100000000E-03 0. -1.
    9900012    2    1    2    0    0  0.25918704266E+01 -0.18305293418E+02 -0.29796607179E+01  0.72461549791E+02  0.69999973290E+02 0.  0.
        -12    1    1    2    0    0 -0.25918704266E+01  0.18305293418E+02  0.29796607179E+01  0.18726450209E+02  0.00000000000E+00 0.  1.
         11    1    3    3    0    0  0.11746165119E+02  0.64262630157E+01  0.25958511407E+02  0.29208107883E+02  0.51100000000E-03 0.  1.
        -11    1    3    3    0    0  0.34018370845E+01 -0.15899148036E+02 -0.18804524961E+02  0.24858913151E+02  0.51100000000E-03 0. -1.
        -12    1    3    3    0    0 -0.12556131777E+02 -0.88324083986E+01 -0.10133647164E+02  0.18394528757E+02  0.00000000000E+00 0.  1.
</event>
<event>
 7    1  0.3681059E-013  0.7246159E+02  0.7816164E-02  0.1226708E+00
        -11   -1    0    0    0    0  0.00000000000E+00  0.00000000000E+00  0.45593999997E+02  0.45594000000E+02  0.51100000000E-03 0. -1.
         11   -1    0    0    0    0 -0.00000000000E+00 -0.00000000000E+00 -0.45593999997E+02  0.45594000000E+02  0.51100000000E-03 0.  1.
    9900012    2    1    2    0    0 -0.81479690132E+01 -0.85176749558E+01  0.14551226704E+02  0.72461591260E+02  0.70000027312E+02 0.  0.
        -12    1    1    2    0    0  0.81479690132E+01  0.85176749558E+01 -0.14551226704E+02  0.18726408740E+02  0.00000000000E+00 0.  1.
         11    1    3    3    0    0  0.11723446114E+02 -0.15222254255E+02  0.87575934468E+00  0.19233386807E+02  0.51100000000E-03 0. -1.
        -11    1    3    3    0    0 -0.17698477680E+02 -0.17930857508E+02  0.48403670436E+00  0.25198929639E+02  0.51100000000E-03 0.  1.
         12    1    3    3    0    0 -0.21729374474E+01  0.24635436807E+02  0.13191430655E+02  0.28029274813E+02  0.00000000000E+00 0. -1.
</event>
<event>
 7    1  0.3681059E-013  0.7246156E+02  0.7816164E-02  0.1226708E+00
        -11   -1    0    0    0    0  0.00000000000E+00  0.00000000000E+00  0.45593999997E+02  0.45594000000E+02  0.51100000000E-03 0.  1.
         11   -1    0    0    0    0 -0.00000000000E+00 -0.00000000000E+00 -0.45593999997E+02  0.45594000000E+02  0.51100000000E-03 0. -1.
    9900012    2    1    2    0    0  0.14074593242E+02 -0.37143881659E+01 -0.11780854410E+02  0.72461564541E+02  0.69999992505E+02 0.  0.
        -12    1    1    2    0    0 -0.14074593242E+02  0.37143881659E+01  0.11780854410E+02  0.18726435459E+02  0.00000000000E+00 0.  1.
         11    1    3    3    0    0 -0.75944772690E+00 -0.73029314602E+00 -0.42834338540E+01  0.44111103785E+01  0.51100000000E-03 0. -1.
        -11    1    3    3    0    0  0.16567906186E+01  0.29688185145E+02 -0.12894577415E+02  0.32409927790E+02  0.51100000000E-03 0.  1.
         12    1    3    3    0    0  0.13177250350E+02 -0.32672280165E+02  0.53971568583E+01  0.35640526373E+02  0.00000000000E+00 0. -1.
</event>
<event>
 7    1  0.3681059E-013  0.7246155E+02  0.7816164E-02  0.1226708E+00
        -11   -1    0    0    0    0  0.00000000000E+00  0.00000000000E+00  0.45593999997E+02  0.45594000000E+02  0.51100000000E-03 0.  1.
         11   -1    0    0    0    0 -0.00000000000E+00 -0.00000000000E+00 -0.45593999997E+02  0.45594000000E+02  0.51100000000E-03 0. -1.
    9900012    2    1    2    0    0 -0.18271224774E+02  0.40850927346E+01  0.39275641920E+00  0.72461550923E+02  0.69999974766E+02 0.  0.
        -12    1    1    2    0    0  0.18271224774E+02 -0.40850927346E+01 -0.39275641920E+00  0.18726449077E+02  0.00000000000E+00 0.  1.
         11    1    3    3    0    0 -0.70553371969E+01 -0.21895698002E+02  0.97099812466E+01  0.24969643770E+02  0.51100000000E-03 0. -1.
        -11    1    3    3    0    0  0.10497421404E+02  0.23731338651E+01  0.55840422862E+01  0.12124732945E+02  0.51100000000E-03 0.  1.
         12    1    3    3    0    0 -0.21713308982E+02  0.23607656871E+02 -0.14901267114E+02  0.35367174208E+02  0.00000000000E+00 0. -1.
</event>
<event>
 7    1  0.3681059E-013  0.7246153E+02  0.7816164E-02  0.1226708E+00
        -11   -1    0    0    0    0  0.00000000000E+00  0.00000000000E+00  0.45593999997E+02  0.45594000000E+02  0.51100000000E-03 0. -1.
         11   -1    0    0    0    0 -0.00000000000E+00 -0.00000000000E+00 -0.45593999997E+02  0.45594000000E+02  0.51100000000E-03 0.  1.
    9900012    2    1    2    0    0  0.32017421019E+01 -0.10026916879E+01  0.18423470059E+02  0.72461526970E+02  0.69999943562E+02 0.  0.
        -12    1    1    2    0    0 -0.32017421019E+01  0.10026916879E+01 -0.18423470059E+02  0.18726473030E+02  0.00000000000E+00 0.  1.
         11    1    3    3    0    0 -0.10236198108E+02  0.73002607958E+01  0.83964222298E-01  0.12573011160E+02  0.51100000000E-03 0. -1.
        -11    1    3    3    0    0 -0.16796249724E+02  0.95309012054E+01  0.15331575108E+02  0.24657844150E+02  0.51100000000E-03 0.  1.
         12    1    3    3    0    0  0.30234189933E+02 -0.17833853689E+02  0.30079307292E+01  0.35230671660E+02  0.00000000000E+00 0. -1.
</event>
<event>
 7    1  0.3681059E-013  0.7246157E+02  0.7816164E-02  0.1226708E+00
        -11   -1    0    0    0    0  0.00000000000E+00  0.00000000000E+00  0.45593999997E+02  0.45594000000E+02  0.51100000000E-03 0.  1.
         11   -1    0    0    0    0 -0.00000000000E+00 -0.00000000000E+00 -0.45593999997E+02  0.45594000000E+02  0.51100000000E-03 0. -1.
    9900012    2    1    2    0    0  0.55371223880E+01  0.17544021450E+02  0.34966904449E+01  0.72461567957E+02  0.69999996955E+02 0.  0.
        -12    1    1    2    0    0 -0.55371223880E+01 -0.17544021450E+02 -0.34966904449E+01  0.18726432043E+02  0.00000000000E+00 0.  1.
         11    1    3    3    0    0 -0.33802245136E+01 -0.16616855730E+02 -0.12838966125E+02  0.21269340928E+02  0.51100000000E-03 0. -1.
        -11    1    3    3    0    0 -0.26894707945E+01 -0.19613367599E+01  0.12640624689E+02  0.13071552618E+02  0.51100000000E-03 0.  1.
         12    1    3    3    0    0  0.11606817696E+02  0.36122213940E+02  0.36950318809E+01  0.38120674411E+02  0.00000000000E+00 0. -1.
</event>
<event>
 7    1  0.3681059E-013  0.7246164E+02  0.7816164E-02  0.1226708E+00
        -11   -1    0    0    0    0  0.00000000000E+00  0.00000000000E+00  0.45593999997E+02  0.45594000000E+02  0.51100000000E-03 0.  1.
         11   -1    0    0    0    0 -0.00000000000E+00 -0.00000000000E+00 -0.45593999997E+02  0.45594000000E+02  0.51100000000E-03 0. -1.
    9900012    2    1    2    0    0 -0.28307517684E+01 -0.18234567495E+02 -0.31880821642E+01  0.72461642234E+02  0.70000093715E+02 0.  0.
        -12    1    1    2    0    0  0.28307517684E+01  0.18234567495E+02  0.31880821642E+01  0.18726357766E+02  0.00000000000E+00 0.  1.
         11    1    3    3    0    0 -0.12748103221E+00  0.58679056625E+01  0.23356262006E+01  0.63169389967E+01  0.51100000000E-03 0. -1.
        -11    1    3    3    0    0 -0.10530140722E+02  0.18729061781E+02  0.32442826514E+01  0.21729863989E+02  0.51100000000E-03 0.  1.
         12    1    3    3    0    0  0.78268699857E+01 -0.42831534938E+02 -0.87679910162E+01  0.44414839248E+02  0.00000000000E+00 0. -1.
</event>
<event>
 7    1  0.3689091E-013  0.7246154E+02  0.7816164E-02  0.1226708E+00
        -11   -1    0    0    0    0  0.00000000000E+00  0.00000000000E+00  0.45593999997E+02  0.45594000000E+02  0.51100000000E-03 0.  1.
         11   -1    0    0    0    0 -0.00000000000E+00 -0.00000000000E+00 -0.45593999997E+02  0.45594000000E+02  0.51100000000E-03 0. -1.
    9900012    2    1    2    0    0  0.39102054921E+01  0.16509050384E+02 -0.79272873447E+01  0.72461539144E+02  0.69999959421E+02 0.  0.
        -12    1    1    2    0    0 -0.39102054921E+01 -0.16509050384E+02  0.79272873447E+01  0.18726460856E+02  0.00000000000E+00 0.  1.
         11    1    3    3    0    0  0.84171512204E+01  0.25628784481E+02 -0.29909488742E+02  0.40277295661E+02  0.51100000000E-03 0. -1.
        -11    1    3    3    0    0 -0.22201580376E+01  0.64423708500E+01  0.27730445391E+01  0.73568349280E+01  0.51100000000E-03 0.  1.
        -12    1    3    3    0    0 -0.22867876907E+01 -0.15562104948E+02  0.19209156858E+02  0.24827408555E+02  0.00000000000E+00 0.  1.
</event>
<event>
 7    1  0.3681059E-013  0.7246165E+02  0.7816164E-02  0.1226708E+00
        -11   -1    0    0    0    0  0.00000000000E+00  0.00000000000E+00  0.45593999997E+02  0.45594000000E+02  0.51100000000E-03 0. -1.
         11   -1    0    0    0    0 -0.00000000000E+00 -0.00000000000E+00 -0.45593999997E+02  0.45594000000E+02  0.51100000000E-03 0.  1.
    9900012    2    1    2    0    0  0.30260439784E+01 -0.11736140371E+02  0.14275237822E+02  0.72461645634E+02  0.70000098144E+02 0.  0.
        -12    1    1    2    0    0 -0.30260439784E+01  0.11736140371E+02 -0.14275237822E+02  0.18726354366E+02  0.00000000000E+00 0.  1.
         11    1    3    3    0    0 -0.59979418370E+00  0.73186105040E+01 -0.53517810863E+01  0.90864390071E+01  0.51100000000E-03 0. -1.
        -11    1    3    3    0    0 -0.13644625514E+01 -0.64754157581E+01 -0.20229197071E+02  0.21284106316E+02  0.51100000000E-03 0.  1.
         12    1    3    3    0    0  0.49903007135E+01 -0.12579335116E+02  0.39856215979E+02  0.42091100311E+02  0.00000000000E+00 0. -1.
</event>
<event>
 7    1  0.3681059E-013  0.7246152E+02  0.7816164E-02  0.1226708E+00
        -11   -1    0    0    0    0  0.00000000000E+00  0.00000000000E+00  0.45593999997E+02  0.45594000000E+02  0.51100000000E-03 0.  1.
         11   -1    0    0    0    0 -0.00000000000E+00 -0.00000000000E+00 -0.45593999997E+02  0.45594000000E+02  0.51100000000E-03 0. -1.
    9900012    2    1    2    0    0  0.89418819469E-01  0.16711033294E+02 -0.84507108186E+01  0.72461517607E+02  0.69999931365E+02 0.  0.
        -12    1    1    2    0    0 -0.89418819469E-01 -0.16711033294E+02  0.84507108186E+01  0.18726482393E+02  0.00000000000E+00 0.  1.
         11    1    3    3    0    0 -0.60584553870E+01  0.14605163015E+02  0.78341728303E+01  0.17646244149E+02  0.51100000000E-03 0. -1.
        -11    1    3    3    0    0  0.32799589743E+01 -0.24927299966E+02 -0.84434410081E+01  0.26522068373E+02  0.51100000000E-03 0.  1.
         12    1    3    3    0    0  0.28679152322E+01  0.27033170245E+02 -0.78414426408E+01  0.28293205084E+02  0.00000000000E+00 0. -1.
</event>
<event>
 7    1  0.3681059E-013  0.7246154E+02  0.7816164E-02  0.1226708E+00
        -11   -1    0    0    0    0  0.00000000000E+00  0.00000000000E+00  0.45593999997E+02  0.45594000000E+02  0.51100000000E-03 0. -1.
         11   -1    0    0    0    0 -0.00000000000E+00 -0.00000000000E+00 -0.45593999997E+02  0.45594000000E+02  0.51100000000E-03 0.  1.
    9900012    2    1    2    0    0 -0.12934564709E+02 -0.13338531118E+02 -0.23368255593E+01  0.72461544642E+02  0.69999966583E+02 0.  0.
        -12    1    1    2    0    0  0.12934564709E+02  0.13338531118E+02  0.23368255593E+01  0.18726455358E+02  0.00000000000E+00 0.  1.
         11    1    3    3    0    0  0.11245762743E+02 -0.11146929047E+02 -0.68619665621E+01  0.17257108455E+02  0.51100000000E-03 0. -1.
        -11    1    3    3    0    0  0.45019038634E+01  0.69956467054E+01 -0.16496835790E+02  0.18475708445E+02  0.51100000000E-03 0.  1.
        -12    1    3    3    0    0 -0.28682231315E+02 -0.91872487756E+01  0.21021976793E+02  0.36728727742E+02  0.00000000000E+00 0.  1.
</event>
<event>
 7    1  0.3681059E-013  0.7246163E+02  0.7816164E-02  0.1226708E+00
        -11   -1    0    0    0    0  0.00000000000E+00  0.00000000000E+00  0.45593999997E+02  0.45594000000E+02  0.51100000000E-03 0.  1.
         11   -1    0    0    0    0 -0.00000000000E+00 -0.00000000000E+00 -0.45593999997E+02  0.45594000000E+02  0.51100000000E-03 0. -1.
    9900012    2    1    2    0    0 -0.97139372732E+01 -0.33599293357E+01 -0.15653344873E+02  0.72461630672E+02  0.70000078653E+02 0.  0.
        -12    1    1    2    0    0  0.97139372732E+01  0.33599293357E+01  0.15653344873E+02  0.18726369328E+02  0.00000000000E+00 0.  1.
         11    1    3    3    0    0 -0.79990071616E+01 -0.22653236761E+02 -0.22218963283E+02  0.32723624203E+02  0.51100000000E-03 0. -1.
        -11    1    3    3    0    0 -0.13163258210E+02 -0.78134634289E-01  0.10571211250E+02  0.16882771671E+02  0.51100000000E-03 0.  1.
         12    1    3    3    0    0  0.11448328099E+02  0.19371442059E+02 -0.40055928396E+01  0.22855234799E+02  0.00000000000E+00 0. -1.
</event>
<event>
 7    1  0.3681059E-013  0.7246161E+02  0.7816164E-02  0.1226708E+00
        -11   -1    0    0    0    0  0.00000000000E+00  0.00000000000E+00  0.45593999997E+02  0.45594000000E+02  0.51100000000E-03 0. -1.
         11   -1    0    0    0    0 -0.00000000000E+00 -0.00000000000E+00 -0.45593999997E+02  0.45594000000E+02  0.51100000000E-03 0.  1.
    9900012    2    1    2    0    0 -0.37216623187E+00 -0.18337077994E+02  0.37803301203E+01  0.72461605983E+02  0.70000046492E+02 0.  0.
        -12    1    1    2    0    0  0.37216623187E+00  0.18337077994E+02 -0.37803301203E+01  0.18726394017E+02  0.00000000000E+00 0.  1.
         11    1    3    3    0    0  0.89719770647E+01  0.89748756032E+01 -0.49771640009E+01  0.13631468237E+02  0.51100000000E-03 0. -1.
        -11    1    3    3    0    0  0.18742863141E+02 -0.23108560131E+02  0.36930648416E+01  0.29982314758E+02  0.51100000000E-03 0.  1.
        -12    1    3    3    0    0 -0.28087006438E+02 -0.42033934663E+01  0.50644292797E+01  0.28847822989E+02  0.00000000000E+00 0.  1.
</event>
<event>
 7    1  0.3681059E-013  0.7246161E+02  0.7816164E-02  0.1226708E+00
        -11   -1    0    0    0    0  0.00000000000E+00  0.00000000000E+00  0.45593999997E+02  0.45594000000E+02  0.51100000000E-03 0. -1.
         11   -1    0    0    0    0 -0.00000000000E+00 -0.00000000000E+00 -0.45593999997E+02  0.45594000000E+02  0.51100000000E-03 0.  1.
    9900012    2    1    2    0    0  0.13892849524E+02 -0.63921750448E+01  0.10807708889E+02  0.72461608433E+02  0.70000049682E+02 0.  0.
        -12    1    1    2    0    0 -0.13892849524E+02  0.63921750448E+01 -0.10807708889E+02  0.18726391567E+02  0.00000000000E+00 0.  1.
         11    1    3    3    0    0  0.20779022546E+02 -0.14114608409E+02  0.21624493656E+02  0.33145266248E+02  0.51100000000E-03 0. -1.
        -11    1    3    3    0    0 -0.19126268774E+02 -0.94783668358E+00  0.24316159847E+01  0.19303505074E+02  0.51100000000E-03 0.  1.
         12    1    3    3    0    0  0.12240095752E+02  0.86702700480E+01 -0.13248400752E+02  0.20012837110E+02  0.00000000000E+00 0. -1.
</event>
<event>
 7    1  0.3681059E-013  0.7246155E+02  0.7816164E-02  0.1226708E+00
        -11   -1    0    0    0    0  0.00000000000E+00  0.00000000000E+00  0.45593999997E+02  0.45594000000E+02  0.51100000000E-03 0. -1.
         11   -1    0    0    0    0 -0.00000000000E+00 -0.00000000000E+00 -0.45593999997E+02  0.45594000000E+02  0.51100000000E-03 0.  1.
    9900012    2    1    2    0    0  0.15114756679E+02  0.88168138067E+01  0.66699263102E+01  0.72461548330E+02  0.69999971388E+02 0.  0.
        -12    1    1    2    0    0 -0.15114756679E+02 -0.88168138067E+01 -0.66699263102E+01  0.18726451670E+02  0.00000000000E+00 0.  1.
         11    1    3    3    0    0  0.84392468631E+01  0.24781015850E+02  0.13697298892E+02  0.29545484111E+02  0.51100000000E-03 0. -1.
        -11    1    3    3    0    0  0.77413276987E+01 -0.20262379113E+01 -0.21411828492E+02  0.22858263150E+02  0.51100000000E-03 0.  1.
         12    1    3    3    0    0 -0.10658178832E+01 -0.13937964132E+02  0.14384455910E+02  0.20057801069E+02  0.00000000000E+00 0. -1.
</event>
<event>
 7    1  0.3681059E-013  0.7246158E+02  0.7816164E-02  0.1226708E+00
        -11   -1    0    0    0    0  0.00000000000E+00  0.00000000000E+00  0.45593999997E+02  0.45594000000E+02  0.51100000000E-03 0.  1.
         11   -1    0    0    0    0 -0.00000000000E+00 -0.00000000000E+00 -0.45593999997E+02  0.45594000000E+02  0.51100000000E-03 0. -1.
    9900012    2    1    2    0    0  0.15545126690E+02 -0.96431130187E+01  0.40047540108E+01  0.72461584241E+02  0.70000018168E+02 0.  0.
        -12    1    1    2    0    0 -0.15545126690E+02  0.96431130187E+01 -0.40047540108E+01  0.18726415759E+02  0.00000000000E+00 0.  1.
         11    1    3    3    0    0  0.15379503828E+02 -0.21271664409E+02 -0.26428582009E+02  0.37248930078E+02  0.51100000000E-03 0. -1.
        -11    1    3    3    0    0 -0.42621885306E+00 -0.23104707264E+01  0.83929991900E+00  0.24948671514E+01  0.51100000000E-03 0.  1.
        -12    1    3    3    0    0  0.59184171513E+00  0.13939022116E+02  0.29594036101E+02  0.32717787011E+02  0.00000000000E+00 0.  1.
</event>
<event>
 7    1  0.3681059E-013  0.7246159E+02  0.7816164E-02  0.1226708E+00
        -11   -1    0    0    0    0  0.00000000000E+00  0.00000000000E+00  0.45593999997E+02  0.45594000000E+02  0.51100000000E-03 0. -1.
         11   -1    0    0    0    0 -0.00000000000E+00 -0.00000000000E+00 -0.45593999997E+02  0.45594000000E+02  0.51100000000E-03 0.  1.
    9900012    2    1    2    0    0  0.12568478990E+01 -0.18448602626E+02  0.29576727591E+01  0.72461589942E+02  0.70000025595E+02 0.  0.
        -12    1    1    2    0    0 -0.12568478990E+01  0.18448602626E+02 -0.29576727591E+01  0.18726410058E+02  0.00000000000E+00 0.  1.
         11    1    3    3    0    0  0.23317876626E+01 -0.57367597220E+01  0.18788087866E+02  0.19782312599E+02  0.51100000000E-03 0. -1.
        -11    1    3    3    0    0 -0.19702030877E+01 -0.11048231815E+02  0.16685524304E+02  0.20108501884E+02  0.51100000000E-03 0.  1.
        -12    1    3    3    0    0  0.89526332407E+00 -0.16636110892E+01 -0.32515939411E+02  0.32570775460E+02  0.00000000000E+00 0.  1.
</event>
<event>
 7    1  0.3681059E-013  0.7246197E+02  0.7816164E-02  0.1226707E+00
        -11   -1    0    0    0    0  0.00000000000E+00  0.00000000000E+00  0.45593999997E+02  0.45594000000E+02  0.51100000000E-03 0.  1.
         11   -1    0    0    0    0 -0.00000000000E+00 -0.00000000000E+00 -0.45593999997E+02  0.45594000000E+02  0.51100000000E-03 0. -1.
    9900012    2    1    2    0    0 -0.13959031128E+02  0.91895650910E+01 -0.84475757034E+01  0.72461970206E+02  0.70000520957E+02 0.  0.
        -12    1    1    2    0    0  0.13959031128E+02 -0.91895650910E+01  0.84475757034E+01  0.18726029794E+02  0.00000000000E+00 0.  1.
         11    1    3    3    0    0 -0.94024485828E+01  0.45603602415E+00  0.20575501478E+01  0.96357418542E+01  0.51100000000E-03 0. -1.
        -11    1    3    3    0    0  0.17403379777E+02 -0.31501716523E+01  0.17792557414E+02  0.25087373491E+02  0.51100000000E-03 0.  1.
         12    1    3    3    0    0 -0.21959962323E+02  0.11883700719E+02 -0.28297683265E+02  0.37738854860E+02  0.00000000000E+00 0. -1.
</event>
<event>
 7    1  0.3681059E-013  0.7246155E+02  0.7816164E-02  0.1226708E+00
        -11   -1    0    0    0    0  0.00000000000E+00  0.00000000000E+00  0.45593999997E+02  0.45594000000E+02  0.51100000000E-03 0.  1.
         11   -1    0    0    0    0 -0.00000000000E+00 -0.00000000000E+00 -0.45593999997E+02  0.45594000000E+02  0.51100000000E-03 0. -1.
    9900012    2    1    2    0    0  0.46875699754E+01  0.18105949953E+02  0.93866388713E+00  0.72461552770E+02  0.69999977171E+02 0.  0.
        -12    1    1    2    0    0 -0.46875699754E+01 -0.18105949953E+02 -0.93866388713E+00  0.18726447230E+02  0.00000000000E+00 0.  1.
         11    1    3    3    0    0 -0.21993579382E+02 -0.12348451024E+02 -0.11297760091E+02  0.27637676459E+02  0.51100000000E-03 0. -1.
        -11    1    3    3    0    0  0.13920329748E+01  0.11149171806E+02  0.20811150803E+01  0.11426846809E+02  0.51100000000E-03 0.  1.
        -12    1    3    3    0    0  0.25289116383E+02  0.19305229171E+02  0.10155308898E+02  0.33397029502E+02  0.00000000000E+00 0.  1.
</event>
<event>
 7    1  0.3681059E-013  0.7246157E+02  0.7816164E-02  0.1226708E+00
        -11   -1    0    0    0    0  0.00000000000E+00  0.00000000000E+00  0.45593999997E+02  0.45594000000E+02  0.51100000000E-03 0. -1.
         11   -1    0    0    0    0 -0.00000000000E+00 -0.00000000000E+00 -0.45593999997E+02  0.45594000000E+02  0.51100000000E-03 0.  1.
    9900012    2    1    2    0    0  0.17407918407E+02  0.39383803296E+01  0.56685595462E+01  0.72461574014E+02  0.70000004846E+02 0.  0.
        -12    1    1    2    0    0 -0.17407918407E+02 -0.39383803296E+01 -0.56685595462E+01  0.18726425986E+02  0.00000000000E+00 0.  1.
         11    1    3    3    0    0 -0.58073197954E+00 -0.16710699447E+02  0.13213314095E+02  0.21311414671E+02  0.51100000000E-03 0. -1.
        -11    1    3    3    0    0  0.22305747172E+02 -0.10219498810E+01  0.84472094558E+01  0.23873543648E+02  0.51100000000E-03 0.  1.
        -12    1    3    3    0    0 -0.43170967863E+01  0.21671029658E+02 -0.15991964004E+02  0.27276615695E+02  0.00000000000E+00 0.  1.
</event>
<event>
 7    1  0.3681059E-013  0.7246159E+02  0.7816164E-02  0.1226708E+00
        -11   -1    0    0    0    0  0.00000000000E+00  0.00000000000E+00  0.45593999997E+02  0.45594000000E+02  0.51100000000E-03 0. -1.
         11   -1    0    0    0    0 -0.00000000000E+00 -0.00000000000E+00 -0.45593999997E+02  0.45594000000E+02  0.51100000000E-03 0.  1.
    9900012    2    1    2    0    0 -0.14943416444E+02  0.92575059075E+01  0.64553237252E+01  0.72461593109E+02  0.70000029721E+02 0.  0.
        -12    1    1    2    0    0  0.14943416444E+02 -0.92575059075E+01 -0.64553237252E+01  0.18726406891E+02  0.00000000000E+00 0.  1.
         11    1    3    3    0    0 -0.16999670222E+02  0.16635743677E+02  0.17126755603E+02  0.29309768220E+02  0.51100000000E-03 0. -1.
        -11    1    3    3    0    0  0.11301222359E+02  0.11878904668E+02  0.44391869270E+01  0.16986241013E+02  0.51100000000E-03 0.  1.
         12    1    3    3    0    0 -0.92449685808E+01 -0.19257142438E+02 -0.15110618804E+02  0.26165583876E+02  0.00000000000E+00 0. -1.
</event>
<event>
 7    1  0.3681059E-013  0.7246157E+02  0.7816164E-02  0.1226708E+00
        -11   -1    0    0    0    0  0.00000000000E+00  0.00000000000E+00  0.45593999997E+02  0.45594000000E+02  0.51100000000E-03 0. -1.
         11   -1    0    0    0    0 -0.00000000000E+00 -0.00000000000E+00 -0.45593999997E+02  0.45594000000E+02  0.51100000000E-03 0.  1.
    9900012    2    1    2    0    0  0.10652144832E+02  0.15168280472E+02 -0.26709795449E+01  0.72461573386E+02  0.70000004027E+02 0.  0.
        -12    1    1    2    0    0 -0.10652144832E+02 -0.15168280472E+02  0.26709795449E+01  0.18726426614E+02  0.00000000000E+00 0.  1.
         11    1    3    3    0    0  0.67270859584E-01  0.65609068832E+01 -0.44304156196E+01  0.79169822105E+01  0.51100000000E-03 0. -1.
        -11    1    3    3    0    0 -0.52921061815E+01 -0.79056431295E+01 -0.26506253240E+02  0.28161801118E+02  0.51100000000E-03 0.  1.
         12    1    3    3    0    0  0.15876980154E+02  0.16513016718E+02  0.28265689314E+02  0.36382790058E+02  0.00000000000E+00 0. -1.
</event>
<event>
 7    1  0.3681059E-013  0.7246160E+02  0.7816164E-02  0.1226708E+00
        -11   -1    0    0    0    0  0.00000000000E+00  0.00000000000E+00  0.45593999997E+02  0.45594000000E+02  0.51100000000E-03 0. -1.
         11   -1    0    0    0    0 -0.00000000000E+00 -0.00000000000E+00 -0.45593999997E+02  0.45594000000E+02  0.51100000000E-03 0.  1.
    9900012    2    1    2    0    0  0.18845744770E+01 -0.17352265669E+02  0.67841869001E+01  0.72461603211E+02  0.70000042880E+02 0.  0.
        -12    1    1    2    0    0 -0.18845744770E+01  0.17352265669E+02 -0.67841869001E+01  0.18726396789E+02  0.00000000000E+00 0.  1.
         11    1    3    3    0    0  0.54265434706E+01 -0.11533409307E+02  0.13324468439E+02  0.18439315706E+02  0.51100000000E-03 0. -1.
        -11    1    3    3    0    0  0.11096215469E+02  0.10844170737E+02 -0.22047341587E+02  0.26959364014E+02  0.51100000000E-03 0.  1.
         12    1    3    3    0    0 -0.14638184462E+02 -0.16663027100E+02  0.15507060049E+02  0.27062923490E+02  0.00000000000E+00 0. -1.
</event>
<event>
 7    1  0.3681059E-013  0.7246179E+02  0.7816164E-02  0.1226707E+00
        -11   -1    0    0    0    0  0.00000000000E+00  0.00000000000E+00  0.45593999997E+02  0.45594000000E+02  0.51100000000E-03 0. -1.
         11   -1    0    0    0    0 -0.00000000000E+00 -0.00000000000E+00 -0.45593999997E+02  0.45594000000E+02  0.51100000000E-03 0.  1.
    9900012    2    1    2    0    0 -0.17923502696E+01 -0.51490095594E+01  0.17914970039E+02  0.72461789213E+02  0.70000285182E+02 0.  0.
        -12    1    1    2    0    0  0.17923502696E+01  0.51490095594E+01 -0.17914970039E+02  0.18726210787E+02  0.00000000000E+00 0.  1.
         11    1    3    3    0    0 -0.56028989417E+01 -0.18513769990E+02 -0.57419420837E+01  0.20177265795E+02  0.51100000000E-03 0. -1.
        -11    1    3    3    0    0 -0.11151183071E+02  0.24273686475E+02  0.75920452073E+01  0.27770485946E+02  0.51100000000E-03 0.  1.
         12    1    3    3    0    0  0.14961731744E+02 -0.10908926044E+02  0.16064866915E+02  0.24514037473E+02  0.00000000000E+00 0. -1.
</event>
<event>
 7    1  0.3681059E-013  0.7246164E+02  0.7816164E-02  0.1226708E+00
        -11   -1    0    0    0    0  0.00000000000E+00  0.00000000000E+00  0.45593999997E+02  0.45594000000E+02  0.51100000000E-03 0.  1.
         11   -1    0    0    0    0 -0.00000000000E+00 -0.00000000000E+00 -0.45593999997E+02  0.45594000000E+02  0.51100000000E-03 0. -1.
    9900012    2    1    2    0    0 -0.15149596993E+02  0.85335017550E+01  0.69531129497E+01  0.72461635672E+02  0.70000085167E+02 0.  0.
        -12    1    1    2    0    0  0.15149596993E+02 -0.85335017550E+01 -0.69531129497E+01  0.18726364328E+02  0.00000000000E+00 0.  1.
         11    1    3    3    0    0 -0.15913880632E+00  0.60137672758E+00  0.95725226160E+00  0.11416265947E+01  0.51100000000E-03 0. -1.
        -11    1    3    3    0    0  0.62975290179E+01  0.35231421579E+02  0.78925147383E+01  0.36649743892E+02  0.51100000000E-03 0.  1.
         12    1    3    3    0    0 -0.21287987204E+02 -0.27299296552E+02 -0.18966540502E+01  0.34670265185E+02  0.00000000000E+00 0. -1.
</event>
<event>
 7    1  0.3681059E-013  0.7246157E+02  0.7816164E-02  0.1226708E+00
        -11   -1    0    0    0    0  0.00000000000E+00  0.00000000000E+00  0.45593999997E+02  0.45594000000E+02  0.51100000000E-03 0.  1.
         11   -1    0    0    0    0 -0.00000000000E+00 -0.00000000000E+00 -0.45593999997E+02  0.45594000000E+02  0.51100000000E-03 0. -1.
    9900012    2    1    2    0    0 -0.84865025583E+01 -0.14818157565E+02 -0.76864012995E+01  0.72461567231E+02  0.69999996010E+02 0.  0.
        -12    1    1    2    0    0  0.84865025583E+01  0.14818157565E+02  0.76864012995E+01  0.18726432769E+02  0.00000000000E+00 0.  1.
         11    1    3    3    0    0 -0.20546912321E+02  0.12504145119E+02  0.44083930772E+01  0.24453285686E+02  0.51100000000E-03 0. -1.
        -11    1    3    3    0    0  0.89588652712E+01 -0.70065508386E+01  0.11869370680E+02  0.16438825451E+02  0.51100000000E-03 0.  1.
        -12    1    3    3    0    0  0.31015444912E+01 -0.20315751845E+02 -0.23964165056E+02  0.31569456095E+02  0.00000000000E+00 0.  1.
</event>
<event>
 7    1  0.3681059E-013  0.7246152E+02  0.7816164E-02  0.1226708E+00
        -11   -1    0    0    0    0  0.00000000000E+00  0.00000000000E+00  0.45593999997E+02  0.45594000000E+02  0.51100000000E-03 0. -1.
         11   -1    0    0    0    0 -0.00000000000E+00 -0.00000000000E+00 -0.45593999997E+02  0.45594000000E+02  0.51100000000E-03 0.  1.
    9900012    2    1    2    0    0  0.46953204146E+00  0.17658598361E+02 -0.62156610904E+01  0.72461521441E+02  0.69999936360E+02 0.  0.
        -12    1    1    2    0    0 -0.46953204146E+00 -0.17658598361E+02  0.62156610904E+01  0.18726478559E+02  0.00000000000E+00 0.  1.
         11    1    3    3    0    0 -0.19719663799E+00 -0.57989843406E+01  0.16947357016E+02  0.17913124127E+02  0.51100000000E-03 0. -1.
        -11    1    3    3    0    0  0.41104148299E+01  0.15698377252E+02  0.10831212935E+02  0.19510246855E+02  0.51100000000E-03 0.  1.
        -12    1    3    3    0    0 -0.34436861504E+01  0.77592054497E+01 -0.33994231042E+02  0.35038150459E+02  0.00000000000E+00 0.  1.
</event>
<event>
 7    1  0.3681059E-013  0.7246158E+02  0.7816164E-02  0.1226708E+00
        -11   -1    0    0    0    0  0.00000000000E+00  0.00000000000E+00  0.45593999997E+02  0.45594000000E+02  0.51100000000E-03 0. -1.
         11   -1    0    0    0    0 -0.00000000000E+00 -0.00000000000E+00 -0.45593999997E+02  0.45594000000E+02  0.51100000000E-03 0.  1.
    9900012    2    1    2    0    0  0.41268451393E+00 -0.16951325899E+02 -0.79473823434E+01  0.72461584317E+02  0.70000018267E+02 0.  0.
        -12    1    1    2    0    0 -0.41268451393E+00  0.16951325899E+02  0.79473823434E+01  0.18726415683E+02  0.00000000000E+00 0.  1.
         11    1    3    3    0    0  0.96558774025E-01  0.97175967351E+01  0.46344573899E+01  0.10766578169E+02  0.51100000000E-03 0. -1.
        -11    1    3    3    0    0 -0.17924558315E+02  0.24356922635E+01  0.99216249314E+01  0.20631554210E+02  0.51100000000E-03 0.  1.
        -12    1    3    3    0    0  0.18240684055E+02 -0.29104614897E+02 -0.22503464665E+02  0.41063451938E+02  0.00000000000E+00 0.  1.
</event>
<event>
 7    1  0.3681059E-013  0.7246157E+02  0.7816164E-02  0.1226708E+00
        -11   -1    0    0    0    0  0.00000000000E+00  0.00000000000E+00  0.45593999997E+02  0.45594000000E+02  0.51100000000E-03 0.  1.
         11   -1    0    0    0    0 -0.00000000000E+00 -0.00000000000E+00 -0.45593999997E+02  0.45594000000E+02  0.51100000000E-03 0. -1.
    9900012    2    1    2    0    0  0.16134525861E+02 -0.93003193066E+01  0.19647939637E+01  0.72461567364E+02  0.69999996183E+02 0.  0.
        -12    1    1    2    0    0 -0.16134525861E+02  0.93003193066E+01 -0.19647939637E+01  0.18726432636E+02  0.00000000000E+00 0.  1.
         11    1    3    3    0    0  0.23465221482E+01  0.21714532348E+02 -0.11894444873E+02  0.24869758752E+02  0.51100000000E-03 0. -1.
        -11    1    3    3    0    0 -0.31173410708E+01  0.13065685042E+01  0.10419972040E+02  0.10954485574E+02  0.51100000000E-03 0.  1.
        -12    1    3    3    0    0  0.16905344783E+02 -0.32321420159E+02  0.34392667962E+01  0.36637323038E+02  0.00000000000E+00 0.  1.
</event>
<event>
 7    1  0.3681059E-013  0.7246162E+02  0.7816164E-02  0.1226708E+00
        -11   -1    0    0    0    0  0.00000000000E+00  0.00000000000E+00  0.45593999997E+02  0.45594000000E+02  0.51100000000E-03 0. -1.
         11   -1    0    0    0    0 -0.00000000000E+00 -0.00000000000E+00 -0.45593999997E+02  0.45594000000E+02  0.51100000000E-03 0.  1.
    9900012    2    1    2    0    0 -0.15462026051E+02 -0.10373403159E+02 -0.19988633494E+01  0.72461622951E+02  0.70000068595E+02 0.  0.
        -12    1    1    2    0    0  0.15462026051E+02  0.10373403159E+02  0.19988633494E+01  0.18726377049E+02  0.00000000000E+00 0.  1.
         11    1    3    3    0    0 -0.90516306446E+01  0.20405677315E+02 -0.82915879482E+01  0.23813318017E+02  0.51100000000E-03 0. -1.
        -11    1    3    3    0    0  0.32591038349E+01  0.68028988557E+01  0.63221730923E+01  0.98423098670E+01  0.51100000000E-03 0.  1.
        -12    1    3    3    0    0 -0.96694992414E+01 -0.37581979330E+02 -0.29448493526E-01  0.38805995067E+02  0.00000000000E+00 0.  1.
</event>
<event>
 7    1  0.3681059E-013  0.7246152E+02  0.7816164E-02  0.1226708E+00
        -11   -1    0    0    0    0  0.00000000000E+00  0.00000000000E+00  0.45593999997E+02  0.45594000000E+02  0.51100000000E-03 0. -1.
         11   -1    0    0    0    0 -0.00000000000E+00 -0.00000000000E+00 -0.45593999997E+02  0.45594000000E+02  0.51100000000E-03 0.  1.
    9900012    2    1    2    0    0 -0.67627668161E+01 -0.51496726836E+01  0.16686129711E+02  0.72461519592E+02  0.69999933950E+02 0.  0.
        -12    1    1    2    0    0  0.67627668161E+01  0.51496726836E+01 -0.16686129711E+02  0.18726480408E+02  0.00000000000E+00 0.  1.
         11    1    3    3    0    0  0.13374105870E+02 -0.36737104249E+01 -0.11839859775E+02  0.18235820131E+02  0.51100000000E-03 0. -1.
        -11    1    3    3    0    0 -0.17912984111E+02  0.13634188545E+02  0.74564829545E+00  0.22523811593E+02  0.51100000000E-03 0.  1.
         12    1    3    3    0    0 -0.22238885756E+01 -0.15110150804E+02  0.27780341190E+02  0.31701887867E+02  0.00000000000E+00 0. -1.
</event>
<event>
 7    1  0.3681059E-013  0.7246162E+02  0.7816164E-02  0.1226708E+00
        -11   -1    0    0    0    0  0.00000000000E+00  0.00000000000E+00  0.45593999997E+02  0.45594000000E+02  0.51100000000E-03 0.  1.
         11   -1    0    0    0    0 -0.00000000000E+00 -0.00000000000E+00 -0.45593999997E+02  0.45594000000E+02  0.51100000000E-03 0. -1.
    9900012    2    1    2    0    0 -0.14695776114E+01 -0.18638048633E+02  0.10680773428E+01  0.72461620093E+02  0.70000064872E+02 0.  0.
        -12    1    1    2    0    0  0.14695776114E+01  0.18638048633E+02 -0.10680773428E+01  0.18726379907E+02  0.00000000000E+00 0.  1.
         11    1    3    3    0    0 -0.77548988333E+00  0.54748294082E+01 -0.22196964219E+02  0.22875322127E+02  0.51100000000E-03 0. -1.
        -11    1    3    3    0    0  0.14001311705E+02 -0.15420300250E+02  0.12461406680E+00  0.20828776205E+02  0.51100000000E-03 0.  1.
        -12    1    3    3    0    0 -0.14695399433E+02 -0.86925777915E+01  0.23140427495E+02  0.28757521761E+02  0.00000000000E+00 0.  1.
</event>
<event>
 7    1  0.3681059E-013  0.7246163E+02  0.7816164E-02  0.1226708E+00
        -11   -1    0    0    0    0  0.00000000000E+00  0.00000000000E+00  0.45593999997E+02  0.45594000000E+02  0.51100000000E-03 0. -1.
         11   -1    0    0    0    0 -0.00000000000E+00 -0.00000000000E+00 -0.45593999997E+02  0.45594000000E+02  0.51100000000E-03 0.  1.
    9900012    2    1    2    0    0 -0.12686188367E+02 -0.11080790450E+02  0.81825187009E+01  0.72461630770E+02  0.70000078780E+02 0.  0.
        -12    1    1    2    0    0  0.12686188367E+02  0.11080790450E+02 -0.81825187009E+01  0.18726369230E+02  0.00000000000E+00 0.  1.
         11    1    3    3    0    0 -0.20459444715E+02 -0.30562981090E+02 -0.12176269284E+01  0.36799012307E+02  0.51100000000E-03 0. -1.
        -11    1    3    3    0    0  0.22974170146E+01 -0.61005135610E+01 -0.24209077468E+01  0.69537892710E+01  0.51100000000E-03 0.  1.
        -12    1    3    3    0    0  0.54758393337E+01  0.25582704201E+02  0.11821053376E+02  0.28708829192E+02  0.00000000000E+00 0.  1.
</event>
<event>
 7    1  0.3681059E-013  0.7246161E+02  0.7816164E-02  0.1226708E+00
        -11   -1    0    0    0    0  0.00000000000E+00  0.00000000000E+00  0.45593999997E+02  0.45594000000E+02  0.51100000000E-03 0.  1.
         11   -1    0    0    0    0 -0.00000000000E+00 -0.00000000000E+00 -0.45593999997E+02  0.45594000000E+02  0.51100000000E-03 0. -1.
    9900012    2    1    2    0    0 -0.12817597226E+01 -0.18635832332E+02 -0.13193368301E+01  0.72461606745E+02  0.70000047483E+02 0.  0.
        -12    1    1    2    0    0  0.12817597226E+01  0.18635832332E+02  0.13193368301E+01  0.18726393255E+02  0.00000000000E+00 0.  1.
         11    1    3    3    0    0 -0.17947544126E+01 -0.10778029298E+02  0.16763905332E+02  0.20010386833E+02  0.51100000000E-03 0. -1.
        -11    1    3    3    0    0  0.99975326800E+01 -0.11797711336E+02  0.12693209273E+02  0.20006354350E+02  0.51100000000E-03 0.  1.
         12    1    3    3    0    0 -0.94845379900E+01  0.39399083025E+01 -0.30776451436E+02  0.32444865561E+02  0.00000000000E+00 0. -1.
</event>
<event>
 7    1  0.3681059E-013  0.7246142E+02  0.7816164E-02  0.1226708E+00
        -11   -1    0    0    0    0  0.00000000000E+00  0.00000000000E+00  0.45593999997E+02  0.45594000000E+02  0.51100000000E-03 0. -1.
         11   -1    0    0    0    0 -0.00000000000E+00 -0.00000000000E+00 -0.45593999997E+02  0.45594000000E+02  0.51100000000E-03 0.  1.
    9900012    2    1    2    0    0 -0.89709611928E+01 -0.11957031716E+02  0.11279891733E+02  0.72461422371E+02  0.69999807302E+02 0.  0.
        -12    1    1    2    0    0  0.89709611928E+01  0.11957031716E+02 -0.11279891733E+02  0.18726577629E+02  0.00000000000E+00 0.  1.
         11    1    3    3    0    0  0.14998620398E+02  0.15007683397E+02  0.46039484229E+01  0.21711414420E+02  0.51100000000E-03 0. -1.
        -11    1    3    3    0    0 -0.10512919646E+02 -0.30570046316E+01 -0.12994773553E+02  0.16992083355E+02  0.51100000000E-03 0.  1.
         12    1    3    3    0    0 -0.13456661945E+02 -0.23907710481E+02  0.19670716863E+02  0.33757924596E+02  0.00000000000E+00 0. -1.
</event>
<event>
 7    1  0.3681059E-013  0.7246157E+02  0.7816164E-02  0.1226708E+00
        -11   -1    0    0    0    0  0.00000000000E+00  0.00000000000E+00  0.45593999997E+02  0.45594000000E+02  0.51100000000E-03 0.  1.
         11   -1    0    0    0    0 -0.00000000000E+00 -0.00000000000E+00 -0.45593999997E+02  0.45594000000E+02  0.51100000000E-03 0. -1.
    9900012    2    1    2    0    0 -0.95910994604E+00  0.43268918032E+01 -0.18194428963E+02  0.72461571354E+02  0.70000001380E+02 0.  0.
        -12    1    1    2    0    0  0.95910994604E+00 -0.43268918032E+01  0.18194428963E+02  0.18726428646E+02  0.00000000000E+00 0.  1.
         11    1    3    3    0    0 -0.19607526486E+02 -0.17730588533E+02 -0.67122926916E+00  0.26443891801E+02  0.51100000000E-03 0. -1.
        -11    1    3    3    0    0  0.40990535068E+00 -0.74597931505E+01 -0.55705272772E+01  0.93191904505E+01  0.51100000000E-03 0.  1.
        -12    1    3    3    0    0  0.18238511189E+02  0.29517273487E+02 -0.11952672416E+02  0.36698489102E+02  0.00000000000E+00 0.  1.
</event>
<event>
 7    1  0.3681059E-013  0.7246156E+02  0.7816164E-02  0.1226708E+00
        -11   -1    0    0    0    0  0.00000000000E+00  0.00000000000E+00  0.45593999997E+02  0.45594000000E+02  0.51100000000E-03 0. -1.
         11   -1    0    0    0    0 -0.00000000000E+00 -0.00000000000E+00 -0.45593999997E+02  0.45594000000E+02  0.51100000000E-03 0.  1.
    9900012    2    1    2    0    0  0.13497127627E+02 -0.12959988629E+02 -0.73886847900E+00  0.72461556503E+02  0.69999982034E+02 0.  0.
        -12    1    1    2    0    0 -0.13497127627E+02  0.12959988629E+02  0.73886847900E+00  0.18726443497E+02  0.00000000000E+00 0.  1.
         11    1    3    3    0    0  0.13137799217E+02  0.20300298114E+02 -0.19367399740E+01  0.24258088007E+02  0.51100000000E-03 0. -1.
        -11    1    3    3    0    0 -0.23338398693E+01  0.71866886451E+01 -0.91825096126E+00  0.76117335283E+01  0.51100000000E-03 0.  1.
        -12    1    3    3    0    0  0.26931682785E+01 -0.40446975388E+02  0.21161224562E+01  0.40591734967E+02  0.00000000000E+00 0.  1.
</event>
<event>
 7    1  0.3681059E-013  0.7246178E+02  0.7816164E-02  0.1226707E+00
        -11   -1    0    0    0    0  0.00000000000E+00  0.00000000000E+00  0.45593999997E+02  0.45594000000E+02  0.51100000000E-03 0. -1.
         11   -1    0    0    0    0 -0.00000000000E+00 -0.00000000000E+00 -0.45593999997E+02  0.45594000000E+02  0.51100000000E-03 0.  1.
    9900012    2    1    2    0    0 -0.13888594090E+02 -0.79338848020E+01 -0.97381664476E+01  0.72461776152E+02  0.70000268167E+02 0.  0.
        -12    1    1    2    0    0  0.13888594090E+02  0.79338848020E+01  0.97381664476E+01  0.18726223848E+02  0.00000000000E+00 0.  1.
         11    1    3    3    0    0 -0.63347332821E+01 -0.18849739052E+02  0.17824417751E+02  0.26704894242E+02  0.51100000000E-03 0. -1.
        -11    1    3    3    0    0  0.26181915505E+01 -0.11560247145E+02 -0.90038831814E+01  0.14885031195E+02  0.51100000000E-03 0.  1.
        -12    1    3    3    0    0 -0.10172052359E+02  0.22476101395E+02 -0.18558701017E+02  0.30871850715E+02  0.00000000000E+00 0.  1.
</event>
<event>
 7    1  0.3681059E-013  0.7246156E+02  0.7816164E-02  0.1226708E+00
        -11   -1    0    0    0    0  0.00000000000E+00  0.00000000000E+00  0.45593999997E+02  0.45594000000E+02  0.51100000000E-03 0.  1.
         11   -1    0    0    0    0 -0.00000000000E+00 -0.00000000000E+00 -0.45593999997E+02  0.45594000000E+02  0.51100000000E-03 0. -1.
    9900012    2    1    2    0    0  0.18062759654E+00  0.17855396671E+02 -0.56419588860E+01  0.72461561025E+02  0.69999987925E+02 0.  0.
        -12    1    1    2    0    0 -0.18062759654E+00 -0.17855396671E+02  0.56419588860E+01  0.18726438975E+02  0.00000000000E+00 0.  1.
         11    1    3    3    0    0 -0.76460740570E+01 -0.30912740644E+01  0.54189506736E+01  0.98683053505E+01  0.51100000000E-03 0. -1.
        -11    1    3    3    0    0 -0.42932638995E+01 -0.16902218228E+02  0.71872306138E+01  0.18861955893E+02  0.51100000000E-03 0.  1.
         12    1    3    3    0    0  0.12119965553E+02  0.37848888964E+02 -0.18248140173E+02  0.43731299782E+02  0.00000000000E+00 0. -1.
</event>
<event>
 7    1  0.3681059E-013  0.7246171E+02  0.7816164E-02  0.1226708E+00
        -11   -1    0    0    0    0  0.00000000000E+00  0.00000000000E+00  0.45593999997E+02  0.45594000000E+02  0.51100000000E-03 0. -1.
         11   -1    0    0    0    0 -0.00000000000E+00 -0.00000000000E+00 -0.45593999997E+02  0.45594000000E+02  0.51100000000E-03 0.  1.
    9900012    2    1    2    0    0 -0.78275483698E+01  0.16911033606E+02 -0.18494699200E+01  0.72461705383E+02  0.70000175977E+02 0.  0.
        -12    1    1    2    0    0  0.78275483698E+01 -0.16911033606E+02  0.18494699200E+01  0.18726294617E+02  0.00000000000E+00 0.  1.
         11    1    3    3    0    0 -0.20941900376E+02 -0.89688863552E+01 -0.14138173876E+02  0.26812162811E+02  0.51100000000E-03 0. -1.
        -11    1    3    3    0    0  0.39405300072E+01 -0.53937468866E+01 -0.53798794138E+01  0.85769099904E+01  0.51100000000E-03 0.  1.
         12    1    3    3    0    0  0.91738219991E+01  0.31273666848E+02  0.17668583370E+02  0.37072632581E+02  0.00000000000E+00 0. -1.
</event>
<event>
 7    1  0.3681059E-013  0.7246157E+02  0.7816164E-02  0.1226708E+00
        -11   -1    0    0    0    0  0.00000000000E+00  0.00000000000E+00  0.45593999997E+02  0.45594000000E+02  0.51100000000E-03 0.  1.
         11   -1    0    0    0    0 -0.00000000000E+00 -0.00000000000E+00 -0.45593999997E+02  0.45594000000E+02  0.51100000000E-03 0. -1.
    9900012    2    1    2    0    0  0.84736604508E+01  0.88035621292E+00 -0.16676365606E+02  0.72461571662E+02  0.70000001781E+02 0.  0.
        -12    1    1    2    0    0 -0.84736604508E+01 -0.88035621292E+00  0.16676365606E+02  0.18726428338E+02  0.00000000000E+00 0.  1.
         11    1    3    3    0    0  0.12972480379E+02 -0.91319574762E+01 -0.19675371065E+02  0.25274455906E+02  0.51100000000E-03 0. -1.
        -11    1    3    3    0    0  0.16591171863E+02  0.81612735068E+01 -0.11272404184E+02  0.21655033257E+02  0.51100000000E-03 0.  1.
        -12    1    3    3    0    0 -0.21089991791E+02  0.18510401823E+01  0.14271409644E+02  0.25532082498E+02  0.00000000000E+00 0.  1.
</event>
<event>
 7    1  0.3681059E-013  0.7246152E+02  0.7816164E-02  0.1226708E+00
        -11   -1    0    0    0    0  0.00000000000E+00  0.00000000000E+00  0.45593999997E+02  0.45594000000E+02  0.51100000000E-03 0.  1.
         11   -1    0    0    0    0 -0.00000000000E+00 -0.00000000000E+00 -0.45593999997E+02  0.45594000000E+02  0.51100000000E-03 0. -1.
    9900012    2    1    2    0    0  0.11907088265E+02  0.10819893624E+02 -0.95829172206E+01  0.72461517377E+02  0.69999931065E+02 0.  0.
        -12    1    1    2    0    0 -0.11907088265E+02 -0.10819893624E+02  0.95829172206E+01  0.18726482623E+02  0.00000000000E+00 0.  1.
         11    1    3    3    0    0  0.52364314515E+01 -0.57028248998E+01  0.10739455080E+02  0.13239271953E+02  0.51100000000E-03 0. -1.
        -11    1    3    3    0    0  0.16833179734E+02  0.13368364586E+02  0.12398155102E+02  0.24814982609E+02  0.51100000000E-03 0.  1.
         12    1    3    3    0    0 -0.10162522920E+02  0.31543539381E+01 -0.32720527403E+02  0.34407262815E+02  0.00000000000E+00 0. -1.
</event>
<event>
 7    1  0.3681059E-013  0.7246154E+02  0.7816164E-02  0.1226708E+00
        -11   -1    0    0    0    0  0.00000000000E+00  0.00000000000E+00  0.45593999997E+02  0.45594000000E+02  0.51100000000E-03 0.  1.
         11   -1    0    0    0    0 -0.00000000000E+00 -0.00000000000E+00 -0.45593999997E+02  0.45594000000E+02  0.51100000000E-03 0. -1.
    9900012    2    1    2    0    0 -0.36706824283E+01 -0.90746975174E+01 -0.15964214974E+02  0.72461542667E+02  0.69999964010E+02 0.  0.
        -12    1    1    2    0    0  0.36706824283E+01  0.90746975174E+01  0.15964214974E+02  0.18726457333E+02  0.00000000000E+00 0.  1.
         11    1    3    3    0    0  0.78885397478E+01 -0.21731619740E+02 -0.13474180772E+02  0.26759034056E+02  0.51100000000E-03 0. -1.
        -11    1    3    3    0    0  0.57095558983E+01 -0.71604108905E+01 -0.14223567189E+02  0.16916866629E+02  0.51100000000E-03 0.  1.
        -12    1    3    3    0    0 -0.17268778074E+02  0.19817333114E+02  0.11733532988E+02  0.28785641981E+02  0.00000000000E+00 0.  1.
</event>
<event>
 7    1  0.3681059E-013  0.7246164E+02  0.7816164E-02  0.1226708E+00
        -11   -1    0    0    0    0  0.00000000000E+00  0.00000000000E+00  0.45593999997E+02  0.45594000000E+02  0.51100000000E-03 0.  1.
         11   -1    0    0    0    0 -0.00000000000E+00 -0.00000000000E+00 -0.45593999997E+02  0.45594000000E+02  0.51100000000E-03 0. -1.
    9900012    2    1    2    0    0  0.62685403119E+01 -0.12322282849E+01 -0.17602945442E+02  0.72461636968E+02  0.70000086855E+02 0.  0.
        -12    1    1    2    0    0 -0.62685403119E+01  0.12322282849E+01  0.17602945442E+02  0.18726363032E+02  0.00000000000E+00 0.  1.
         11    1    3    3    0    0  0.29002230118E+02  0.73675332594E+01 -0.19647274160E+02  0.35797000996E+02  0.51100000000E-03 0. -1.
        -11    1    3    3    0    0  0.11925336781E+01  0.18608218173E+01  0.93027042441E+01  0.95616473959E+01  0.51100000000E-03 0.  1.
         12    1    3    3    0    0 -0.23926223484E+02 -0.10460583362E+02 -0.72583755259E+01  0.27102988576E+02  0.00000000000E+00 0. -1.
</event>
<event>
 7    1  0.3681059E-013  0.7246158E+02  0.7816164E-02  0.1226708E+00
        -11   -1    0    0    0    0  0.00000000000E+00  0.00000000000E+00  0.45593999997E+02  0.45594000000E+02  0.51100000000E-03 0.  1.
         11   -1    0    0    0    0 -0.00000000000E+00 -0.00000000000E+00 -0.45593999997E+02  0.45594000000E+02  0.51100000000E-03 0. -1.
    9900012    2    1    2    0    0  0.13728227071E+02  0.31178459243E+00 -0.12732538158E+02  0.72461575993E+02  0.70000007424E+02 0.  0.
        -12    1    1    2    0    0 -0.13728227071E+02 -0.31178459243E+00  0.12732538158E+02  0.18726424007E+02  0.00000000000E+00 0.  1.
         11    1    3    3    0    0 -0.74026228797E+01 -0.83598578677E+01 -0.10725308444E+02  0.15482838582E+02  0.51100000000E-03 0.  1.
        -11    1    3    3    0    0  0.21445643108E+02  0.28257229779E+02 -0.82489308400E+01  0.36420207349E+02  0.51100000000E-03 0. -1.
         12    1    3    3    0    0 -0.31479315679E+00 -0.19585587319E+02  0.62417011264E+01  0.20558530062E+02  0.00000000000E+00 0. -1.
</event>
<event>
 7    1  0.3681059E-013  0.7246156E+02  0.7816164E-02  0.1226708E+00
        -11   -1    0    0    0    0  0.00000000000E+00  0.00000000000E+00  0.45593999997E+02  0.45594000000E+02  0.51100000000E-03 0.  1.
         11   -1    0    0    0    0 -0.00000000000E+00 -0.00000000000E+00 -0.45593999997E+02  0.45594000000E+02  0.51100000000E-03 0. -1.
    9900012    2    1    2    0    0  0.27305355749E+01  0.96500532301E+01 -0.15814553645E+02  0.72461562569E+02  0.69999989936E+02 0.  0.
        -12    1    1    2    0    0 -0.27305355749E+01 -0.96500532301E+01  0.15814553645E+02  0.18726437431E+02  0.00000000000E+00 0.  1.
         11    1    3    3    0    0 -0.48296786058E+01 -0.40680667177E+01 -0.17800443903E+02  0.18887317588E+02  0.51100000000E-03 0.  1.
        -11    1    3    3    0    0  0.17379402393E+02 -0.68714275264E+01 -0.15939531917E+02  0.24562752732E+02  0.51100000000E-03 0. -1.
        -12    1    3    3    0    0 -0.98191882120E+01  0.20589547474E+02  0.17925422176E+02  0.29011492249E+02  0.00000000000E+00 0.  1.
</event>
<event>
 7    1  0.3681059E-013  0.7246155E+02  0.7816164E-02  0.1226708E+00
        -11   -1    0    0    0    0  0.00000000000E+00  0.00000000000E+00  0.45593999997E+02  0.45594000000E+02  0.51100000000E-03 0. -1.
         11   -1    0    0    0    0 -0.00000000000E+00 -0.00000000000E+00 -0.45593999997E+02  0.45594000000E+02  0.51100000000E-03 0.  1.
    9900012    2    1    2    0    0 -0.15435171562E+01  0.16451165110E+02  0.88122913022E+01  0.72461554617E+02  0.69999979577E+02 0.  0.
        -12    1    1    2    0    0  0.15435171562E+01 -0.16451165110E+02 -0.88122913022E+01  0.18726445383E+02  0.00000000000E+00 0.  1.
         11    1    3    3    0    0 -0.15917706666E+02  0.27301180340E+02 -0.21133973611E+01  0.31673242369E+02  0.51100000000E-03 0. -1.
        -11    1    3    3    0    0 -0.13687787788E+00  0.12121898530E+02  0.31089486524E+01  0.12514979885E+02  0.51100000000E-03 0.  1.
        -12    1    3    3    0    0  0.14511067388E+02 -0.22971913760E+02  0.78167400109E+01  0.28273332364E+02  0.00000000000E+00 0.  1.
</event>
<event>
 7    1  0.3681059E-013  0.7246158E+02  0.7816164E-02  0.1226708E+00
        -11   -1    0    0    0    0  0.00000000000E+00  0.00000000000E+00  0.45593999997E+02  0.45594000000E+02  0.51100000000E-03 0. -1.
         11   -1    0    0    0    0 -0.00000000000E+00 -0.00000000000E+00 -0.45593999997E+02  0.45594000000E+02  0.51100000000E-03 0.  1.
    9900012    2    1    2    0    0 -0.69171551622E+01 -0.12106830029E+02  0.12500262526E+02  0.72461576634E+02  0.70000008258E+02 0.  0.
        -12    1    1    2    0    0  0.69171551622E+01  0.12106830029E+02 -0.12500262526E+02  0.18726423366E+02  0.00000000000E+00 0.  1.
         11    1    3    3    0    0  0.93222068531E+01  0.10844480877E+02  0.68826860594E+01  0.15870654484E+02  0.51100000000E-03 0. -1.
        -11    1    3    3    0    0  0.96802746062E+01  0.70197333614E+01 -0.83415469648E+01  0.14579635762E+02  0.51100000000E-03 0.  1.
        -12    1    3    3    0    0 -0.25919636622E+02 -0.29971044267E+02  0.13959123431E+02  0.42011286388E+02  0.00000000000E+00 0.  1.
</event>
<event>
 7    1  0.3681059E-013  0.7246156E+02  0.7816164E-02  0.1226708E+00
        -11   -1    0    0    0    0  0.00000000000E+00  0.00000000000E+00  0.45593999997E+02  0.45594000000E+02  0.51100000000E-03 0. -1.
         11   -1    0    0    0    0 -0.00000000000E+00 -0.00000000000E+00 -0.45593999997E+02  0.45594000000E+02  0.51100000000E-03 0.  1.
    9900012    2    1    2    0    0  0.14346869444E+02 -0.92962158873E+01  0.76437630357E+01  0.72461563980E+02  0.69999991775E+02 0.  0.
        -12    1    1    2    0    0 -0.14346869444E+02  0.92962158873E+01 -0.76437630357E+01  0.18726436020E+02  0.00000000000E+00 0.  1.
         11    1    3    3    0    0  0.97111653314E+01  0.31522146160E+01  0.26158794997E+02  0.28080700579E+02  0.51100000000E-03 0. -1.
        -11    1    3    3    0    0  0.10675923175E+02  0.10554446020E+02 -0.13949682394E+01  0.15077055517E+02  0.51100000000E-03 0.  1.
        -12    1    3    3    0    0 -0.60402190624E+01 -0.23002876523E+02 -0.17120063722E+02  0.29303807884E+02  0.00000000000E+00 0.  1.
</event>
<event>
 7    1  0.3681059E-013  0.7246156E+02  0.7816164E-02  0.1226708E+00
        -11   -1    0    0    0    0  0.00000000000E+00  0.00000000000E+00  0.45593999997E+02  0.45594000000E+02  0.51100000000E-03 0.  1.
         11   -1    0    0    0    0 -0.00000000000E+00 -0.00000000000E+00 -0.45593999997E+02  0.45594000000E+02  0.51100000000E-03 0. -1.
    9900012    2    1    2    0    0 -0.15519890115E+02  0.96210641730E+01 -0.41530244942E+01  0.72461562073E+02  0.69999989290E+02 0.  0.
        -12    1    1    2    0    0  0.15519890115E+02 -0.96210641730E+01  0.41530244942E+01  0.18726437927E+02  0.00000000000E+00 0.  1.
         11    1    3    3    0    0 -0.99316632447E+01  0.25374203675E+01  0.16659866954E+02  0.19560869207E+02  0.51100000000E-03 0. -1.
        -11    1    3    3    0    0 -0.45311105656E+01 -0.17710034099E+02  0.29793756250E+01  0.18521688642E+02  0.51100000000E-03 0.  1.
         12    1    3    3    0    0 -0.10571163045E+01  0.24793677905E+02 -0.23792267074E+02  0.34379004224E+02  0.00000000000E+00 0. -1.
</event>
<event>
 7    1  0.3681059E-013  0.7246232E+02  0.7816164E-02  0.1226706E+00
        -11   -1    0    0    0    0  0.00000000000E+00  0.00000000000E+00  0.45593999997E+02  0.45594000000E+02  0.51100000000E-03 0.  1.
         11   -1    0    0    0    0 -0.00000000000E+00 -0.00000000000E+00 -0.45593999997E+02  0.45594000000E+02  0.51100000000E-03 0. -1.
    9900012    2    1    2    0    0 -0.17643538711E+02 -0.12089545226E+01 -0.61559048844E+01  0.72462317256E+02  0.70000973050E+02 0.  0.
        -12    1    1    2    0    0  0.17643538711E+02  0.12089545226E+01  0.61559048844E+01  0.18725682744E+02  0.00000000000E+00 0.  1.
         11    1    3    3    0    0  0.96246188113E+01 -0.11151947517E+02 -0.23042448217E+02  0.27348741119E+02  0.51100000000E-03 0. -1.
        -11    1    3    3    0    0 -0.15234648494E+02 -0.60010791650E+01 -0.33122636971E+01  0.16705644464E+02  0.51100000000E-03 0.  1.
        -12    1    3    3    0    0 -0.12033509028E+02  0.15944072159E+02  0.20198807030E+02  0.28407931673E+02  0.00000000000E+00 0.  1.
</event>
<event>
 7    1  0.3681059E-013  0.7246152E+02  0.7816164E-02  0.1226708E+00
        -11   -1    0    0    0    0  0.00000000000E+00  0.00000000000E+00  0.45593999997E+02  0.45594000000E+02  0.51100000000E-03 0.  1.
         11   -1    0    0    0    0 -0.00000000000E+00 -0.00000000000E+00 -0.45593999997E+02  0.45594000000E+02  0.51100000000E-03 0. -1.
    9900012    2    1    2    0    0 -0.65294199373E+01  0.10116374658E+02  0.14342478150E+02  0.72461520341E+02  0.69999934927E+02 0.  0.
        -12    1    1    2    0    0  0.65294199373E+01 -0.10116374658E+02 -0.14342478150E+02  0.18726479659E+02  0.00000000000E+00 0.  1.
         11    1    3    3    0    0 -0.76407863684E+00 -0.20704741090E+01  0.34496112278E+01  0.40951797376E+01  0.51100000000E-03 0. -1.
        -11    1    3    3    0    0  0.40842406130E+01  0.13095247423E+02  0.37526617120E+02  0.39955143839E+02  0.51100000000E-03 0.  1.
         12    1    3    3    0    0 -0.98495819134E+01 -0.90839865536E+00 -0.26633750198E+02  0.28411196765E+02  0.00000000000E+00 0. -1.
</event>
<event>
 7    1  0.3681059E-013  0.7246155E+02  0.7816164E-02  0.1226708E+00
        -11   -1    0    0    0    0  0.00000000000E+00  0.00000000000E+00  0.45593999997E+02  0.45594000000E+02  0.51100000000E-03 0. -1.
         11   -1    0    0    0    0 -0.00000000000E+00 -0.00000000000E+00 -0.45593999997E+02  0.45594000000E+02  0.51100000000E-03 0.  1.
    9900012    2    1    2    0    0  0.11889641978E+02  0.14091793849E+02 -0.32768520252E+01  0.72461548136E+02  0.69999971134E+02 0.  0.
        -12    1    1    2    0    0 -0.11889641978E+02 -0.14091793849E+02  0.32768520252E+01  0.18726451864E+02  0.00000000000E+00 0.  1.
         11    1    3    3    0    0  0.10843049759E+02  0.23280684165E+02  0.54391615463E+01  0.26251599224E+02  0.51100000000E-03 0. -1.
        -11    1    3    3    0    0 -0.78434088004E+01  0.15950444642E+02 -0.81120191131E+01  0.19538183136E+02  0.51100000000E-03 0.  1.
        -12    1    3    3    0    0  0.88900010196E+01 -0.25139334958E+02 -0.60399445848E+00  0.26671765775E+02  0.00000000000E+00 0.  1.
</event>
<event>
 7    1  0.3681059E-013  0.7246152E+02  0.7816164E-02  0.1226708E+00
        -11   -1    0    0    0    0  0.00000000000E+00  0.00000000000E+00  0.45593999997E+02  0.45594000000E+02  0.51100000000E-03 0. -1.
         11   -1    0    0    0    0 -0.00000000000E+00 -0.00000000000E+00 -0.45593999997E+02  0.45594000000E+02  0.51100000000E-03 0.  1.
    9900012    2    1    2    0    0  0.11211949584E+02 -0.25039730125E+01  0.14788624355E+02  0.72461518626E+02  0.69999932693E+02 0.  0.
        -12    1    1    2    0    0 -0.11211949584E+02  0.25039730125E+01 -0.14788624355E+02  0.18726481374E+02  0.00000000000E+00 0.  1.
         11    1    3    3    0    0 -0.14157172499E+02 -0.13039172135E+02  0.60769641275E+01  0.20183533794E+02  0.51100000000E-03 0. -1.
        -11    1    3    3    0    0  0.14407918369E+02 -0.16455362984E+02  0.74986208841E+01  0.23121340750E+02  0.51100000000E-03 0.  1.
        -12    1    3    3    0    0  0.10961203714E+02  0.26990562107E+02  0.12130393438E+01  0.29156644082E+02  0.00000000000E+00 0.  1.
</event>
<event>
 7    1  0.3681059E-013  0.7246157E+02  0.7816164E-02  0.1226708E+00
        -11   -1    0    0    0    0  0.00000000000E+00  0.00000000000E+00  0.45593999997E+02  0.45594000000E+02  0.51100000000E-03 0. -1.
         11   -1    0    0    0    0 -0.00000000000E+00 -0.00000000000E+00 -0.45593999997E+02  0.45594000000E+02  0.51100000000E-03 0.  1.
    9900012    2    1    2    0    0 -0.98457225469E+01 -0.92057947231E+01  0.12999782748E+02  0.72461567867E+02  0.69999996837E+02 0.  0.
        -12    1    1    2    0    0  0.98457225469E+01  0.92057947231E+01 -0.12999782748E+02  0.18726432133E+02  0.00000000000E+00 0.  1.
         11    1    3    3    0    0  0.82907749043E+01 -0.25270499258E+02  0.21088499390E+02  0.33942007720E+02  0.51100000000E-03 0. -1.
        -11    1    3    3    0    0  0.73856933215E+01  0.21010214706E+01 -0.52223403621E+01  0.92863123024E+01  0.51100000000E-03 0.  1.
        -12    1    3    3    0    0 -0.25522190773E+02  0.13963683064E+02 -0.28663762802E+01  0.29233247844E+02  0.00000000000E+00 0.  1.
</event>
<event>
 7    1  0.3681059E-013  0.7246157E+02  0.7816164E-02  0.1226708E+00
        -11   -1    0    0    0    0  0.00000000000E+00  0.00000000000E+00  0.45593999997E+02  0.45594000000E+02  0.51100000000E-03 0.  1.
         11   -1    0    0    0    0 -0.00000000000E+00 -0.00000000000E+00 -0.45593999997E+02  0.45594000000E+02  0.51100000000E-03 0. -1.
    9900012    2    1    2    0    0 -0.53584210301E+01  0.17896619743E+02  0.12951967666E+01  0.72461569245E+02  0.69999998633E+02 0.  0.
        -12    1    1    2    0    0  0.53584210301E+01 -0.17896619743E+02 -0.12951967666E+01  0.18726430755E+02  0.00000000000E+00 0.  1.
         11    1    3    3    0    0 -0.14782338475E+02  0.21900539509E+02 -0.16310207042E+02  0.31051151598E+02  0.51100000000E-03 0. -1.
        -11    1    3    3    0    0  0.55163718792E+01  0.74193336433E+01 -0.85564357019E+01  0.12597200586E+02  0.51100000000E-03 0.  1.
        -12    1    3    3    0    0  0.39075455654E+01 -0.11423253409E+02  0.26161839511E+02  0.28813217061E+02  0.00000000000E+00 0.  1.
</event>
<event>
 7    1  0.3681059E-013  0.7246145E+02  0.7816164E-02  0.1226708E+00
        -11   -1    0    0    0    0  0.00000000000E+00  0.00000000000E+00  0.45593999997E+02  0.45594000000E+02  0.51100000000E-03 0.  1.
         11   -1    0    0    0    0 -0.00000000000E+00 -0.00000000000E+00 -0.45593999997E+02  0.45594000000E+02  0.51100000000E-03 0. -1.
    9900012    2    1    2    0    0  0.85121076069E+01  0.16193600759E+02  0.39993657727E+01  0.72461451786E+02  0.69999845620E+02 0.  0.
        -12    1    1    2    0    0 -0.85121076069E+01 -0.16193600759E+02 -0.39993657727E+01  0.18726548214E+02  0.00000000000E+00 0.  1.
         11    1    3    3    0    0  0.75224486252E+01  0.27753409260E+02 -0.10644744198E+02  0.30661858035E+02  0.51100000000E-03 0. -1.
        -11    1    3    3    0    0 -0.39707369716E+01  0.87144464598E+01  0.18257751251E+02  0.20616833176E+02  0.51100000000E-03 0.  1.
        -12    1    3    3    0    0  0.49603959533E+01 -0.20274254961E+02 -0.36136412799E+01  0.21182760574E+02  0.00000000000E+00 0.  1.
</event>
<event>
 7    1  0.3681059E-013  0.7246163E+02  0.7816164E-02  0.1226708E+00
        -11   -1    0    0    0    0  0.00000000000E+00  0.00000000000E+00  0.45593999997E+02  0.45594000000E+02  0.51100000000E-03 0. -1.
         11   -1    0    0    0    0 -0.00000000000E+00 -0.00000000000E+00 -0.45593999997E+02  0.45594000000E+02  0.51100000000E-03 0.  1.
    9900012    2    1    2    0    0 -0.29212542274E+01 -0.11172418333E-01  0.18497105501E+02  0.72461634549E+02  0.70000083704E+02 0.  0.
        -12    1    1    2    0    0  0.29212542274E+01  0.11172418333E-01 -0.18497105501E+02  0.18726365451E+02  0.00000000000E+00 0.  1.
         11    1    3    3    0    0 -0.10230450723E+02 -0.18029015168E+01  0.13857844257E+02  0.17319134609E+02  0.51100000000E-03 0. -1.
        -11    1    3    3    0    0 -0.12762273507E+02 -0.13148291554E+02 -0.14721968067E+02  0.23505096040E+02  0.51100000000E-03 0.  1.
         12    1    3    3    0    0  0.20071470002E+02  0.14940020653E+02  0.19361229310E+02  0.31637403900E+02  0.00000000000E+00 0. -1.
</event>
<event>
 7    1  0.3681059E-013  0.7246196E+02  0.7816164E-02  0.1226707E+00
        -11   -1    0    0    0    0  0.00000000000E+00  0.00000000000E+00  0.45593999997E+02  0.45594000000E+02  0.51100000000E-03 0.  1.
         11   -1    0    0    0    0 -0.00000000000E+00 -0.00000000000E+00 -0.45593999997E+02  0.45594000000E+02  0.51100000000E-03 0. -1.
    9900012    2    1    2    0    0 -0.14532154561E+02 -0.17417454855E+01 -0.11681077078E+02  0.72461955163E+02  0.70000501362E+02 0.  0.
        -12    1    1    2    0    0  0.14532154561E+02  0.17417454855E+01  0.11681077078E+02  0.18726044837E+02  0.00000000000E+00 0.  1.
         11    1    3    3    0    0 -0.68266349144E+01  0.14730892541E+01  0.67484688321E+01  0.97115790706E+01  0.51100000000E-03 0. -1.
        -11    1    3    3    0    0  0.73367185148E+01  0.15831696974E+02  0.13911181895E+02  0.22315713065E+02  0.51100000000E-03 0.  1.
         12    1    3    3    0    0 -0.15042238161E+02 -0.19046531713E+02 -0.32340727805E+02  0.40434663028E+02  0.00000000000E+00 0. -1.
</event>
<event>
 7    1  0.3681059E-013  0.7246156E+02  0.7816164E-02  0.1226708E+00
        -11   -1    0    0    0    0  0.00000000000E+00  0.00000000000E+00  0.45593999997E+02  0.45594000000E+02  0.51100000000E-03 0. -1.
         11   -1    0    0    0    0 -0.00000000000E+00 -0.00000000000E+00 -0.45593999997E+02  0.45594000000E+02  0.51100000000E-03 0.  1.
    9900012    2    1    2    0    0  0.14834694425E+02 -0.82845733280E+01  0.78725665455E+01  0.72461558322E+02  0.69999984403E+02 0.  0.
        -12    1    1    2    0    0 -0.14834694425E+02  0.82845733280E+01 -0.78725665455E+01  0.18726441678E+02  0.00000000000E+00 0.  1.
         11    1    3    3    0    0 -0.93628376987E+01  0.10869865632E+01  0.20715149628E+02  0.22758771802E+02  0.51100000000E-03 0. -1.
        -11    1    3    3    0    0  0.37884459954E+01  0.15324694289E+02 -0.21733698606E+01  0.15934933791E+02  0.51100000000E-03 0.  1.
        -12    1    3    3    0    0  0.20409086129E+02 -0.24696254180E+02 -0.10669213222E+02  0.33767852729E+02  0.00000000000E+00 0.  1.
</event>
<event>
 7    1  0.3681059E-013  0.7246157E+02  0.7816164E-02  0.1226708E+00
        -11   -1    0    0    0    0  0.00000000000E+00  0.00000000000E+00  0.45593999997E+02  0.45594000000E+02  0.51100000000E-03 0.  1.
         11   -1    0    0    0    0 -0.00000000000E+00 -0.00000000000E+00 -0.45593999997E+02  0.45594000000E+02  0.51100000000E-03 0. -1.
    9900012    2    1    2    0    0  0.28761596661E+01 -0.18263934172E+02  0.29725036294E+01  0.72461565110E+02  0.69999993247E+02 0.  0.
        -12    1    1    2    0    0 -0.28761596661E+01  0.18263934172E+02 -0.29725036294E+01  0.18726434890E+02  0.00000000000E+00 0.  1.
         11    1    3    3    0    0  0.27618211938E+01 -0.83854880440E+01 -0.90928271357E+01  0.12673735504E+02  0.51100000000E-03 0. -1.
        -11    1    3    3    0    0 -0.19455320010E+02 -0.20974059605E+02  0.21097441214E+02  0.35546064185E+02  0.51100000000E-03 0.  1.
         12    1    3    3    0    0  0.19569658482E+02  0.11095613478E+02 -0.90321104490E+01  0.24241765421E+02  0.00000000000E+00 0. -1.
</event>
<event>
 7    1  0.3681059E-013  0.7246155E+02  0.7816164E-02  0.1226708E+00
        -11   -1    0    0    0    0  0.00000000000E+00  0.00000000000E+00  0.45593999997E+02  0.45594000000E+02  0.51100000000E-03 0.  1.
         11   -1    0    0    0    0 -0.00000000000E+00 -0.00000000000E+00 -0.45593999997E+02  0.45594000000E+02  0.51100000000E-03 0. -1.
    9900012    2    1    2    0    0  0.93041124376E+01 -0.43498106458E+01 -0.15658628816E+02  0.72461547659E+02  0.69999970513E+02 0.  0.
        -12    1    1    2    0    0 -0.93041124376E+01  0.43498106458E+01  0.15658628816E+02  0.18726452341E+02  0.00000000000E+00 0.  1.
         11    1    3    3    0    0  0.13373934218E+02 -0.56645775517E+01 -0.37444540223E+02  0.40162708426E+02  0.51100000000E-03 0. -1.
        -11    1    3    3    0    0  0.21935099847E+01  0.90761019864E+01  0.11870148787E+01  0.94125510837E+01  0.51100000000E-03 0.  1.
        -12    1    3    3    0    0 -0.62633317648E+01 -0.77613350805E+01  0.20598896529E+02  0.22886288149E+02  0.00000000000E+00 0.  1.
</event>
<event>
 7    1  0.3681059E-013  0.7246157E+02  0.7816164E-02  0.1226708E+00
        -11   -1    0    0    0    0  0.00000000000E+00  0.00000000000E+00  0.45593999997E+02  0.45594000000E+02  0.51100000000E-03 0. -1.
         11   -1    0    0    0    0 -0.00000000000E+00 -0.00000000000E+00 -0.45593999997E+02  0.45594000000E+02  0.51100000000E-03 0.  1.
    9900012    2    1    2    0    0 -0.80875388733E+01 -0.63883709385E+01  0.15635204202E+02  0.72461570049E+02  0.69999999680E+02 0.  0.
        -12    1    1    2    0    0  0.80875388733E+01  0.63883709385E+01 -0.15635204202E+02  0.18726429951E+02  0.00000000000E+00 0.  1.
         11    1    3    3    0    0  0.12402082428E+01 -0.91417853808E+01 -0.45955374712E+01  0.10306760953E+02  0.51100000000E-03 0. -1.
        -11    1    3    3    0    0  0.74775756082E+01 -0.23868834161E+02  0.53431845102E+00  0.25018410774E+02  0.51100000000E-03 0.  1.
         12    1    3    3    0    0 -0.16805322724E+02  0.26622248603E+02  0.19696423222E+02  0.37136398322E+02  0.00000000000E+00 0. -1.
</event>
<event>
 7    1  0.3681059E-013  0.7246167E+02  0.7816164E-02  0.1226708E+00
        -11   -1    0    0    0    0  0.00000000000E+00  0.00000000000E+00  0.45593999997E+02  0.45594000000E+02  0.51100000000E-03 0. -1.
         11   -1    0    0    0    0 -0.00000000000E+00 -0.00000000000E+00 -0.45593999997E+02  0.45594000000E+02  0.51100000000E-03 0.  1.
    9900012    2    1    2    0    0  0.72797337604E+01  0.16481176781E+02 -0.51041070107E+01  0.72461665066E+02  0.70000123457E+02 0.  0.
        -12    1    1    2    0    0 -0.72797337604E+01 -0.16481176781E+02  0.51041070107E+01  0.18726334934E+02  0.00000000000E+00 0.  1.
         11    1    3    3    0    0 -0.20317880766E+02 -0.10420366871E+02 -0.13314815313E+02  0.26432643296E+02  0.51100000000E-03 0. -1.
        -11    1    3    3    0    0  0.11209296358E+02 -0.10612363443E+01 -0.31375763700E+01  0.11688410206E+02  0.51100000000E-03 0.  1.
        -12    1    3    3    0    0  0.16388318169E+02  0.27962779996E+02  0.11348284672E+02  0.34340611563E+02  0.00000000000E+00 0.  1.
</event>
<event>
 7    1  0.3681059E-013  0.7246155E+02  0.7816164E-02  0.1226708E+00
        -11   -1    0    0    0    0  0.00000000000E+00  0.00000000000E+00  0.45593999997E+02  0.45594000000E+02  0.51100000000E-03 0. -1.
         11   -1    0    0    0    0 -0.00000000000E+00 -0.00000000000E+00 -0.45593999997E+02  0.45594000000E+02  0.51100000000E-03 0.  1.
    9900012    2    1    2    0    0  0.61358489935E+01 -0.14391420902E+02  0.10291665256E+02  0.72461547795E+02  0.69999970690E+02 0.  0.
        -12    1    1    2    0    0 -0.61358489935E+01  0.14391420902E+02 -0.10291665256E+02  0.18726452205E+02  0.00000000000E+00 0.  1.
         11    1    3    3    0    0  0.91484850738E+01 -0.15732834738E+02 -0.77937651783E+01  0.19797970703E+02  0.51100000000E-03 0. -1.
        -11    1    3    3    0    0 -0.24756666947E+01 -0.22554540803E+01 -0.17032101604E+02  0.17358239657E+02  0.51100000000E-03 0.  1.
         12    1    3    3    0    0 -0.53696938561E+00  0.35968679159E+01  0.35117532038E+02  0.35305337435E+02  0.00000000000E+00 0. -1.
</event>
<event>
 7    1  0.3681059E-013  0.7246156E+02  0.7816164E-02  0.1226708E+00
        -11   -1    0    0    0    0  0.00000000000E+00  0.00000000000E+00  0.45593999997E+02  0.45594000000E+02  0.51100000000E-03 0.  1.
         11   -1    0    0    0    0 -0.00000000000E+00 -0.00000000000E+00 -0.45593999997E+02  0.45594000000E+02  0.51100000000E-03 0. -1.
    9900012    2    1    2    0    0 -0.17936795829E+02  0.67361911320E+00 -0.53382794725E+01  0.72461557864E+02  0.69999983807E+02 0.  0.
        -12    1    1    2    0    0  0.17936795829E+02 -0.67361911320E+00  0.53382794725E+01  0.18726442136E+02  0.00000000000E+00 0.  1.
         11    1    3    3    0    0 -0.13332220023E+02  0.16457395417E+01 -0.64708413627E+01  0.14910678643E+02  0.51100000000E-03 0. -1.
        -11    1    3    3    0    0 -0.23504469338E+02 -0.93344332710E+00  0.19977279107E+02  0.30861352467E+02  0.51100000000E-03 0.  1.
        -12    1    3    3    0    0  0.18899893531E+02 -0.38677101405E-01 -0.18844717217E+02  0.26689526755E+02  0.00000000000E+00 0.  1.
</event>
<event>
 7    1  0.3681059E-013  0.7246156E+02  0.7816164E-02  0.1226708E+00
        -11   -1    0    0    0    0  0.00000000000E+00  0.00000000000E+00  0.45593999997E+02  0.45594000000E+02  0.51100000000E-03 0. -1.
         11   -1    0    0    0    0 -0.00000000000E+00 -0.00000000000E+00 -0.45593999997E+02  0.45594000000E+02  0.51100000000E-03 0.  1.
    9900012    2    1    2    0    0 -0.93621694489E+01 -0.84222295570E+01  0.13859842795E+02  0.72461563879E+02  0.69999991642E+02 0.  0.
        -12    1    1    2    0    0  0.93621694489E+01  0.84222295570E+01 -0.13859842795E+02  0.18726436121E+02  0.00000000000E+00 0.  1.
         11    1    3    3    0    0  0.10546759790E+02  0.55526666410E+01  0.20570977188E+02  0.23774594668E+02  0.51100000000E-03 0. -1.
        -11    1    3    3    0    0  0.11995469635E+02 -0.72759624749E+01  0.36198003807E+01  0.14489095098E+02  0.51100000000E-03 0.  1.
         12    1    3    3    0    0 -0.31904398874E+02 -0.66989337232E+01 -0.10330934774E+02  0.34197874113E+02  0.00000000000E+00 0. -1.
</event>
<event>
 7    1  0.3681059E-013  0.7246157E+02  0.7816164E-02  0.1226708E+00
        -11   -1    0    0    0    0  0.00000000000E+00  0.00000000000E+00  0.45593999997E+02  0.45594000000E+02  0.51100000000E-03 0.  1.
         11   -1    0    0    0    0 -0.00000000000E+00 -0.00000000000E+00 -0.45593999997E+02  0.45594000000E+02  0.51100000000E-03 0. -1.
    9900012    2    1    2    0    0  0.14441656666E+02 -0.73734049941E+00  0.11898489177E+02  0.72461570469E+02  0.70000000228E+02 0.  0.
        -12    1    1    2    0    0 -0.14441656666E+02  0.73734049941E+00 -0.11898489177E+02  0.18726429531E+02  0.00000000000E+00 0.  1.
         11    1    3    3    0    0 -0.16842453392E+01  0.23581343210E+01 -0.17146590664E+02  0.17389739835E+02  0.51100000000E-03 0. -1.
        -11    1    3    3    0    0  0.29215199332E+02  0.98704494805E+00  0.86289807072E+01  0.30478868714E+02  0.51100000000E-03 0.  1.
        -12    1    3    3    0    0 -0.13089297327E+02 -0.40825197684E+01  0.20416099135E+02  0.24592961921E+02  0.00000000000E+00 0.  1.
</event>
<event>
 7    1  0.3681059E-013  0.7246151E+02  0.7816164E-02  0.1226708E+00
        -11   -1    0    0    0    0  0.00000000000E+00  0.00000000000E+00  0.45593999997E+02  0.45594000000E+02  0.51100000000E-03 0.  1.
         11   -1    0    0    0    0 -0.00000000000E+00 -0.00000000000E+00 -0.45593999997E+02  0.45594000000E+02  0.51100000000E-03 0. -1.
    9900012    2    1    2    0    0 -0.99506641657E+01  0.14010451364E+02 -0.74412939122E+01  0.72461512880E+02  0.69999925207E+02 0.  0.
        -12    1    1    2    0    0  0.99506641657E+01 -0.14010451364E+02  0.74412939122E+01  0.18726487120E+02  0.00000000000E+00 0.  1.
         11    1    3    3    0    0  0.37844163722E+01  0.12479637103E+02  0.11087610643E+01  0.13087876101E+02  0.51100000000E-03 0. -1.
        -11    1    3    3    0    0  0.49723867522E+01  0.68838817461E+01  0.21758281987E+02  0.23356696967E+02  0.51100000000E-03 0.  1.
         12    1    3    3    0    0 -0.18707467290E+02 -0.53530674842E+01 -0.30308336964E+02  0.36016939812E+02  0.00000000000E+00 0. -1.
</event>
<event>
 7    1  0.3681059E-013  0.7246160E+02  0.7816164E-02  0.1226708E+00
        -11   -1    0    0    0    0  0.00000000000E+00  0.00000000000E+00  0.45593999997E+02  0.45594000000E+02  0.51100000000E-03 0. -1.
         11   -1    0    0    0    0 -0.00000000000E+00 -0.00000000000E+00 -0.45593999997E+02  0.45594000000E+02  0.51100000000E-03 0.  1.
    9900012    2    1    2    0    0  0.13305637844E+01  0.36548388027E+01  0.18318019279E+02  0.72461599466E+02  0.70000038002E+02 0.  0.
        -12    1    1    2    0    0 -0.13305637844E+01 -0.36548388027E+01 -0.18318019279E+02  0.18726400534E+02  0.00000000000E+00 0.  1.
         11    1    3    3    0    0  0.59314816233E+01  0.25541299651E+02  0.40567341322E+01  0.26532952233E+02  0.51100000000E-03 0. -1.
        -11    1    3    3    0    0 -0.13809650606E+01  0.59062095520E+01  0.16774484674E+02  0.17837424481E+02  0.51100000000E-03 0.  1.
        -12    1    3    3    0    0 -0.32199527782E+01 -0.27792670400E+02 -0.25131995270E+01  0.28091222753E+02  0.00000000000E+00 0.  1.
</event>
<event>
 7    1  0.3681059E-013  0.7246154E+02  0.7816164E-02  0.1226708E+00
        -11   -1    0    0    0    0  0.00000000000E+00  0.00000000000E+00  0.45593999997E+02  0.45594000000E+02  0.51100000000E-03 0.  1.
         11   -1    0    0    0    0 -0.00000000000E+00 -0.00000000000E+00 -0.45593999997E+02  0.45594000000E+02  0.51100000000E-03 0. -1.
    9900012    2    1    2    0    0  0.11635976930E+02 -0.88131655611E+01  0.11730840740E+02  0.72461535550E+02  0.69999954739E+02 0.  0.
        -12    1    1    2    0    0 -0.11635976930E+02  0.88131655611E+01 -0.11730840740E+02  0.18726464450E+02  0.00000000000E+00 0.  1.
         11    1    3    3    0    0 -0.36246232980E+01 -0.79682205651E+00 -0.59884561553E+01  0.70451704612E+01  0.51100000000E-03 0. -1.
        -11    1    3    3    0    0 -0.50455667035E+01  0.21924651234E+02  0.18656369763E+02  0.29226840542E+02  0.51100000000E-03 0.  1.
         12    1    3    3    0    0  0.20306166931E+02 -0.29940994738E+02 -0.93707286768E+00  0.36189524547E+02  0.00000000000E+00 0. -1.
</event>
<event>
 7    1  0.3681059E-013  0.7246158E+02  0.7816164E-02  0.1226708E+00
        -11   -1    0    0    0    0  0.00000000000E+00  0.00000000000E+00  0.45593999997E+02  0.45594000000E+02  0.51100000000E-03 0. -1.
         11   -1    0    0    0    0 -0.00000000000E+00 -0.00000000000E+00 -0.45593999997E+02  0.45594000000E+02  0.51100000000E-03 0.  1.
    9900012    2    1    2    0    0 -0.15382014792E+02  0.50214333284E+01  0.94264232231E+01  0.72461584793E+02  0.70000018887E+02 0.  0.
        -12    1    1    2    0    0  0.15382014792E+02 -0.50214333284E+01 -0.94264232231E+01  0.18726415207E+02  0.00000000000E+00 0.  1.
         11    1    3    3    0    0 -0.27870104405E+01 -0.56053628199E+01 -0.27986184191E+01  0.68570974074E+01  0.51100000000E-03 0. -1.
        -11    1    3    3    0    0 -0.12024727198E+02 -0.12840590864E+02 -0.19420032729E+02  0.26203291957E+02  0.51100000000E-03 0.  1.
         12    1    3    3    0    0 -0.57027715370E+00  0.23467387012E+02  0.31645074372E+02  0.39401195428E+02  0.00000000000E+00 0. -1.
</event>
<event>
 7    1  0.3681059E-013  0.7246150E+02  0.7816164E-02  0.1226708E+00
        -11   -1    0    0    0    0  0.00000000000E+00  0.00000000000E+00  0.45593999997E+02  0.45594000000E+02  0.51100000000E-03 0. -1.
         11   -1    0    0    0    0 -0.00000000000E+00 -0.00000000000E+00 -0.45593999997E+02  0.45594000000E+02  0.51100000000E-03 0.  1.
    9900012    2    1    2    0    0  0.33142594190E+01  0.27771661197E+01  0.18220449792E+02  0.72461501187E+02  0.69999909975E+02 0.  0.
        -12    1    1    2    0    0 -0.33142594190E+01 -0.27771661197E+01 -0.18220449792E+02  0.18726498813E+02  0.00000000000E+00 0.  1.
         11    1    3    3    0    0  0.27697073505E+01  0.67954609672E+01 -0.10644622580E+02  0.12928942675E+02  0.51100000000E-03 0. -1.
        -11    1    3    3    0    0 -0.21191616877E+02 -0.44420348995E+00 -0.23516110780E+01  0.21326322175E+02  0.51100000000E-03 0.  1.
         12    1    3    3    0    0  0.21736168945E+02 -0.35740913576E+01  0.31216683450E+02  0.38206236337E+02  0.00000000000E+00 0. -1.
</event>
<event>
 7    1  0.3681059E-013  0.7246156E+02  0.7816164E-02  0.1226708E+00
        -11   -1    0    0    0    0  0.00000000000E+00  0.00000000000E+00  0.45593999997E+02  0.45594000000E+02  0.51100000000E-03 0.  1.
         11   -1    0    0    0    0 -0.00000000000E+00 -0.00000000000E+00 -0.45593999997E+02  0.45594000000E+02  0.51100000000E-03 0. -1.
    9900012    2    1    2    0    0  0.16129334471E+02  0.44769586019E+01 -0.83952891008E+01  0.72461562327E+02  0.69999989622E+02 0.  0.
        -12    1    1    2    0    0 -0.16129334471E+02 -0.44769586019E+01  0.83952891008E+01  0.18726437673E+02  0.00000000000E+00 0.  1.
         11    1    3    3    0    0  0.26548774620E+02 -0.62975140070E+01  0.29369508511E+01  0.27443064644E+02  0.51100000000E-03 0. -1.
        -11    1    3    3    0    0  0.23674840272E+01 -0.14745828444E+02 -0.25288627221E+01  0.15147263253E+02  0.51100000000E-03 0.  1.
         12    1    3    3    0    0 -0.12786924176E+02  0.25520301053E+02 -0.88033772298E+01  0.29871234430E+02  0.00000000000E+00 0. -1.
</event>
<event>
 7    1  0.3681059E-013  0.7246161E+02  0.7816164E-02  0.1226708E+00
        -11   -1    0    0    0    0  0.00000000000E+00  0.00000000000E+00  0.45593999997E+02  0.45594000000E+02  0.51100000000E-03 0.  1.
         11   -1    0    0    0    0 -0.00000000000E+00 -0.00000000000E+00 -0.45593999997E+02  0.45594000000E+02  0.51100000000E-03 0. -1.
    9900012    2    1    2    0    0 -0.54473500610E+00 -0.69543203419E+01 -0.17378677470E+02  0.72461608509E+02  0.70000049782E+02 0.  0.
        -12    1    1    2    0    0  0.54473500610E+00  0.69543203419E+01  0.17378677470E+02  0.18726391491E+02  0.00000000000E+00 0.  1.
         11    1    3    3    0    0  0.19594962242E+01  0.23660771740E+02 -0.43121435910E+01  0.24130195345E+02  0.51100000000E-03 0.  1.
        -11    1    3    3    0    0  0.15112915810E+01  0.47286537737E+01 -0.11727688516E+02  0.12735102942E+02  0.51100000000E-03 0. -1.
        -12    1    3    3    0    0 -0.40155228113E+01 -0.35343745856E+02 -0.13388453639E+01  0.35596310223E+02  0.00000000000E+00 0.  1.
</event>
<event>
 7    1  0.3681059E-013  0.7246147E+02  0.7816164E-02  0.1226708E+00
        -11   -1    0    0    0    0  0.00000000000E+00  0.00000000000E+00  0.45593999997E+02  0.45594000000E+02  0.51100000000E-03 0. -1.
         11   -1    0    0    0    0 -0.00000000000E+00 -0.00000000000E+00 -0.45593999997E+02  0.45594000000E+02  0.51100000000E-03 0.  1.
    9900012    2    1    2    0    0 -0.23438833777E+01  0.26919732163E+01  0.18383209413E+02  0.72461470759E+02  0.69999870337E+02 0.  0.
        -12    1    1    2    0    0  0.23438833777E+01 -0.26919732163E+01 -0.18383209413E+02  0.18726529241E+02  0.00000000000E+00 0.  1.
         11    1    3    3    0    0 -0.14497126692E+01 -0.12014819339E+01  0.75478615535E+01  0.77791670475E+01  0.51100000000E-03 0. -1.
        -11    1    3    3    0    0 -0.16536454118E+02 -0.24199148972E+02  0.13792474585E+02  0.32392676351E+02  0.51100000000E-03 0.  1.
         12    1    3    3    0    0  0.15642283409E+02  0.28092604122E+02 -0.29571267254E+01  0.32289627360E+02  0.00000000000E+00 0. -1.
</event>
<event>
 7    1  0.3681059E-013  0.7246163E+02  0.7816164E-02  0.1226708E+00
        -11   -1    0    0    0    0  0.00000000000E+00  0.00000000000E+00  0.45593999997E+02  0.45594000000E+02  0.51100000000E-03 0. -1.
         11   -1    0    0    0    0 -0.00000000000E+00 -0.00000000000E+00 -0.45593999997E+02  0.45594000000E+02  0.51100000000E-03 0.  1.
    9900012    2    1    2    0    0  0.52748722710E+01 -0.12732341102E+02  0.12678338926E+02  0.72461626477E+02  0.70000073188E+02 0.  0.
        -12    1    1    2    0    0 -0.52748722710E+01  0.12732341102E+02 -0.12678338926E+02  0.18726373523E+02  0.00000000000E+00 0.  1.
         11    1    3    3    0    0 -0.11958711754E+02 -0.33780155930E+01  0.13770326443E+02  0.18548414131E+02  0.51100000000E-03 0. -1.
        -11    1    3    3    0    0  0.23799628010E+02 -0.25491471817E+02  0.54612888348E+01  0.35299619046E+02  0.51100000000E-03 0.  1.
         12    1    3    3    0    0 -0.65660439848E+01  0.16137146308E+02 -0.65532763527E+01  0.18613593300E+02  0.00000000000E+00 0. -1.
</event>
<event>
 7    1  0.3681059E-013  0.7246149E+02  0.7816164E-02  0.1226708E+00
        -11   -1    0    0    0    0  0.00000000000E+00  0.00000000000E+00  0.45593999997E+02  0.45594000000E+02  0.51100000000E-03 0. -1.
         11   -1    0    0    0    0 -0.00000000000E+00 -0.00000000000E+00 -0.45593999997E+02  0.45594000000E+02  0.51100000000E-03 0.  1.
    9900012    2    1    2    0    0 -0.31114918451E+01 -0.13320174749E+02  0.12789588407E+02  0.72461494494E+02  0.69999901256E+02 0.  0.
        -12    1    1    2    0    0  0.31114918451E+01  0.13320174749E+02 -0.12789588407E+02  0.18726505506E+02  0.00000000000E+00 0.  1.
         11    1    3    3    0    0  0.16674603293E+02  0.81570694440E+01  0.56059885517E+01  0.19390907271E+02  0.51100000000E-03 0. -1.
        -11    1    3    3    0    0  0.13769518390E+02 -0.52039313871E+01  0.55815849366E+01  0.15742764345E+02  0.51100000000E-03 0.  1.
         12    1    3    3    0    0 -0.33555613528E+02 -0.16273312806E+02  0.16020149188E+01  0.37327822877E+02  0.00000000000E+00 0. -1.
</event>
<event>
 7    1  0.3681059E-013  0.7246159E+02  0.7816164E-02  0.1226708E+00
        -11   -1    0    0    0    0  0.00000000000E+00  0.00000000000E+00  0.45593999997E+02  0.45594000000E+02  0.51100000000E-03 0.  1.
         11   -1    0    0    0    0 -0.00000000000E+00 -0.00000000000E+00 -0.45593999997E+02  0.45594000000E+02  0.51100000000E-03 0. -1.
    9900012    2    1    2    0    0  0.46508387674E+01  0.17191524392E+02 -0.57878707427E+01  0.72461594582E+02  0.70000031639E+02 0.  0.
        -12    1    1    2    0    0 -0.46508387674E+01 -0.17191524392E+02  0.57878707427E+01  0.18726405418E+02  0.00000000000E+00 0.  1.
         11    1    3    3    0    0  0.21095995387E+02  0.22816056059E+01 -0.23452473714E+02  0.31626970597E+02  0.51100000000E-03 0. -1.
        -11    1    3    3    0    0 -0.34132070044E+00 -0.50645330334E+01  0.14031067822E+02  0.14921020715E+02  0.51100000000E-03 0.  1.
        -12    1    3    3    0    0 -0.16103835920E+02  0.19974451819E+02  0.36335351495E+01  0.25913603271E+02  0.00000000000E+00 0.  1.
</event>
<event>
 7    1  0.3681059E-013  0.7246154E+02  0.7816164E-02  0.1226708E+00
        -11   -1    0    0    0    0  0.00000000000E+00  0.00000000000E+00  0.45593999997E+02  0.45594000000E+02  0.51100000000E-03 0. -1.
         11   -1    0    0    0    0 -0.00000000000E+00 -0.00000000000E+00 -0.45593999997E+02  0.45594000000E+02  0.51100000000E-03 0.  1.
    9900012    2    1    2    0    0  0.14709510676E+02  0.30844755594E+01  0.11171236281E+02  0.72461542411E+02  0.69999963676E+02 0.  0.
        -12    1    1    2    0    0 -0.14709510676E+02 -0.30844755594E+01 -0.11171236281E+02  0.18726457589E+02  0.00000000000E+00 0.  1.
         11    1    3    3    0    0  0.12249970406E+02  0.20119171285E+02  0.26021853206E+02  0.35099567984E+02  0.51100000000E-03 0. -1.
        -11    1    3    3    0    0 -0.91836542125E+01  0.23783809240E+01  0.12704481585E+01  0.95713238008E+01  0.51100000000E-03 0.  1.
        -12    1    3    3    0    0  0.11643194483E+02 -0.19413076650E+02 -0.16121065083E+02  0.27790650626E+02  0.00000000000E+00 0.  1.
</event>
<event>
 7    1  0.3681059E-013  0.7246151E+02  0.7816164E-02  0.1226708E+00
        -11   -1    0    0    0    0  0.00000000000E+00  0.00000000000E+00  0.45593999997E+02  0.45594000000E+02  0.51100000000E-03 0.  1.
         11   -1    0    0    0    0 -0.00000000000E+00 -0.00000000000E+00 -0.45593999997E+02  0.45594000000E+02  0.51100000000E-03 0. -1.
    9900012    2    1    2    0    0 -0.34854433850E+01  0.12577500508E+02 -0.13429051953E+02  0.72461514185E+02  0.69999926907E+02 0.  0.
        -12    1    1    2    0    0  0.34854433850E+01 -0.12577500508E+02  0.13429051953E+02  0.18726485815E+02  0.00000000000E+00 0.  1.
         11    1    3    3    0    0 -0.31610247107E+01 -0.10316618772E+02 -0.26956520234E+02  0.29035817252E+02  0.51100000000E-03 0. -1.
        -11    1    3    3    0    0 -0.14904120878E+02  0.98253879722E+01 -0.26250744672E+01  0.18043339053E+02  0.51100000000E-03 0.  1.
        -12    1    3    3    0    0  0.14579702204E+02  0.13068731308E+02  0.16152542747E+02  0.25382357880E+02  0.00000000000E+00 0.  1.
</event>
<event>
 7    1  0.3681059E-013  0.7246159E+02  0.7816164E-02  0.1226708E+00
        -11   -1    0    0    0    0  0.00000000000E+00  0.00000000000E+00  0.45593999997E+02  0.45594000000E+02  0.51100000000E-03 0. -1.
         11   -1    0    0    0    0 -0.00000000000E+00 -0.00000000000E+00 -0.45593999997E+02  0.45594000000E+02  0.51100000000E-03 0.  1.
    9900012    2    1    2    0    0 -0.67719115892E+01  0.54832699853E+01  0.16575690640E+02  0.72461586662E+02  0.70000021322E+02 0.  0.
        -12    1    1    2    0    0  0.67719115892E+01 -0.54832699853E+01 -0.16575690640E+02  0.18726413338E+02  0.00000000000E+00 0.  1.
         11    1    3    3    0    0  0.12741468467E+01  0.19729821833E+02  0.67074487388E+01  0.20877719909E+02  0.51100000000E-03 0. -1.
        -11    1    3    3    0    0 -0.25953686628E+02  0.79550741222E+00 -0.57260961446E+00  0.25972188272E+02  0.51100000000E-03 0.  1.
        -12    1    3    3    0    0  0.17907628192E+02 -0.15042059260E+02  0.10440851516E+02  0.25611678481E+02  0.00000000000E+00 0.  1.
</event>
<event>
 7    1  0.3681059E-013  0.7246158E+02  0.7816164E-02  0.1226708E+00
        -11   -1    0    0    0    0  0.00000000000E+00  0.00000000000E+00  0.45593999997E+02  0.45594000000E+02  0.51100000000E-03 0.  1.
         11   -1    0    0    0    0 -0.00000000000E+00 -0.00000000000E+00 -0.45593999997E+02  0.45594000000E+02  0.51100000000E-03 0. -1.
    9900012    2    1    2    0    0  0.19098731818E+01  0.18116616556E+02 -0.43381456264E+01  0.72461576997E+02  0.70000008732E+02 0.  0.
        -12    1    1    2    0    0 -0.19098731818E+01 -0.18116616556E+02  0.43381456264E+01  0.18726423003E+02  0.00000000000E+00 0.  1.
         11    1    3    3    0    0 -0.58619371498E+01  0.13857856007E+02  0.33383793955E+01  0.15412568168E+02  0.51100000000E-03 0. -1.
        -11    1    3    3    0    0  0.10602441764E+02  0.19806186374E+02  0.16703881448E+02  0.27994936073E+02  0.51100000000E-03 0.  1.
         12    1    3    3    0    0 -0.28306314326E+01 -0.15547425826E+02 -0.24380406470E+02  0.29054072756E+02  0.00000000000E+00 0. -1.
</event>
<event>
 7    1  0.3681059E-013  0.7246180E+02  0.7816164E-02  0.1226707E+00
        -11   -1    0    0    0    0  0.00000000000E+00  0.00000000000E+00  0.45593999997E+02  0.45594000000E+02  0.51100000000E-03 0.  1.
         11   -1    0    0    0    0 -0.00000000000E+00 -0.00000000000E+00 -0.45593999997E+02  0.45594000000E+02  0.51100000000E-03 0. -1.
    9900012    2    1    2    0    0  0.11628880341E+02 -0.12626896402E+02 -0.74833856175E+01  0.72461803615E+02  0.70000303943E+02 0.  0.
        -12    1    1    2    0    0 -0.11628880341E+02  0.12626896402E+02  0.74833856175E+01  0.18726196385E+02  0.00000000000E+00 0.  1.
         11    1    3    3    0    0  0.99787858558E+00 -0.68740478787E+00 -0.24292816816E+02  0.24323018647E+02  0.51100000000E-03 0. -1.
        -11    1    3    3    0    0  0.14915727025E+02  0.14643137177E+01 -0.98910496318E+01  0.17957059627E+02  0.51100000000E-03 0.  1.
        -12    1    3    3    0    0 -0.42847252696E+01 -0.13403805332E+02  0.26700480830E+02  0.30181725341E+02  0.00000000000E+00 0.  1.
</event>
<event>
 7    1  0.3681059E-013  0.7246159E+02  0.7816164E-02  0.1226708E+00
        -11   -1    0    0    0    0  0.00000000000E+00  0.00000000000E+00  0.45593999997E+02  0.45594000000E+02  0.51100000000E-03 0. -1.
         11   -1    0    0    0    0 -0.00000000000E+00 -0.00000000000E+00 -0.45593999997E+02  0.45594000000E+02  0.51100000000E-03 0.  1.
    9900012    2    1    2    0    0  0.86632553419E+01 -0.16592487141E+02  0.56207670244E+00  0.72461586759E+02  0.70000021449E+02 0.  0.
        -12    1    1    2    0    0 -0.86632553419E+01  0.16592487141E+02 -0.56207670244E+00  0.18726413241E+02  0.00000000000E+00 0.  1.
         11    1    3    3    0    0  0.41318332180E+01 -0.19752268932E+02  0.12188563369E+02  0.23575098112E+02  0.51100000000E-03 0. -1.
        -11    1    3    3    0    0 -0.15363300495E+02  0.22626108702E+01  0.10783770088E+02  0.18906086523E+02  0.51100000000E-03 0.  1.
        -12    1    3    3    0    0  0.19894722618E+02  0.89717092109E+00 -0.22410256755E+02  0.29980402125E+02  0.00000000000E+00 0.  1.
</event>
<event>
 7    1  0.3681059E-013  0.7246157E+02  0.7816164E-02  0.1226708E+00
        -11   -1    0    0    0    0  0.00000000000E+00  0.00000000000E+00  0.45593999997E+02  0.45594000000E+02  0.51100000000E-03 0. -1.
         11   -1    0    0    0    0 -0.00000000000E+00 -0.00000000000E+00 -0.45593999997E+02  0.45594000000E+02  0.51100000000E-03 0.  1.
    9900012    2    1    2    0    0  0.61960176605E+01 -0.16679287585E+01  0.17592795240E+02  0.72461573070E+02  0.70000003616E+02 0.  0.
        -12    1    1    2    0    0 -0.61960176605E+01  0.16679287585E+01 -0.17592795240E+02  0.18726426930E+02  0.00000000000E+00 0.  1.
         11    1    3    3    0    0  0.11262841931E+02 -0.25637627784E+02 -0.74232393450E+01  0.28969709170E+02  0.51100000000E-03 0. -1.
        -11    1    3    3    0    0  0.22921930284E+01  0.50733676174E+01 -0.48556837013E+01  0.73872100504E+01  0.51100000000E-03 0.  1.
        -12    1    3    3    0    0 -0.73590172989E+01  0.18896331408E+02  0.29871718286E+02  0.36104653850E+02  0.00000000000E+00 0.  1.
</event>
<event>
 7    1  0.3681059E-013  0.7246147E+02  0.7816164E-02  0.1226708E+00
        -11   -1    0    0    0    0  0.00000000000E+00  0.00000000000E+00  0.45593999997E+02  0.45594000000E+02  0.51100000000E-03 0.  1.
         11   -1    0    0    0    0 -0.00000000000E+00 -0.00000000000E+00 -0.45593999997E+02  0.45594000000E+02  0.51100000000E-03 0. -1.
    9900012    2    1    2    0    0  0.16183543014E+01 -0.69350127973E+01 -0.17319626499E+02  0.72461469750E+02  0.69999869023E+02 0.  0.
        -12    1    1    2    0    0 -0.16183543014E+01  0.69350127973E+01  0.17319626499E+02  0.18726530250E+02  0.00000000000E+00 0.  1.
         11    1    3    3    0    0  0.10306645268E+02 -0.14378438766E+02 -0.24379721563E+02  0.30122039470E+02  0.51100000000E-03 0. -1.
        -11    1    3    3    0    0  0.13558564008E+01  0.20693780679E+02 -0.55540778602E+01  0.21469016896E+02  0.51100000000E-03 0.  1.
        -12    1    3    3    0    0 -0.10044147368E+02 -0.13250354709E+02  0.12614172925E+02  0.20870413385E+02  0.00000000000E+00 0.  1.
</event>
<event>
 7    1  0.3681059E-013  0.7246159E+02  0.7816164E-02  0.1226708E+00
        -11   -1    0    0    0    0  0.00000000000E+00  0.00000000000E+00  0.45593999997E+02  0.45594000000E+02  0.51100000000E-03 0.  1.
         11   -1    0    0    0    0 -0.00000000000E+00 -0.00000000000E+00 -0.45593999997E+02  0.45594000000E+02  0.51100000000E-03 0. -1.
    9900012    2    1    2    0    0 -0.36512372529E+01 -0.13239501409E+01 -0.18319222045E+02  0.72461594210E+02  0.70000031155E+02 0.  0.
        -12    1    1    2    0    0  0.36512372529E+01  0.13239501409E+01  0.18319222045E+02  0.18726405790E+02  0.00000000000E+00 0.  1.
         11    1    3    3    0    0 -0.12799409941E+02 -0.12019406380E+02 -0.30324845422E+02  0.35041222506E+02  0.51100000000E-03 0. -1.
        -11    1    3    3    0    0 -0.51934885438E+01 -0.82167836414E+01  0.94349503525E+01  0.13546444001E+02  0.51100000000E-03 0.  1.
        -12    1    3    3    0    0  0.14341661232E+02  0.18912239881E+02  0.25706730243E+01  0.23873927703E+02  0.00000000000E+00 0.  1.
</event>
<event>
 7    1  0.3681059E-013  0.7246155E+02  0.7816164E-02  0.1226708E+00
        -11   -1    0    0    0    0  0.00000000000E+00  0.00000000000E+00  0.45593999997E+02  0.45594000000E+02  0.51100000000E-03 0. -1.
         11   -1    0    0    0    0 -0.00000000000E+00 -0.00000000000E+00 -0.45593999997E+02  0.45594000000E+02  0.51100000000E-03 0.  1.
    9900012    2    1    2    0    0  0.19150076865E+01  0.13858560815E+02 -0.12448014643E+02  0.72461547297E+02  0.69999970041E+02 0.  0.
        -12    1    1    2    0    0 -0.19150076865E+01 -0.13858560815E+02  0.12448014643E+02  0.18726452703E+02  0.00000000000E+00 0.  1.
         11    1    3    3    0    0  0.23117859224E+02  0.92060594613E+01 -0.27836471081E+01  0.25038682820E+02  0.51100000000E-03 0. -1.
        -11    1    3    3    0    0  0.24700797087E+01 -0.14860213578E+02 -0.70536874422E+01  0.16633753279E+02  0.51100000000E-03 0.  1.
         12    1    3    3    0    0 -0.23672931246E+02  0.19512714932E+02 -0.26106800923E+01  0.30789111197E+02  0.00000000000E+00 0. -1.
</event>
<event>
 7    1  0.3681059E-013  0.7246159E+02  0.7816164E-02  0.1226708E+00
        -11   -1    0    0    0    0  0.00000000000E+00  0.00000000000E+00  0.45593999997E+02  0.45594000000E+02  0.51100000000E-03 0. -1.
         11   -1    0    0    0    0 -0.00000000000E+00 -0.00000000000E+00 -0.45593999997E+02  0.45594000000E+02  0.51100000000E-03 0.  1.
    9900012    2    1    2    0    0  0.18397303221E+02  0.30964956915E+01  0.16215150919E+01  0.72461591840E+02  0.70000028068E+02 0.  0.
        -12    1    1    2    0    0 -0.18397303221E+02 -0.30964956915E+01 -0.16215150919E+01  0.18726408160E+02  0.00000000000E+00 0.  1.
         11    1    3    3    0    0 -0.14504437252E+02 -0.13375976373E+02  0.44525196681E+01  0.20226724292E+02  0.51100000000E-03 0. -1.
        -11    1    3    3    0    0  0.15263750449E+01  0.75264160247E+01 -0.15450223827E+02  0.17253584426E+02  0.51100000000E-03 0.  1.
         12    1    3    3    0    0  0.31375365428E+02  0.89460560401E+01  0.12619219251E+02  0.34981283123E+02  0.00000000000E+00 0. -1.
</event>
<event>
 7    1  0.3681059E-013  0.7246162E+02  0.7816164E-02  0.1226708E+00
        -11   -1    0    0    0    0  0.00000000000E+00  0.00000000000E+00  0.45593999997E+02  0.45594000000E+02  0.51100000000E-03 0. -1.
         11   -1    0    0    0    0 -0.00000000000E+00 -0.00000000000E+00 -0.45593999997E+02  0.45594000000E+02  0.51100000000E-03 0.  1.
    9900012    2    1    2    0    0  0.12468695497E+02 -0.68101471918E+01  0.12199631458E+02  0.72461615408E+02  0.70000058769E+02 0.  0.
        -12    1    1    2    0    0 -0.12468695497E+02  0.68101471918E+01 -0.12199631458E+02  0.18726384592E+02  0.00000000000E+00 0.  1.
         11    1    3    3    0    0  0.10693639937E+02 -0.23053897033E+02 -0.14081161562E+02  0.29053660952E+02  0.51100000000E-03 0. -1.
        -11    1    3    3    0    0  0.10089506799E+02 -0.42315224267E+01  0.30789378557E+01  0.11365904631E+02  0.51100000000E-03 0.  1.
        -12    1    3    3    0    0 -0.83144512392E+01  0.20475272268E+02  0.23201855165E+02  0.32042049825E+02  0.00000000000E+00 0.  1.
</event>
<event>
 7    1  0.3681059E-013  0.7246156E+02  0.7816164E-02  0.1226708E+00
        -11   -1    0    0    0    0  0.00000000000E+00  0.00000000000E+00  0.45593999997E+02  0.45594000000E+02  0.51100000000E-03 0.  1.
         11   -1    0    0    0    0 -0.00000000000E+00 -0.00000000000E+00 -0.45593999997E+02  0.45594000000E+02  0.51100000000E-03 0. -1.
    9900012    2    1    2    0    0  0.42861892960E+01  0.15845086313E+02 -0.90133989082E+01  0.72461560434E+02  0.69999987155E+02 0.  0.
        -12    1    1    2    0    0 -0.42861892960E+01 -0.15845086313E+02  0.90133989082E+01  0.18726439566E+02  0.00000000000E+00 0.  1.
         11    1    3    3    0    0 -0.15258777395E+02 -0.67955248655E+01 -0.14987743812E+00  0.16704248241E+02  0.51100000000E-03 0. -1.
        -11    1    3    3    0    0 -0.10483197454E+02  0.22599423618E+02 -0.22857070975E+01  0.25017110823E+02  0.51100000000E-03 0.  1.
         12    1    3    3    0    0  0.30028164145E+02  0.41187560458E-01 -0.65778143726E+01  0.30740201370E+02  0.00000000000E+00 0. -1.
</event>
<event>
 7    1  0.3681059E-013  0.7246160E+02  0.7816164E-02  0.1226708E+00
        -11   -1    0    0    0    0  0.00000000000E+00  0.00000000000E+00  0.45593999997E+02  0.45594000000E+02  0.51100000000E-03 0.  1.
         11   -1    0    0    0    0 -0.00000000000E+00 -0.00000000000E+00 -0.45593999997E+02  0.45594000000E+02  0.51100000000E-03 0. -1.
    9900012    2    1    2    0    0 -0.11764929850E+02 -0.14019203205E+02 -0.39656735076E+01  0.72461596201E+02  0.70000033749E+02 0.  0.
        -12    1    1    2    0    0  0.11764929850E+02  0.14019203205E+02  0.39656735076E+01  0.18726403799E+02  0.00000000000E+00 0.  1.
         11    1    3    3    0    0  0.32058350607E+01 -0.99738281717E+01 -0.29535376529E+02  0.31338364568E+02  0.51100000000E-03 0. -1.
        -11    1    3    3    0    0 -0.12126971998E+02 -0.92873251433E+01  0.42464452424E+00  0.15280647283E+02  0.51100000000E-03 0.  1.
         12    1    3    3    0    0 -0.28437929128E+01  0.52419501105E+01  0.25145058497E+02  0.25842584350E+02  0.00000000000E+00 0. -1.
</event>
<event>
 7    1  0.3681059E-013  0.7246158E+02  0.7816164E-02  0.1226708E+00
        -11   -1    0    0    0    0  0.00000000000E+00  0.00000000000E+00  0.45593999997E+02  0.45594000000E+02  0.51100000000E-03 0.  1.
         11   -1    0    0    0    0 -0.00000000000E+00 -0.00000000000E+00 -0.45593999997E+02  0.45594000000E+02  0.51100000000E-03 0. -1.
    9900012    2    1    2    0    0  0.20071875895E+01 -0.17968997386E+02 -0.48749638559E+01  0.72461576378E+02  0.70000007925E+02 0.  0.
        -12    1    1    2    0    0 -0.20071875895E+01  0.17968997386E+02  0.48749638559E+01  0.18726423622E+02  0.00000000000E+00 0.  1.
         11    1    3    3    0    0 -0.12154392693E+02 -0.30668340705E+02 -0.70062551445E+01  0.33724827572E+02  0.51100000000E-03 0. -1.
        -11    1    3    3    0    0  0.13515834165E+02 -0.93358027103E+01  0.28907181836E+01  0.16679065840E+02  0.51100000000E-03 0.  1.
        -12    1    3    3    0    0  0.64574611792E+00  0.22035146030E+02 -0.75942689500E+00  0.22057682965E+02  0.00000000000E+00 0.  1.
</event>
<event>
 7    1  0.3681059E-013  0.7246154E+02  0.7816164E-02  0.1226708E+00
        -11   -1    0    0    0    0  0.00000000000E+00  0.00000000000E+00  0.45593999997E+02  0.45594000000E+02  0.51100000000E-03 0. -1.
         11   -1    0    0    0    0 -0.00000000000E+00 -0.00000000000E+00 -0.45593999997E+02  0.45594000000E+02  0.51100000000E-03 0.  1.
    9900012    2    1    2    0    0  0.62829731982E+01  0.15299450139E+02 -0.87824389893E+01  0.72461543811E+02  0.69999965501E+02 0.  0.
        -12    1    1    2    0    0 -0.62829731982E+01 -0.15299450139E+02  0.87824389893E+01  0.18726456189E+02  0.00000000000E+00 0.  1.
         11    1    3    3    0    0 -0.74832341016E+01 -0.29519516093E+01  0.81460898924E+01  0.11448650214E+02  0.51100000000E-03 0. -1.
        -11    1    3    3    0    0  0.65964803545E+01  0.19980184734E+01 -0.34999946299E+02  0.35672144204E+02  0.51100000000E-03 0.  1.
         12    1    3    3    0    0  0.71697269454E+01  0.16253383275E+02  0.18071417417E+02  0.25340749394E+02  0.00000000000E+00 0. -1.
</event>
<event>
 7    1  0.3681059E-013  0.7246147E+02  0.7816164E-02  0.1226708E+00
        -11   -1    0    0    0    0  0.00000000000E+00  0.00000000000E+00  0.45593999997E+02  0.45594000000E+02  0.51100000000E-03 0.  1.
         11   -1    0    0    0    0 -0.00000000000E+00 -0.00000000000E+00 -0.45593999997E+02  0.45594000000E+02  0.51100000000E-03 0. -1.
    9900012    2    1    2    0    0  0.13605520858E+02 -0.12846667889E+02  0.73192996120E+00  0.72461473490E+02  0.69999873894E+02 0.  0.
        -12    1    1    2    0    0 -0.13605520858E+02  0.12846667889E+02 -0.73192996120E+00  0.18726526510E+02  0.00000000000E+00 0.  1.
         11    1    3    3    0    0  0.90916403889E+01  0.10710572138E+02 -0.10299065383E+02  0.17419673605E+02  0.51100000000E-03 0. -1.
        -11    1    3    3    0    0  0.11626849323E+02  0.11661983653E+02  0.96459195991E+01  0.19084791146E+02  0.51100000000E-03 0.  1.
         12    1    3    3    0    0 -0.71129688539E+01 -0.35219223680E+02  0.13850757451E+01  0.35957008738E+02  0.00000000000E+00 0. -1.
</event>
<event>
 7    1  0.3681059E-013  0.7246157E+02  0.7816164E-02  0.1226708E+00
        -11   -1    0    0    0    0  0.00000000000E+00  0.00000000000E+00  0.45593999997E+02  0.45594000000E+02  0.51100000000E-03 0.  1.
         11   -1    0    0    0    0 -0.00000000000E+00 -0.00000000000E+00 -0.45593999997E+02  0.45594000000E+02  0.51100000000E-03 0. -1.
    9900012    2    1    2    0    0  0.17211813400E+02  0.31924584717E+01 -0.66513884912E+01  0.72461567332E+02  0.69999996142E+02 0.  0.
        -12    1    1    2    0    0 -0.17211813400E+02 -0.31924584717E+01  0.66513884912E+01  0.18726432668E+02  0.00000000000E+00 0.  1.
         11    1    3    3    0    0  0.18318734054E+01 -0.12601724335E+02  0.90075535705E+01  0.15597924156E+02  0.51100000000E-03 0. -1.
        -11    1    3    3    0    0  0.25249615403E+02  0.16323310071E+02  0.80935521498E+01  0.31136780764E+02  0.51100000000E-03 0.  1.
         12    1    3    3    0    0 -0.98696754085E+01 -0.52912726475E+00 -0.23752494211E+02  0.25726862413E+02  0.00000000000E+00 0. -1.
</event>
<event>
 7    1  0.3681059E-013  0.7246156E+02  0.7816164E-02  0.1226708E+00
        -11   -1    0    0    0    0  0.00000000000E+00  0.00000000000E+00  0.45593999997E+02  0.45594000000E+02  0.51100000000E-03 0. -1.
         11   -1    0    0    0    0 -0.00000000000E+00 -0.00000000000E+00 -0.45593999997E+02  0.45594000000E+02  0.51100000000E-03 0.  1.
    9900012    2    1    2    0    0  0.41107141721E+01  0.46819168531E+01  0.17659591912E+02  0.72461561392E+02  0.69999988403E+02 0.  0.
        -12    1    1    2    0    0 -0.41107141721E+01 -0.46819168531E+01 -0.17659591912E+02  0.18726438608E+02  0.00000000000E+00 0.  1.
         11    1    3    3    0    0 -0.25455369731E+02 -0.80451108380E+01  0.44850730169E+01  0.27070565874E+02  0.51100000000E-03 0. -1.
        -11    1    3    3    0    0  0.15115750332E+01  0.61631005819E+01 -0.75773165869E+01  0.98835416113E+01  0.51100000000E-03 0.  1.
         12    1    3    3    0    0  0.28054508870E+02  0.65639271093E+01  0.20751835482E+02  0.35507453906E+02  0.00000000000E+00 0. -1.
</event>
<event>
 7    1  0.3681059E-013  0.7246158E+02  0.7816164E-02  0.1226708E+00
        -11   -1    0    0    0    0  0.00000000000E+00  0.00000000000E+00  0.45593999997E+02  0.45594000000E+02  0.51100000000E-03 0. -1.
         11   -1    0    0    0    0 -0.00000000000E+00 -0.00000000000E+00 -0.45593999997E+02  0.45594000000E+02  0.51100000000E-03 0.  1.
    9900012    2    1    2    0    0  0.58134670313E+01 -0.70936889176E+01  0.16326724948E+02  0.72461580990E+02  0.70000013934E+02 0.  0.
        -12    1    1    2    0    0 -0.58134670313E+01  0.70936889176E+01 -0.16326724948E+02  0.18726419010E+02  0.00000000000E+00 0.  1.
         11    1    3    3    0    0 -0.16889905334E+02 -0.30534418732E+01  0.58507978905E+01  0.18133511675E+02  0.51100000000E-03 0. -1.
        -11    1    3    3    0    0  0.18113847025E+02  0.15082160568E+02  0.21396525324E+02  0.31833854898E+02  0.51100000000E-03 0.  1.
        -12    1    3    3    0    0  0.45895253400E+01 -0.19122407613E+02 -0.10920598267E+02  0.22494214417E+02  0.00000000000E+00 0.  1.
</event>
<event>
 7    1  0.3681059E-013  0.7246167E+02  0.7816164E-02  0.1226708E+00
        -11   -1    0    0    0    0  0.00000000000E+00  0.00000000000E+00  0.45593999997E+02  0.45594000000E+02  0.51100000000E-03 0.  1.
         11   -1    0    0    0    0 -0.00000000000E+00 -0.00000000000E+00 -0.45593999997E+02  0.45594000000E+02  0.51100000000E-03 0. -1.
    9900012    2    1    2    0    0  0.13473759898E+02  0.17668338011E+01 -0.12884546110E+02  0.72461669982E+02  0.70000129862E+02 0.  0.
        -12    1    1    2    0    0 -0.13473759898E+02 -0.17668338011E+01  0.12884546110E+02  0.18726330018E+02  0.00000000000E+00 0.  1.
         11    1    3    3    0    0 -0.90084782926E+01 -0.92232978466E+01 -0.12514777076E+01  0.12953304637E+02  0.51100000000E-03 0. -1.
        -11    1    3    3    0    0  0.25110112362E+02 -0.85889810746E+01 -0.24347994468E+02  0.36015457426E+02  0.51100000000E-03 0.  1.
         12    1    3    3    0    0 -0.26278741716E+01  0.19579112722E+02  0.12714926065E+02  0.23492907919E+02  0.00000000000E+00 0. -1.
</event>
<event>
 7    1  0.3681059E-013  0.7246162E+02  0.7816164E-02  0.1226708E+00
        -11   -1    0    0    0    0  0.00000000000E+00  0.00000000000E+00  0.45593999997E+02  0.45594000000E+02  0.51100000000E-03 0. -1.
         11   -1    0    0    0    0 -0.00000000000E+00 -0.00000000000E+00 -0.45593999997E+02  0.45594000000E+02  0.51100000000E-03 0.  1.
    9900012    2    1    2    0    0  0.72691791150E+01  0.72143418960E+01  0.15677680551E+02  0.72461618570E+02  0.70000062888E+02 0.  0.
        -12    1    1    2    0    0 -0.72691791150E+01 -0.72143418960E+01 -0.15677680551E+02  0.18726381430E+02  0.00000000000E+00 0.  1.
         11    1    3    3    0    0 -0.94765155038E+01  0.70319722255E+01 -0.27392663381E+01  0.12114312189E+02  0.51100000000E-03 0. -1.
        -11    1    3    3    0    0 -0.14203046356E+02 -0.16682143813E+02  0.10145346052E+02  0.24144326347E+02  0.51100000000E-03 0.  1.
         12    1    3    3    0    0  0.30948740975E+02  0.16864513484E+02  0.82716008374E+01  0.36202980034E+02  0.00000000000E+00 0. -1.
</event>
<event>
 7    1  0.3681059E-013  0.7246155E+02  0.7816164E-02  0.1226708E+00
        -11   -1    0    0    0    0  0.00000000000E+00  0.00000000000E+00  0.45593999997E+02  0.45594000000E+02  0.51100000000E-03 0.  1.
         11   -1    0    0    0    0 -0.00000000000E+00 -0.00000000000E+00 -0.45593999997E+02  0.45594000000E+02  0.51100000000E-03 0. -1.
    9900012    2    1    2    0    0 -0.66082182855E+01  0.51287261188E+01 -0.16754331774E+02  0.72461547755E+02  0.69999970638E+02 0.  0.
        -12    1    1    2    0    0  0.66082182855E+01 -0.51287261188E+01  0.16754331774E+02  0.18726452245E+02  0.00000000000E+00 0.  1.
         11    1    3    3    0    0  0.82898345828E+01 -0.10239329418E+02 -0.10828424187E+02  0.17053445252E+02  0.51100000000E-03 0. -1.
        -11    1    3    3    0    0  0.94240794865E+00  0.15579000844E+02  0.19790203717E+02  0.25204078310E+02  0.51100000000E-03 0.  1.
         12    1    3    3    0    0 -0.15840460817E+02 -0.21094530709E+00 -0.25716111304E+02  0.30204024192E+02  0.00000000000E+00 0. -1.
</event>
<event>
 7    1  0.3681059E-013  0.7246157E+02  0.7816164E-02  0.1226708E+00
        -11   -1    0    0    0    0  0.00000000000E+00  0.00000000000E+00  0.45593999997E+02  0.45594000000E+02  0.51100000000E-03 0.  1.
         11   -1    0    0    0    0 -0.00000000000E+00 -0.00000000000E+00 -0.45593999997E+02  0.45594000000E+02  0.51100000000E-03 0. -1.
    9900012    2    1    2    0    0  0.61424128250E+01 -0.12631819222E+02  0.12384956729E+02  0.72461568270E+02  0.69999997363E+02 0.  0.
        -12    1    1    2    0    0 -0.61424128250E+01  0.12631819222E+02 -0.12384956729E+02  0.18726431730E+02  0.00000000000E+00 0.  1.
         11    1    3    3    0    0  0.67433737458E+00 -0.33443930408E+02  0.10327143879E+02  0.35008586276E+02  0.51100000000E-03 0. -1.
        -11    1    3    3    0    0  0.15113842774E+01  0.53675467340E+01  0.15579776345E+02  0.16547636435E+02  0.51100000000E-03 0.  1.
         12    1    3    3    0    0  0.39566911731E+01  0.15444564453E+02 -0.13521963495E+02  0.20905345559E+02  0.00000000000E+00 0. -1.
</event>
<event>
 7    1  0.3681059E-013  0.7246159E+02  0.7816164E-02  0.1226708E+00
        -11   -1    0    0    0    0  0.00000000000E+00  0.00000000000E+00  0.45593999997E+02  0.45594000000E+02  0.51100000000E-03 0. -1.
         11   -1    0    0    0    0 -0.00000000000E+00 -0.00000000000E+00 -0.45593999997E+02  0.45594000000E+02  0.51100000000E-03 0.  1.
    9900012    2    1    2    0    0 -0.62704340217E+01  0.48066515942E+01  0.16978113526E+02  0.72461586001E+02  0.70000020461E+02 0.  0.
        -12    1    1    2    0    0  0.62704340217E+01 -0.48066515942E+01 -0.16978113526E+02  0.18726413999E+02  0.00000000000E+00 0.  1.
         11    1    3    3    0    0 -0.15176926205E+02 -0.13325355694E+01  0.70895584142E+01  0.16804064355E+02  0.51100000000E-03 0. -1.
        -11    1    3    3    0    0 -0.75172893212E+01 -0.21199606498E+02  0.73520761934E+01  0.23664022883E+02  0.51100000000E-03 0.  1.
         12    1    3    3    0    0  0.16423781504E+02  0.27338793662E+02  0.25364789180E+01  0.31993498763E+02  0.00000000000E+00 0. -1.
</event>
<event>
 7    1  0.3681059E-013  0.7246106E+02  0.7816164E-02  0.1226709E+00
        -11   -1    0    0    0    0  0.00000000000E+00  0.00000000000E+00  0.45593999997E+02  0.45594000000E+02  0.51100000000E-03 0.  1.
         11   -1    0    0    0    0 -0.00000000000E+00 -0.00000000000E+00 -0.45593999997E+02  0.45594000000E+02  0.51100000000E-03 0. -1.
    9900012    2    1    2    0    0  0.87041578035E+01  0.14494066032E+02 -0.80534454076E+01  0.72461059616E+02  0.69999334743E+02 0.  0.
        -12    1    1    2    0    0 -0.87041578035E+01 -0.14494066032E+02  0.80534454076E+01  0.18726940384E+02  0.00000000000E+00 0.  1.
         11    1    3    3    0    0 -0.25737936248E+01 -0.29270560281E+01  0.69144580578E+01  0.79373673916E+01  0.51100000000E-03 0. -1.
        -11    1    3    3    0    0  0.23780190399E+01  0.35662396098E+02  0.49544521764E+01  0.36083348883E+02  0.51100000000E-03 0.  1.
         12    1    3    3    0    0  0.88999323884E+01 -0.18241274038E+02 -0.19922355642E+02  0.28440343341E+02  0.00000000000E+00 0. -1.
</event>
<event>
 7    1  0.3681059E-013  0.7246112E+02  0.7816164E-02  0.1226709E+00
        -11   -1    0    0    0    0  0.00000000000E+00  0.00000000000E+00  0.45593999997E+02  0.45594000000E+02  0.51100000000E-03 0. -1.
         11   -1    0    0    0    0 -0.00000000000E+00 -0.00000000000E+00 -0.45593999997E+02  0.45594000000E+02  0.51100000000E-03 0.  1.
    9900012    2    1    2    0    0 -0.48326741541E+01  0.17779609800E+02 -0.33506390076E+01  0.72461119697E+02  0.69999413011E+02 0.  0.
        -12    1    1    2    0    0  0.48326741541E+01 -0.17779609800E+02  0.33506390076E+01  0.18726880303E+02  0.00000000000E+00 0.  1.
         11    1    3    3    0    0  0.11387972479E+01  0.64941262367E+01 -0.26668109377E+02  0.27471050085E+02  0.51100000000E-03 0. -1.
        -11    1    3    3    0    0 -0.48579288951E+01  0.15123027646E+02 -0.47973059203E+01  0.16592756934E+02  0.51100000000E-03 0.  1.
         12    1    3    3    0    0 -0.11135425069E+01 -0.38375440826E+01  0.28114776290E+02  0.28397312678E+02  0.00000000000E+00 0. -1.
</event>
<event>
 7    1  0.3681059E-013  0.7246155E+02  0.7816164E-02  0.1226708E+00
        -11   -1    0    0    0    0  0.00000000000E+00  0.00000000000E+00  0.45593999997E+02  0.45594000000E+02  0.51100000000E-03 0.  1.
         11   -1    0    0    0    0 -0.00000000000E+00 -0.00000000000E+00 -0.45593999997E+02  0.45594000000E+02  0.51100000000E-03 0. -1.
    9900012    2    1    2    0    0 -0.14894646080E+02  0.34280110436E+01 -0.10820265093E+02  0.72461551371E+02  0.69999975349E+02 0.  0.
        -12    1    1    2    0    0  0.14894646080E+02 -0.34280110436E+01  0.10820265093E+02  0.18726448629E+02  0.00000000000E+00 0.  1.
         11    1    3    3    0    0 -0.18909335412E+02 -0.22003594368E+02 -0.25403709698E+01  0.29123437568E+02  0.51100000000E-03 0.  1.
        -11    1    3    3    0    0 -0.10564351814E+02  0.14668692447E+02 -0.15518515441E+02  0.23824365450E+02  0.51100000000E-03 0. -1.
        -12    1    3    3    0    0  0.14579041146E+02  0.10762912965E+02  0.72386213174E+01  0.19513748353E+02  0.00000000000E+00 0.  1.
</event>
<event>
 7    1  0.3681059E-013  0.7246158E+02  0.7816164E-02  0.1226708E+00
        -11   -1    0    0    0    0  0.00000000000E+00  0.00000000000E+00  0.45593999997E+02  0.45594000000E+02  0.51100000000E-03 0. -1.
         11   -1    0    0    0    0 -0.00000000000E+00 -0.00000000000E+00 -0.45593999997E+02  0.45594000000E+02  0.51100000000E-03 0.  1.
    9900012    2    1    2    0    0  0.23836414694E+01  0.79478576739E+01  0.16787749210E+02  0.72461582516E+02  0.70000015920E+02 0.  0.
        -12    1    1    2    0    0 -0.23836414694E+01 -0.79478576739E+01 -0.16787749210E+02  0.18726417484E+02  0.00000000000E+00 0.  1.
         11    1    3    3    0    0  0.97471418496E+01  0.11989095279E+01  0.18599628482E+02  0.21033077241E+02  0.51100000000E-03 0. -1.
        -11    1    3    3    0    0  0.98153826828E+01  0.19870225013E+02  0.12556448940E+02  0.25472180698E+02  0.51100000000E-03 0.  1.
        -12    1    3    3    0    0 -0.17178883063E+02 -0.13121276867E+02 -0.14368328212E+02  0.25956324576E+02  0.00000000000E+00 0.  1.
</event>
<event>
 7    1  0.3681059E-013  0.7246159E+02  0.7816164E-02  0.1226708E+00
        -11   -1    0    0    0    0  0.00000000000E+00  0.00000000000E+00  0.45593999997E+02  0.45594000000E+02  0.51100000000E-03 0.  1.
         11   -1    0    0    0    0 -0.00000000000E+00 -0.00000000000E+00 -0.45593999997E+02  0.45594000000E+02  0.51100000000E-03 0. -1.
    9900012    2    1    2    0    0  0.62351317739E+00  0.79492061126E+01  0.16944023593E+02  0.72461585981E+02  0.70000020434E+02 0.  0.
        -12    1    1    2    0    0 -0.62351317739E+00 -0.79492061126E+01 -0.16944023593E+02  0.18726414019E+02  0.00000000000E+00 0.  1.
         11    1    3    3    0    0  0.81467545039E+00 -0.13040936232E+02 -0.10405092672E+02  0.16703163403E+02  0.51100000000E-03 0. -1.
        -11    1    3    3    0    0  0.76158568190E+01 -0.11113423456E+02  0.10194530415E+01  0.13511059942E+02  0.51100000000E-03 0.  1.
         12    1    3    3    0    0 -0.78070190920E+01  0.32103565800E+02  0.26329663224E+02  0.42247362636E+02  0.00000000000E+00 0. -1.
</event>
<event>
 7    1  0.3681059E-013  0.7246155E+02  0.7816164E-02  0.1226708E+00
        -11   -1    0    0    0    0  0.00000000000E+00  0.00000000000E+00  0.45593999997E+02  0.45594000000E+02  0.51100000000E-03 0.  1.
         11   -1    0    0    0    0 -0.00000000000E+00 -0.00000000000E+00 -0.45593999997E+02  0.45594000000E+02  0.51100000000E-03 0. -1.
    9900012    2    1    2    0    0 -0.76912466016E+01 -0.10800363192E+02 -0.13224106601E+02  0.72461545056E+02  0.69999967122E+02 0.  0.
        -12    1    1    2    0    0  0.76912466016E+01  0.10800363192E+02  0.13224106601E+02  0.18726454944E+02  0.00000000000E+00 0.  1.
         11    1    3    3    0    0 -0.18642239938E+02 -0.14685328379E+02 -0.55854236779E+01  0.24380093056E+02  0.51100000000E-03 0. -1.
        -11    1    3    3    0    0  0.54364125462E+01  0.22362969463E+02 -0.14966486054E+02  0.27452735558E+02  0.51100000000E-03 0.  1.
         12    1    3    3    0    0  0.55145807898E+01 -0.18478004276E+02  0.73278031310E+01  0.20628716442E+02  0.00000000000E+00 0. -1.
</event>
<event>
 7    1  0.3681059E-013  0.7246156E+02  0.7816164E-02  0.1226708E+00
        -11   -1    0    0    0    0  0.00000000000E+00  0.00000000000E+00  0.45593999997E+02  0.45594000000E+02  0.51100000000E-03 0.  1.
         11   -1    0    0    0    0 -0.00000000000E+00 -0.00000000000E+00 -0.45593999997E+02  0.45594000000E+02  0.51100000000E-03 0. -1.
    9900012    2    1    2    0    0 -0.16043037227E+02  0.50342571658E+01  0.82435799800E+01  0.72461564152E+02  0.69999991998E+02 0.  0.
        -12    1    1    2    0    0  0.16043037227E+02 -0.50342571658E+01 -0.82435799800E+01  0.18726435848E+02  0.00000000000E+00 0.  1.
         11    1    3    3    0    0 -0.90385608814E+01 -0.51261508056E+01 -0.22815400589E+02  0.25070211590E+02  0.51100000000E-03 0. -1.
        -11    1    3    3    0    0  0.37379832882E+01  0.17631099295E+02  0.57808157432E+01  0.18927387890E+02  0.51100000000E-03 0.  1.
        -12    1    3    3    0    0 -0.10742459634E+02 -0.74706913241E+01  0.25278164826E+02  0.28463964671E+02  0.00000000000E+00 0.  1.
</event>
<event>
 7    1  0.3681059E-013  0.7246167E+02  0.7816164E-02  0.1226708E+00
        -11   -1    0    0    0    0  0.00000000000E+00  0.00000000000E+00  0.45593999997E+02  0.45594000000E+02  0.51100000000E-03 0.  1.
         11   -1    0    0    0    0 -0.00000000000E+00 -0.00000000000E+00 -0.45593999997E+02  0.45594000000E+02  0.51100000000E-03 0. -1.
    9900012    2    1    2    0    0 -0.17681629210E+02 -0.33538181931E+01 -0.51756366152E+01  0.72461673015E+02  0.70000133812E+02 0.  0.
        -12    1    1    2    0    0  0.17681629210E+02  0.33538181931E+01  0.51756366152E+01  0.18726326985E+02  0.00000000000E+00 0.  1.
         11    1    3    3    0    0 -0.17562709724E+01  0.62171806482E+01  0.31359556360E+01  0.71813676242E+01  0.51100000000E-03 0. -1.
        -11    1    3    3    0    0 -0.32856012675E+01  0.50676660163E+01  0.25566575256E+02  0.26270252856E+02  0.51100000000E-03 0.  1.
         12    1    3    3    0    0 -0.12639756970E+02 -0.14638664858E+02 -0.33878167508E+02  0.39010052534E+02  0.00000000000E+00 0. -1.
</event>
<event>
 7    1  0.3681059E-013  0.7246157E+02  0.7816164E-02  0.1226708E+00
        -11   -1    0    0    0    0  0.00000000000E+00  0.00000000000E+00  0.45593999997E+02  0.45594000000E+02  0.51100000000E-03 0. -1.
         11   -1    0    0    0    0 -0.00000000000E+00 -0.00000000000E+00 -0.45593999997E+02  0.45594000000E+02  0.51100000000E-03 0.  1.
    9900012    2    1    2    0    0 -0.17708786728E+02 -0.56515258150E+01 -0.22668041311E+01  0.72461567547E+02  0.69999996422E+02 0.  0.
        -12    1    1    2    0    0  0.17708786728E+02  0.56515258150E+01  0.22668041311E+01  0.18726432453E+02  0.00000000000E+00 0.  1.
         11    1    3    3    0    0  0.18213366019E+02 -0.72441704182E+01  0.41417164327E+01  0.20033934263E+02  0.51100000000E-03 0. -1.
        -11    1    3    3    0    0  0.69194917963E+01  0.57091469991E+01 -0.49556286316E+00  0.89843925220E+01  0.51100000000E-03 0.  1.
        -12    1    3    3    0    0 -0.42841644544E+02 -0.41165023958E+01 -0.59129577006E+01  0.43443240762E+02  0.00000000000E+00 0.  1.
</event>
<event>
 7    1  0.3681059E-013  0.7246158E+02  0.7816164E-02  0.1226708E+00
        -11   -1    0    0    0    0  0.00000000000E+00  0.00000000000E+00  0.45593999997E+02  0.45594000000E+02  0.51100000000E-03 0. -1.
         11   -1    0    0    0    0 -0.00000000000E+00 -0.00000000000E+00 -0.45593999997E+02  0.45594000000E+02  0.51100000000E-03 0.  1.
    9900012    2    1    2    0    0 -0.14040151755E+02 -0.10148499756E+02  0.71106310966E+01  0.72461575270E+02  0.70000006481E+02 0.  0.
        -12    1    1    2    0    0  0.14040151755E+02  0.10148499756E+02 -0.71106310966E+01  0.18726424730E+02  0.00000000000E+00 0.  1.
         11    1    3    3    0    0 -0.65007525097E+01  0.92813485600E+01 -0.89131312040E+01  0.14416904051E+02  0.51100000000E-03 0. -1.
        -11    1    3    3    0    0  0.17416354519E+02  0.13687941231E+01 -0.63617864553E+01  0.18592345985E+02  0.51100000000E-03 0.  1.
        -12    1    3    3    0    0 -0.24955753764E+02 -0.20798642439E+02  0.22385548756E+02  0.39452325234E+02  0.00000000000E+00 0.  1.
</event>
<event>
 7    1  0.3681059E-013  0.7246155E+02  0.7816164E-02  0.1226708E+00
        -11   -1    0    0    0    0  0.00000000000E+00  0.00000000000E+00  0.45593999997E+02  0.45594000000E+02  0.51100000000E-03 0. -1.
         11   -1    0    0    0    0 -0.00000000000E+00 -0.00000000000E+00 -0.45593999997E+02  0.45594000000E+02  0.51100000000E-03 0.  1.
    9900012    2    1    2    0    0 -0.14044129840E+02 -0.10096420392E+01  0.12345975426E+02  0.72461546272E+02  0.69999968706E+02 0.  0.
        -12    1    1    2    0    0  0.14044129840E+02  0.10096420392E+01 -0.12345975426E+02  0.18726453728E+02  0.00000000000E+00 0.  1.
         11    1    3    3    0    0 -0.73945916459E+01  0.11161358661E+02 -0.53169643179E+01  0.14405763520E+02  0.51100000000E-03 0. -1.
        -11    1    3    3    0    0  0.42225944295E+01 -0.24091734979E+02 -0.96822943132E+01  0.26305680403E+02  0.51100000000E-03 0.  1.
         12    1    3    3    0    0 -0.10872132624E+02  0.11920734279E+02  0.27345234057E+02  0.31750102349E+02  0.00000000000E+00 0. -1.
</event>
<event>
 7    1  0.3681059E-013  0.7246156E+02  0.7816164E-02  0.1226708E+00
        -11   -1    0    0    0    0  0.00000000000E+00  0.00000000000E+00  0.45593999997E+02  0.45594000000E+02  0.51100000000E-03 0.  1.
         11   -1    0    0    0    0 -0.00000000000E+00 -0.00000000000E+00 -0.45593999997E+02  0.45594000000E+02  0.51100000000E-03 0. -1.
    9900012    2    1    2    0    0  0.11295781825E+02 -0.70932033903E+01  0.13144247185E+02  0.72461562661E+02  0.69999990056E+02 0.  0.
        -12    1    1    2    0    0 -0.11295781825E+02  0.70932033903E+01 -0.13144247185E+02  0.18726437339E+02  0.00000000000E+00 0.  1.
         11    1    3    3    0    0  0.10817736714E+01 -0.90532336600E+01  0.47826380129E+01  0.10295868133E+02  0.51100000000E-03 0. -1.
        -11    1    3    3    0    0 -0.11844028510E+02 -0.20124703006E+01  0.29192098028E+02  0.31567540855E+02  0.51100000000E-03 0.  1.
         12    1    3    3    0    0  0.22058036664E+02  0.39725005703E+01 -0.20830488856E+02  0.30598153673E+02  0.00000000000E+00 0. -1.
</event>
<event>
 7    1  0.3681059E-013  0.7246162E+02  0.7816164E-02  0.1226708E+00
        -11   -1    0    0    0    0  0.00000000000E+00  0.00000000000E+00  0.45593999997E+02  0.45594000000E+02  0.51100000000E-03 0. -1.
         11   -1    0    0    0    0 -0.00000000000E+00 -0.00000000000E+00 -0.45593999997E+02  0.45594000000E+02  0.51100000000E-03 0.  1.
    9900012    2    1    2    0    0  0.36987586230E+01  0.89749985789E+01  0.16013927963E+02  0.72461620114E+02  0.70000064899E+02 0.  0.
        -12    1    1    2    0    0 -0.36987586230E+01 -0.89749985789E+01 -0.16013927963E+02  0.18726379886E+02  0.00000000000E+00 0.  1.
         11    1    3    3    0    0  0.13904747511E+02  0.29696887498E+02  0.87228990655E+01  0.33931343899E+02  0.51100000000E-03 0. -1.
        -11    1    3    3    0    0 -0.30745895311E+01  0.76807284810E+01  0.35698415135E+01  0.90105748693E+01  0.51100000000E-03 0.  1.
        -12    1    3    3    0    0 -0.71313993571E+01 -0.28402617400E+02  0.37211873839E+01  0.29519701345E+02  0.00000000000E+00 0.  1.
</event>
<event>
 7    1  0.3681059E-013  0.7246172E+02  0.7816164E-02  0.1226708E+00
        -11   -1    0    0    0    0  0.00000000000E+00  0.00000000000E+00  0.45593999997E+02  0.45594000000E+02  0.51100000000E-03 0.  1.
         11   -1    0    0    0    0 -0.00000000000E+00 -0.00000000000E+00 -0.45593999997E+02  0.45594000000E+02  0.51100000000E-03 0. -1.
    9900012    2    1    2    0    0 -0.88522680608E+01  0.13140630287E+02 -0.99817145638E+01  0.72461723280E+02  0.70000199292E+02 0.  0.
        -12    1    1    2    0    0  0.88522680608E+01 -0.13140630287E+02  0.99817145638E+01  0.18726276720E+02  0.00000000000E+00 0.  1.
         11    1    3    3    0    0 -0.14743216242E+01 -0.97521121720E+01 -0.11563066349E+01  0.99304763915E+01  0.51100000000E-03 0. -1.
        -11    1    3    3    0    0 -0.10404401479E+02 -0.12687548855E+02  0.12777455724E+02  0.20796366056E+02  0.51100000000E-03 0.  1.
         12    1    3    3    0    0  0.30264550429E+01  0.35580291314E+02 -0.21602863653E+02  0.41734880833E+02  0.00000000000E+00 0. -1.
</event>
<event>
 7    1  0.3681059E-013  0.7246151E+02  0.7816164E-02  0.1226708E+00
        -11   -1    0    0    0    0  0.00000000000E+00  0.00000000000E+00  0.45593999997E+02  0.45594000000E+02  0.51100000000E-03 0. -1.
         11   -1    0    0    0    0 -0.00000000000E+00 -0.00000000000E+00 -0.45593999997E+02  0.45594000000E+02  0.51100000000E-03 0.  1.
    9900012    2    1    2    0    0  0.13712549597E+02 -0.12601019802E+02 -0.19651441924E+01  0.72461507851E+02  0.69999918656E+02 0.  0.
        -12    1    1    2    0    0 -0.13712549597E+02  0.12601019802E+02  0.19651441924E+01  0.18726492149E+02  0.00000000000E+00 0.  1.
         11    1    3    3    0    0  0.19746513484E+02 -0.16392223443E+02 -0.34293351931E+01  0.25891893023E+02  0.51100000000E-03 0. -1.
        -11    1    3    3    0    0 -0.10052484060E+02 -0.19064574640E+02 -0.56801031188E+01  0.22288427797E+02  0.51100000000E-03 0.  1.
         12    1    3    3    0    0  0.40185201735E+01  0.22855778280E+02  0.71442941195E+01  0.24281187031E+02  0.00000000000E+00 0. -1.
</event>
<event>
 7    1  0.3681059E-013  0.7246164E+02  0.7816164E-02  0.1226708E+00
        -11   -1    0    0    0    0  0.00000000000E+00  0.00000000000E+00  0.45593999997E+02  0.45594000000E+02  0.51100000000E-03 0. -1.
         11   -1    0    0    0    0 -0.00000000000E+00 -0.00000000000E+00 -0.45593999997E+02  0.45594000000E+02  0.51100000000E-03 0.  1.
    9900012    2    1    2    0    0  0.15720001748E+02 -0.49123162615E+01  0.89121929234E+01  0.72461641873E+02  0.70000093244E+02 0.  0.
        -12    1    1    2    0    0 -0.15720001748E+02  0.49123162615E+01 -0.89121929234E+01  0.18726358127E+02  0.00000000000E+00 0.  1.
         11    1    3    3    0    0  0.50663772766E+01  0.17666211602E+02 -0.12527158104E+02  0.22241692865E+02  0.51100000000E-03 0. -1.
        -11    1    3    3    0    0 -0.94614173557E+01 -0.75637484607E+01 -0.55832623599E+01  0.13337973159E+02  0.51100000000E-03 0.  1.
         12    1    3    3    0    0  0.20115041827E+02 -0.15014779402E+02  0.27022613388E+02  0.36881975849E+02  0.00000000000E+00 0. -1.
</event>
<event>
 7    1  0.3681059E-013  0.7246157E+02  0.7816164E-02  0.1226708E+00
        -11   -1    0    0    0    0  0.00000000000E+00  0.00000000000E+00  0.45593999997E+02  0.45594000000E+02  0.51100000000E-03 0. -1.
         11   -1    0    0    0    0 -0.00000000000E+00 -0.00000000000E+00 -0.45593999997E+02  0.45594000000E+02  0.51100000000E-03 0.  1.
    9900012    2    1    2    0    0  0.30178164039E+01  0.16008091307E+02  0.92365079303E+01  0.72461567294E+02  0.69999996092E+02 0.  0.
        -12    1    1    2    0    0 -0.30178164039E+01 -0.16008091307E+02 -0.92365079303E+01  0.18726432706E+02  0.00000000000E+00 0.  1.
         11    1    3    3    0    0  0.56755415800E+01  0.37235728903E+01 -0.84558779258E+00  0.68404521979E+01  0.51100000000E-03 0. -1.
        -11    1    3    3    0    0  0.81865664313E+00  0.34925051892E+02 -0.86974183192E+01  0.36001035180E+02  0.51100000000E-03 0.  1.
         12    1    3    3    0    0 -0.34763818193E+01 -0.22640533475E+02  0.18779514042E+02  0.29620079916E+02  0.00000000000E+00 0. -1.
</event>
<event>
 7    1  0.3681059E-013  0.7246157E+02  0.7816164E-02  0.1226708E+00
        -11   -1    0    0    0    0  0.00000000000E+00  0.00000000000E+00  0.45593999997E+02  0.45594000000E+02  0.51100000000E-03 0.  1.
         11   -1    0    0    0    0 -0.00000000000E+00 -0.00000000000E+00 -0.45593999997E+02  0.45594000000E+02  0.51100000000E-03 0. -1.
    9900012    2    1    2    0    0 -0.16015997807E+02 -0.21077781678E+01 -0.94722928973E+01  0.72461568218E+02  0.69999997295E+02 0.  0.
        -12    1    1    2    0    0  0.16015997807E+02  0.21077781678E+01  0.94722928973E+01  0.18726431782E+02  0.00000000000E+00 0.  1.
         11    1    3    3    0    0  0.32101929166E+01 -0.11672469278E+02  0.80648495313E+01  0.14546259857E+02  0.51100000000E-03 0. -1.
        -11    1    3    3    0    0 -0.96327984007E+01 -0.18534797409E+02  0.39569900911E+01  0.21259992730E+02  0.51100000000E-03 0.  1.
         12    1    3    3    0    0 -0.95933923226E+01  0.28099488519E+02 -0.21494132520E+02  0.36655315632E+02  0.00000000000E+00 0. -1.
</event>
<event>
 7    1  0.3681059E-013  0.7246140E+02  0.7816164E-02  0.1226708E+00
        -11   -1    0    0    0    0  0.00000000000E+00  0.00000000000E+00  0.45593999997E+02  0.45594000000E+02  0.51100000000E-03 0. -1.
         11   -1    0    0    0    0 -0.00000000000E+00 -0.00000000000E+00 -0.45593999997E+02  0.45594000000E+02  0.51100000000E-03 0.  1.
    9900012    2    1    2    0    0 -0.68197493987E+01  0.54743582729E+01  0.16559226559E+02  0.72461399545E+02  0.69999777567E+02 0.  0.
        -12    1    1    2    0    0  0.68197493987E+01 -0.54743582729E+01 -0.16559226559E+02  0.18726600455E+02  0.00000000000E+00 0.  1.
         11    1    3    3    0    0 -0.48021338439E+01 -0.81511184777E+01  0.76634969617E+01  0.12174991082E+02  0.51100000000E-03 0. -1.
        -11    1    3    3    0    0 -0.26399228479E+00 -0.22950652787E+02  0.47026061730E+01  0.23428970536E+02  0.51100000000E-03 0.  1.
         12    1    3    3    0    0 -0.17536232700E+01  0.36576129538E+02  0.41931234243E+01  0.36857437928E+02  0.00000000000E+00 0. -1.
</event>
<event>
 7    1  0.3681059E-013  0.7246160E+02  0.7816164E-02  0.1226708E+00
        -11   -1    0    0    0    0  0.00000000000E+00  0.00000000000E+00  0.45593999997E+02  0.45594000000E+02  0.51100000000E-03 0. -1.
         11   -1    0    0    0    0 -0.00000000000E+00 -0.00000000000E+00 -0.45593999997E+02  0.45594000000E+02  0.51100000000E-03 0.  1.
    9900012    2    1    2    0    0  0.45229946348E+01 -0.84338139774E+00  0.18152386122E+02  0.72461604336E+02  0.70000044346E+02 0.  0.
        -12    1    1    2    0    0 -0.45229946348E+01  0.84338139774E+00 -0.18152386122E+02  0.18726395664E+02  0.00000000000E+00 0.  1.
         11    1    3    3    0    0 -0.71640494344E+01  0.19361305690E+02 -0.72391206663E+00  0.20656907108E+02  0.51100000000E-03 0. -1.
        -11    1    3    3    0    0 -0.15796731051E+00 -0.19371550553E+02 -0.91071686463E+01  0.21406131026E+02  0.51100000000E-03 0.  1.
         12    1    3    3    0    0  0.11845011380E+02 -0.83313653468E+00  0.27983466835E+02  0.30398566202E+02  0.00000000000E+00 0. -1.
</event>
<event>
 7    1  0.3681059E-013  0.7246117E+02  0.7816164E-02  0.1226709E+00
        -11   -1    0    0    0    0  0.00000000000E+00  0.00000000000E+00  0.45593999997E+02  0.45594000000E+02  0.51100000000E-03 0. -1.
         11   -1    0    0    0    0 -0.00000000000E+00 -0.00000000000E+00 -0.45593999997E+02  0.45594000000E+02  0.51100000000E-03 0.  1.
    9900012    2    1    2    0    0 -0.16641051486E+02  0.41162619271E+01 -0.75382979402E+01  0.72461170512E+02  0.69999479208E+02 0.  0.
        -12    1    1    2    0    0  0.16641051486E+02 -0.41162619271E+01  0.75382979402E+01  0.18726829488E+02  0.00000000000E+00 0.  1.
         11    1    3    3    0    0 -0.15331179398E+02 -0.84405014368E+01 -0.17512516766E+02  0.24758339403E+02  0.51100000000E-03 0. -1.
        -11    1    3    3    0    0 -0.26726580893E+01  0.22305460415E+01 -0.17749202783E+02  0.18087361240E+02  0.51100000000E-03 0.  1.
        -12    1    3    3    0    0  0.13627860005E+01  0.10326217322E+02  0.27723421610E+02  0.29615469870E+02  0.00000000000E+00 0.  1.
</event>
<event>
 7    1  0.3681059E-013  0.7246151E+02  0.7816164E-02  0.1226708E+00
        -11   -1    0    0    0    0  0.00000000000E+00  0.00000000000E+00  0.45593999997E+02  0.45594000000E+02  0.51100000000E-03 0.  1.
         11   -1    0    0    0    0 -0.00000000000E+00 -0.00000000000E+00 -0.45593999997E+02  0.45594000000E+02  0.51100000000E-03 0. -1.
    9900012    2    1    2    0    0  0.13083768627E+02 -0.97913369017E+01 -0.91447272619E+01  0.72461512969E+02  0.69999925323E+02 0.  0.
        -12    1    1    2    0    0 -0.13083768627E+02  0.97913369017E+01  0.91447272619E+01  0.18726487031E+02  0.00000000000E+00 0.  1.
         11    1    3    3    0    0 -0.16119642724E+02  0.11529516259E+01 -0.82357787573E+01  0.18138363515E+02  0.51100000000E-03 0. -1.
        -11    1    3    3    0    0  0.14492434357E+01 -0.75051972720E+01  0.18676801951E+02  0.20180466397E+02  0.51100000000E-03 0.  1.
        -12    1    3    3    0    0  0.27754167916E+02 -0.34390912556E+01 -0.19585750456E+02  0.34142683057E+02  0.00000000000E+00 0.  1.
</event>
<event>
 7    1  0.3681059E-013  0.7246160E+02  0.7816164E-02  0.1226708E+00
        -11   -1    0    0    0    0  0.00000000000E+00  0.00000000000E+00  0.45593999997E+02  0.45594000000E+02  0.51100000000E-03 0.  1.
         11   -1    0    0    0    0 -0.00000000000E+00 -0.00000000000E+00 -0.45593999997E+02  0.45594000000E+02  0.51100000000E-03 0. -1.
    9900012    2    1    2    0    0 -0.95686841718E+01  0.98662788604E+00 -0.16066886184E+02  0.72461601975E+02  0.70000041269E+02 0.  0.
        -12    1    1    2    0    0  0.95686841718E+01 -0.98662788604E+00  0.16066886184E+02  0.18726398025E+02  0.00000000000E+00 0.  1.
         11    1    3    3    0    0 -0.26435364651E+02 -0.16577350611E+02 -0.52055993738E+01  0.31634400937E+02  0.51100000000E-03 0. -1.
        -11    1    3    3    0    0 -0.12863746943E+01 -0.75246364157E+01 -0.54769705480E+01  0.93953243524E+01  0.51100000000E-03 0.  1.
        -12    1    3    3    0    0  0.18153055174E+02  0.25088614912E+02 -0.53843162619E+01  0.31431876686E+02  0.00000000000E+00 0.  1.
</event>
<event>
 7    1  0.3681059E-013  0.7246156E+02  0.7816164E-02  0.1226708E+00
        -11   -1    0    0    0    0  0.00000000000E+00  0.00000000000E+00  0.45593999997E+02  0.45594000000E+02  0.51100000000E-03 0.  1.
         11   -1    0    0    0    0 -0.00000000000E+00 -0.00000000000E+00 -0.45593999997E+02  0.45594000000E+02  0.51100000000E-03 0. -1.
    9900012    2    1    2    0    0  0.58010231009E+01  0.82480673977E+01 -0.15779635148E+02  0.72461564936E+02  0.69999993020E+02 0.  0.
        -12    1    1    2    0    0 -0.58010231009E+01 -0.82480673977E+01  0.15779635148E+02  0.18726435064E+02  0.00000000000E+00 0.  1.
         11    1    3    3    0    0  0.18461616975E+01 -0.67732908636E+01 -0.26205979129E+01  0.74935516158E+01  0.51100000000E-03 0.  1.
        -11    1    3    3    0    0 -0.10031874495E+02  0.30773679015E+02  0.97906818194E+01  0.33815902720E+02  0.51100000000E-03 0. -1.
         12    1    3    3    0    0  0.13986735899E+02 -0.15752320753E+02 -0.22949719054E+02  0.31152110601E+02  0.00000000000E+00 0. -1.
</event>
<event>
 7    1  0.3681059E-013  0.7246157E+02  0.7816164E-02  0.1226708E+00
        -11   -1    0    0    0    0  0.00000000000E+00  0.00000000000E+00  0.45593999997E+02  0.45594000000E+02  0.51100000000E-03 0.  1.
         11   -1    0    0    0    0 -0.00000000000E+00 -0.00000000000E+00 -0.45593999997E+02  0.45594000000E+02  0.51100000000E-03 0. -1.
    9900012    2    1    2    0    0 -0.17301334689E+01  0.17984204386E+02  0.49248647103E+01  0.72461567835E+02  0.69999996797E+02 0.  0.
        -12    1    1    2    0    0  0.17301334689E+01 -0.17984204386E+02 -0.49248647103E+01  0.18726432165E+02  0.00000000000E+00 0.  1.
         11    1    3    3    0    0  0.31789782398E+01  0.11706236919E+02 -0.23910279918E+02  0.26811254568E+02  0.51100000000E-03 0. -1.
        -11    1    3    3    0    0  0.71196314834E+01  0.83388961628E+01 -0.31563846296E+01  0.11410044078E+02  0.51100000000E-03 0.  1.
        -12    1    3    3    0    0 -0.12028743192E+02 -0.20609286965E+01  0.31991529258E+02  0.34240269189E+02  0.00000000000E+00 0.  1.
</event>
<event>
 7    1  0.3681059E-013  0.7246165E+02  0.7816164E-02  0.1226708E+00
        -11   -1    0    0    0    0  0.00000000000E+00  0.00000000000E+00  0.45593999997E+02  0.45594000000E+02  0.51100000000E-03 0.  1.
         11   -1    0    0    0    0 -0.00000000000E+00 -0.00000000000E+00 -0.45593999997E+02  0.45594000000E+02  0.51100000000E-03 0. -1.
    9900012    2    1    2    0    0  0.10523432902E+02  0.57814704756E+00 -0.15478993170E+02  0.72461651622E+02  0.70000105944E+02 0.  0.
        -12    1    1    2    0    0 -0.10523432902E+02 -0.57814704756E+00  0.15478993170E+02  0.18726348378E+02  0.00000000000E+00 0.  1.
         11    1    3    3    0    0  0.18655357533E+02  0.18700735179E+02 -0.11719947084E+01  0.26440753257E+02  0.51100000000E-03 0. -1.
        -11    1    3    3    0    0 -0.15330551290E+01 -0.45073182174E+00  0.12853418501E+02  0.12952365986E+02  0.51100000000E-03 0.  1.
         12    1    3    3    0    0 -0.65988695021E+01 -0.17671856310E+02 -0.27160416962E+02  0.33068532379E+02  0.00000000000E+00 0. -1.
</event>
<event>
 7    1  0.3681059E-013  0.7246163E+02  0.7816164E-02  0.1226708E+00
        -11   -1    0    0    0    0  0.00000000000E+00  0.00000000000E+00  0.45593999997E+02  0.45594000000E+02  0.51100000000E-03 0. -1.
         11   -1    0    0    0    0 -0.00000000000E+00 -0.00000000000E+00 -0.45593999997E+02  0.45594000000E+02  0.51100000000E-03 0.  1.
    9900012    2    1    2    0    0 -0.10052599301E+02  0.14366868033E+02  0.65738343593E+01  0.72461629610E+02  0.70000077270E+02 0.  0.
        -12    1    1    2    0    0  0.10052599301E+02 -0.14366868033E+02 -0.65738343593E+01  0.18726370390E+02  0.00000000000E+00 0.  1.
         11    1    3    3    0    0 -0.56245910698E+01 -0.16146339032E+02 -0.13980690877E+02  0.22086194930E+02  0.51100000000E-03 0. -1.
        -11    1    3    3    0    0 -0.14291760078E+02  0.33042190794E+01 -0.35108677375E+00  0.14672952396E+02  0.51100000000E-03 0.  1.
         12    1    3    3    0    0  0.98637518463E+01  0.27208987986E+02  0.20905612010E+02  0.35702482284E+02  0.00000000000E+00 0. -1.
</event>
<event>
 7    1  0.3681059E-013  0.7246154E+02  0.7816164E-02  0.1226708E+00
        -11   -1    0    0    0    0  0.00000000000E+00  0.00000000000E+00  0.45593999997E+02  0.45594000000E+02  0.51100000000E-03 0. -1.
         11   -1    0    0    0    0 -0.00000000000E+00 -0.00000000000E+00 -0.45593999997E+02  0.45594000000E+02  0.51100000000E-03 0.  1.
    9900012    2    1    2    0    0  0.16789718204E+02 -0.68984043705E+01  0.46040909851E+01  0.72461540803E+02  0.69999961583E+02 0.  0.
        -12    1    1    2    0    0 -0.16789718204E+02  0.68984043705E+01 -0.46040909851E+01  0.18726459197E+02  0.00000000000E+00 0.  1.
         11    1    3    3    0    0  0.84689002040E+01 -0.36030001690E+01 -0.10526049056E+02  0.13982188308E+02  0.51100000000E-03 0. -1.
        -11    1    3    3    0    0 -0.22496187301E+02 -0.79003613669E+01  0.48156296283E-02  0.23843115910E+02  0.51100000000E-03 0.  1.
         12    1    3    3    0    0  0.30817005302E+02  0.46049571654E+01  0.15125324412E+02  0.34636236586E+02  0.00000000000E+00 0. -1.
</event>
<event>
 7    1  0.3681059E-013  0.7246160E+02  0.7816164E-02  0.1226708E+00
        -11   -1    0    0    0    0  0.00000000000E+00  0.00000000000E+00  0.45593999997E+02  0.45594000000E+02  0.51100000000E-03 0. -1.
         11   -1    0    0    0    0 -0.00000000000E+00 -0.00000000000E+00 -0.45593999997E+02  0.45594000000E+02  0.51100000000E-03 0.  1.
    9900012    2    1    2    0    0 -0.13865270667E+02  0.67784120403E+01 -0.10605908258E+02  0.72461604446E+02  0.70000044489E+02 0.  0.
        -12    1    1    2    0    0  0.13865270667E+02 -0.67784120403E+01  0.10605908258E+02  0.18726395554E+02  0.00000000000E+00 0.  1.
         11    1    3    3    0    0 -0.79581365302E+01 -0.85136497064E+01 -0.20770064298E+02  0.23816165509E+02  0.51100000000E-03 0. -1.
        -11    1    3    3    0    0  0.17308685013E+02  0.94292017100E+01 -0.49592012368E+01  0.20324716454E+02  0.51100000000E-03 0.  1.
         12    1    3    3    0    0 -0.23215819150E+02  0.58628600368E+01  0.15123357278E+02  0.28320722483E+02  0.00000000000E+00 0. -1.
</event>
<event>
 7    1  0.3681059E-013  0.7246161E+02  0.7816164E-02  0.1226708E+00
        -11   -1    0    0    0    0  0.00000000000E+00  0.00000000000E+00  0.45593999997E+02  0.45594000000E+02  0.51100000000E-03 0.  1.
         11   -1    0    0    0    0 -0.00000000000E+00 -0.00000000000E+00 -0.45593999997E+02  0.45594000000E+02  0.51100000000E-03 0. -1.
    9900012    2    1    2    0    0 -0.84439420641E+01  0.81730058329E+01 -0.14580106999E+02  0.72461609477E+02  0.70000051043E+02 0.  0.
        -12    1    1    2    0    0  0.84439420641E+01 -0.81730058329E+01  0.14580106999E+02  0.18726390523E+02  0.00000000000E+00 0.  1.
         11    1    3    3    0    0 -0.30472295054E+02  0.55275464989E+01 -0.17315646120E+02  0.35481630979E+02  0.51100000000E-03 0. -1.
        -11    1    3    3    0    0  0.70310233839E+01 -0.11625465017E+02 -0.55569245333E+01  0.14678764840E+02  0.51100000000E-03 0.  1.
        -12    1    3    3    0    0  0.14997329605E+02  0.14270924351E+02  0.82924636550E+01  0.22301213658E+02  0.00000000000E+00 0.  1.
</event>
<event>
 7    1  0.3681059E-013  0.7246157E+02  0.7816164E-02  0.1226708E+00
        -11   -1    0    0    0    0  0.00000000000E+00  0.00000000000E+00  0.45593999997E+02  0.45594000000E+02  0.51100000000E-03 0.  1.
         11   -1    0    0    0    0 -0.00000000000E+00 -0.00000000000E+00 -0.45593999997E+02  0.45594000000E+02  0.51100000000E-03 0. -1.
    9900012    2    1    2    0    0  0.16971955688E+02 -0.43732759097E+01  0.65959272308E+01  0.72461572736E+02  0.70000003180E+02 0.  0.
        -12    1    1    2    0    0 -0.16971955688E+02  0.43732759097E+01 -0.65959272308E+01  0.18726427264E+02  0.00000000000E+00 0.  1.
         11    1    3    3    0    0  0.16686983443E+02 -0.98333250367E+01 -0.12214915841E+01  0.19407259973E+02  0.51100000000E-03 0. -1.
        -11    1    3    3    0    0  0.16786498370E+02 -0.78359492057E+01  0.21073212745E+02  0.28058312906E+02  0.51100000000E-03 0.  1.
        -12    1    3    3    0    0 -0.16501526125E+02  0.13295998333E+02 -0.13255793930E+02  0.24995999857E+02  0.00000000000E+00 0.  1.
</event>
<event>
 7    1  0.3681059E-013  0.7246159E+02  0.7816164E-02  0.1226708E+00
        -11   -1    0    0    0    0  0.00000000000E+00  0.00000000000E+00  0.45593999997E+02  0.45594000000E+02  0.51100000000E-03 0. -1.
         11   -1    0    0    0    0 -0.00000000000E+00 -0.00000000000E+00 -0.45593999997E+02  0.45594000000E+02  0.51100000000E-03 0.  1.
    9900012    2    1    2    0    0  0.98688092941E+01 -0.91710541356E+01  0.13006799637E+02  0.72461589035E+02  0.70000024413E+02 0.  0.
        -12    1    1    2    0    0 -0.98688092941E+01  0.91710541356E+01 -0.13006799637E+02  0.18726410965E+02  0.00000000000E+00 0.  1.
         11    1    3    3    0    0  0.44021716226E+01 -0.26994548753E+02 -0.33826630489E+01  0.27559520804E+02  0.51100000000E-03 0. -1.
        -11    1    3    3    0    0  0.10081282813E+02  0.21072085446E+02 -0.40410637638E+01  0.23706438890E+02  0.51100000000E-03 0.  1.
         12    1    3    3    0    0 -0.46146451416E+01 -0.32485908287E+01  0.20430526450E+02  0.21195629341E+02  0.00000000000E+00 0. -1.
</event>
<event>
 7    1  0.3681059E-013  0.7246163E+02  0.7816164E-02  0.1226708E+00
        -11   -1    0    0    0    0  0.00000000000E+00  0.00000000000E+00  0.45593999997E+02  0.45594000000E+02  0.51100000000E-03 0.  1.
         11   -1    0    0    0    0 -0.00000000000E+00 -0.00000000000E+00 -0.45593999997E+02  0.45594000000E+02  0.51100000000E-03 0. -1.
    9900012    2    1    2    0    0 -0.65031556912E+01  0.11800113988E+02 -0.13005509557E+02  0.72461628143E+02  0.70000075359E+02 0.  0.
        -12    1    1    2    0    0  0.65031556912E+01 -0.11800113988E+02  0.13005509557E+02  0.18726371857E+02  0.00000000000E+00 0.  1.
         11    1    3    3    0    0  0.13816838502E+02 -0.13183477113E+02 -0.11914434514E+01  0.19134488044E+02  0.51100000000E-03 0. -1.
        -11    1    3    3    0    0 -0.21372503051E+02  0.18184369935E+02  0.10511269834E+02  0.29965680209E+02  0.51100000000E-03 0.  1.
         12    1    3    3    0    0  0.10525088578E+01  0.67992211658E+01 -0.22325335940E+02  0.23361459890E+02  0.00000000000E+00 0. -1.
</event>
<event>
 7    1  0.3681059E-013  0.7246161E+02  0.7816164E-02  0.1226708E+00
        -11   -1    0    0    0    0  0.00000000000E+00  0.00000000000E+00  0.45593999997E+02  0.45594000000E+02  0.51100000000E-03 0.  1.
         11   -1    0    0    0    0 -0.00000000000E+00 -0.00000000000E+00 -0.45593999997E+02  0.45594000000E+02  0.51100000000E-03 0. -1.
    9900012    2    1    2    0    0  0.18446187989E+02  0.28895757004E+01 -0.14373609227E+01  0.72461614725E+02  0.70000057879E+02 0.  0.
        -12    1    1    2    0    0 -0.18446187989E+02 -0.28895757004E+01  0.14373609227E+01  0.18726385275E+02  0.00000000000E+00 0.  1.
         11    1    3    3    0    0 -0.13266949126E+01 -0.16422931732E+02  0.14837301048E+01  0.16543103136E+02  0.51100000000E-03 0. -1.
        -11    1    3    3    0    0  0.20124885758E+02 -0.12251008410E+02 -0.56711875728E+01  0.24233460392E+02  0.51100000000E-03 0.  1.
         12    1    3    3    0    0 -0.35200285641E+00  0.31563515843E+02  0.27500965453E+01  0.31685051197E+02  0.00000000000E+00 0. -1.
</event>
<event>
 7    1  0.3681059E-013  0.7246151E+02  0.7816164E-02  0.1226708E+00
        -11   -1    0    0    0    0  0.00000000000E+00  0.00000000000E+00  0.45593999997E+02  0.45594000000E+02  0.51100000000E-03 0.  1.
         11   -1    0    0    0    0 -0.00000000000E+00 -0.00000000000E+00 -0.45593999997E+02  0.45594000000E+02  0.51100000000E-03 0. -1.
    9900012    2    1    2    0    0 -0.67606565333E+01 -0.12511523882E+02 -0.12183453527E+02  0.72461514840E+02  0.69999927760E+02 0.  0.
        -12    1    1    2    0    0  0.67606565333E+01  0.12511523882E+02  0.12183453527E+02  0.18726485160E+02  0.00000000000E+00 0.  1.
         11    1    3    3    0    0 -0.43592960870E+01 -0.11855768332E+02 -0.11097837123E+02  0.16814419234E+02  0.51100000000E-03 0. -1.
        -11    1    3    3    0    0 -0.76407511151E+01  0.80632729038E+01 -0.26250458231E+02  0.28504105057E+02  0.51100000000E-03 0.  1.
        -12    1    3    3    0    0  0.52393906688E+01 -0.87190284538E+01  0.25164841827E+02  0.27142990549E+02  0.00000000000E+00 0.  1.
</event>
<event>
 7    1  0.3681059E-013  0.7246155E+02  0.7816164E-02  0.1226708E+00
        -11   -1    0    0    0    0  0.00000000000E+00  0.00000000000E+00  0.45593999997E+02  0.45594000000E+02  0.51100000000E-03 0.  1.
         11   -1    0    0    0    0 -0.00000000000E+00 -0.00000000000E+00 -0.45593999997E+02  0.45594000000E+02  0.51100000000E-03 0. -1.
    9900012    2    1    2    0    0  0.81599502486E+01  0.14332664603E+02 -0.88696069190E+01  0.72461548398E+02  0.69999971476E+02 0.  0.
        -12    1    1    2    0    0 -0.81599502486E+01 -0.14332664603E+02  0.88696069190E+01  0.18726451602E+02  0.00000000000E+00 0.  1.
         11    1    3    3    0    0 -0.12325910415E+02 -0.11591000496E+02 -0.92238204036E+00  0.16944915135E+02  0.51100000000E-03 0.  1.
        -11    1    3    3    0    0  0.39222805460E+00  0.83393488445E+01 -0.23276116886E+02  0.24728044798E+02  0.51100000000E-03 0. -1.
         12    1    3    3    0    0  0.20093632609E+02  0.17584316254E+02  0.15328892007E+02  0.30788588466E+02  0.00000000000E+00 0. -1.
</event>
<event>
 7    1  0.3681059E-013  0.7246155E+02  0.7816164E-02  0.1226708E+00
        -11   -1    0    0    0    0  0.00000000000E+00  0.00000000000E+00  0.45593999997E+02  0.45594000000E+02  0.51100000000E-03 0. -1.
         11   -1    0    0    0    0 -0.00000000000E+00 -0.00000000000E+00 -0.45593999997E+02  0.45594000000E+02  0.51100000000E-03 0.  1.
    9900012    2    1    2    0    0 -0.17951110193E+02 -0.45007615824E+01  0.28601772022E+01  0.72461552776E+02  0.69999977180E+02 0.  0.
        -12    1    1    2    0    0  0.17951110193E+02  0.45007615824E+01 -0.28601772022E+01  0.18726447224E+02  0.00000000000E+00 0.  1.
         11    1    3    3    0    0 -0.23236424528E+01 -0.14050870078E+02  0.12180098557E+02  0.18739825648E+02  0.51100000000E-03 0. -1.
        -11    1    3    3    0    0 -0.27061341136E+02 -0.10872936111E+02 -0.21536556300E+01  0.29243377995E+02  0.51100000000E-03 0.  1.
         12    1    3    3    0    0  0.11433873395E+02  0.20423044607E+02 -0.71662657248E+01  0.24478349133E+02  0.00000000000E+00 0. -1.
</event>
<event>
 7    1  0.3681059E-013  0.7246157E+02  0.7816164E-02  0.1226708E+00
        -11   -1    0    0    0    0  0.00000000000E+00  0.00000000000E+00  0.45593999997E+02  0.45594000000E+02  0.51100000000E-03 0.  1.
         11   -1    0    0    0    0 -0.00000000000E+00 -0.00000000000E+00 -0.45593999997E+02  0.45594000000E+02  0.51100000000E-03 0. -1.
    9900012    2    1    2    0    0 -0.24519513101E+01 -0.12193833051E+02  0.13999204228E+02  0.72461565510E+02  0.69999993767E+02 0.  0.
        -12    1    1    2    0    0  0.24519513101E+01  0.12193833051E+02 -0.13999204228E+02  0.18726434490E+02  0.00000000000E+00 0.  1.
         11    1    3    3    0    0  0.21981451580E+02 -0.19803934823E+02 -0.63248399221E+01  0.30255307771E+02  0.51100000000E-03 0. -1.
        -11    1    3    3    0    0 -0.58572637483E+01  0.14578874502E+02  0.14863860163E+02  0.21628348517E+02  0.51100000000E-03 0.  1.
        -12    1    3    3    0    0 -0.18576139141E+02 -0.69687727307E+01  0.54601839869E+01  0.20577909222E+02  0.00000000000E+00 0.  1.
</event>
<event>
 7    1  0.3681059E-013  0.7246166E+02  0.7816164E-02  0.1226708E+00
        -11   -1    0    0    0    0  0.00000000000E+00  0.00000000000E+00  0.45593999997E+02  0.45594000000E+02  0.51100000000E-03 0.  1.
         11   -1    0    0    0    0 -0.00000000000E+00 -0.00000000000E+00 -0.45593999997E+02  0.45594000000E+02  0.51100000000E-03 0. -1.
    9900012    2    1    2    0    0 -0.45422090205E+01  0.12941038402E+02  0.12750433395E+02  0.72461663212E+02  0.70000121043E+02 0.  0.
        -12    1    1    2    0    0  0.45422090205E+01 -0.12941038402E+02 -0.12750433395E+02  0.18726336788E+02  0.00000000000E+00 0.  1.
         11    1    3    3    0    0 -0.32151712600E+02  0.10149753208E+02  0.91223815134E+00  0.33728063864E+02  0.51100000000E-03 0. -1.
        -11    1    3    3    0    0 -0.21493755351E+01 -0.27126057507E+01 -0.33987612195E+01  0.48507342989E+01  0.51100000000E-03 0.  1.
        -12    1    3    3    0    0  0.29758879115E+02  0.55038909450E+01  0.15236956463E+02  0.33882865050E+02  0.00000000000E+00 0.  1.
</event>
<event>
 7    1  0.3681059E-013  0.7246159E+02  0.7816164E-02  0.1226708E+00
        -11   -1    0    0    0    0  0.00000000000E+00  0.00000000000E+00  0.45593999997E+02  0.45594000000E+02  0.51100000000E-03 0. -1.
         11   -1    0    0    0    0 -0.00000000000E+00 -0.00000000000E+00 -0.45593999997E+02  0.45594000000E+02  0.51100000000E-03 0.  1.
    9900012    2    1    2    0    0 -0.41701138560E+00  0.17967636379E+02  0.52600835563E+01  0.72461592588E+02  0.70000029041E+02 0.  0.
        -12    1    1    2    0    0  0.41701138560E+00 -0.17967636379E+02 -0.52600835563E+01  0.18726407412E+02  0.00000000000E+00 0.  1.
         11    1    3    3    0    0  0.11446715892E+02 -0.48483997187E+01  0.19062252947E+01  0.12576485188E+02  0.51100000000E-03 0. -1.
        -11    1    3    3    0    0  0.18913341706E+02 -0.34087217388E+01  0.29864867129E+01  0.19448726990E+02  0.51100000000E-03 0.  1.
         12    1    3    3    0    0 -0.30777068983E+02  0.26224757837E+02  0.36737154872E+00  0.40436380410E+02  0.00000000000E+00 0. -1.
</event>
<event>
 7    1  0.3681059E-013  0.7246146E+02  0.7816164E-02  0.1226708E+00
        -11   -1    0    0    0    0  0.00000000000E+00  0.00000000000E+00  0.45593999997E+02  0.45594000000E+02  0.51100000000E-03 0.  1.
         11   -1    0    0    0    0 -0.00000000000E+00 -0.00000000000E+00 -0.45593999997E+02  0.45594000000E+02  0.51100000000E-03 0. -1.
    9900012    2    1    2    0    0 -0.83257284234E+01  0.91862170180E+01 -0.14034924203E+02  0.72461456425E+02  0.69999851664E+02 0.  0.
        -12    1    1    2    0    0  0.83257284234E+01 -0.91862170180E+01  0.14034924203E+02  0.18726543575E+02  0.00000000000E+00 0.  1.
         11    1    3    3    0    0 -0.31567304007E+02 -0.69719879797E+00 -0.25575601977E+02  0.40633633669E+02  0.51100000000E-03 0.  1.
        -11    1    3    3    0    0  0.12784769244E+02  0.17392844512E+01 -0.17939502124E+01  0.13026653164E+02  0.51100000000E-03 0. -1.
        -12    1    3    3    0    0  0.10456806340E+02  0.81441313647E+01  0.13334627986E+02  0.18801169592E+02  0.00000000000E+00 0.  1.
</event>
<event>
 7    1  0.3681059E-013  0.7246162E+02  0.7816164E-02  0.1226708E+00
        -11   -1    0    0    0    0  0.00000000000E+00  0.00000000000E+00  0.45593999997E+02  0.45594000000E+02  0.51100000000E-03 0.  1.
         11   -1    0    0    0    0 -0.00000000000E+00 -0.00000000000E+00 -0.45593999997E+02  0.45594000000E+02  0.51100000000E-03 0. -1.
    9900012    2    1    2    0    0  0.12047311557E+02  0.14245101182E+02 -0.16176025792E+01  0.72461621238E+02  0.70000066364E+02 0.  0.
        -12    1    1    2    0    0 -0.12047311557E+02 -0.14245101182E+02  0.16176025792E+01  0.18726378762E+02  0.00000000000E+00 0.  1.
         11    1    3    3    0    0 -0.94449461074E+01  0.76946357215E+01  0.97436737946E+01  0.15599795035E+02  0.51100000000E-03 0. -1.
        -11    1    3    3    0    0  0.33118012233E+02  0.14556302240E+02  0.35249910696E+01  0.36347135120E+02  0.51100000000E-03 0.  1.
         12    1    3    3    0    0 -0.11625754569E+02 -0.80058367793E+01 -0.14886267443E+02  0.20514691083E+02  0.00000000000E+00 0. -1.
</event>
<event>
 7    1  0.3681059E-013  0.7246161E+02  0.7816164E-02  0.1226708E+00
        -11   -1    0    0    0    0  0.00000000000E+00  0.00000000000E+00  0.45593999997E+02  0.45594000000E+02  0.51100000000E-03 0.  1.
         11   -1    0    0    0    0 -0.00000000000E+00 -0.00000000000E+00 -0.45593999997E+02  0.45594000000E+02  0.51100000000E-03 0. -1.
    9900012    2    1    2    0    0  0.12562599920E+02 -0.92878147696E+01 -0.10324501483E+02  0.72461608174E+02  0.70000049346E+02 0.  0.
        -12    1    1    2    0    0 -0.12562599920E+02  0.92878147696E+01  0.10324501483E+02  0.18726391826E+02  0.00000000000E+00 0.  1.
         11    1    3    3    0    0 -0.10696677773E+00  0.83437810606E+00 -0.24292523426E+00  0.87558074783E+00  0.51100000000E-03 0. -1.
        -11    1    3    3    0    0 -0.20394121913E+02  0.18200291385E+02 -0.41686097873E+01  0.27650463340E+02  0.51100000000E-03 0.  1.
         12    1    3    3    0    0  0.33063688610E+02 -0.28322484261E+02 -0.59129664611E+01  0.43935564086E+02  0.00000000000E+00 0. -1.
</event>
<event>
 7    1  0.3681059E-013  0.7246154E+02  0.7816164E-02  0.1226708E+00
        -11   -1    0    0    0    0  0.00000000000E+00  0.00000000000E+00  0.45593999997E+02  0.45594000000E+02  0.51100000000E-03 0. -1.
         11   -1    0    0    0    0 -0.00000000000E+00 -0.00000000000E+00 -0.45593999997E+02  0.45594000000E+02  0.51100000000E-03 0.  1.
    9900012    2    1    2    0    0  0.35492736383E+01 -0.10051484637E+02  0.15396442202E+02  0.72461544936E+02  0.69999966967E+02 0.  0.
        -12    1    1    2    0    0 -0.35492736383E+01  0.10051484637E+02 -0.15396442202E+02  0.18726455064E+02  0.00000000000E+00 0.  1.
         11    1    3    3    0    0  0.15644274263E+02  0.22542264194E+01  0.35041487276E+01  0.16189623607E+02  0.51100000000E-03 0. -1.
        -11    1    3    3    0    0  0.64471160014E+01 -0.24389183334E+02 -0.80505558423E+01  0.26480351547E+02  0.51100000000E-03 0.  1.
         12    1    3    3    0    0 -0.18542116626E+02  0.12083472277E+02  0.19942849317E+02  0.29791569783E+02  0.00000000000E+00 0. -1.
</event>
<event>
 7    1  0.3681059E-013  0.7246167E+02  0.7816164E-02  0.1226708E+00
        -11   -1    0    0    0    0  0.00000000000E+00  0.00000000000E+00  0.45593999997E+02  0.45594000000E+02  0.51100000000E-03 0. -1.
         11   -1    0    0    0    0 -0.00000000000E+00 -0.00000000000E+00 -0.45593999997E+02  0.45594000000E+02  0.51100000000E-03 0.  1.
    9900012    2    1    2    0    0 -0.13813614378E+02  0.10919256285E+02  0.63741048280E+01  0.72461673281E+02  0.70000134160E+02 0.  0.
        -12    1    1    2    0    0  0.13813614378E+02 -0.10919256285E+02 -0.63741048280E+01  0.18726326719E+02  0.00000000000E+00 0.  1.
         11    1    3    3    0    0  0.10293193285E+02 -0.13998582706E+02  0.20840941911E+02  0.27134019344E+02  0.51100000000E-03 0. -1.
        -11    1    3    3    0    0 -0.30665287015E+01  0.59380352785E+01  0.70754799924E+01  0.97327426057E+01  0.51100000000E-03 0.  1.
        -12    1    3    3    0    0 -0.21040278962E+02  0.18979803713E+02 -0.21542317075E+02  0.35594911332E+02  0.00000000000E+00 0.  1.
</event>
<event>
 7    1  0.3681059E-013  0.7246157E+02  0.7816164E-02  0.1226708E+00
        -11   -1    0    0    0    0  0.00000000000E+00  0.00000000000E+00  0.45593999997E+02  0.45594000000E+02  0.51100000000E-03 0.  1.
         11   -1    0    0    0    0 -0.00000000000E+00 -0.00000000000E+00 -0.45593999997E+02  0.45594000000E+02  0.51100000000E-03 0. -1.
    9900012    2    1    2    0    0  0.12704285517E+02  0.13587572255E+02  0.21583106458E+01  0.72461566941E+02  0.69999995631E+02 0.  0.
        -12    1    1    2    0    0 -0.12704285517E+02 -0.13587572255E+02 -0.21583106458E+01  0.18726433059E+02  0.00000000000E+00 0.  1.
         11    1    3    3    0    0  0.15763674370E+02  0.20402910151E+02  0.31911099274E+01  0.25979902908E+02  0.51100000000E-03 0. -1.
        -11    1    3    3    0    0  0.15027690373E+02  0.91615589812E+01  0.96701002660E+01  0.20081744952E+02  0.51100000000E-03 0.  1.
         12    1    3    3    0    0 -0.18087079225E+02 -0.15976896878E+02 -0.10702899548E+02  0.26399919081E+02  0.00000000000E+00 0. -1.
</event>
<event>
 7    1  0.3784809E-013  0.7246157E+02  0.7816164E-02  0.1226708E+00
        -11   -1    0    0    0    0  0.00000000000E+00  0.00000000000E+00  0.45593999997E+02  0.45594000000E+02  0.51100000000E-03 0. -1.
         11   -1    0    0    0    0 -0.00000000000E+00 -0.00000000000E+00 -0.45593999997E+02  0.45594000000E+02  0.51100000000E-03 0.  1.
    9900012    2    1    2    0    0  0.89412300031E+01 -0.84623206220E+01  0.14111080623E+02  0.72461573202E+02  0.70000003788E+02 0.  0.
        -12    1    1    2    0    0 -0.89412300031E+01  0.84623206220E+01 -0.14111080623E+02  0.18726426798E+02  0.00000000000E+00 0.  1.
         11    1    3    3    0    0  0.15365822102E+02 -0.11157365768E+02  0.27362882648E+02  0.33306495565E+02  0.51100000000E-03 0. -1.
        -11    1    3    3    0    0  0.11253710877E+02 -0.56717906139E+01  0.38470409819E+01  0.13176302283E+02  0.51100000000E-03 0.  1.
        -12    1    3    3    0    0 -0.17678302976E+02  0.83668357596E+01 -0.17098843007E+02  0.25978775354E+02  0.00000000000E+00 0.  1.
</event>
<event>
 7    1  0.3681059E-013  0.7246178E+02  0.7816164E-02  0.1226707E+00
        -11   -1    0    0    0    0  0.00000000000E+00  0.00000000000E+00  0.45593999997E+02  0.45594000000E+02  0.51100000000E-03 0. -1.
         11   -1    0    0    0    0 -0.00000000000E+00 -0.00000000000E+00 -0.45593999997E+02  0.45594000000E+02  0.51100000000E-03 0.  1.
    9900012    2    1    2    0    0 -0.14063620498E+02 -0.56578667156E+01 -0.10994290801E+02  0.72461780213E+02  0.70000273457E+02 0.  0.
        -12    1    1    2    0    0  0.14063620498E+02  0.56578667156E+01  0.10994290801E+02  0.18726219787E+02  0.00000000000E+00 0.  1.
         11    1    3    3    0    0  0.36062294582E+01  0.20953491823E+01  0.68558768017E+01  0.80248629946E+01  0.51100000000E-03 0. -1.
        -11    1    3    3    0    0 -0.49907490224E+01 -0.21711550180E+02  0.14790565493E+02  0.26740602366E+02  0.51100000000E-03 0.  1.
        -12    1    3    3    0    0 -0.12679100934E+02  0.13958334282E+02 -0.32640733096E+02  0.37696314852E+02  0.00000000000E+00 0.  1.
</event>
<event>
 7    1  0.3681059E-013  0.7246154E+02  0.7816164E-02  0.1226708E+00
        -11   -1    0    0    0    0  0.00000000000E+00  0.00000000000E+00  0.45593999997E+02  0.45594000000E+02  0.51100000000E-03 0. -1.
         11   -1    0    0    0    0 -0.00000000000E+00 -0.00000000000E+00 -0.45593999997E+02  0.45594000000E+02  0.51100000000E-03 0.  1.
    9900012    2    1    2    0    0 -0.39563348441E+01  0.12873802701E+02  0.13011256289E+02  0.72461543538E+02  0.69999965146E+02 0.  0.
        -12    1    1    2    0    0  0.39563348441E+01 -0.12873802701E+02 -0.13011256289E+02  0.18726456462E+02  0.00000000000E+00 0.  1.
         11    1    3    3    0    0 -0.13020220162E+02  0.15207709062E+02  0.11187531146E+02  0.22933848377E+02  0.51100000000E-03 0. -1.
        -11    1    3    3    0    0  0.22991428976E+02  0.85134458669E+01  0.13858099933E+02  0.28162590451E+02  0.51100000000E-03 0.  1.
         12    1    3    3    0    0 -0.13927543658E+02 -0.10847352228E+02 -0.12034374790E+02  0.21365104710E+02  0.00000000000E+00 0. -1.
</event>
<event>
 7    1  0.3681059E-013  0.7246161E+02  0.7816164E-02  0.1226708E+00
        -11   -1    0    0    0    0  0.00000000000E+00  0.00000000000E+00  0.45593999997E+02  0.45594000000E+02  0.51100000000E-03 0.  1.
         11   -1    0    0    0    0 -0.00000000000E+00 -0.00000000000E+00 -0.45593999997E+02  0.45594000000E+02  0.51100000000E-03 0. -1.
    9900012    2    1    2    0    0 -0.48009568413E+01  0.43354014464E+01 -0.17573638487E+02  0.72461610546E+02  0.70000052436E+02 0.  0.
        -12    1    1    2    0    0  0.48009568413E+01 -0.43354014464E+01  0.17573638487E+02  0.18726389454E+02  0.00000000000E+00 0.  1.
         11    1    3    3    0    0  0.41685483998E+01  0.38387971041E+00 -0.72157789313E+01  0.83421595070E+01  0.51100000000E-03 0. -1.
        -11    1    3    3    0    0  0.11883834000E+02  0.15617664538E+02  0.18281711975E+02  0.26820849151E+02  0.51100000000E-03 0.  1.
         12    1    3    3    0    0 -0.20853339242E+02 -0.11666142802E+02 -0.28639571531E+02  0.37298601889E+02  0.00000000000E+00 0. -1.
</event>
<event>
 7    1  0.3681059E-013  0.7246174E+02  0.7816164E-02  0.1226708E+00
        -11   -1    0    0    0    0  0.00000000000E+00  0.00000000000E+00  0.45593999997E+02  0.45594000000E+02  0.51100000000E-03 0.  1.
         11   -1    0    0    0    0 -0.00000000000E+00 -0.00000000000E+00 -0.45593999997E+02  0.45594000000E+02  0.51100000000E-03 0. -1.
    9900012    2    1    2    0    0  0.14493795752E+02 -0.11506367545E+02  0.28646181068E+01  0.72461744467E+02  0.70000226892E+02 0.  0.
        -12    1    1    2    0    0 -0.14493795752E+02  0.11506367545E+02 -0.28646181068E+01  0.18726255533E+02  0.00000000000E+00 0.  1.
         11    1    3    3    0    0  0.27142153245E+02  0.71510665029E+01  0.19209770402E+01  0.28134043221E+02  0.51100000000E-03 0. -1.
        -11    1    3    3    0    0  0.11819523188E+02  0.20288793648E+01  0.24964723153E+01  0.12249483832E+02  0.51100000000E-03 0.  1.
         12    1    3    3    0    0 -0.24467880680E+02 -0.20686313413E+02 -0.15528312488E+01  0.32078217414E+02  0.00000000000E+00 0. -1.
</event>
<event>
 7    1  0.3681059E-013  0.7246154E+02  0.7816164E-02  0.1226708E+00
        -11   -1    0    0    0    0  0.00000000000E+00  0.00000000000E+00  0.45593999997E+02  0.45594000000E+02  0.51100000000E-03 0. -1.
         11   -1    0    0    0    0 -0.00000000000E+00 -0.00000000000E+00 -0.45593999997E+02  0.45594000000E+02  0.51100000000E-03 0.  1.
    9900012    2    1    2    0    0  0.21349244072E+01  0.18325640903E+02  0.32082931565E+01  0.72461543803E+02  0.69999965490E+02 0.  0.
        -12    1    1    2    0    0 -0.21349244072E+01 -0.18325640903E+02 -0.32082931565E+01  0.18726456197E+02  0.00000000000E+00 0.  1.
         11    1    3    3    0    0  0.21396424892E+02  0.16471607597E+02 -0.32587456807E+01  0.27198166825E+02  0.51100000000E-03 0. -1.
        -11    1    3    3    0    0 -0.71727681093E+01 -0.91501685754E+01 -0.14558094715E+02  0.18630950306E+02  0.51100000000E-03 0.  1.
        -12    1    3    3    0    0 -0.12088732376E+02  0.11004201882E+02  0.21025133552E+02  0.26632426671E+02  0.00000000000E+00 0.  1.
</event>
<event>
 7    1  0.3681059E-013  0.7246137E+02  0.7816164E-02  0.1226709E+00
        -11   -1    0    0    0    0  0.00000000000E+00  0.00000000000E+00  0.45593999997E+02  0.45594000000E+02  0.51100000000E-03 0. -1.
         11   -1    0    0    0    0 -0.00000000000E+00 -0.00000000000E+00 -0.45593999997E+02  0.45594000000E+02  0.51100000000E-03 0.  1.
    9900012    2    1    2    0    0  0.28370538907E+00 -0.10234985852E+02  0.15679650143E+02  0.72461365151E+02  0.69999732762E+02 0.  0.
        -12    1    1    2    0    0 -0.28370538907E+00  0.10234985852E+02 -0.15679650143E+02  0.18726634849E+02  0.00000000000E+00 0.  1.
         11    1    3    3    0    0  0.53055306649E+01 -0.19216705963E+00  0.15611246537E+01  0.55337775759E+01  0.51100000000E-03 0. -1.
        -11    1    3    3    0    0  0.14830257619E+02  0.11618218564E+01 -0.20590642614E+02  0.25401986824E+02  0.51100000000E-03 0.  1.
         12    1    3    3    0    0 -0.19852082895E+02 -0.11204640649E+02  0.34709168104E+02  0.41525600752E+02  0.00000000000E+00 0. -1.
</event>
<event>
 7    1  0.3681059E-013  0.7246156E+02  0.7816164E-02  0.1226708E+00
        -11   -1    0    0    0    0  0.00000000000E+00  0.00000000000E+00  0.45593999997E+02  0.45594000000E+02  0.51100000000E-03 0. -1.
         11   -1    0    0    0    0 -0.00000000000E+00 -0.00000000000E+00 -0.45593999997E+02  0.45594000000E+02  0.51100000000E-03 0.  1.
    9900012    2    1    2    0    0 -0.14690776233E+02  0.64862045684E+01  0.96327515997E+01  0.72461557214E+02  0.69999982961E+02 0.  0.
        -12    1    1    2    0    0  0.14690776233E+02 -0.64862045684E+01 -0.96327515997E+01  0.18726442786E+02  0.00000000000E+00 0.  1.
         11    1    3    3    0    0 -0.21771178255E+01  0.54725940060E+01 -0.87414407222E+01  0.10540489236E+02  0.51100000000E-03 0. -1.
        -11    1    3    3    0    0 -0.31164225857E+02 -0.32927052513E+01 -0.49735683192E+01  0.31729911176E+02  0.51100000000E-03 0.  1.
         12    1    3    3    0    0  0.18650567450E+02  0.43063158137E+01  0.23347760641E+02  0.30191156802E+02  0.00000000000E+00 0. -1.
</event>
<event>
 7    1  0.3681059E-013  0.7246160E+02  0.7816164E-02  0.1226708E+00
        -11   -1    0    0    0    0  0.00000000000E+00  0.00000000000E+00  0.45593999997E+02  0.45594000000E+02  0.51100000000E-03 0. -1.
         11   -1    0    0    0    0 -0.00000000000E+00 -0.00000000000E+00 -0.45593999997E+02  0.45594000000E+02  0.51100000000E-03 0.  1.
    9900012    2    1    2    0    0 -0.23242595588E+01 -0.13618191979E+02  0.12642020904E+02  0.72461600779E+02  0.70000039712E+02 0.  0.
        -12    1    1    2    0    0  0.23242595588E+01  0.13618191979E+02 -0.12642020904E+02  0.18726399221E+02  0.00000000000E+00 0.  1.
         11    1    3    3    0    0  0.62519828820E+01 -0.15556044367E+02 -0.50614946959E+01  0.17512753499E+02  0.51100000000E-03 0. -1.
        -11    1    3    3    0    0  0.33132653241E+01 -0.58579632986E+01 -0.16547776609E+02  0.17863996531E+02  0.51100000000E-03 0.  1.
         12    1    3    3    0    0 -0.11889507765E+02  0.77958156869E+01  0.34251292208E+02  0.37084850749E+02  0.00000000000E+00 0. -1.
</event>
<event>
 7    1  0.3681059E-013  0.7246159E+02  0.7816164E-02  0.1226708E+00
        -11   -1    0    0    0    0  0.00000000000E+00  0.00000000000E+00  0.45593999997E+02  0.45594000000E+02  0.51100000000E-03 0.  1.
         11   -1    0    0    0    0 -0.00000000000E+00 -0.00000000000E+00 -0.45593999997E+02  0.45594000000E+02  0.51100000000E-03 0. -1.
    9900012    2    1    2    0    0 -0.20200954541E+01 -0.17108625714E+02 -0.73411666076E+01  0.72461585858E+02  0.70000020274E+02 0.  0.
        -12    1    1    2    0    0  0.20200954541E+01  0.17108625714E+02  0.73411666076E+01  0.18726414142E+02  0.00000000000E+00 0.  1.
         11    1    3    3    0    0 -0.78174873121E+01  0.45288485853E+01  0.46637996503E+01  0.10167330270E+02  0.51100000000E-03 0. -1.
        -11    1    3    3    0    0  0.44233193577E+01  0.15868622550E+02  0.95220313050E+01  0.19027559386E+02  0.51100000000E-03 0.  1.
         12    1    3    3    0    0  0.13740725003E+01 -0.37506096849E+02 -0.21526997563E+02  0.43266696201E+02  0.00000000000E+00 0. -1.
</event>
<event>
 7    1  0.3681059E-013  0.7246157E+02  0.7816164E-02  0.1226708E+00
        -11   -1    0    0    0    0  0.00000000000E+00  0.00000000000E+00  0.45593999997E+02  0.45594000000E+02  0.51100000000E-03 0.  1.
         11   -1    0    0    0    0 -0.00000000000E+00 -0.00000000000E+00 -0.45593999997E+02  0.45594000000E+02  0.51100000000E-03 0. -1.
    9900012    2    1    2    0    0 -0.32966336395E+01 -0.17606792939E+02 -0.54600512133E+01  0.72461571878E+02  0.70000002063E+02 0.  0.
        -12    1    1    2    0    0  0.32966336395E+01  0.17606792939E+02  0.54600512133E+01  0.18726428122E+02  0.00000000000E+00 0.  1.
         11    1    3    3    0    0  0.21568486726E+02  0.26460379339E+01 -0.67324200064E+00  0.21740616169E+02  0.51100000000E-03 0. -1.
        -11    1    3    3    0    0 -0.61601404020E+01 -0.24307064087E+01  0.16157417881E+02  0.17461896124E+02  0.51100000000E-03 0.  1.
         12    1    3    3    0    0 -0.18704979963E+02 -0.17822124465E+02 -0.20944227094E+02  0.33259059584E+02  0.00000000000E+00 0. -1.
</event>
<event>
 7    1  0.3681059E-013  0.7246161E+02  0.7816164E-02  0.1226708E+00
        -11   -1    0    0    0    0  0.00000000000E+00  0.00000000000E+00  0.45593999997E+02  0.45594000000E+02  0.51100000000E-03 0.  1.
         11   -1    0    0    0    0 -0.00000000000E+00 -0.00000000000E+00 -0.45593999997E+02  0.45594000000E+02  0.51100000000E-03 0. -1.
    9900012    2    1    2    0    0  0.14834422652E+02 -0.10141841895E+02  0.52688257484E+01  0.72461612810E+02  0.70000055384E+02 0.  0.
        -12    1    1    2    0    0 -0.14834422652E+02  0.10141841895E+02 -0.52688257484E+01  0.18726387190E+02  0.00000000000E+00 0.  1.
         11    1    3    3    0    0 -0.63488102025E+01 -0.22490928549E+00 -0.15548099878E+02  0.16795874055E+02  0.51100000000E-03 0. -1.
        -11    1    3    3    0    0  0.35848220395E+01 -0.11733389958E+02 -0.12767173578E+02  0.17706612054E+02  0.51100000000E-03 0.  1.
        -12    1    3    3    0    0  0.17598410815E+02  0.18164573490E+01  0.33584099205E+02  0.37959126701E+02  0.00000000000E+00 0.  1.
</event>
<event>
 7    1  0.3681059E-013  0.7246160E+02  0.7816164E-02  0.1226708E+00
        -11   -1    0    0    0    0  0.00000000000E+00  0.00000000000E+00  0.45593999997E+02  0.45594000000E+02  0.51100000000E-03 0.  1.
         11   -1    0    0    0    0 -0.00000000000E+00 -0.00000000000E+00 -0.45593999997E+02  0.45594000000E+02  0.51100000000E-03 0. -1.
    9900012    2    1    2    0    0 -0.43218807050E+01  0.16472550668E+02 -0.77881085109E+01  0.72461595846E+02  0.70000033286E+02 0.  0.
        -12    1    1    2    0    0  0.43218807050E+01 -0.16472550668E+02  0.77881085109E+01  0.18726404154E+02  0.00000000000E+00 0.  1.
         11    1    3    3    0    0  0.42722107614E+01 -0.30999115073E+01 -0.89361474086E+01  0.10378630300E+02  0.51100000000E-03 0. -1.
        -11    1    3    3    0    0 -0.21304746514E+01 -0.20792034794E+02  0.32409811843E+01  0.21150687753E+02  0.51100000000E-03 0.  1.
         12    1    3    3    0    0 -0.64636168151E+01  0.40364496969E+02 -0.20929422867E+01  0.40932277793E+02  0.00000000000E+00 0. -1.
</event>
<event>
 7    1  0.3681059E-013  0.7246156E+02  0.7816164E-02  0.1226708E+00
        -11   -1    0    0    0    0  0.00000000000E+00  0.00000000000E+00  0.45593999997E+02  0.45594000000E+02  0.51100000000E-03 0.  1.
         11   -1    0    0    0    0 -0.00000000000E+00 -0.00000000000E+00 -0.45593999997E+02  0.45594000000E+02  0.51100000000E-03 0. -1.
    9900012    2    1    2    0    0 -0.63299024410E+01 -0.21629723359E+01 -0.17490957669E+02  0.72461555746E+02  0.69999981048E+02 0.  0.
        -12    1    1    2    0    0  0.63299024410E+01  0.21629723359E+01  0.17490957669E+02  0.18726444254E+02  0.00000000000E+00 0.  1.
         11    1    3    3    0    0  0.10370803665E+02 -0.29372921041E+01 -0.41596536089E+01  0.11553526387E+02  0.51100000000E-03 0. -1.
        -11    1    3    3    0    0  0.13617781640E+02  0.16740243037E+02 -0.15507229532E+02  0.26573556061E+02  0.51100000000E-03 0.  1.
        -12    1    3    3    0    0 -0.30318487745E+02 -0.15965923269E+02  0.21759254725E+01  0.34334473298E+02  0.00000000000E+00 0.  1.
</event>
<event>
 7    1  0.3681059E-013  0.7246163E+02  0.7816164E-02  0.1226708E+00
        -11   -1    0    0    0    0  0.00000000000E+00  0.00000000000E+00  0.45593999997E+02  0.45594000000E+02  0.51100000000E-03 0. -1.
         11   -1    0    0    0    0 -0.00000000000E+00 -0.00000000000E+00 -0.45593999997E+02  0.45594000000E+02  0.51100000000E-03 0.  1.
    9900012    2    1    2    0    0 -0.17228155082E+02 -0.55839478475E+01 -0.47631028656E+01  0.72461629556E+02  0.70000077199E+02 0.  0.
        -12    1    1    2    0    0  0.17228155082E+02  0.55839478475E+01  0.47631028656E+01  0.18726370444E+02  0.00000000000E+00 0.  1.
         11    1    3    3    0    0 -0.36495083050E+01 -0.85023573847E+01  0.19785489438E+02  0.21842037096E+02  0.51100000000E-03 0. -1.
        -11    1    3    3    0    0 -0.54620420254E+01  0.18367464503E+02  0.15488142802E+01  0.19224892231E+02  0.51100000000E-03 0.  1.
         12    1    3    3    0    0 -0.81166047518E+01 -0.15449054966E+02 -0.26097406583E+02  0.31394700228E+02  0.00000000000E+00 0. -1.
</event>
<event>
 7    1  0.3681059E-013  0.7246158E+02  0.7816164E-02  0.1226708E+00
        -11   -1    0    0    0    0  0.00000000000E+00  0.00000000000E+00  0.45593999997E+02  0.45594000000E+02  0.51100000000E-03 0. -1.
         11   -1    0    0    0    0 -0.00000000000E+00 -0.00000000000E+00 -0.45593999997E+02  0.45594000000E+02  0.51100000000E-03 0.  1.
    9900012    2    1    2    0    0  0.17469524266E+02  0.15552716543E+01  0.65631908719E+01  0.72461584902E+02  0.70000019029E+02 0.  0.
        -12    1    1    2    0    0 -0.17469524266E+02 -0.15552716543E+01 -0.65631908719E+01  0.18726415098E+02  0.00000000000E+00 0.  1.
         11    1    3    3    0    0  0.30451393418E+02  0.98833185614E+01  0.11811040547E+01  0.32036890516E+02  0.51100000000E-03 0. -1.
        -11    1    3    3    0    0  0.10631539201E+02 -0.62168587090E+01 -0.64784374329E+01  0.13915786353E+02  0.51100000000E-03 0.  1.
        -12    1    3    3    0    0 -0.23613408352E+02 -0.21111881980E+01  0.11860524250E+02  0.26508908033E+02  0.00000000000E+00 0.  1.
</event>
<event>
 7    1  0.3681059E-013  0.7246157E+02  0.7816164E-02  0.1226708E+00
        -11   -1    0    0    0    0  0.00000000000E+00  0.00000000000E+00  0.45593999997E+02  0.45594000000E+02  0.51100000000E-03 0.  1.
         11   -1    0    0    0    0 -0.00000000000E+00 -0.00000000000E+00 -0.45593999997E+02  0.45594000000E+02  0.51100000000E-03 0. -1.
    9900012    2    1    2    0    0 -0.31675161321E+01  0.20948701878E+01 -0.18337329309E+02  0.72461567191E+02  0.69999995958E+02 0.  0.
        -12    1    1    2    0    0  0.31675161321E+01 -0.20948701878E+01  0.18337329309E+02  0.18726432809E+02  0.00000000000E+00 0.  1.
         11    1    3    3    0    0 -0.54174747933E+01 -0.40028021461E+01 -0.35532623057E+00  0.67451994150E+01  0.51100000000E-03 0. -1.
        -11    1    3    3    0    0  0.24947551708E+01 -0.63276204149E+01  0.22428965673E+02  0.23437599811E+02  0.51100000000E-03 0.  1.
         12    1    3    3    0    0 -0.24479650965E+00  0.12425292749E+02 -0.40410968752E+02  0.42278767965E+02  0.00000000000E+00 0. -1.
</event>
<event>
 7    1  0.3681059E-013  0.7246156E+02  0.7816164E-02  0.1226708E+00
        -11   -1    0    0    0    0  0.00000000000E+00  0.00000000000E+00  0.45593999997E+02  0.45594000000E+02  0.51100000000E-03 0.  1.
         11   -1    0    0    0    0 -0.00000000000E+00 -0.00000000000E+00 -0.45593999997E+02  0.45594000000E+02  0.51100000000E-03 0. -1.
    9900012    2    1    2    0    0 -0.52437780244E+01  0.17819305442E+02  0.23779857378E+01  0.72461556916E+02  0.69999982572E+02 0.  0.
        -12    1    1    2    0    0  0.52437780244E+01 -0.17819305442E+02 -0.23779857378E+01  0.18726443084E+02  0.00000000000E+00 0.  1.
         11    1    3    3    0    0  0.16665294439E+02  0.11469264443E+02  0.55846530390E+01  0.20987244112E+02  0.51100000000E-03 0. -1.
        -11    1    3    3    0    0  0.30235104792E+01 -0.11272313051E+02  0.12532055297E+02  0.17124808535E+02  0.51100000000E-03 0.  1.
        -12    1    3    3    0    0 -0.24932582943E+02  0.17622354050E+02 -0.15738722598E+02  0.34349504268E+02  0.00000000000E+00 0.  1.
</event>
<event>
 7    1  0.3681059E-013  0.7246163E+02  0.7816164E-02  0.1226708E+00
        -11   -1    0    0    0    0  0.00000000000E+00  0.00000000000E+00  0.45593999997E+02  0.45594000000E+02  0.51100000000E-03 0.  1.
         11   -1    0    0    0    0 -0.00000000000E+00 -0.00000000000E+00 -0.45593999997E+02  0.45594000000E+02  0.51100000000E-03 0. -1.
    9900012    2    1    2    0    0  0.66211262960E+01 -0.13678285358E+02  0.10942672849E+02  0.72461631083E+02  0.70000079188E+02 0.  0.
        -12    1    1    2    0    0 -0.66211262960E+01  0.13678285358E+02 -0.10942672849E+02  0.18726368917E+02  0.00000000000E+00 0.  1.
         11    1    3    3    0    0  0.53906074051E+01  0.29210864777E+01  0.19103059926E+01  0.64218894145E+01  0.51100000000E-03 0. -1.
        -11    1    3    3    0    0  0.55740635289E+01  0.18711617401E+02  0.20837520371E+02  0.28555158299E+02  0.51100000000E-03 0.  1.
         12    1    3    3    0    0 -0.43435446379E+01 -0.35310989237E+02 -0.11805153515E+02  0.37484583370E+02  0.00000000000E+00 0. -1.
</event>
<event>
 7    1  0.3681059E-013  0.7246166E+02  0.7816164E-02  0.1226708E+00
        -11   -1    0    0    0    0  0.00000000000E+00  0.00000000000E+00  0.45593999997E+02  0.45594000000E+02  0.51100000000E-03 0.  1.
         11   -1    0    0    0    0 -0.00000000000E+00 -0.00000000000E+00 -0.45593999997E+02  0.45594000000E+02  0.51100000000E-03 0. -1.
    9900012    2    1    2    0    0 -0.85387780825E+01  0.10502311319E+02 -0.12940881361E+02  0.72461663343E+02  0.70000121213E+02 0.  0.
        -12    1    1    2    0    0  0.85387780825E+01 -0.10502311319E+02  0.12940881361E+02  0.18726336657E+02  0.00000000000E+00 0.  1.
         11    1    3    3    0    0  0.19267538893E+02  0.91664933035E+01 -0.16830419492E+02  0.27175828875E+02  0.51100000000E-03 0. -1.
        -11    1    3    3    0    0  0.20072899319E+01  0.70662315900E+01 -0.95803814170E+01  0.12072470754E+02  0.51100000000E-03 0.  1.
        -12    1    3    3    0    0 -0.29813606908E+02 -0.57304135741E+01  0.13469919548E+02  0.33213363714E+02  0.00000000000E+00 0.  1.
</event>
<event>
 7    1  0.3681059E-013  0.7246158E+02  0.7816164E-02  0.1226708E+00
        -11   -1    0    0    0    0  0.00000000000E+00  0.00000000000E+00  0.45593999997E+02  0.45594000000E+02  0.51100000000E-03 0. -1.
         11   -1    0    0    0    0 -0.00000000000E+00 -0.00000000000E+00 -0.45593999997E+02  0.45594000000E+02  0.51100000000E-03 0.  1.
    9900012    2    1    2    0    0 -0.54630237178E+01  0.15532266288E+02  0.89209319449E+01  0.72461576130E+02  0.70000007602E+02 0.  0.
        -12    1    1    2    0    0  0.54630237178E+01 -0.15532266288E+02 -0.89209319449E+01  0.18726423870E+02  0.00000000000E+00 0.  1.
         11    1    3    3    0    0 -0.14270249781E+01 -0.32925657198E+01  0.81176099331E+01  0.88754143901E+01  0.51100000000E-03 0. -1.
        -11    1    3    3    0    0  0.26680014865E+02  0.17605304540E+02 -0.48483283380E+01  0.32330731960E+02  0.51100000000E-03 0.  1.
         12    1    3    3    0    0 -0.30716013605E+02  0.12195274680E+01  0.56516503498E+01  0.31255429780E+02  0.00000000000E+00 0. -1.
</event>
<event>
 7    1  0.3681059E-013  0.7246157E+02  0.7816164E-02  0.1226708E+00
        -11   -1    0    0    0    0  0.00000000000E+00  0.00000000000E+00  0.45593999997E+02  0.45594000000E+02  0.51100000000E-03 0.  1.
         11   -1    0    0    0    0 -0.00000000000E+00 -0.00000000000E+00 -0.45593999997E+02  0.45594000000E+02  0.51100000000E-03 0. -1.
    9900012    2    1    2    0    0  0.23242850594E+01  0.43163980596E+01 -0.18073343862E+02  0.72461565433E+02  0.69999993667E+02 0.  0.
        -12    1    1    2    0    0 -0.23242850594E+01 -0.43163980596E+01  0.18073343862E+02  0.18726434567E+02  0.00000000000E+00 0.  1.
         11    1    3    3    0    0 -0.26809212368E+01 -0.53328520548E+01 -0.18044090816E+01  0.62355867496E+01  0.51100000000E-03 0. -1.
        -11    1    3    3    0    0 -0.44609688063E+01 -0.11974890379E+02  0.19533476916E+02  0.23342128501E+02  0.51100000000E-03 0.  1.
         12    1    3    3    0    0  0.94661751026E+01  0.21624140493E+02 -0.35802411697E+02  0.42883850182E+02  0.00000000000E+00 0. -1.
</event>
<event>
 7    1  0.3681059E-013  0.7246155E+02  0.7816164E-02  0.1226708E+00
        -11   -1    0    0    0    0  0.00000000000E+00  0.00000000000E+00  0.45593999997E+02  0.45594000000E+02  0.51100000000E-03 0.  1.
         11   -1    0    0    0    0 -0.00000000000E+00 -0.00000000000E+00 -0.45593999997E+02  0.45594000000E+02  0.51100000000E-03 0. -1.
    9900012    2    1    2    0    0 -0.14137105440E+02 -0.74483125168E+01 -0.97644621443E+01  0.72461552645E+02  0.69999977009E+02 0.  0.
        -12    1    1    2    0    0  0.14137105440E+02  0.74483125168E+01  0.97644621443E+01  0.18726447355E+02  0.00000000000E+00 0.  1.
         11    1    3    3    0    0 -0.20463512574E+02 -0.22401398428E+01  0.20497008942E+02  0.29049973308E+02  0.51100000000E-03 0. -1.
        -11    1    3    3    0    0 -0.11165078086E+02 -0.75407853387E+01 -0.12668653104E+02  0.18493706603E+02  0.51100000000E-03 0.  1.
        -12    1    3    3    0    0  0.17491485220E+02  0.23326126648E+01 -0.17592817982E+02  0.24917872734E+02  0.00000000000E+00 0.  1.
</event>
<event>
 7    1  0.3681059E-013  0.7246151E+02  0.7816164E-02  0.1226708E+00
        -11   -1    0    0    0    0  0.00000000000E+00  0.00000000000E+00  0.45593999997E+02  0.45594000000E+02  0.51100000000E-03 0.  1.
         11   -1    0    0    0    0 -0.00000000000E+00 -0.00000000000E+00 -0.45593999997E+02  0.45594000000E+02  0.51100000000E-03 0. -1.
    9900012    2    1    2    0    0  0.15478091111E+02  0.80870438337E+01 -0.67608969326E+01  0.72461513150E+02  0.69999925559E+02 0.  0.
        -12    1    1    2    0    0 -0.15478091111E+02 -0.80870438337E+01  0.67608969326E+01  0.18726486850E+02  0.00000000000E+00 0.  1.
         11    1    3    3    0    0 -0.10180696628E+02  0.25344048214E+01  0.10908477618E+02  0.15134882749E+02  0.51100000000E-03 0. -1.
        -11    1    3    3    0    0 -0.12896754415E+02  0.63271130542E+01  0.11598880560E+01  0.14411938614E+02  0.51100000000E-03 0.  1.
         12    1    3    3    0    0  0.38555542154E+02 -0.77447404185E+00 -0.18829262607E+02  0.42914691787E+02  0.00000000000E+00 0. -1.
</event>
<event>
 7    1  0.3681059E-013  0.7246157E+02  0.7816164E-02  0.1226708E+00
        -11   -1    0    0    0    0  0.00000000000E+00  0.00000000000E+00  0.45593999997E+02  0.45594000000E+02  0.51100000000E-03 0.  1.
         11   -1    0    0    0    0 -0.00000000000E+00 -0.00000000000E+00 -0.45593999997E+02  0.45594000000E+02  0.51100000000E-03 0. -1.
    9900012    2    1    2    0    0 -0.92370342558E+01 -0.16251750262E+02 -0.11121664787E+01  0.72461572078E+02  0.70000002324E+02 0.  0.
        -12    1    1    2    0    0  0.92370342558E+01  0.16251750262E+02  0.11121664787E+01  0.18726427922E+02  0.00000000000E+00 0.  1.
         11    1    3    3    0    0 -0.54525428097E+01 -0.40640342909E+01 -0.66930047869E+01  0.95416409043E+01  0.51100000000E-03 0. -1.
        -11    1    3    3    0    0  0.13637035370E+02  0.18060624872E+02 -0.99408400519E+01  0.24717912647E+02  0.51100000000E-03 0.  1.
        -12    1    3    3    0    0 -0.17421526816E+02 -0.30248340843E+02  0.15521678360E+02  0.38202018526E+02  0.00000000000E+00 0.  1.
</event>
<event>
 7    1  0.3681059E-013  0.7246145E+02  0.7816164E-02  0.1226708E+00
        -11   -1    0    0    0    0  0.00000000000E+00  0.00000000000E+00  0.45593999997E+02  0.45594000000E+02  0.51100000000E-03 0.  1.
         11   -1    0    0    0    0 -0.00000000000E+00 -0.00000000000E+00 -0.45593999997E+02  0.45594000000E+02  0.51100000000E-03 0. -1.
    9900012    2    1    2    0    0 -0.35185820315E+01  0.18034649797E+02  0.36131259277E+01  0.72461449549E+02  0.69999842706E+02 0.  0.
        -12    1    1    2    0    0  0.35185820315E+01 -0.18034649797E+02 -0.36131259277E+01  0.18726550451E+02  0.00000000000E+00 0.  1.
         11    1    3    3    0    0  0.38196192919E+01  0.36822701501E+01  0.21371590314E+01  0.57197949246E+01  0.51100000000E-03 0. -1.
        -11    1    3    3    0    0 -0.32186086096E+02  0.29373069871E+00  0.14571549933E+02  0.35332145188E+02  0.51100000000E-03 0.  1.
         12    1    3    3    0    0  0.24847884772E+02  0.14058648949E+02 -0.13095583037E+02  0.31409509436E+02  0.00000000000E+00 0. -1.
</event>
<event>
 7    1  0.3681059E-013  0.7246154E+02  0.7816164E-02  0.1226708E+00
        -11   -1    0    0    0    0  0.00000000000E+00  0.00000000000E+00  0.45593999997E+02  0.45594000000E+02  0.51100000000E-03 0. -1.
         11   -1    0    0    0    0 -0.00000000000E+00 -0.00000000000E+00 -0.45593999997E+02  0.45594000000E+02  0.51100000000E-03 0.  1.
    9900012    2    1    2    0    0  0.10341661027E+02  0.91683854688E+00  0.15584919428E+02  0.72461541197E+02  0.69999962095E+02 0.  0.
        -12    1    1    2    0    0 -0.10341661027E+02 -0.91683854688E+00 -0.15584919428E+02  0.18726458803E+02  0.00000000000E+00 0.  1.
         11    1    3    3    0    0  0.33274842876E+01 -0.24497300879E+02  0.87704030478E+01  0.26231848428E+02  0.51100000000E-03 0. -1.
        -11    1    3    3    0    0 -0.40837915070E+01  0.52191523783E+01  0.19028429048E+02  0.20149392470E+02  0.51100000000E-03 0.  1.
         12    1    3    3    0    0  0.11097968247E+02  0.20194987048E+02 -0.12213912667E+02  0.26080300299E+02  0.00000000000E+00 0. -1.
</event>
<event>
 7    1  0.3681059E-013  0.7246156E+02  0.7816164E-02  0.1226708E+00
        -11   -1    0    0    0    0  0.00000000000E+00  0.00000000000E+00  0.45593999997E+02  0.45594000000E+02  0.51100000000E-03 0. -1.
         11   -1    0    0    0    0 -0.00000000000E+00 -0.00000000000E+00 -0.45593999997E+02  0.45594000000E+02  0.51100000000E-03 0.  1.
    9900012    2    1    2    0    0 -0.40414281327E+00 -0.36395289806E+01  0.18364909861E+02  0.72461563692E+02  0.69999991399E+02 0.  0.
        -12    1    1    2    0    0  0.40414281327E+00  0.36395289806E+01 -0.18364909861E+02  0.18726436308E+02  0.00000000000E+00 0.  1.
         11    1    3    3    0    0 -0.12135187949E+02 -0.46389103067E+01  0.21948219499E+02  0.25505031166E+02  0.51100000000E-03 0. -1.
        -11    1    3    3    0    0 -0.39815256937E+01 -0.19221407899E+02  0.44319279277E+01  0.20123544764E+02  0.51100000000E-03 0.  1.
         12    1    3    3    0    0  0.15712570829E+02  0.20220789225E+02 -0.80152375655E+01  0.26832987761E+02  0.00000000000E+00 0. -1.
</event>
<event>
 7    1  0.3681059E-013  0.7246158E+02  0.7816164E-02  0.1226708E+00
        -11   -1    0    0    0    0  0.00000000000E+00  0.00000000000E+00  0.45593999997E+02  0.45594000000E+02  0.51100000000E-03 0.  1.
         11   -1    0    0    0    0 -0.00000000000E+00 -0.00000000000E+00 -0.45593999997E+02  0.45594000000E+02  0.51100000000E-03 0. -1.
    9900012    2    1    2    0    0  0.18130871069E+02 -0.45981507612E+01 -0.89844317657E+00  0.72461583464E+02  0.70000017156E+02 0.  0.
        -12    1    1    2    0    0 -0.18130871069E+02  0.45981507612E+01  0.89844317657E+00  0.18726416536E+02  0.00000000000E+00 0.  1.
         11    1    3    3    0    0 -0.31718579242E+01 -0.27132677508E+02  0.70776379220E+01  0.28219422925E+02  0.51100000000E-03 0. -1.
        -11    1    3    3    0    0  0.10318346837E+02  0.39541006246E+01  0.10934399453E+02  0.15545555148E+02  0.51100000000E-03 0.  1.
         12    1    3    3    0    0  0.10984382156E+02  0.18580426122E+02 -0.18910480552E+02  0.28696605390E+02  0.00000000000E+00 0. -1.
</event>
<event>
 7    1  0.3681059E-013  0.7246154E+02  0.7816164E-02  0.1226708E+00
        -11   -1    0    0    0    0  0.00000000000E+00  0.00000000000E+00  0.45593999997E+02  0.45594000000E+02  0.51100000000E-03 0.  1.
         11   -1    0    0    0    0 -0.00000000000E+00 -0.00000000000E+00 -0.45593999997E+02  0.45594000000E+02  0.51100000000E-03 0. -1.
    9900012    2    1    2    0    0  0.32953898820E+01  0.10284738314E+02  0.15298521160E+02  0.72461543145E+02  0.69999964633E+02 0.  0.
        -12    1    1    2    0    0 -0.32953898820E+01 -0.10284738314E+02 -0.15298521160E+02  0.18726456855E+02  0.00000000000E+00 0.  1.
         11    1    3    3    0    0  0.10956059448E+02  0.14124100131E+02  0.25432262408E+02  0.31085775116E+02  0.51100000000E-03 0. -1.
        -11    1    3    3    0    0  0.48170402243E+01  0.14645199010E+02  0.26898744733E+01  0.15649957045E+02  0.51100000000E-03 0.  1.
        -12    1    3    3    0    0 -0.12477709791E+02 -0.18484560827E+02 -0.12823615721E+02  0.25725810983E+02  0.00000000000E+00 0.  1.
</event>
<event>
 7    1  0.3681059E-013  0.7246156E+02  0.7816164E-02  0.1226708E+00
        -11   -1    0    0    0    0  0.00000000000E+00  0.00000000000E+00  0.45593999997E+02  0.45594000000E+02  0.51100000000E-03 0.  1.
         11   -1    0    0    0    0 -0.00000000000E+00 -0.00000000000E+00 -0.45593999997E+02  0.45594000000E+02  0.51100000000E-03 0. -1.
    9900012    2    1    2    0    0  0.14099441914E+02  0.12171366431E+02  0.19347385046E+01  0.72461557835E+02  0.69999983770E+02 0.  0.
        -12    1    1    2    0    0 -0.14099441914E+02 -0.12171366431E+02 -0.19347385046E+01  0.18726442165E+02  0.00000000000E+00 0.  1.
         11    1    3    3    0    0  0.22098754176E+02 -0.22841298364E+02  0.52902794439E+01  0.32219045671E+02  0.51100000000E-03 0. -1.
        -11    1    3    3    0    0  0.49829038428E+01  0.86842296276E+01  0.24757231168E+01  0.10313795623E+02  0.51100000000E-03 0.  1.
        -12    1    3    3    0    0 -0.12982216105E+02  0.26328435167E+02 -0.58312640561E+01  0.29928716542E+02  0.00000000000E+00 0.  1.
</event>
<event>
 7    1  0.3681059E-013  0.7246154E+02  0.7816164E-02  0.1226708E+00
        -11   -1    0    0    0    0  0.00000000000E+00  0.00000000000E+00  0.45593999997E+02  0.45594000000E+02  0.51100000000E-03 0.  1.
         11   -1    0    0    0    0 -0.00000000000E+00 -0.00000000000E+00 -0.45593999997E+02  0.45594000000E+02  0.51100000000E-03 0. -1.
    9900012    2    1    2    0    0 -0.11398701260E+02  0.45001555236E+01 -0.14159756216E+02  0.72461535138E+02  0.69999954202E+02 0.  0.
        -12    1    1    2    0    0  0.11398701260E+02 -0.45001555236E+01  0.14159756216E+02  0.18726464862E+02  0.00000000000E+00 0.  1.
         11    1    3    3    0    0  0.41934562362E+00  0.34445111504E+01 -0.11372983503E+02  0.11890553470E+02  0.51100000000E-03 0. -1.
        -11    1    3    3    0    0  0.42939950956E+01  0.28423732535E+02 -0.10801981016E+01  0.28766539474E+02  0.51100000000E-03 0.  1.
         12    1    3    3    0    0 -0.16112041979E+02 -0.27368088161E+02 -0.17065746115E+01  0.31804442194E+02  0.00000000000E+00 0. -1.
</event>
<event>
 7    1  0.3681059E-013  0.7246155E+02  0.7816164E-02  0.1226708E+00
        -11   -1    0    0    0    0  0.00000000000E+00  0.00000000000E+00  0.45593999997E+02  0.45594000000E+02  0.51100000000E-03 0.  1.
         11   -1    0    0    0    0 -0.00000000000E+00 -0.00000000000E+00 -0.45593999997E+02  0.45594000000E+02  0.51100000000E-03 0. -1.
    9900012    2    1    2    0    0  0.14078575029E+02 -0.12266270443E+02 -0.14185658601E+01  0.72461548266E+02  0.69999971304E+02 0.  0.
        -12    1    1    2    0    0 -0.14078575029E+02  0.12266270443E+02  0.14185658601E+01  0.18726451734E+02  0.00000000000E+00 0.  1.
         11    1    3    3    0    0  0.20124474512E+02 -0.19089764074E+02 -0.15804323583E+02  0.31924758589E+02  0.51100000000E-03 0. -1.
        -11    1    3    3    0    0  0.39579557344E+01 -0.12911102778E+01  0.24066172632E+02  0.24423616537E+02  0.51100000000E-03 0.  1.
        -12    1    3    3    0    0 -0.10003855218E+02  0.81146039085E+01 -0.96804149094E+01  0.16113173140E+02  0.00000000000E+00 0.  1.
</event>
<event>
 7    1  0.3681059E-013  0.7246153E+02  0.7816164E-02  0.1226708E+00
        -11   -1    0    0    0    0  0.00000000000E+00  0.00000000000E+00  0.45593999997E+02  0.45594000000E+02  0.51100000000E-03 0. -1.
         11   -1    0    0    0    0 -0.00000000000E+00 -0.00000000000E+00 -0.45593999997E+02  0.45594000000E+02  0.51100000000E-03 0.  1.
    9900012    2    1    2    0    0 -0.16919888929E+02  0.57206900948E+01  0.56277802767E+01  0.72461525495E+02  0.69999941641E+02 0.  0.
        -12    1    1    2    0    0  0.16919888929E+02 -0.57206900948E+01 -0.56277802767E+01  0.18726474505E+02  0.00000000000E+00 0.  1.
         11    1    3    3    0    0 -0.30102584468E+02  0.10726578830E+02  0.23986831668E+02  0.39957392042E+02  0.51100000000E-03 0. -1.
        -11    1    3    3    0    0 -0.41685544634E-01 -0.71369304720E+00  0.51457138823E+01  0.51951387921E+01  0.51100000000E-03 0.  1.
        -12    1    3    3    0    0  0.13224381084E+02 -0.42921956881E+01 -0.23504765273E+02  0.27308994661E+02  0.00000000000E+00 0.  1.
</event>
<event>
 7    1  0.3681059E-013  0.7246171E+02  0.7816164E-02  0.1226708E+00
        -11   -1    0    0    0    0  0.00000000000E+00  0.00000000000E+00  0.45593999997E+02  0.45594000000E+02  0.51100000000E-03 0. -1.
         11   -1    0    0    0    0 -0.00000000000E+00 -0.00000000000E+00 -0.45593999997E+02  0.45594000000E+02  0.51100000000E-03 0.  1.
    9900012    2    1    2    0    0  0.16201915181E+02  0.21739732916E+01  0.91348564509E+01  0.72461713188E+02  0.70000186145E+02 0.  0.
        -12    1    1    2    0    0 -0.16201915181E+02 -0.21739732916E+01 -0.91348564509E+01  0.18726286812E+02  0.00000000000E+00 0.  1.
         11    1    3    3    0    0  0.13160752527E+02 -0.34070493824E+01  0.13905993327E+01  0.13665546433E+02  0.51100000000E-03 0. -1.
        -11    1    3    3    0    0 -0.13005836431E+02 -0.19509164126E+02 -0.84157393784E+01  0.24911522148E+02  0.51100000000E-03 0.  1.
         12    1    3    3    0    0  0.16046999086E+02  0.25090186800E+02  0.16159996497E+02  0.33884644606E+02  0.00000000000E+00 0. -1.
</event>
<event>
 7    1  0.3681059E-013  0.7246145E+02  0.7816164E-02  0.1226708E+00
        -11   -1    0    0    0    0  0.00000000000E+00  0.00000000000E+00  0.45593999997E+02  0.45594000000E+02  0.51100000000E-03 0. -1.
         11   -1    0    0    0    0 -0.00000000000E+00 -0.00000000000E+00 -0.45593999997E+02  0.45594000000E+02  0.51100000000E-03 0.  1.
    9900012    2    1    2    0    0  0.61543152714E+00 -0.10946990089E+02  0.15181178425E+02  0.72461453966E+02  0.69999848461E+02 0.  0.
        -12    1    1    2    0    0 -0.61543152714E+00  0.10946990089E+02 -0.15181178425E+02  0.18726546034E+02  0.00000000000E+00 0.  1.
         11    1    3    3    0    0 -0.33822844828E+01 -0.59146947484E+01 -0.38017186001E+01  0.78023411143E+01  0.51100000000E-03 0. -1.
        -11    1    3    3    0    0  0.31762519993E+02 -0.91651919489E+01  0.54798272400E+01  0.33509505018E+02  0.51100000000E-03 0.  1.
         12    1    3    3    0    0 -0.27764803983E+02  0.41328966086E+01  0.13503069785E+02  0.31149607834E+02  0.00000000000E+00 0. -1.
</event>
<event>
 7    1  0.3681059E-013  0.7246171E+02  0.7816164E-02  0.1226708E+00
        -11   -1    0    0    0    0  0.00000000000E+00  0.00000000000E+00  0.45593999997E+02  0.45594000000E+02  0.51100000000E-03 0. -1.
         11   -1    0    0    0    0 -0.00000000000E+00 -0.00000000000E+00 -0.45593999997E+02  0.45594000000E+02  0.51100000000E-03 0.  1.
    9900012    2    1    2    0    0 -0.39303886761E+01 -0.13186286388E+02 -0.12702277071E+02  0.72461709747E+02  0.70000181663E+02 0.  0.
        -12    1    1    2    0    0  0.39303886761E+01  0.13186286388E+02  0.12702277071E+02  0.18726290253E+02  0.00000000000E+00 0.  1.
         11    1    3    3    0    0 -0.12547582254E+02  0.81083083186E+01  0.33561684961E+01  0.15311771663E+02  0.51100000000E-03 0. -1.
        -11    1    3    3    0    0  0.52533127655E+01  0.16090589913E+02 -0.81644982546E+01  0.18792642464E+02  0.51100000000E-03 0.  1.
         12    1    3    3    0    0  0.33638808128E+01 -0.37385184619E+02 -0.78939473125E+01  0.38357295621E+02  0.00000000000E+00 0. -1.
</event>
<event>
 7    1  0.3681059E-013  0.7246161E+02  0.7816164E-02  0.1226708E+00
        -11   -1    0    0    0    0  0.00000000000E+00  0.00000000000E+00  0.45593999997E+02  0.45594000000E+02  0.51100000000E-03 0.  1.
         11   -1    0    0    0    0 -0.00000000000E+00 -0.00000000000E+00 -0.45593999997E+02  0.45594000000E+02  0.51100000000E-03 0. -1.
    9900012    2    1    2    0    0  0.11438901281E+02 -0.89977779060E+01  0.11784272120E+02  0.72461613825E+02  0.70000056707E+02 0.  0.
        -12    1    1    2    0    0 -0.11438901281E+02  0.89977779060E+01 -0.11784272120E+02  0.18726386175E+02  0.00000000000E+00 0.  1.
         11    1    3    3    0    0 -0.42954211707E+01  0.63592220893E+01  0.17594896894E+01  0.78731285296E+01  0.51100000000E-03 0. -1.
        -11    1    3    3    0    0  0.30441876529E+02 -0.41993183364E+01  0.25939668983E+02  0.40214531556E+02  0.51100000000E-03 0.  1.
         12    1    3    3    0    0 -0.14707554077E+02 -0.11157681659E+02 -0.15914886552E+02  0.24373953739E+02  0.00000000000E+00 0. -1.
</event>
<event>
 7    1  0.3681059E-013  0.7246154E+02  0.7816164E-02  0.1226708E+00
        -11   -1    0    0    0    0  0.00000000000E+00  0.00000000000E+00  0.45593999997E+02  0.45594000000E+02  0.51100000000E-03 0.  1.
         11   -1    0    0    0    0 -0.00000000000E+00 -0.00000000000E+00 -0.45593999997E+02  0.45594000000E+02  0.51100000000E-03 0. -1.
    9900012    2    1    2    0    0  0.92269812322E+01 -0.38070529604E+01 -0.15844543149E+02  0.72461537908E+02  0.69999957810E+02 0.  0.
        -12    1    1    2    0    0 -0.92269812322E+01  0.38070529604E+01  0.15844543149E+02  0.18726462092E+02  0.00000000000E+00 0.  1.
         11    1    3    3    0    0 -0.87344855267E+01 -0.25025720044E+01 -0.11393268722E+02  0.14572600196E+02  0.51100000000E-03 0. -1.
        -11    1    3    3    0    0  0.11368791296E+02  0.15849696285E+02  0.19579012326E+02  0.27636932026E+02  0.51100000000E-03 0.  1.
         12    1    3    3    0    0  0.65926754633E+01 -0.17154177241E+02 -0.24030286753E+02  0.30252005686E+02  0.00000000000E+00 0. -1.
</event>
<event>
 7    1  0.3681059E-013  0.7246154E+02  0.7816164E-02  0.1226708E+00
        -11   -1    0    0    0    0  0.00000000000E+00  0.00000000000E+00  0.45593999997E+02  0.45594000000E+02  0.51100000000E-03 0. -1.
         11   -1    0    0    0    0 -0.00000000000E+00 -0.00000000000E+00 -0.45593999997E+02  0.45594000000E+02  0.51100000000E-03 0.  1.
    9900012    2    1    2    0    0 -0.15119773458E+02  0.85976352386E+00  0.11015144479E+02  0.72461544098E+02  0.69999965875E+02 0.  0.
        -12    1    1    2    0    0  0.15119773458E+02 -0.85976352386E+00 -0.11015144479E+02  0.18726455902E+02  0.00000000000E+00 0.  1.
         11    1    3    3    0    0  0.19873462047E+01  0.19932615691E+02  0.21387677326E+02  0.29303437595E+02  0.51100000000E-03 0. -1.
        -11    1    3    3    0    0  0.83097876476E+01  0.18803856902E+01 -0.47087879327E+01  0.97345315835E+01  0.51100000000E-03 0.  1.
        -12    1    3    3    0    0 -0.25416907311E+02 -0.20953237858E+02 -0.56637449139E+01  0.33423574920E+02  0.00000000000E+00 0.  1.
</event>
<event>
 7    1  0.3681059E-013  0.7246158E+02  0.7816164E-02  0.1226708E+00
        -11   -1    0    0    0    0  0.00000000000E+00  0.00000000000E+00  0.45593999997E+02  0.45594000000E+02  0.51100000000E-03 0.  1.
         11   -1    0    0    0    0 -0.00000000000E+00 -0.00000000000E+00 -0.45593999997E+02  0.45594000000E+02  0.51100000000E-03 0. -1.
    9900012    2    1    2    0    0  0.80117105806E+01 -0.16481090662E+02 -0.38554944005E+01  0.72461583020E+02  0.70000016578E+02 0.  0.
        -12    1    1    2    0    0 -0.80117105806E+01  0.16481090662E+02  0.38554944005E+01  0.18726416980E+02  0.00000000000E+00 0.  1.
         11    1    3    3    0    0 -0.13236261327E+02 -0.29432550136E+01 -0.24210812098E+02  0.27749320473E+02  0.51100000000E-03 0. -1.
        -11    1    3    3    0    0  0.98195584132E+01 -0.12568904656E+02 -0.51385114375E+01  0.16757248931E+02  0.51100000000E-03 0.  1.
        -12    1    3    3    0    0  0.11428413495E+02 -0.96893099158E+00  0.25493829135E+02  0.27955013616E+02  0.00000000000E+00 0.  1.
</event>
<event>
 7    1  0.3681059E-013  0.7246156E+02  0.7816164E-02  0.1226708E+00
        -11   -1    0    0    0    0  0.00000000000E+00  0.00000000000E+00  0.45593999997E+02  0.45594000000E+02  0.51100000000E-03 0. -1.
         11   -1    0    0    0    0 -0.00000000000E+00 -0.00000000000E+00 -0.45593999997E+02  0.45594000000E+02  0.51100000000E-03 0.  1.
    9900012    2    1    2    0    0  0.78177175055E+00 -0.85020468324E+00  0.18690786853E+02  0.72461560716E+02  0.69999987522E+02 0.  0.
        -12    1    1    2    0    0 -0.78177175055E+00  0.85020468324E+00 -0.18690786853E+02  0.18726439284E+02  0.00000000000E+00 0.  1.
         11    1    3    3    0    0  0.94174265720E+01 -0.22069672201E+02  0.25514316953E+02  0.35024830109E+02  0.51100000000E-03 0. -1.
        -11    1    3    3    0    0  0.93924865607E+01  0.26225110137E+01  0.22219860975E+01  0.10001679373E+02  0.51100000000E-03 0.  1.
         12    1    3    3    0    0 -0.18028141382E+02  0.18596956504E+02 -0.90455161968E+01  0.27435051234E+02  0.00000000000E+00 0. -1.
</event>
<event>
 7    1  0.3681059E-013  0.7246158E+02  0.7816164E-02  0.1226708E+00
        -11   -1    0    0    0    0  0.00000000000E+00  0.00000000000E+00  0.45593999997E+02  0.45594000000E+02  0.51100000000E-03 0. -1.
         11   -1    0    0    0    0 -0.00000000000E+00 -0.00000000000E+00 -0.45593999997E+02  0.45594000000E+02  0.51100000000E-03 0.  1.
    9900012    2    1    2    0    0  0.66810810638E+01 -0.12049311409E+02 -0.12682905080E+02  0.72461579336E+02  0.70000011778E+02 0.  0.
        -12    1    1    2    0    0 -0.66810810638E+01  0.12049311409E+02  0.12682905080E+02  0.18726420664E+02  0.00000000000E+00 0.  1.
         11    1    3    3    0    0  0.16231192940E+02 -0.86508454579E+01 -0.13843817488E+02  0.23020426458E+02  0.51100000000E-03 0. -1.
        -11    1    3    3    0    0 -0.15027429712E+00  0.13689543735E+01 -0.23021013088E+02  0.23062169506E+02  0.51100000000E-03 0.  1.
         12    1    3    3    0    0 -0.93998375793E+01 -0.47674203250E+01  0.24181925496E+02  0.26378983372E+02  0.00000000000E+00 0. -1.
</event>
<event>
 7    1  0.3681059E-013  0.7246161E+02  0.7816164E-02  0.1226708E+00
        -11   -1    0    0    0    0  0.00000000000E+00  0.00000000000E+00  0.45593999997E+02  0.45594000000E+02  0.51100000000E-03 0.  1.
         11   -1    0    0    0    0 -0.00000000000E+00 -0.00000000000E+00 -0.45593999997E+02  0.45594000000E+02  0.51100000000E-03 0. -1.
    9900012    2    1    2    0    0  0.75068676359E+01  0.57340576983E+01 -0.16169265939E+02  0.72461611122E+02  0.70000053186E+02 0.  0.
        -12    1    1    2    0    0 -0.75068676359E+01 -0.57340576983E+01  0.16169265939E+02  0.18726388878E+02  0.00000000000E+00 0.  1.
         11    1    3    3    0    0  0.75623452067E+01  0.78058370377E+01 -0.10200247423E+01  0.10916071071E+02  0.51100000000E-03 0. -1.
        -11    1    3    3    0    0 -0.14800509882E+01  0.79758143030E+01  0.21783010245E+02  0.23244433749E+02  0.51100000000E-03 0.  1.
         12    1    3    3    0    0  0.14245734174E+01 -0.10047593642E+02 -0.36932251442E+02  0.38301106302E+02  0.00000000000E+00 0. -1.
</event>
<event>
 7    1  0.3681059E-013  0.7246160E+02  0.7816164E-02  0.1226708E+00
        -11   -1    0    0    0    0  0.00000000000E+00  0.00000000000E+00  0.45593999997E+02  0.45594000000E+02  0.51100000000E-03 0. -1.
         11   -1    0    0    0    0 -0.00000000000E+00 -0.00000000000E+00 -0.45593999997E+02  0.45594000000E+02  0.51100000000E-03 0.  1.
    9900012    2    1    2    0    0 -0.13154825935E+02 -0.12777096700E+02  0.37913386882E+01  0.72461604338E+02  0.70000044348E+02 0.  0.
        -12    1    1    2    0    0  0.13154825935E+02  0.12777096700E+02 -0.37913386882E+01  0.18726395662E+02  0.00000000000E+00 0.  1.
         11    1    3    3    0    0 -0.47212804672E+01  0.14511473339E+02  0.17968862806E+02  0.23574422125E+02  0.51100000000E-03 0. -1.
        -11    1    3    3    0    0 -0.10513914562E+02  0.69293048232E+00 -0.17709515592E+02  0.20607025375E+02  0.51100000000E-03 0.  1.
        -12    1    3    3    0    0  0.20803690946E+01 -0.27981500521E+02  0.35319914739E+01  0.28280156838E+02  0.00000000000E+00 0.  1.
</event>
<event>
 7    1  0.3681059E-013  0.7246170E+02  0.7816164E-02  0.1226708E+00
        -11   -1    0    0    0    0  0.00000000000E+00  0.00000000000E+00  0.45593999997E+02  0.45594000000E+02  0.51100000000E-03 0.  1.
         11   -1    0    0    0    0 -0.00000000000E+00 -0.00000000000E+00 -0.45593999997E+02  0.45594000000E+02  0.51100000000E-03 0. -1.
    9900012    2    1    2    0    0 -0.61955443096E+01  0.15254718426E+02 -0.89209468005E+01  0.72461695096E+02  0.70000162577E+02 0.  0.
        -12    1    1    2    0    0  0.61955443096E+01 -0.15254718426E+02  0.89209468005E+01  0.18726304904E+02  0.00000000000E+00 0.  1.
         11    1    3    3    0    0  0.58948028366E+01 -0.79248438824E+01 -0.11482785993E+02  0.15146162071E+02  0.51100000000E-03 0. -1.
        -11    1    3    3    0    0  0.86749878912E+01 -0.37575059232E+01  0.17715854955E+02  0.20080482631E+02  0.51100000000E-03 0.  1.
         12    1    3    3    0    0 -0.20765335037E+02  0.26937068231E+02 -0.15154015762E+02  0.37235050394E+02  0.00000000000E+00 0. -1.
</event>
<event>
 7    1  0.3681059E-013  0.7246171E+02  0.7816164E-02  0.1226708E+00
        -11   -1    0    0    0    0  0.00000000000E+00  0.00000000000E+00  0.45593999997E+02  0.45594000000E+02  0.51100000000E-03 0. -1.
         11   -1    0    0    0    0 -0.00000000000E+00 -0.00000000000E+00 -0.45593999997E+02  0.45594000000E+02  0.51100000000E-03 0.  1.
    9900012    2    1    2    0    0 -0.58206632900E+01 -0.14988007812E+02  0.95996660467E+01  0.72461705985E+02  0.70000176762E+02 0.  0.
        -12    1    1    2    0    0  0.58206632900E+01  0.14988007812E+02 -0.95996660467E+01  0.18726294015E+02  0.00000000000E+00 0.  1.
         11    1    3    3    0    0 -0.13114092009E+02 -0.34950556556E+01 -0.27880043465E+02  0.31007928779E+02  0.51100000000E-03 0.  1.
        -11    1    3    3    0    0  0.34994128615E+01  0.21654104200E+00  0.18520080553E+02  0.18849036165E+02  0.51100000000E-03 0. -1.
        -12    1    3    3    0    0  0.37940158573E+01 -0.11709493199E+02  0.18959628959E+02  0.22604741042E+02  0.00000000000E+00 0.  1.
</event>
<event>
 7    1  0.3681059E-013  0.7246152E+02  0.7816164E-02  0.1226708E+00
        -11   -1    0    0    0    0  0.00000000000E+00  0.00000000000E+00  0.45593999997E+02  0.45594000000E+02  0.51100000000E-03 0.  1.
         11   -1    0    0    0    0 -0.00000000000E+00 -0.00000000000E+00 -0.45593999997E+02  0.45594000000E+02  0.51100000000E-03 0. -1.
    9900012    2    1    2    0    0 -0.17983690176E+02  0.24329802896E+01 -0.46204541174E+01  0.72461518706E+02  0.69999932796E+02 0.  0.
        -12    1    1    2    0    0  0.17983690176E+02 -0.24329802896E+01  0.46204541174E+01  0.18726481294E+02  0.00000000000E+00 0.  1.
         11    1    3    3    0    0  0.74850620108E+01  0.25606334026E+02 -0.14220919960E+02  0.30231524281E+02  0.51100000000E-03 0. -1.
        -11    1    3    3    0    0 -0.85874595550E+01 -0.37550801202E+01  0.13262895641E+02  0.16240366047E+02  0.51100000000E-03 0.  1.
        -12    1    3    3    0    0 -0.16881292631E+02 -0.19418273617E+02 -0.36624297980E+01  0.25989628377E+02  0.00000000000E+00 0.  1.
</event>
<event>
 7    1  0.3681059E-013  0.7246150E+02  0.7816164E-02  0.1226708E+00
        -11   -1    0    0    0    0  0.00000000000E+00  0.00000000000E+00  0.45593999997E+02  0.45594000000E+02  0.51100000000E-03 0. -1.
         11   -1    0    0    0    0 -0.00000000000E+00 -0.00000000000E+00 -0.45593999997E+02  0.45594000000E+02  0.51100000000E-03 0.  1.
    9900012    2    1    2    0    0 -0.12785362504E+02  0.10845893109E+02  0.83416439743E+01  0.72461496966E+02  0.69999904476E+02 0.  0.
        -12    1    1    2    0    0  0.12785362504E+02 -0.10845893109E+02 -0.83416439743E+01  0.18726503034E+02  0.00000000000E+00 0.  1.
         11    1    3    3    0    0 -0.20768178998E+02  0.20841286237E+01  0.72267963089E+01  0.22088174125E+02  0.51100000000E-03 0. -1.
        -11    1    3    3    0    0 -0.14540227212E+00  0.17327381381E+00 -0.23270773117E+02  0.23271872450E+02  0.51100000000E-03 0.  1.
         12    1    3    3    0    0  0.81282187665E+01  0.85884906714E+01  0.24385620782E+02  0.27101450390E+02  0.00000000000E+00 0. -1.
</event>
<event>
 7    1  0.3681059E-013  0.7246158E+02  0.7816164E-02  0.1226708E+00
        -11   -1    0    0    0    0  0.00000000000E+00  0.00000000000E+00  0.45593999997E+02  0.45594000000E+02  0.51100000000E-03 0. -1.
         11   -1    0    0    0    0 -0.00000000000E+00 -0.00000000000E+00 -0.45593999997E+02  0.45594000000E+02  0.51100000000E-03 0.  1.
    9900012    2    1    2    0    0 -0.41173760855E+01  0.18232969788E+02 -0.11335248983E+01  0.72461578777E+02  0.70000011051E+02 0.  0.
        -12    1    1    2    0    0  0.41173760855E+01 -0.18232969788E+02  0.11335248983E+01  0.18726421223E+02  0.00000000000E+00 0.  1.
         11    1    3    3    0    0 -0.26408747801E+02  0.14267274711E+02  0.13272359312E+02  0.32819698507E+02  0.51100000000E-03 0. -1.
        -11    1    3    3    0    0 -0.45993283912E+01 -0.63203953864E+01 -0.99157063242E+00  0.78793674918E+01  0.51100000000E-03 0.  1.
        -12    1    3    3    0    0  0.26890700107E+02  0.10286090463E+02 -0.13414313578E+02  0.31762512779E+02  0.00000000000E+00 0.  1.
</event>
<event>
 7    1  0.3681059E-013  0.7246192E+02  0.7816164E-02  0.1226707E+00
        -11   -1    0    0    0    0  0.00000000000E+00  0.00000000000E+00  0.45593999997E+02  0.45594000000E+02  0.51100000000E-03 0.  1.
         11   -1    0    0    0    0 -0.00000000000E+00 -0.00000000000E+00 -0.45593999997E+02  0.45594000000E+02  0.51100000000E-03 0. -1.
    9900012    2    1    2    0    0  0.60156200403E+01  0.26650824218E+01 -0.17532133931E+02  0.72461920086E+02  0.70000455667E+02 0.  0.
        -12    1    1    2    0    0 -0.60156200403E+01 -0.26650824218E+01  0.17532133931E+02  0.18726079914E+02  0.00000000000E+00 0.  1.
         11    1    3    3    0    0 -0.63452682591E+01 -0.60908036486E+01 -0.23378499518E+02  0.24978281733E+02  0.51100000000E-03 0. -1.
        -11    1    3    3    0    0  0.54993179599E+01 -0.12366541693E+02 -0.12691994713E+02  0.18554260468E+02  0.51100000000E-03 0.  1.
        -12    1    3    3    0    0  0.68615703394E+01  0.21122427763E+02  0.18538360300E+02  0.28929377884E+02  0.00000000000E+00 0.  1.
</event>
<event>
 7    1  0.3681059E-013  0.7246156E+02  0.7816164E-02  0.1226708E+00
        -11   -1    0    0    0    0  0.00000000000E+00  0.00000000000E+00  0.45593999997E+02  0.45594000000E+02  0.51100000000E-03 0.  1.
         11   -1    0    0    0    0 -0.00000000000E+00 -0.00000000000E+00 -0.45593999997E+02  0.45594000000E+02  0.51100000000E-03 0. -1.
    9900012    2    1    2    0    0  0.16450091840E+01 -0.14741126021E+02 -0.11431214599E+02  0.72461560969E+02  0.69999987851E+02 0.  0.
        -12    1    1    2    0    0 -0.16450091840E+01  0.14741126021E+02  0.11431214599E+02  0.18726439031E+02  0.00000000000E+00 0.  1.
         11    1    3    3    0    0 -0.15687932963E+02  0.14572791571E+02 -0.41839287850E+01  0.21817029018E+02  0.51100000000E-03 0. -1.
        -11    1    3    3    0    0 -0.25359523245E+01 -0.26357996272E+02  0.52383297534E+01  0.26992871661E+02  0.51100000000E-03 0.  1.
        -12    1    3    3    0    0  0.19868894471E+02 -0.29559213202E+01 -0.12485615568E+02  0.23651660290E+02  0.00000000000E+00 0.  1.
</event>
<event>
 7    1  0.3681059E-013  0.7246158E+02  0.7816164E-02  0.1226708E+00
        -11   -1    0    0    0    0  0.00000000000E+00  0.00000000000E+00  0.45593999997E+02  0.45594000000E+02  0.51100000000E-03 0.  1.
         11   -1    0    0    0    0 -0.00000000000E+00 -0.00000000000E+00 -0.45593999997E+02  0.45594000000E+02  0.51100000000E-03 0. -1.
    9900012    2    1    2    0    0  0.10392690457E+02 -0.14467179931E+02 -0.57767989581E+01  0.72461582396E+02  0.70000015764E+02 0.  0.
        -12    1    1    2    0    0 -0.10392690457E+02  0.14467179931E+02  0.57767989581E+01  0.18726417604E+02  0.00000000000E+00 0.  1.
         11    1    3    3    0    0  0.11366785781E+02 -0.58764893003E+01 -0.10527645976E+02  0.16570101856E+02  0.51100000000E-03 0. -1.
        -11    1    3    3    0    0 -0.54586713486E+01 -0.27139339060E+02 -0.12307588875E+02  0.30295503985E+02  0.51100000000E-03 0.  1.
        -12    1    3    3    0    0  0.44845760245E+01  0.18548648430E+02  0.17058435892E+02  0.25595976554E+02  0.00000000000E+00 0.  1.
</event>
<event>
 7    1  0.3681059E-013  0.7246158E+02  0.7816164E-02  0.1226708E+00
        -11   -1    0    0    0    0  0.00000000000E+00  0.00000000000E+00  0.45593999997E+02  0.45594000000E+02  0.51100000000E-03 0. -1.
         11   -1    0    0    0    0 -0.00000000000E+00 -0.00000000000E+00 -0.45593999997E+02  0.45594000000E+02  0.51100000000E-03 0.  1.
    9900012    2    1    2    0    0 -0.26098486737E+01 -0.16937224617E+02  0.75496854634E+01  0.72461584475E+02  0.70000018473E+02 0.  0.
        -12    1    1    2    0    0  0.26098486737E+01  0.16937224617E+02 -0.75496854634E+01  0.18726415525E+02  0.00000000000E+00 0.  1.
         11    1    3    3    0    0  0.15319136829E+02 -0.18627003054E+02 -0.60328394980E+01  0.24860336856E+02  0.51100000000E-03 0. -1.
        -11    1    3    3    0    0  0.16027084315E+00 -0.14098210444E+02  0.18331188343E+02  0.23126125720E+02  0.51100000000E-03 0.  1.
        -12    1    3    3    0    0 -0.18089256346E+02  0.15787988882E+02 -0.47486633816E+01  0.24475121899E+02  0.00000000000E+00 0.  1.
</event>
<event>
 7    1  0.3681059E-013  0.7246162E+02  0.7816164E-02  0.1226708E+00
        -11   -1    0    0    0    0  0.00000000000E+00  0.00000000000E+00  0.45593999997E+02  0.45594000000E+02  0.51100000000E-03 0.  1.
         11   -1    0    0    0    0 -0.00000000000E+00 -0.00000000000E+00 -0.45593999997E+02  0.45594000000E+02  0.51100000000E-03 0. -1.
    9900012    2    1    2    0    0 -0.18134282073E+02  0.25413685833E+01 -0.39200107306E+01  0.72461622221E+02  0.70000067644E+02 0.  0.
        -12    1    1    2    0    0  0.18134282073E+02 -0.25413685833E+01  0.39200107306E+01  0.18726377779E+02  0.00000000000E+00 0.  1.
         11    1    3    3    0    0 -0.37511157594E+02 -0.75053573544E+01  0.24938759972E+01  0.38335841595E+02  0.51100000000E-03 0. -1.
        -11    1    3    3    0    0 -0.33286940067E+01 -0.50871308347E+01 -0.24409871042E+01  0.65511466343E+01  0.51100000000E-03 0.  1.
        -12    1    3    3    0    0  0.22705569527E+02  0.15133856772E+02 -0.39728996235E+01  0.27574633992E+02  0.00000000000E+00 0.  1.
</event>
<event>
 7    1  0.3681059E-013  0.7246157E+02  0.7816164E-02  0.1226708E+00
        -11   -1    0    0    0    0  0.00000000000E+00  0.00000000000E+00  0.45593999997E+02  0.45594000000E+02  0.51100000000E-03 0.  1.
         11   -1    0    0    0    0 -0.00000000000E+00 -0.00000000000E+00 -0.45593999997E+02  0.45594000000E+02  0.51100000000E-03 0. -1.
    9900012    2    1    2    0    0  0.12863487161E+02 -0.13608151698E+02  0.16766317916E+00  0.72461569333E+02  0.69999998748E+02 0.  0.
        -12    1    1    2    0    0 -0.12863487161E+02  0.13608151698E+02 -0.16766317916E+00  0.18726430667E+02  0.00000000000E+00 0.  1.
         11    1    3    3    0    0  0.12967850797E+02  0.25996203222E+02 -0.36997317638E+01  0.29285760220E+02  0.51100000000E-03 0. -1.
        -11    1    3    3    0    0  0.13107570378E+01  0.10982793089E+00 -0.25998166580E+01  0.29136219904E+01  0.51100000000E-03 0.  1.
        -12    1    3    3    0    0 -0.14151206736E+01 -0.39714182851E+02  0.64672116009E+01  0.40262187123E+02  0.00000000000E+00 0.  1.
</event>
<event>
 7    1  0.3681059E-013  0.7246155E+02  0.7816164E-02  0.1226708E+00
        -11   -1    0    0    0    0  0.00000000000E+00  0.00000000000E+00  0.45593999997E+02  0.45594000000E+02  0.51100000000E-03 0. -1.
         11   -1    0    0    0    0 -0.00000000000E+00 -0.00000000000E+00 -0.45593999997E+02  0.45594000000E+02  0.51100000000E-03 0.  1.
    9900012    2    1    2    0    0  0.10149914369E+02 -0.26562990309E+01  0.15511391806E+02  0.72461549135E+02  0.69999972436E+02 0.  0.
        -12    1    1    2    0    0 -0.10149914369E+02  0.26562990309E+01 -0.15511391806E+02  0.18726450865E+02  0.00000000000E+00 0.  1.
         11    1    3    3    0    0  0.29189010154E+01 -0.13747177177E+02 -0.18207993048E+02  0.23000779869E+02  0.51100000000E-03 0. -1.
        -11    1    3    3    0    0 -0.82829534860E+01 -0.23557652569E+01 -0.14547372749E+01  0.87334534519E+01  0.51100000000E-03 0.  1.
        -12    1    3    3    0    0  0.15513966840E+02  0.13446643403E+02  0.35174122129E+02  0.40727315814E+02  0.00000000000E+00 0.  1.
</event>
<event>
 7    1  0.3681059E-013  0.7246153E+02  0.7816164E-02  0.1226708E+00
        -11   -1    0    0    0    0  0.00000000000E+00  0.00000000000E+00  0.45593999997E+02  0.45594000000E+02  0.51100000000E-03 0.  1.
         11   -1    0    0    0    0 -0.00000000000E+00 -0.00000000000E+00 -0.45593999997E+02  0.45594000000E+02  0.51100000000E-03 0. -1.
    9900012    2    1    2    0    0  0.90515355202E+01  0.12083523145E+02  0.11078758915E+02  0.72461528737E+02  0.69999945864E+02 0.  0.
        -12    1    1    2    0    0 -0.90515355202E+01 -0.12083523145E+02 -0.11078758915E+02  0.18726471263E+02  0.00000000000E+00 0.  1.
         11    1    3    3    0    0  0.86080714293E+01  0.18176735889E+02 -0.16604853373E+02  0.26080908287E+02  0.51100000000E-03 0. -1.
        -11    1    3    3    0    0 -0.17984842331E+01  0.13349223183E+02  0.22350694607E+02  0.26095782318E+02  0.51100000000E-03 0.  1.
        -12    1    3    3    0    0  0.22419483240E+01 -0.19442435926E+02  0.53329176804E+01  0.20284838131E+02  0.00000000000E+00 0.  1.
</event>
<event>
 7    1  0.3681059E-013  0.7246158E+02  0.7816164E-02  0.1226708E+00
        -11   -1    0    0    0    0  0.00000000000E+00  0.00000000000E+00  0.45593999997E+02  0.45594000000E+02  0.51100000000E-03 0.  1.
         11   -1    0    0    0    0 -0.00000000000E+00 -0.00000000000E+00 -0.45593999997E+02  0.45594000000E+02  0.51100000000E-03 0. -1.
    9900012    2    1    2    0    0  0.47722550745E+01  0.13093685637E+02 -0.12508381176E+02  0.72461584921E+02  0.70000019054E+02 0.  0.
        -12    1    1    2    0    0 -0.47722550745E+01 -0.13093685637E+02  0.12508381176E+02  0.18726415079E+02  0.00000000000E+00 0.  1.
         11    1    3    3    0    0 -0.39706743181E+01 -0.46244612016E+01 -0.28996349870E+02  0.29630055720E+02  0.51100000000E-03 0. -1.
        -11    1    3    3    0    0 -0.25796687666E+01  0.10295890303E+02 -0.90358407675E+01  0.13939385450E+02  0.51100000000E-03 0.  1.
        -12    1    3    3    0    0  0.11322598159E+02  0.74222565354E+01  0.25523809461E+02  0.28892143751E+02  0.00000000000E+00 0.  1.
</event>
<event>
 7    1  0.3681059E-013  0.7246160E+02  0.7816164E-02  0.1226708E+00
        -11   -1    0    0    0    0  0.00000000000E+00  0.00000000000E+00  0.45593999997E+02  0.45594000000E+02  0.51100000000E-03 0.  1.
         11   -1    0    0    0    0 -0.00000000000E+00 -0.00000000000E+00 -0.45593999997E+02  0.45594000000E+02  0.51100000000E-03 0. -1.
    9900012    2    1    2    0    0  0.14464764490E+02  0.13833881530E+01 -0.11812495741E+02  0.72461595375E+02  0.70000032672E+02 0.  0.
        -12    1    1    2    0    0 -0.14464764490E+02 -0.13833881530E+01  0.11812495741E+02  0.18726404625E+02  0.00000000000E+00 0.  1.
         11    1    3    3    0    0 -0.14953333817E+01  0.26501098960E+01  0.67319275619E+01  0.73876893102E+01  0.51100000000E-03 0. -1.
        -11    1    3    3    0    0 -0.17188479732E+02  0.17293177838E+02 -0.69635116209E+01  0.25357214547E+02  0.51100000000E-03 0.  1.
         12    1    3    3    0    0  0.33148577604E+02 -0.18559899581E+02 -0.11580911682E+02  0.39716691517E+02  0.00000000000E+00 0. -1.
</event>
<event>
 7    1  0.3681059E-013  0.7246154E+02  0.7816164E-02  0.1226708E+00
        -11   -1    0    0    0    0  0.00000000000E+00  0.00000000000E+00  0.45593999997E+02  0.45594000000E+02  0.51100000000E-03 0.  1.
         11   -1    0    0    0    0 -0.00000000000E+00 -0.00000000000E+00 -0.45593999997E+02  0.45594000000E+02  0.51100000000E-03 0. -1.
    9900012    2    1    2    0    0  0.80449711864E+01  0.16403000800E+02 -0.41109931666E+01  0.72461541140E+02  0.69999962021E+02 0.  0.
        -12    1    1    2    0    0 -0.80449711864E+01 -0.16403000800E+02  0.41109931666E+01  0.18726458860E+02  0.00000000000E+00 0.  1.
         11    1    3    3    0    0 -0.17531592322E+02  0.17972099257E+02 -0.17670590576E+02  0.30701837935E+02  0.51100000000E-03 0. -1.
        -11    1    3    3    0    0  0.19246523580E+01  0.11307489769E+02  0.86965915248E+01  0.14394245934E+02  0.51100000000E-03 0.  1.
        -12    1    3    3    0    0  0.23651911150E+02 -0.12876588227E+02  0.48630058848E+01  0.27365457271E+02  0.00000000000E+00 0.  1.
</event>
<event>
 7    1  0.3681059E-013  0.7246160E+02  0.7816164E-02  0.1226708E+00
        -11   -1    0    0    0    0  0.00000000000E+00  0.00000000000E+00  0.45593999997E+02  0.45594000000E+02  0.51100000000E-03 0.  1.
         11   -1    0    0    0    0 -0.00000000000E+00 -0.00000000000E+00 -0.45593999997E+02  0.45594000000E+02  0.51100000000E-03 0. -1.
    9900012    2    1    2    0    0 -0.15155233998E+02 -0.10998004024E+02  0.20213342736E+00  0.72461599707E+02  0.70000038315E+02 0.  0.
        -12    1    1    2    0    0  0.15155233998E+02  0.10998004024E+02 -0.20213342736E+00  0.18726400293E+02  0.00000000000E+00 0.  1.
         11    1    3    3    0    0 -0.15638110110E+02 -0.52313363812E+01 -0.99524443889E+01  0.19260543028E+02  0.51100000000E-03 0. -1.
        -11    1    3    3    0    0 -0.58907646212E+01 -0.24442935951E+02  0.19060191730E+02  0.31550739053E+02  0.51100000000E-03 0.  1.
         12    1    3    3    0    0  0.63736407335E+01  0.18676268309E+02 -0.89056139138E+01  0.21650317626E+02  0.00000000000E+00 0. -1.
</event>
<event>
 7    1  0.3681059E-013  0.7246160E+02  0.7816164E-02  0.1226708E+00
        -11   -1    0    0    0    0  0.00000000000E+00  0.00000000000E+00  0.45593999997E+02  0.45594000000E+02  0.51100000000E-03 0. -1.
         11   -1    0    0    0    0 -0.00000000000E+00 -0.00000000000E+00 -0.45593999997E+02  0.45594000000E+02  0.51100000000E-03 0.  1.
    9900012    2    1    2    0    0 -0.93752271868E+01  0.16149765358E+02  0.14029861483E+01  0.72461596820E+02  0.70000034555E+02 0.  0.
        -12    1    1    2    0    0  0.93752271868E+01 -0.16149765358E+02 -0.14029861483E+01  0.18726403180E+02  0.00000000000E+00 0.  1.
         11    1    3    3    0    0  0.11341877594E+02 -0.71479159403E+01 -0.27804277342E+01  0.13691664190E+02  0.51100000000E-03 0. -1.
        -11    1    3    3    0    0 -0.16143300678E+02  0.33502004052E+01 -0.20756755386E+02  0.26507977930E+02  0.51100000000E-03 0.  1.
         12    1    3    3    0    0 -0.45738041030E+01  0.19947480893E+02  0.24940169268E+02  0.32261954700E+02  0.00000000000E+00 0. -1.
</event>
<event>
 7    1  0.3681059E-013  0.7246135E+02  0.7816164E-02  0.1226709E+00
        -11   -1    0    0    0    0  0.00000000000E+00  0.00000000000E+00  0.45593999997E+02  0.45594000000E+02  0.51100000000E-03 0. -1.
         11   -1    0    0    0    0 -0.00000000000E+00 -0.00000000000E+00 -0.45593999997E+02  0.45594000000E+02  0.51100000000E-03 0.  1.
    9900012    2    1    2    0    0 -0.11966398634E+01 -0.17505598019E+02 -0.65429017495E+01  0.72461348611E+02  0.69999711215E+02 0.  0.
        -12    1    1    2    0    0  0.11966398634E+01  0.17505598019E+02  0.65429017495E+01  0.18726651389E+02  0.00000000000E+00 0.  1.
         11    1    3    3    0    0 -0.41560654838E+01 -0.33523254240E+02  0.28564467951E+01  0.33900453443E+02  0.51100000000E-03 0. -1.
        -11    1    3    3    0    0 -0.72106255265E+01 -0.12532175441E+01  0.88295054387E+01  0.11468384422E+02  0.51100000000E-03 0.  1.
        -12    1    3    3    0    0  0.10170051147E+02  0.17270873765E+02 -0.18228853983E+02  0.27092510745E+02  0.00000000000E+00 0.  1.
</event>
<event>
 7    1  0.3681059E-013  0.7246154E+02  0.7816164E-02  0.1226708E+00
        -11   -1    0    0    0    0  0.00000000000E+00  0.00000000000E+00  0.45593999997E+02  0.45594000000E+02  0.51100000000E-03 0. -1.
         11   -1    0    0    0    0 -0.00000000000E+00 -0.00000000000E+00 -0.45593999997E+02  0.45594000000E+02  0.51100000000E-03 0.  1.
    9900012    2    1    2    0    0 -0.52750295875E+01  0.38189053336E+01  0.17557631987E+02  0.72461537010E+02  0.69999956642E+02 0.  0.
        -12    1    1    2    0    0  0.52750295875E+01 -0.38189053336E+01 -0.17557631987E+02  0.18726462990E+02  0.00000000000E+00 0.  1.
         11    1    3    3    0    0  0.50791142007E+01 -0.58257996190E+01  0.87623579239E+01  0.11684017242E+02  0.51100000000E-03 0. -1.
        -11    1    3    3    0    0 -0.31476499540E+01  0.10655525211E+02 -0.24391190874E+02  0.26802576560E+02  0.51100000000E-03 0.  1.
         12    1    3    3    0    0 -0.72064938341E+01 -0.10108202588E+01  0.33186464937E+02  0.33974943208E+02  0.00000000000E+00 0. -1.
</event>
<event>
 7    1  0.3681059E-013  0.7246155E+02  0.7816164E-02  0.1226708E+00
        -11   -1    0    0    0    0  0.00000000000E+00  0.00000000000E+00  0.45593999997E+02  0.45594000000E+02  0.51100000000E-03 0.  1.
         11   -1    0    0    0    0 -0.00000000000E+00 -0.00000000000E+00 -0.45593999997E+02  0.45594000000E+02  0.51100000000E-03 0. -1.
    9900012    2    1    2    0    0  0.17148782049E+02 -0.74629462342E+01  0.95052429484E+00  0.72461553762E+02  0.69999978463E+02 0.  0.
        -12    1    1    2    0    0 -0.17148782049E+02  0.74629462342E+01 -0.95052429484E+00  0.18726446238E+02  0.00000000000E+00 0.  1.
         11    1    3    3    0    0  0.16928411880E+02 -0.30382352414E+01 -0.13982872582E+02  0.22165800866E+02  0.51100000000E-03 0. -1.
        -11    1    3    3    0    0  0.18416957662E+02  0.11865339413E+02  0.47383354660E+00  0.21913355001E+02  0.51100000000E-03 0.  1.
        -12    1    3    3    0    0 -0.18196587492E+02 -0.16290050405E+02  0.14459563330E+02  0.28382397895E+02  0.00000000000E+00 0.  1.
</event>
<event>
 7    1  0.3681059E-013  0.7246153E+02  0.7816164E-02  0.1226708E+00
        -11   -1    0    0    0    0  0.00000000000E+00  0.00000000000E+00  0.45593999997E+02  0.45594000000E+02  0.51100000000E-03 0.  1.
         11   -1    0    0    0    0 -0.00000000000E+00 -0.00000000000E+00 -0.45593999997E+02  0.45594000000E+02  0.51100000000E-03 0. -1.
    9900012    2    1    2    0    0 -0.37919699019E+01  0.12730365176E+02 -0.13199976391E+02  0.72461531834E+02  0.69999949898E+02 0.  0.
        -12    1    1    2    0    0  0.37919699019E+01 -0.12730365176E+02  0.13199976391E+02  0.18726468166E+02  0.00000000000E+00 0.  1.
         11    1    3    3    0    0 -0.22351129590E+02 -0.12796510880E+02 -0.18343103651E+02  0.31619505633E+02  0.51100000000E-03 0. -1.
        -11    1    3    3    0    0  0.11419213991E+01  0.13158031606E+02 -0.83027132703E+01  0.15600411152E+02  0.51100000000E-03 0.  1.
        -12    1    3    3    0    0  0.17417238289E+02  0.12368844451E+02  0.13445840530E+02  0.25241615048E+02  0.00000000000E+00 0.  1.
</event>
<event>
 7    1  0.3681059E-013  0.7246155E+02  0.7816164E-02  0.1226708E+00
        -11   -1    0    0    0    0  0.00000000000E+00  0.00000000000E+00  0.45593999997E+02  0.45594000000E+02  0.51100000000E-03 0.  1.
         11   -1    0    0    0    0 -0.00000000000E+00 -0.00000000000E+00 -0.45593999997E+02  0.45594000000E+02  0.51100000000E-03 0. -1.
    9900012    2    1    2    0    0  0.14257472382E+02 -0.11704972503E+02 -0.32246258453E+01  0.72461545134E+02  0.69999967224E+02 0.  0.
        -12    1    1    2    0    0 -0.14257472382E+02  0.11704972503E+02  0.32246258453E+01  0.18726454866E+02  0.00000000000E+00 0.  1.
         11    1    3    3    0    0  0.43406359602E+01  0.23860069835E+02  0.15148266937E+01  0.24298945518E+02  0.51100000000E-03 0. -1.
        -11    1    3    3    0    0  0.11141898613E+02  0.10991238163E+01 -0.19609157008E+00  0.11197697533E+02  0.51100000000E-03 0.  1.
        -12    1    3    3    0    0 -0.12250621916E+01 -0.36664166154E+02 -0.45433609689E+01  0.36964902084E+02  0.00000000000E+00 0.  1.
</event>
<event>
 7    1  0.3681059E-013  0.7246159E+02  0.7816164E-02  0.1226708E+00
        -11   -1    0    0    0    0  0.00000000000E+00  0.00000000000E+00  0.45593999997E+02  0.45594000000E+02  0.51100000000E-03 0.  1.
         11   -1    0    0    0    0 -0.00000000000E+00 -0.00000000000E+00 -0.45593999997E+02  0.45594000000E+02  0.51100000000E-03 0. -1.
    9900012    2    1    2    0    0 -0.12042158929E+02  0.13804963481E+02  0.38843128553E+01  0.72461588311E+02  0.70000023470E+02 0.  0.
        -12    1    1    2    0    0  0.12042158929E+02 -0.13804963481E+02 -0.38843128553E+01  0.18726411689E+02  0.00000000000E+00 0.  1.
         11    1    3    3    0    0 -0.61327441708E+01 -0.29203052009E+01 -0.47613228773E+01  0.82951147873E+01  0.51100000000E-03 0. -1.
        -11    1    3    3    0    0 -0.13244418100E+02  0.63812307381E+01  0.33322859640E+02  0.36421802418E+02  0.51100000000E-03 0.  1.
         12    1    3    3    0    0  0.73350033415E+01  0.10344037944E+02 -0.24677223907E+02  0.27744671106E+02  0.00000000000E+00 0. -1.
</event>
<event>
 7    1  0.3681059E-013  0.7246156E+02  0.7816164E-02  0.1226708E+00
        -11   -1    0    0    0    0  0.00000000000E+00  0.00000000000E+00  0.45593999997E+02  0.45594000000E+02  0.51100000000E-03 0.  1.
         11   -1    0    0    0    0 -0.00000000000E+00 -0.00000000000E+00 -0.45593999997E+02  0.45594000000E+02  0.51100000000E-03 0. -1.
    9900012    2    1    2    0    0  0.16193698992E+02 -0.64559996708E+01 -0.68384023040E+01  0.72461559738E+02  0.69999986249E+02 0.  0.
        -12    1    1    2    0    0 -0.16193698992E+02  0.64559996708E+01  0.68384023040E+01  0.18726440262E+02  0.00000000000E+00 0.  1.
         11    1    3    3    0    0  0.92736958998E+00 -0.49008378780E+01 -0.21415390373E+01  0.54281134819E+01  0.51100000000E-03 0. -1.
        -11    1    3    3    0    0  0.36494054164E+02 -0.90879904061E+01  0.11457089237E+02  0.39315041053E+02  0.51100000000E-03 0.  1.
         12    1    3    3    0    0 -0.21227724762E+02  0.75328286133E+01 -0.16153952504E+02  0.27718405203E+02  0.00000000000E+00 0. -1.
</event>
<event>
 7    1  0.3681059E-013  0.7246157E+02  0.7816164E-02  0.1226708E+00
        -11   -1    0    0    0    0  0.00000000000E+00  0.00000000000E+00  0.45593999997E+02  0.45594000000E+02  0.51100000000E-03 0. -1.
         11   -1    0    0    0    0 -0.00000000000E+00 -0.00000000000E+00 -0.45593999997E+02  0.45594000000E+02  0.51100000000E-03 0.  1.
    9900012    2    1    2    0    0 -0.10010834336E+02 -0.10472262408E+02  0.11865665994E+02  0.72461571789E+02  0.70000001947E+02 0.  0.
        -12    1    1    2    0    0  0.10010834336E+02  0.10472262408E+02 -0.11865665994E+02  0.18726428211E+02  0.00000000000E+00 0.  1.
         11    1    3    3    0    0 -0.18086079542E+01 -0.90265507178E+01 -0.14327861518E+02  0.17030481394E+02  0.51100000000E-03 0. -1.
        -11    1    3    3    0    0 -0.21388551642E+02  0.14582961223E+02  0.62152249125E+01  0.26622582901E+02  0.51100000000E-03 0.  1.
         12    1    3    3    0    0  0.13186325260E+02 -0.16028672913E+02  0.19978302599E+02  0.28808507493E+02  0.00000000000E+00 0. -1.
</event>
<event>
 7    1  0.3681059E-013  0.7246155E+02  0.7816164E-02  0.1226708E+00
        -11   -1    0    0    0    0  0.00000000000E+00  0.00000000000E+00  0.45593999997E+02  0.45594000000E+02  0.51100000000E-03 0. -1.
         11   -1    0    0    0    0 -0.00000000000E+00 -0.00000000000E+00 -0.45593999997E+02  0.45594000000E+02  0.51100000000E-03 0.  1.
    9900012    2    1    2    0    0  0.57800368302E+01 -0.16583079579E+02  0.65017459391E+01  0.72461546670E+02  0.69999969224E+02 0.  0.
        -12    1    1    2    0    0 -0.57800368302E+01  0.16583079579E+02 -0.65017459391E+01  0.18726453330E+02  0.00000000000E+00 0.  1.
         11    1    3    3    0    0 -0.19151283418E+01 -0.27701902298E+02 -0.17568111834E+00  0.27768578854E+02  0.51100000000E-03 0. -1.
        -11    1    3    3    0    0 -0.14145638962E+02  0.49971785751E+01 -0.86499099414E+01  0.17317385415E+02  0.51100000000E-03 0.  1.
         12    1    3    3    0    0  0.21840804134E+02  0.61216441437E+01  0.15327336999E+02  0.27375582400E+02  0.00000000000E+00 0. -1.
</event>
<event>
 7    1  0.3681059E-013  0.7246156E+02  0.7816164E-02  0.1226708E+00
        -11   -1    0    0    0    0  0.00000000000E+00  0.00000000000E+00  0.45593999997E+02  0.45594000000E+02  0.51100000000E-03 0. -1.
         11   -1    0    0    0    0 -0.00000000000E+00 -0.00000000000E+00 -0.45593999997E+02  0.45594000000E+02  0.51100000000E-03 0.  1.
    9900012    2    1    2    0    0  0.41928426371E+00  0.18717741536E+02 -0.38727186930E+00  0.72461558080E+02  0.69999984088E+02 0.  0.
        -12    1    1    2    0    0 -0.41928426371E+00 -0.18717741536E+02  0.38727186930E+00  0.18726441920E+02  0.00000000000E+00 0.  1.
         11    1    3    3    0    0  0.91960059531E+01 -0.77786827079E+01  0.72341505863E+01  0.14050173135E+02  0.51100000000E-03 0. -1.
        -11    1    3    3    0    0  0.85450372714E+01 -0.10577796134E+02 -0.10802634402E+02  0.17366759724E+02  0.51100000000E-03 0.  1.
        -12    1    3    3    0    0 -0.17321758961E+02  0.37074220377E+02  0.31812119466E+01  0.41044625221E+02  0.00000000000E+00 0.  1.
</event>
<event>
 7    1  0.3681059E-013  0.7246157E+02  0.7816164E-02  0.1226708E+00
        -11   -1    0    0    0    0  0.00000000000E+00  0.00000000000E+00  0.45593999997E+02  0.45594000000E+02  0.51100000000E-03 0. -1.
         11   -1    0    0    0    0 -0.00000000000E+00 -0.00000000000E+00 -0.45593999997E+02  0.45594000000E+02  0.51100000000E-03 0.  1.
    9900012    2    1    2    0    0 -0.11545518755E+02  0.11093147191E+02  0.97119563586E+01  0.72461574441E+02  0.70000005401E+02 0.  0.
        -12    1    1    2    0    0  0.11545518755E+02 -0.11093147191E+02 -0.97119563586E+01  0.18726425559E+02  0.00000000000E+00 0.  1.
         11    1    3    3    0    0 -0.97969012342E+01  0.50703594232E+01  0.12701380672E+02  0.16822986944E+02  0.51100000000E-03 0. -1.
        -11    1    3    3    0    0 -0.25736963323E+01 -0.24690943399E+02 -0.18252559208E+01  0.24891728710E+02  0.51100000000E-03 0.  1.
         12    1    3    3    0    0  0.82507881137E+00  0.30713731166E+02 -0.11641683927E+01  0.30746858787E+02  0.00000000000E+00 0. -1.
</event>
<event>
 7    1  0.3681059E-013  0.7246142E+02  0.7816164E-02  0.1226708E+00
        -11   -1    0    0    0    0  0.00000000000E+00  0.00000000000E+00  0.45593999997E+02  0.45594000000E+02  0.51100000000E-03 0.  1.
         11   -1    0    0    0    0 -0.00000000000E+00 -0.00000000000E+00 -0.45593999997E+02  0.45594000000E+02  0.51100000000E-03 0. -1.
    9900012    2    1    2    0    0  0.10951394664E+02 -0.25237263967E+01 -0.14979408580E+02  0.72461416718E+02  0.69999799938E+02 0.  0.
        -12    1    1    2    0    0 -0.10951394664E+02  0.25237263967E+01  0.14979408580E+02  0.18726583282E+02  0.00000000000E+00 0.  1.
         11    1    3    3    0    0  0.16434617054E+02  0.39758502420E+01  0.28439943375E-01  0.16908720589E+02  0.51100000000E-03 0. -1.
        -11    1    3    3    0    0  0.12101932191E+02 -0.14264361996E+02  0.12130928226E+02  0.22295475007E+02  0.51100000000E-03 0.  1.
         12    1    3    3    0    0 -0.17585154581E+02  0.77647853572E+01 -0.27138776749E+02  0.33257221122E+02  0.00000000000E+00 0. -1.
</event>
<event>
 7    1  0.3681059E-013  0.7246157E+02  0.7816164E-02  0.1226708E+00
        -11   -1    0    0    0    0  0.00000000000E+00  0.00000000000E+00  0.45593999997E+02  0.45594000000E+02  0.51100000000E-03 0. -1.
         11   -1    0    0    0    0 -0.00000000000E+00 -0.00000000000E+00 -0.45593999997E+02  0.45594000000E+02  0.51100000000E-03 0.  1.
    9900012    2    1    2    0    0 -0.91481215771E+01 -0.16059815613E+02 -0.30122132761E+01  0.72461568553E+02  0.69999997732E+02 0.  0.
        -12    1    1    2    0    0  0.91481215771E+01  0.16059815613E+02  0.30122132761E+01  0.18726431447E+02  0.00000000000E+00 0.  1.
         11    1    3    3    0    0 -0.66981958175E+01  0.15249551316E+02  0.11921732996E+02  0.20482733227E+02  0.51100000000E-03 0. -1.
        -11    1    3    3    0    0 -0.14333954967E+02  0.19489181566E+01 -0.40514118314E+01  0.15022466011E+02  0.51100000000E-03 0.  1.
        -12    1    3    3    0    0  0.11884029207E+02 -0.33258285086E+02 -0.10882534441E+02  0.36956369315E+02  0.00000000000E+00 0.  1.
</event>
<event>
 7    1  0.3681059E-013  0.7246165E+02  0.7816164E-02  0.1226708E+00
        -11   -1    0    0    0    0  0.00000000000E+00  0.00000000000E+00  0.45593999997E+02  0.45594000000E+02  0.51100000000E-03 0.  1.
         11   -1    0    0    0    0 -0.00000000000E+00 -0.00000000000E+00 -0.45593999997E+02  0.45594000000E+02  0.51100000000E-03 0. -1.
    9900012    2    1    2    0    0 -0.11604722059E+02 -0.33050252728E+01 -0.14320733250E+02  0.72461650464E+02  0.70000104436E+02 0.  0.
        -12    1    1    2    0    0  0.11604722059E+02  0.33050252728E+01  0.14320733250E+02  0.18726349536E+02  0.00000000000E+00 0.  1.
         11    1    3    3    0    0  0.12637093498E+02 -0.14913198899E+01  0.31806924757E+01  0.13116286516E+02  0.51100000000E-03 0. -1.
        -11    1    3    3    0    0 -0.12458327247E+02  0.21692165499E+02 -0.21202839017E+02  0.32792077465E+02  0.51100000000E-03 0.  1.
         12    1    3    3    0    0 -0.11783488310E+02 -0.23505870882E+02  0.37014132915E+01  0.26553286483E+02  0.00000000000E+00 0. -1.
</event>
<event>
 7    1  0.3681059E-013  0.7246157E+02  0.7816164E-02  0.1226708E+00
        -11   -1    0    0    0    0  0.00000000000E+00  0.00000000000E+00  0.45593999997E+02  0.45594000000E+02  0.51100000000E-03 0.  1.
         11   -1    0    0    0    0 -0.00000000000E+00 -0.00000000000E+00 -0.45593999997E+02  0.45594000000E+02  0.51100000000E-03 0. -1.
    9900012    2    1    2    0    0  0.81169594580E+01  0.15218966466E+02 -0.72922789277E+01  0.72461566728E+02  0.69999995354E+02 0.  0.
        -12    1    1    2    0    0 -0.81169594580E+01 -0.15218966466E+02  0.72922789277E+01  0.18726433272E+02  0.00000000000E+00 0.  1.
         11    1    3    3    0    0 -0.21917052970E+01 -0.72610535210E+01 -0.25097848910E+02  0.26218857537E+02  0.51100000000E-03 0. -1.
        -11    1    3    3    0    0  0.15492907357E+02  0.34764613871E+01 -0.44814034923E+01  0.16498452645E+02  0.51100000000E-03 0.  1.
         12    1    3    3    0    0 -0.51842426023E+01  0.19003558600E+02  0.22286973475E+02  0.29744256546E+02  0.00000000000E+00 0. -1.
</event>
<event>
 7    1  0.3681059E-013  0.7246157E+02  0.7816164E-02  0.1226708E+00
        -11   -1    0    0    0    0  0.00000000000E+00  0.00000000000E+00  0.45593999997E+02  0.45594000000E+02  0.51100000000E-03 0. -1.
         11   -1    0    0    0    0 -0.00000000000E+00 -0.00000000000E+00 -0.45593999997E+02  0.45594000000E+02  0.51100000000E-03 0.  1.
    9900012    2    1    2    0    0 -0.10082539700E+02  0.13517711490E+02  0.81420598438E+01  0.72461567632E+02  0.69999996532E+02 0.  0.
        -12    1    1    2    0    0  0.10082539700E+02 -0.13517711490E+02 -0.81420598438E+01  0.18726432368E+02  0.00000000000E+00 0.  1.
         11    1    3    3    0    0 -0.15445096209E+02  0.71889847608E+01 -0.10066502397E+02  0.19788051182E+02  0.51100000000E-03 0. -1.
        -11    1    3    3    0    0 -0.10606062925E+02  0.16312547972E+02 -0.74589926754E+01  0.20838050871E+02  0.51100000000E-03 0.  1.
         12    1    3    3    0    0  0.15968619434E+02 -0.99838212420E+01  0.25667554917E+02  0.31835465579E+02  0.00000000000E+00 0. -1.
</event>
<event>
 7    1  0.3681059E-013  0.7246158E+02  0.7816164E-02  0.1226708E+00
        -11   -1    0    0    0    0  0.00000000000E+00  0.00000000000E+00  0.45593999997E+02  0.45594000000E+02  0.51100000000E-03 0.  1.
         11   -1    0    0    0    0 -0.00000000000E+00 -0.00000000000E+00 -0.45593999997E+02  0.45594000000E+02  0.51100000000E-03 0. -1.
    9900012    2    1    2    0    0 -0.12874384880E+02 -0.12107683057E+02  0.61913774701E+01  0.72461576689E+02  0.70000008330E+02 0.  0.
        -12    1    1    2    0    0  0.12874384880E+02  0.12107683057E+02 -0.61913774701E+01  0.18726423311E+02  0.00000000000E+00 0.  1.
         11    1    3    3    0    0 -0.52266334882E+01 -0.33215180662E+02 -0.20257583802E+01  0.33684857449E+02  0.51100000000E-03 0. -1.
        -11    1    3    3    0    0  0.98406094850E+01 -0.77799977356E-01  0.52282572926E+01  0.11143532764E+02  0.51100000000E-03 0.  1.
        -12    1    3    3    0    0 -0.17488360877E+02  0.21185297582E+02  0.29888785577E+01  0.27633186477E+02  0.00000000000E+00 0.  1.
</event>
<event>
 7    1  0.3681059E-013  0.7246147E+02  0.7816164E-02  0.1226708E+00
        -11   -1    0    0    0    0  0.00000000000E+00  0.00000000000E+00  0.45593999997E+02  0.45594000000E+02  0.51100000000E-03 0.  1.
         11   -1    0    0    0    0 -0.00000000000E+00 -0.00000000000E+00 -0.45593999997E+02  0.45594000000E+02  0.51100000000E-03 0. -1.
    9900012    2    1    2    0    0 -0.14304392887E+02 -0.10041871745E+02  0.67251851721E+01  0.72461469098E+02  0.69999868173E+02 0.  0.
        -12    1    1    2    0    0  0.14304392887E+02  0.10041871745E+02 -0.67251851721E+01  0.18726530902E+02  0.00000000000E+00 0.  1.
         11    1    3    3    0    0 -0.62115557583E+01 -0.69128131286E+01 -0.12499790235E+01  0.93772521620E+01  0.51100000000E-03 0. -1.
        -11    1    3    3    0    0  0.82980542395E+00 -0.32175102483E+02  0.45617917836E+01  0.32507472086E+02  0.51100000000E-03 0.  1.
         12    1    3    3    0    0 -0.89226425529E+01  0.29046043867E+02  0.34133724119E+01  0.30576744850E+02  0.00000000000E+00 0. -1.
</event>
<event>
 7    1  0.3681059E-013  0.7246159E+02  0.7816164E-02  0.1226708E+00
        -11   -1    0    0    0    0  0.00000000000E+00  0.00000000000E+00  0.45593999997E+02  0.45594000000E+02  0.51100000000E-03 0.  1.
         11   -1    0    0    0    0 -0.00000000000E+00 -0.00000000000E+00 -0.45593999997E+02  0.45594000000E+02  0.51100000000E-03 0. -1.
    9900012    2    1    2    0    0  0.16906253553E+02  0.78489539431E+01 -0.18029885395E+01  0.72461594716E+02  0.70000031814E+02 0.  0.
        -12    1    1    2    0    0 -0.16906253553E+02 -0.78489539431E+01  0.18029885395E+01  0.18726405284E+02  0.00000000000E+00 0.  1.
         11    1    3    3    0    0  0.28271872781E+02 -0.34256639983E+01 -0.76863322486E+01  0.29497689199E+02  0.51100000000E-03 0. -1.
        -11    1    3    3    0    0  0.12966043476E+02  0.96782599889E+01 -0.39774718480E+01  0.16661551020E+02  0.51100000000E-03 0.  1.
        -12    1    3    3    0    0 -0.24331662704E+02  0.15963579525E+01  0.98608155571E+01  0.26302354497E+02  0.00000000000E+00 0.  1.
</event>
<event>
 7    1  0.3681059E-013  0.7246079E+02  0.7816164E-02  0.1226710E+00
        -11   -1    0    0    0    0  0.00000000000E+00  0.00000000000E+00  0.45593999997E+02  0.45594000000E+02  0.51100000000E-03 0. -1.
         11   -1    0    0    0    0 -0.00000000000E+00 -0.00000000000E+00 -0.45593999997E+02  0.45594000000E+02  0.51100000000E-03 0.  1.
    9900012    2    1    2    0    0 -0.11971327630E+02  0.12657463626E+02  0.68690835409E+01  0.72460790401E+02  0.69998984037E+02 0.  0.
        -12    1    1    2    0    0  0.11971327630E+02 -0.12657463626E+02 -0.68690835409E+01  0.18727209599E+02  0.00000000000E+00 0.  1.
         11    1    3    3    0    0  0.74695434562E+01  0.24550488642E+02 -0.16697894367E+02  0.30616012944E+02  0.51100000000E-03 0. -1.
        -11    1    3    3    0    0 -0.47109354130E+01  0.80693903547E+01  0.36541260275E+01  0.10032976151E+02  0.51100000000E-03 0.  1.
        -12    1    3    3    0    0 -0.14729935673E+02 -0.19962415371E+02  0.19912851880E+02  0.31811801307E+02  0.00000000000E+00 0.  1.
</event>
<event>
 7    1  0.3681059E-013  0.7246160E+02  0.7816164E-02  0.1226708E+00
        -11   -1    0    0    0    0  0.00000000000E+00  0.00000000000E+00  0.45593999997E+02  0.45594000000E+02  0.51100000000E-03 0.  1.
         11   -1    0    0    0    0 -0.00000000000E+00 -0.00000000000E+00 -0.45593999997E+02  0.45594000000E+02  0.51100000000E-03 0. -1.
    9900012    2    1    2    0    0  0.77961219845E+01  0.76646703057E+01 -0.15203657322E+02  0.72461604595E+02  0.70000044683E+02 0.  0.
        -12    1    1    2    0    0 -0.77961219845E+01 -0.76646703057E+01  0.15203657322E+02  0.18726395405E+02  0.00000000000E+00 0.  1.
         11    1    3    3    0    0 -0.10584435745E+02 -0.14161678681E+02 -0.53931452786E+01  0.18484302512E+02  0.51100000000E-03 0. -1.
        -11    1    3    3    0    0  0.76240543019E+01 -0.96980447270E+00  0.16092826889E+02  0.17833838685E+02  0.51100000000E-03 0.  1.
         12    1    3    3    0    0  0.10756503427E+02  0.22796153460E+02 -0.25903338932E+02  0.36143463398E+02  0.00000000000E+00 0. -1.
</event>
<event>
 7    1  0.3681059E-013  0.7246157E+02  0.7816164E-02  0.1226708E+00
        -11   -1    0    0    0    0  0.00000000000E+00  0.00000000000E+00  0.45593999997E+02  0.45594000000E+02  0.51100000000E-03 0.  1.
         11   -1    0    0    0    0 -0.00000000000E+00 -0.00000000000E+00 -0.45593999997E+02  0.45594000000E+02  0.51100000000E-03 0. -1.
    9900012    2    1    2    0    0  0.11509175317E+02  0.83718355047E+01 -0.12170877521E+02  0.72461574665E+02  0.70000005693E+02 0.  0.
        -12    1    1    2    0    0 -0.11509175317E+02 -0.83718355047E+01  0.12170877521E+02  0.18726425335E+02  0.00000000000E+00 0.  1.
         11    1    3    3    0    0  0.88681295433E+01  0.17629275824E+02 -0.74521359791E+01  0.21094298248E+02  0.51100000000E-03 0. -1.
        -11    1    3    3    0    0  0.27928204793E+01  0.20370648089E+02 -0.68241819912E+01  0.21664085716E+02  0.51100000000E-03 0.  1.
         12    1    3    3    0    0 -0.15177470525E+00 -0.29628088408E+02  0.21054404490E+01  0.29703190700E+02  0.00000000000E+00 0. -1.
</event>
<event>
 7    1  0.3681059E-013  0.7246154E+02  0.7816164E-02  0.1226708E+00
        -11   -1    0    0    0    0  0.00000000000E+00  0.00000000000E+00  0.45593999997E+02  0.45594000000E+02  0.51100000000E-03 0.  1.
         11   -1    0    0    0    0 -0.00000000000E+00 -0.00000000000E+00 -0.45593999997E+02  0.45594000000E+02  0.51100000000E-03 0. -1.
    9900012    2    1    2    0    0  0.16270953628E+02 -0.81876396714E+01 -0.43472889409E+01  0.72461540204E+02  0.69999960802E+02 0.  0.
        -12    1    1    2    0    0 -0.16270953628E+02  0.81876396714E+01  0.43472889409E+01  0.18726459796E+02  0.00000000000E+00 0.  1.
         11    1    3    3    0    0  0.19393079944E+02  0.16589157692E+02  0.12737535128E+02  0.28522561316E+02  0.51100000000E-03 0. -1.
        -11    1    3    3    0    0 -0.46305193498E+01  0.40578676098E+01  0.47188645037E+01  0.77572985925E+01  0.51100000000E-03 0.  1.
        -12    1    3    3    0    0  0.15083930333E+01 -0.28834664973E+02 -0.21803688572E+02  0.36181680296E+02  0.00000000000E+00 0.  1.
</event>
<event>
 7    1  0.3681059E-013  0.7246158E+02  0.7816164E-02  0.1226708E+00
        -11   -1    0    0    0    0  0.00000000000E+00  0.00000000000E+00  0.45593999997E+02  0.45594000000E+02  0.51100000000E-03 0. -1.
         11   -1    0    0    0    0 -0.00000000000E+00 -0.00000000000E+00 -0.45593999997E+02  0.45594000000E+02  0.51100000000E-03 0.  1.
    9900012    2    1    2    0    0 -0.16860995688E+02 -0.64941402339E+01 -0.49205278662E+01  0.72461584768E+02  0.70000018854E+02 0.  0.
        -12    1    1    2    0    0  0.16860995688E+02  0.64941402339E+01  0.49205278662E+01  0.18726415232E+02  0.00000000000E+00 0.  1.
         11    1    3    3    0    0 -0.14943877518E+02 -0.22215388191E+01 -0.91302329194E+00  0.15135663903E+02  0.51100000000E-03 0. -1.
        -11    1    3    3    0    0 -0.10805118866E+02 -0.15416755088E+01 -0.28825853300E+02  0.30822997515E+02  0.51100000000E-03 0.  1.
         12    1    3    3    0    0  0.88880006952E+01 -0.27309259060E+01  0.24818348725E+02  0.26502923350E+02  0.00000000000E+00 0. -1.
</event>
<event>
 7    1  0.3681059E-013  0.7246153E+02  0.7816164E-02  0.1226708E+00
        -11   -1    0    0    0    0  0.00000000000E+00  0.00000000000E+00  0.45593999997E+02  0.45594000000E+02  0.51100000000E-03 0. -1.
         11   -1    0    0    0    0 -0.00000000000E+00 -0.00000000000E+00 -0.45593999997E+02  0.45594000000E+02  0.51100000000E-03 0.  1.
    9900012    2    1    2    0    0  0.16685087713E+02 -0.58139964474E+01  0.62037162267E+01  0.72461526714E+02  0.69999943229E+02 0.  0.
        -12    1    1    2    0    0 -0.16685087713E+02  0.58139964474E+01 -0.62037162267E+01  0.18726473286E+02  0.00000000000E+00 0.  1.
         11    1    3    3    0    0 -0.85316972137E+00  0.21004556919E+02  0.21975650745E+02  0.30411322494E+02  0.51100000000E-03 0. -1.
        -11    1    3    3    0    0 -0.42959840073E+00 -0.11745276573E+02  0.28610063038E+01  0.12096339690E+02  0.51100000000E-03 0.  1.
        -12    1    3    3    0    0  0.17967855835E+02 -0.15073276793E+02 -0.18632940822E+02  0.29953864530E+02  0.00000000000E+00 0.  1.
</event>
<event>
 7    1  0.3681059E-013  0.7246157E+02  0.7816164E-02  0.1226708E+00
        -11   -1    0    0    0    0  0.00000000000E+00  0.00000000000E+00  0.45593999997E+02  0.45594000000E+02  0.51100000000E-03 0. -1.
         11   -1    0    0    0    0 -0.00000000000E+00 -0.00000000000E+00 -0.45593999997E+02  0.45594000000E+02  0.51100000000E-03 0.  1.
    9900012    2    1    2    0    0 -0.19309568300E+01 -0.15665535768E+02  0.10076793061E+02  0.72461565114E+02  0.69999993251E+02 0.  0.
        -12    1    1    2    0    0  0.19309568300E+01  0.15665535768E+02 -0.10076793061E+02  0.18726434886E+02  0.00000000000E+00 0.  1.
         11    1    3    3    0    0  0.25762232863E+01 -0.54602587938E+01  0.10449187522E+01  0.61272512578E+01  0.51100000000E-03 0. -1.
        -11    1    3    3    0    0 -0.25551282807E+02 -0.15802775771E+01  0.27105984641E+02  0.37284041276E+02  0.51100000000E-03 0.  1.
         12    1    3    3    0    0  0.21044102690E+02 -0.86249993966E+01 -0.18074110333E+02  0.29050272580E+02  0.00000000000E+00 0. -1.
</event>
<event>
 7    1  0.3681059E-013  0.7246163E+02  0.7816164E-02  0.1226708E+00
        -11   -1    0    0    0    0  0.00000000000E+00  0.00000000000E+00  0.45593999997E+02  0.45594000000E+02  0.51100000000E-03 0.  1.
         11   -1    0    0    0    0 -0.00000000000E+00 -0.00000000000E+00 -0.45593999997E+02  0.45594000000E+02  0.51100000000E-03 0. -1.
    9900012    2    1    2    0    0  0.18227362992E+02 -0.28212340284E+01 -0.32373919817E+01  0.72461632762E+02  0.70000081376E+02 0.  0.
        -12    1    1    2    0    0 -0.18227362992E+02  0.28212340284E+01  0.32373919817E+01  0.18726367238E+02  0.00000000000E+00 0.  1.
         11    1    3    3    0    0  0.27560689988E+00  0.67542521501E+01 -0.10326194916E+02  0.12342049383E+02  0.51100000000E-03 0. -1.
        -11    1    3    3    0    0  0.40842516227E+01  0.21821068458E+02 -0.66114082481E+01  0.23163567499E+02  0.51100000000E-03 0.  1.
        -12    1    3    3    0    0  0.13867504470E+02 -0.31396554637E+02  0.13700211183E+02  0.36956015880E+02  0.00000000000E+00 0.  1.
</event>
<event>
 7    1  0.3681059E-013  0.7246157E+02  0.7816164E-02  0.1226708E+00
        -11   -1    0    0    0    0  0.00000000000E+00  0.00000000000E+00  0.45593999997E+02  0.45594000000E+02  0.51100000000E-03 0.  1.
         11   -1    0    0    0    0 -0.00000000000E+00 -0.00000000000E+00 -0.45593999997E+02  0.45594000000E+02  0.51100000000E-03 0. -1.
    9900012    2    1    2    0    0  0.31769553867E+01 -0.21499016508E+00 -0.18453728615E+02  0.72461565046E+02  0.69999993163E+02 0.  0.
        -12    1    1    2    0    0 -0.31769553867E+01  0.21499016508E+00  0.18453728615E+02  0.18726434954E+02  0.00000000000E+00 0.  1.
         11    1    3    3    0    0 -0.67915321209E+01  0.39486926821E+01 -0.13938230989E+02  0.15999730180E+02  0.51100000000E-03 0. -1.
        -11    1    3    3    0    0 -0.77405494557E+01 -0.14763406587E+02  0.18931975031E+02  0.25224867864E+02  0.51100000000E-03 0.  1.
         12    1    3    3    0    0  0.17709036963E+02  0.10599723740E+02 -0.23447472656E+02  0.31236967002E+02  0.00000000000E+00 0. -1.
</event>
<event>
 7    1  0.3681059E-013  0.7246157E+02  0.7816164E-02  0.1226708E+00
        -11   -1    0    0    0    0  0.00000000000E+00  0.00000000000E+00  0.45593999997E+02  0.45594000000E+02  0.51100000000E-03 0.  1.
         11   -1    0    0    0    0 -0.00000000000E+00 -0.00000000000E+00 -0.45593999997E+02  0.45594000000E+02  0.51100000000E-03 0. -1.
    9900012    2    1    2    0    0  0.14285757294E+02 -0.11781295398E+02 -0.27924118649E+01  0.72461565563E+02  0.69999993836E+02 0.  0.
        -12    1    1    2    0    0 -0.14285757294E+02  0.11781295398E+02  0.27924118649E+01  0.18726434437E+02  0.00000000000E+00 0.  1.
         11    1    3    3    0    0 -0.44491629193E+01 -0.15719040303E+02  0.49472669783E+01  0.17069233420E+02  0.51100000000E-03 0. -1.
        -11    1    3    3    0    0  0.62486120469E+01  0.66190557996E+01  0.21574991646E+02  0.23416603447E+02  0.51100000000E-03 0.  1.
         12    1    3    3    0    0  0.12486308166E+02 -0.26813108948E+01 -0.29314670489E+02  0.31975728696E+02  0.00000000000E+00 0. -1.
</event>
<event>
 7    1  0.3681059E-013  0.7246155E+02  0.7816164E-02  0.1226708E+00
        -11   -1    0    0    0    0  0.00000000000E+00  0.00000000000E+00  0.45593999997E+02  0.45594000000E+02  0.51100000000E-03 0. -1.
         11   -1    0    0    0    0 -0.00000000000E+00 -0.00000000000E+00 -0.45593999997E+02  0.45594000000E+02  0.51100000000E-03 0.  1.
    9900012    2    1    2    0    0  0.96344872024E+01 -0.14568501698E+02 -0.67539263911E+01  0.72461545262E+02  0.69999967390E+02 0.  0.
        -12    1    1    2    0    0 -0.96344872024E+01  0.14568501698E+02  0.67539263911E+01  0.18726454738E+02  0.00000000000E+00 0.  1.
         11    1    3    3    0    0 -0.16354595805E+01 -0.20670011663E+01 -0.24817274151E+01  0.36202476552E+01  0.51100000000E-03 0. -1.
        -11    1    3    3    0    0  0.20087807749E+01  0.13568255451E+02 -0.28780028135E+02  0.31881386041E+02  0.51100000000E-03 0.  1.
         12    1    3    3    0    0  0.92611660081E+01 -0.26069755982E+02  0.24507829159E+02  0.36959911565E+02  0.00000000000E+00 0. -1.
</event>
<event>
 7    1  0.3681059E-013  0.7246159E+02  0.7816164E-02  0.1226708E+00
        -11   -1    0    0    0    0  0.00000000000E+00  0.00000000000E+00  0.45593999997E+02  0.45594000000E+02  0.51100000000E-03 0.  1.
         11   -1    0    0    0    0 -0.00000000000E+00 -0.00000000000E+00 -0.45593999997E+02  0.45594000000E+02  0.51100000000E-03 0. -1.
    9900012    2    1    2    0    0  0.12031332202E+02  0.12821674611E+02  0.64443825925E+01  0.72461591871E+02  0.70000028108E+02 0.  0.
        -12    1    1    2    0    0 -0.12031332202E+02 -0.12821674611E+02 -0.64443825925E+01  0.18726408129E+02  0.00000000000E+00 0.  1.
         11    1    3    3    0    0  0.45442856344E+00  0.79599211316E+01 -0.14442203526E+02  0.16496790375E+02  0.51100000000E-03 0. -1.
        -11    1    3    3    0    0  0.45078891187E+01  0.14477780299E+02 -0.13040617778E+02  0.19999622471E+02  0.51100000000E-03 0.  1.
        -12    1    3    3    0    0  0.70690145200E+01 -0.96160268190E+01  0.33927203897E+02  0.35965179025E+02  0.00000000000E+00 0.  1.
</event>
<event>
 7    1  0.3681059E-013  0.7246155E+02  0.7816164E-02  0.1226708E+00
        -11   -1    0    0    0    0  0.00000000000E+00  0.00000000000E+00  0.45593999997E+02  0.45594000000E+02  0.51100000000E-03 0.  1.
         11   -1    0    0    0    0 -0.00000000000E+00 -0.00000000000E+00 -0.45593999997E+02  0.45594000000E+02  0.51100000000E-03 0. -1.
    9900012    2    1    2    0    0  0.82821971744E+01 -0.11860044406E+02  0.11892200205E+02  0.72461551616E+02  0.69999975669E+02 0.  0.
        -12    1    1    2    0    0 -0.82821971744E+01  0.11860044406E+02 -0.11892200205E+02  0.18726448384E+02  0.00000000000E+00 0.  1.
         11    1    3    3    0    0  0.22628570878E+02 -0.91852504342E+00  0.10738528335E+02  0.25064155666E+02  0.51100000000E-03 0. -1.
        -11    1    3    3    0    0 -0.13675893949E+02  0.29095809184E+01  0.19750954120E+02  0.24199089349E+02  0.51100000000E-03 0.  1.
         12    1    3    3    0    0 -0.67047975428E+00 -0.13851100281E+02 -0.18597282249E+02  0.23198306601E+02  0.00000000000E+00 0. -1.
</event>
<event>
 7    1  0.3681059E-013  0.7246159E+02  0.7816164E-02  0.1226708E+00
        -11   -1    0    0    0    0  0.00000000000E+00  0.00000000000E+00  0.45593999997E+02  0.45594000000E+02  0.51100000000E-03 0.  1.
         11   -1    0    0    0    0 -0.00000000000E+00 -0.00000000000E+00 -0.45593999997E+02  0.45594000000E+02  0.51100000000E-03 0. -1.
    9900012    2    1    2    0    0 -0.55179868466E+01  0.92270842201E+01 -0.15332677551E+02  0.72461594501E+02  0.70000031533E+02 0.  0.
        -12    1    1    2    0    0  0.55179868466E+01 -0.92270842201E+01  0.15332677551E+02  0.18726405499E+02  0.00000000000E+00 0.  1.
         11    1    3    3    0    0 -0.19339064778E+01  0.84614158670E+01 -0.46092040202E+01  0.98275284125E+01  0.51100000000E-03 0. -1.
        -11    1    3    3    0    0 -0.30262208642E+02  0.58675913688E+01  0.50317346009E+01  0.31233767843E+02  0.51100000000E-03 0.  1.
         12    1    3    3    0    0  0.26678128273E+02 -0.51019230157E+01 -0.15755208132E+02  0.31400298245E+02  0.00000000000E+00 0. -1.
</event>
<event>
 7    1  0.3681059E-013  0.7246158E+02  0.7816164E-02  0.1226708E+00
        -11   -1    0    0    0    0  0.00000000000E+00  0.00000000000E+00  0.45593999997E+02  0.45594000000E+02  0.51100000000E-03 0. -1.
         11   -1    0    0    0    0 -0.00000000000E+00 -0.00000000000E+00 -0.45593999997E+02  0.45594000000E+02  0.51100000000E-03 0.  1.
    9900012    2    1    2    0    0 -0.65893131507E+01  0.14290893163E+02 -0.10150369391E+02  0.72461583526E+02  0.70000017236E+02 0.  0.
        -12    1    1    2    0    0  0.65893131507E+01 -0.14290893163E+02  0.10150369391E+02  0.18726416474E+02  0.00000000000E+00 0.  1.
         11    1    3    3    0    0 -0.16206654909E+02 -0.19729207140E+02  0.75777662928E+01  0.26633058780E+02  0.51100000000E-03 0. -1.
        -11    1    3    3    0    0 -0.25619072275E+00  0.60407315428E+00  0.44675647182E+01  0.45154925351E+01  0.51100000000E-03 0.  1.
        -12    1    3    3    0    0  0.98735324814E+01  0.33416027149E+02 -0.22195700402E+02  0.41313032210E+02  0.00000000000E+00 0.  1.
</event>
<event>
 7    1  0.3681059E-013  0.7246156E+02  0.7816164E-02  0.1226708E+00
        -11   -1    0    0    0    0  0.00000000000E+00  0.00000000000E+00  0.45593999997E+02  0.45594000000E+02  0.51100000000E-03 0.  1.
         11   -1    0    0    0    0 -0.00000000000E+00 -0.00000000000E+00 -0.45593999997E+02  0.45594000000E+02  0.51100000000E-03 0. -1.
    9900012    2    1    2    0    0 -0.10539505216E+02 -0.12627920508E+02 -0.89517542743E+01  0.72461562775E+02  0.69999990205E+02 0.  0.
        -12    1    1    2    0    0  0.10539505216E+02  0.12627920508E+02  0.89517542743E+01  0.18726437225E+02  0.00000000000E+00 0.  1.
         11    1    3    3    0    0 -0.92290239171E+01 -0.11399814033E+01 -0.81782270225E+01  0.12383773155E+02  0.51100000000E-03 0. -1.
        -11    1    3    3    0    0 -0.27396730063E+02  0.58259532613E+01  0.43724335906E+01  0.28348557729E+02  0.51100000000E-03 0.  1.
         12    1    3    3    0    0  0.26086248764E+02 -0.17313892366E+02 -0.51459608424E+01  0.31729231891E+02  0.00000000000E+00 0. -1.
</event>
<event>
 7    1  0.3681059E-013  0.7246135E+02  0.7816164E-02  0.1226709E+00
        -11   -1    0    0    0    0  0.00000000000E+00  0.00000000000E+00  0.45593999997E+02  0.45594000000E+02  0.51100000000E-03 0. -1.
         11   -1    0    0    0    0 -0.00000000000E+00 -0.00000000000E+00 -0.45593999997E+02  0.45594000000E+02  0.51100000000E-03 0.  1.
    9900012    2    1    2    0    0  0.16300666023E+02 -0.80324915201E+01  0.45226762624E+01  0.72461354989E+02  0.69999719524E+02 0.  0.
        -12    1    1    2    0    0 -0.16300666023E+02  0.80324915201E+01 -0.45226762624E+01  0.18726645011E+02  0.00000000000E+00 0.  1.
         11    1    3    3    0    0 -0.60173131752E+01 -0.25575200765E+02 -0.16638846040E+01  0.26326174509E+02  0.51100000000E-03 0. -1.
        -11    1    3    3    0    0 -0.58990494765E+01  0.99169454260E+01 -0.76008554454E+01  0.13817293334E+02  0.51100000000E-03 0.  1.
         12    1    3    3    0    0  0.28217028674E+02  0.76257638193E+01  0.13787416312E+02  0.32317887146E+02  0.00000000000E+00 0. -1.
</event>
<event>
 7    1  0.3681059E-013  0.7246157E+02  0.7816164E-02  0.1226708E+00
        -11   -1    0    0    0    0  0.00000000000E+00  0.00000000000E+00  0.45593999997E+02  0.45594000000E+02  0.51100000000E-03 0.  1.
         11   -1    0    0    0    0 -0.00000000000E+00 -0.00000000000E+00 -0.45593999997E+02  0.45594000000E+02  0.51100000000E-03 0. -1.
    9900012    2    1    2    0    0 -0.21515714932E+01 -0.46302860723E+01 -0.18016946098E+02  0.72461570664E+02  0.70000000481E+02 0.  0.
        -12    1    1    2    0    0  0.21515714932E+01  0.46302860723E+01  0.18016946098E+02  0.18726429336E+02  0.00000000000E+00 0.  1.
         11    1    3    3    0    0  0.16484651029E+00  0.85573841663E+00  0.51863860877E+01  0.52590934125E+01  0.51100000000E-03 0. -1.
        -11    1    3    3    0    0  0.11940712212E+02  0.25081591042E+02 -0.17932325078E+02  0.33064105920E+02  0.51100000000E-03 0.  1.
         12    1    3    3    0    0 -0.14257130215E+02 -0.30567615531E+02 -0.52710071071E+01  0.34138371331E+02  0.00000000000E+00 0. -1.
</event>
<event>
 7    1  0.3681059E-013  0.7246163E+02  0.7816164E-02  0.1226708E+00
        -11   -1    0    0    0    0  0.00000000000E+00  0.00000000000E+00  0.45593999997E+02  0.45594000000E+02  0.51100000000E-03 0. -1.
         11   -1    0    0    0    0 -0.00000000000E+00 -0.00000000000E+00 -0.45593999997E+02  0.45594000000E+02  0.51100000000E-03 0.  1.
    9900012    2    1    2    0    0 -0.14498828005E+02  0.46417814923E+01  0.10904807494E+02  0.72461628878E+02  0.70000076316E+02 0.  0.
        -12    1    1    2    0    0  0.14498828005E+02 -0.46417814923E+01 -0.10904807494E+02  0.18726371122E+02  0.00000000000E+00 0.  1.
         11    1    3    3    0    0  0.13724566328E+02  0.15009130960E+01 -0.29562971711E+01  0.14119353889E+02  0.51100000000E-03 0. -1.
        -11    1    3    3    0    0  0.12138834022E+02  0.67434649970E+01 -0.34001735841E+01  0.14296390881E+02  0.51100000000E-03 0.  1.
         12    1    3    3    0    0 -0.40362228354E+02 -0.36025966007E+01  0.17261278249E+02  0.44045884107E+02  0.00000000000E+00 0. -1.
</event>
<event>
 7    1  0.3681059E-013  0.7246156E+02  0.7816164E-02  0.1226708E+00
        -11   -1    0    0    0    0  0.00000000000E+00  0.00000000000E+00  0.45593999997E+02  0.45594000000E+02  0.51100000000E-03 0.  1.
         11   -1    0    0    0    0 -0.00000000000E+00 -0.00000000000E+00 -0.45593999997E+02  0.45594000000E+02  0.51100000000E-03 0. -1.
    9900012    2    1    2    0    0 -0.51988680898E+01  0.10235105704E+02 -0.14795069745E+02  0.72461555946E+02  0.69999981308E+02 0.  0.
        -12    1    1    2    0    0  0.51988680898E+01 -0.10235105704E+02  0.14795069745E+02  0.18726444054E+02  0.00000000000E+00 0.  1.
         11    1    3    3    0    0 -0.14604828869E+02  0.10032356658E+02 -0.25893590184E+02  0.31375583171E+02  0.51100000000E-03 0. -1.
        -11    1    3    3    0    0 -0.10808181698E+01  0.13974117240E+02 -0.73182936214E+01  0.15811437074E+02  0.51100000000E-03 0.  1.
         12    1    3    3    0    0  0.10486778949E+02 -0.13771368195E+02  0.18416814061E+02  0.25274535700E+02  0.00000000000E+00 0. -1.
</event>
<event>
 7    1  0.3681059E-013  0.7246157E+02  0.7816164E-02  0.1226708E+00
        -11   -1    0    0    0    0  0.00000000000E+00  0.00000000000E+00  0.45593999997E+02  0.45594000000E+02  0.51100000000E-03 0.  1.
         11   -1    0    0    0    0 -0.00000000000E+00 -0.00000000000E+00 -0.45593999997E+02  0.45594000000E+02  0.51100000000E-03 0. -1.
    9900012    2    1    2    0    0 -0.16963953682E+02 -0.35563050942E+01  0.70891518254E+01  0.72461572042E+02  0.70000002277E+02 0.  0.
        -12    1    1    2    0    0  0.16963953682E+02  0.35563050942E+01 -0.70891518254E+01  0.18726427958E+02  0.00000000000E+00 0.  1.
         11    1    3    3    0    0  0.14913924967E+02  0.17898621323E+02 -0.11695066692E+02  0.26068379090E+02  0.51100000000E-03 0. -1.
        -11    1    3    3    0    0 -0.78171878779E+01 -0.79019982563E+01 -0.26605185790E+01  0.11429276536E+02  0.51100000000E-03 0.  1.
        -12    1    3    3    0    0 -0.24060690771E+02 -0.13552928161E+02  0.21444737096E+02  0.34963916417E+02  0.00000000000E+00 0.  1.
</event>
<event>
 7    1  0.3681059E-013  0.7246158E+02  0.7816164E-02  0.1226708E+00
        -11   -1    0    0    0    0  0.00000000000E+00  0.00000000000E+00  0.45593999997E+02  0.45594000000E+02  0.51100000000E-03 0.  1.
         11   -1    0    0    0    0 -0.00000000000E+00 -0.00000000000E+00 -0.45593999997E+02  0.45594000000E+02  0.51100000000E-03 0. -1.
    9900012    2    1    2    0    0  0.13053332969E+02  0.51063898132E+01 -0.12418289230E+02  0.72461584809E+02  0.70000018908E+02 0.  0.
        -12    1    1    2    0    0 -0.13053332969E+02 -0.51063898132E+01  0.12418289230E+02  0.18726415191E+02  0.00000000000E+00 0.  1.
         11    1    3    3    0    0 -0.99946145827E+01  0.12966502688E+02 -0.16909898333E+01  0.16458492017E+02  0.51100000000E-03 0. -1.
        -11    1    3    3    0    0 -0.22400228827E+01  0.15879000926E+02  0.64661594760E+01  0.17290794995E+02  0.51100000000E-03 0.  1.
        -12    1    3    3    0    0  0.25287970435E+02 -0.23739113800E+02 -0.17193458872E+02  0.38712297797E+02  0.00000000000E+00 0.  1.
</event>
<event>
 7    1  0.3681059E-013  0.7246135E+02  0.7816164E-02  0.1226709E+00
        -11   -1    0    0    0    0  0.00000000000E+00  0.00000000000E+00  0.45593999997E+02  0.45594000000E+02  0.51100000000E-03 0.  1.
         11   -1    0    0    0    0 -0.00000000000E+00 -0.00000000000E+00 -0.45593999997E+02  0.45594000000E+02  0.51100000000E-03 0. -1.
    9900012    2    1    2    0    0  0.65953668812E+01  0.14828159060E+02 -0.93442055992E+01  0.72461352043E+02  0.69999715687E+02 0.  0.
        -12    1    1    2    0    0 -0.65953668812E+01 -0.14828159060E+02  0.93442055992E+01  0.18726647957E+02  0.00000000000E+00 0.  1.
         11    1    3    3    0    0  0.82397781140E+01  0.11470444436E+02  0.22721137294E+01  0.14304808282E+02  0.51100000000E-03 0. -1.
        -11    1    3    3    0    0 -0.24283403659E+01  0.25229106019E+02  0.10138357751E+02  0.27298185391E+02  0.51100000000E-03 0.  1.
         12    1    3    3    0    0  0.78392913306E+00 -0.21871391395E+02 -0.21754677080E+02  0.30858358370E+02  0.00000000000E+00 0. -1.
</event>
<event>
 7    1  0.3681059E-013  0.7246161E+02  0.7816164E-02  0.1226708E+00
        -11   -1    0    0    0    0  0.00000000000E+00  0.00000000000E+00  0.45593999997E+02  0.45594000000E+02  0.51100000000E-03 0. -1.
         11   -1    0    0    0    0 -0.00000000000E+00 -0.00000000000E+00 -0.45593999997E+02  0.45594000000E+02  0.51100000000E-03 0.  1.
    9900012    2    1    2    0    0  0.77483062629E+01  0.13398616638E+02 -0.10541273416E+02  0.72461611587E+02  0.70000053792E+02 0.  0.
        -12    1    1    2    0    0 -0.77483062629E+01 -0.13398616638E+02  0.10541273416E+02  0.18726388413E+02  0.00000000000E+00 0.  1.
         11    1    3    3    0    0 -0.20426742149E+02 -0.93296835590E+01  0.13432073869E+02  0.26167067066E+02  0.51100000000E-03 0. -1.
        -11    1    3    3    0    0  0.53328251349E+01 -0.17929191845E+01 -0.11328238316E+01  0.57390655351E+01  0.51100000000E-03 0.  1.
        -12    1    3    3    0    0  0.22842223277E+02  0.24521219381E+02 -0.22840523453E+02  0.40555478986E+02  0.00000000000E+00 0.  1.
</event>
<event>
 7    1  0.3681059E-013  0.7246162E+02  0.7816164E-02  0.1226708E+00
        -11   -1    0    0    0    0  0.00000000000E+00  0.00000000000E+00  0.45593999997E+02  0.45594000000E+02  0.51100000000E-03 0.  1.
         11   -1    0    0    0    0 -0.00000000000E+00 -0.00000000000E+00 -0.45593999997E+02  0.45594000000E+02  0.51100000000E-03 0. -1.
    9900012    2    1    2    0    0 -0.56307899458E+01  0.97991687718E+01 -0.14931442571E+02  0.72461615370E+02  0.70000058720E+02 0.  0.
        -12    1    1    2    0    0  0.56307899458E+01 -0.97991687718E+01  0.14931442571E+02  0.18726384630E+02  0.00000000000E+00 0.  1.
         11    1    3    3    0    0  0.16418592925E+02  0.29025680726E+02 -0.91028589211E+01  0.34567649269E+02  0.51100000000E-03 0. -1.
        -11    1    3    3    0    0  0.34376941011E+01 -0.15019010820E+01 -0.57307419739E+01  0.68494416872E+01  0.51100000000E-03 0.  1.
        -12    1    3    3    0    0 -0.25487076971E+02 -0.17724610872E+02 -0.97841676350E-01  0.31044524414E+02  0.00000000000E+00 0.  1.
</event>
<event>
 7    1  0.3681059E-013  0.7246206E+02  0.7816164E-02  0.1226707E+00
        -11   -1    0    0    0    0  0.00000000000E+00  0.00000000000E+00  0.45593999997E+02  0.45594000000E+02  0.51100000000E-03 0. -1.
         11   -1    0    0    0    0 -0.00000000000E+00 -0.00000000000E+00 -0.45593999997E+02  0.45594000000E+02  0.51100000000E-03 0.  1.
    9900012    2    1    2    0    0  0.17169527470E+02 -0.19547497162E+01  0.72143709102E+01  0.72462058966E+02  0.70000636583E+02 0.  0.
        -12    1    1    2    0    0 -0.17169527470E+02  0.19547497162E+01 -0.72143709102E+01  0.18725941034E+02  0.00000000000E+00 0.  1.
         11    1    3    3    0    0  0.99791567588E+01 -0.30201347340E+02  0.95062324640E+01  0.33197490969E+02  0.51100000000E-03 0. -1.
        -11    1    3    3    0    0  0.62577765147E+00 -0.37034849588E+01 -0.53139728613E+01  0.65073578617E+01  0.51100000000E-03 0.  1.
        -12    1    3    3    0    0  0.65645930594E+01  0.31950082582E+02  0.30221113075E+01  0.32757210135E+02  0.00000000000E+00 0.  1.
</event>
<event>
 7    1  0.3681059E-013  0.7246157E+02  0.7816164E-02  0.1226708E+00
        -11   -1    0    0    0    0  0.00000000000E+00  0.00000000000E+00  0.45593999997E+02  0.45594000000E+02  0.51100000000E-03 0. -1.
         11   -1    0    0    0    0 -0.00000000000E+00 -0.00000000000E+00 -0.45593999997E+02  0.45594000000E+02  0.51100000000E-03 0.  1.
    9900012    2    1    2    0    0 -0.57685699159E+01 -0.48982564747E+01  0.17129211161E+02  0.72461569737E+02  0.69999999275E+02 0.  0.
        -12    1    1    2    0    0  0.57685699159E+01  0.48982564747E+01 -0.17129211161E+02  0.18726430263E+02  0.00000000000E+00 0.  1.
         11    1    3    3    0    0 -0.22055217305E+02 -0.17235805268E+02  0.75915595338E+00  0.28001462670E+02  0.51100000000E-03 0. -1.
        -11    1    3    3    0    0 -0.91737311353E+01  0.12190952537E+02  0.99085300523E+01  0.18192186091E+02  0.51100000000E-03 0.  1.
        -12    1    3    3    0    0  0.25460378525E+02  0.14659625648E+00  0.64615251558E+01  0.26267920976E+02  0.00000000000E+00 0.  1.
</event>
<event>
 7    1  0.3681059E-013  0.7246153E+02  0.7816164E-02  0.1226708E+00
        -11   -1    0    0    0    0  0.00000000000E+00  0.00000000000E+00  0.45593999997E+02  0.45594000000E+02  0.51100000000E-03 0.  1.
         11   -1    0    0    0    0 -0.00000000000E+00 -0.00000000000E+00 -0.45593999997E+02  0.45594000000E+02  0.51100000000E-03 0. -1.
    9900012    2    1    2    0    0 -0.24048020085E+01  0.11711182634E+02 -0.14413385915E+02  0.72461533037E+02  0.69999951466E+02 0.  0.
        -12    1    1    2    0    0  0.24048020085E+01 -0.11711182634E+02  0.14413385915E+02  0.18726466963E+02  0.00000000000E+00 0.  1.
         11    1    3    3    0    0 -0.44640157884E+01 -0.20895667346E+02 -0.23357994395E+02  0.31656788422E+02  0.51100000000E-03 0. -1.
        -11    1    3    3    0    0 -0.92021396973E+01  0.18684003569E+02  0.94944695394E+01  0.22889218346E+02  0.51100000000E-03 0.  1.
        -12    1    3    3    0    0  0.11261353477E+02  0.13922846411E+02 -0.54986105873E+00  0.17915526269E+02  0.00000000000E+00 0.  1.
</event>
<event>
 7    1  0.3681059E-013  0.7246161E+02  0.7816164E-02  0.1226708E+00
        -11   -1    0    0    0    0  0.00000000000E+00  0.00000000000E+00  0.45593999997E+02  0.45594000000E+02  0.51100000000E-03 0. -1.
         11   -1    0    0    0    0 -0.00000000000E+00 -0.00000000000E+00 -0.45593999997E+02  0.45594000000E+02  0.51100000000E-03 0.  1.
    9900012    2    1    2    0    0  0.30614833229E+01 -0.35040994512E+01  0.18139078991E+02  0.72461612742E+02  0.70000055296E+02 0.  0.
        -12    1    1    2    0    0 -0.30614833229E+01  0.35040994512E+01 -0.18139078991E+02  0.18726387258E+02  0.00000000000E+00 0.  1.
         11    1    3    3    0    0  0.34425533321E+01 -0.21593576831E+02  0.32080460050E+02  0.38823828393E+02  0.51100000000E-03 0. -1.
        -11    1    3    3    0    0 -0.21981054658E+01 -0.49541714886E+01  0.17550237972E+01  0.56969809169E+01  0.51100000000E-03 0.  1.
         12    1    3    3    0    0  0.18170354566E+01  0.23043648868E+02 -0.15696404856E+02  0.27940803432E+02  0.00000000000E+00 0. -1.
</event>
<event>
 7    1  0.3681059E-013  0.7246131E+02  0.7816164E-02  0.1226709E+00
        -11   -1    0    0    0    0  0.00000000000E+00  0.00000000000E+00  0.45593999997E+02  0.45594000000E+02  0.51100000000E-03 0. -1.
         11   -1    0    0    0    0 -0.00000000000E+00 -0.00000000000E+00 -0.45593999997E+02  0.45594000000E+02  0.51100000000E-03 0.  1.
    9900012    2    1    2    0    0 -0.91713419897E+01  0.11204734524E+02  0.11875580832E+02  0.72461307560E+02  0.69999657739E+02 0.  0.
        -12    1    1    2    0    0  0.91713419897E+01 -0.11204734524E+02 -0.11875580832E+02  0.18726692440E+02  0.00000000000E+00 0.  1.
         11    1    3    3    0    0 -0.73304772080E+01 -0.79507950490E+00 -0.17534075162E+01  0.75790821143E+01  0.51100000000E-03 0. -1.
        -11    1    3    3    0    0 -0.12082025713E+02  0.13848628926E+02 -0.21476581035E+02  0.28266648222E+02  0.51100000000E-03 0.  1.
        -12    1    3    3    0    0  0.10241160931E+02 -0.18488148973E+01  0.35105569383E+02  0.36615577224E+02  0.00000000000E+00 0.  1.
</event>
<event>
 7    1  0.3681059E-013  0.7246158E+02  0.7816164E-02  0.1226708E+00
        -11   -1    0    0    0    0  0.00000000000E+00  0.00000000000E+00  0.45593999997E+02  0.45594000000E+02  0.51100000000E-03 0. -1.
         11   -1    0    0    0    0 -0.00000000000E+00 -0.00000000000E+00 -0.45593999997E+02  0.45594000000E+02  0.51100000000E-03 0.  1.
    9900012    2    1    2    0    0  0.34985024757E+00 -0.17246562198E+02 -0.72878263989E+01  0.72461582391E+02  0.70000015758E+02 0.  0.
        -12    1    1    2    0    0 -0.34985024757E+00  0.17246562198E+02  0.72878263989E+01  0.18726417609E+02  0.00000000000E+00 0.  1.
         11    1    3    3    0    0 -0.52424338717E+01  0.16166698122E+01  0.10278153460E+02  0.11650629725E+02  0.51100000000E-03 0. -1.
        -11    1    3    3    0    0 -0.20089510463E+02 -0.24148220861E+02 -0.13846248655E+02  0.34328466372E+02  0.51100000000E-03 0.  1.
        -12    1    3    3    0    0  0.25681794582E+02  0.52849888505E+01 -0.37197312038E+01  0.26482486294E+02  0.00000000000E+00 0.  1.
</event>
<event>
 7    1  0.3681059E-013  0.7246152E+02  0.7816164E-02  0.1226708E+00
        -11   -1    0    0    0    0  0.00000000000E+00  0.00000000000E+00  0.45593999997E+02  0.45594000000E+02  0.51100000000E-03 0.  1.
         11   -1    0    0    0    0 -0.00000000000E+00 -0.00000000000E+00 -0.45593999997E+02  0.45594000000E+02  0.51100000000E-03 0. -1.
    9900012    2    1    2    0    0 -0.60505735550E+01  0.73175597957E+01 -0.16140782464E+02  0.72461521948E+02  0.69999937019E+02 0.  0.
        -12    1    1    2    0    0  0.60505735550E+01 -0.73175597957E+01  0.16140782464E+02  0.18726478052E+02  0.00000000000E+00 0.  1.
         11    1    3    3    0    0  0.16835493471E+02  0.45923384183E+01 -0.78799750650E+01  0.19147256196E+02  0.51100000000E-03 0. -1.
        -11    1    3    3    0    0 -0.25828332009E+02  0.18201283480E+02 -0.16381231822E+02  0.35591209743E+02  0.51100000000E-03 0.  1.
         12    1    3    3    0    0  0.29422649837E+01 -0.15476062103E+02  0.81204244235E+01  0.17723056008E+02  0.00000000000E+00 0. -1.
</event>
<event>
 7    1  0.3681059E-013  0.7246154E+02  0.7816164E-02  0.1226708E+00
        -11   -1    0    0    0    0  0.00000000000E+00  0.00000000000E+00  0.45593999997E+02  0.45594000000E+02  0.51100000000E-03 0.  1.
         11   -1    0    0    0    0 -0.00000000000E+00 -0.00000000000E+00 -0.45593999997E+02  0.45594000000E+02  0.51100000000E-03 0. -1.
    9900012    2    1    2    0    0  0.86228798830E+01  0.15596558329E+02 -0.57509779187E+01  0.72461536473E+02  0.69999955942E+02 0.  0.
        -12    1    1    2    0    0 -0.86228798830E+01 -0.15596558329E+02  0.57509779187E+01  0.18726463527E+02  0.00000000000E+00 0.  1.
         11    1    3    3    0    0 -0.19989930607E+01  0.66738764415E+01 -0.15210048436E+01  0.71309225215E+01  0.51100000000E-03 0. -1.
        -11    1    3    3    0    0  0.25038549728E+02 -0.19435274383E+02 -0.94899424559E+01  0.33086520985E+02  0.51100000000E-03 0.  1.
         12    1    3    3    0    0 -0.14416676784E+02  0.28357956271E+02  0.52599693807E+01  0.32244092967E+02  0.00000000000E+00 0. -1.
</event>
<event>
 7    1  0.3681059E-013  0.7246156E+02  0.7816164E-02  0.1226708E+00
        -11   -1    0    0    0    0  0.00000000000E+00  0.00000000000E+00  0.45593999997E+02  0.45594000000E+02  0.51100000000E-03 0. -1.
         11   -1    0    0    0    0 -0.00000000000E+00 -0.00000000000E+00 -0.45593999997E+02  0.45594000000E+02  0.51100000000E-03 0.  1.
    9900012    2    1    2    0    0  0.89179820526E+01  0.10344726179E+02  0.12811553545E+02  0.72461556989E+02  0.69999982668E+02 0.  0.
        -12    1    1    2    0    0 -0.89179820526E+01 -0.10344726179E+02 -0.12811553545E+02  0.18726443011E+02  0.00000000000E+00 0.  1.
         11    1    3    3    0    0  0.93259619221E+01  0.83804202023E+01 -0.13171998991E+02  0.18185339321E+02  0.51100000000E-03 0. -1.
        -11    1    3    3    0    0 -0.10774528461E+02 -0.17600685761E+02  0.24573855451E+02  0.32089702005E+02  0.51100000000E-03 0.  1.
         12    1    3    3    0    0  0.10366548591E+02  0.19564991737E+02  0.14096970845E+01  0.22186515663E+02  0.00000000000E+00 0. -1.
</event>
<event>
 7    1  0.3681059E-013  0.7246160E+02  0.7816164E-02  0.1226708E+00
        -11   -1    0    0    0    0  0.00000000000E+00  0.00000000000E+00  0.45593999997E+02  0.45594000000E+02  0.51100000000E-03 0.  1.
         11   -1    0    0    0    0 -0.00000000000E+00 -0.00000000000E+00 -0.45593999997E+02  0.45594000000E+02  0.51100000000E-03 0. -1.
    9900012    2    1    2    0    0  0.13746689840E+02 -0.80949599085E+01  0.98070498644E+01  0.72461599264E+02  0.70000037738E+02 0.  0.
        -12    1    1    2    0    0 -0.13746689840E+02  0.80949599085E+01 -0.98070498644E+01  0.18726400736E+02  0.00000000000E+00 0.  1.
         11    1    3    3    0    0  0.24236286913E+02  0.86075437126E+01  0.78077691079E+00  0.25731246083E+02  0.51100000000E-03 0. -1.
        -11    1    3    3    0    0  0.63964577560E+01  0.71253257615E+01 -0.83865931240E+01  0.12728703136E+02  0.51100000000E-03 0.  1.
        -12    1    3    3    0    0 -0.16886054829E+02 -0.23827829383E+02  0.17412866078E+02  0.34001650046E+02  0.00000000000E+00 0.  1.
</event>
<event>
 7    1  0.3681059E-013  0.7246158E+02  0.7816164E-02  0.1226708E+00
        -11   -1    0    0    0    0  0.00000000000E+00  0.00000000000E+00  0.45593999997E+02  0.45594000000E+02  0.51100000000E-03 0.  1.
         11   -1    0    0    0    0 -0.00000000000E+00 -0.00000000000E+00 -0.45593999997E+02  0.45594000000E+02  0.51100000000E-03 0. -1.
    9900012    2    1    2    0    0  0.14288577895E+01  0.14517036328E+02 -0.11742774086E+02  0.72461582254E+02  0.70000015580E+02 0.  0.
        -12    1    1    2    0    0 -0.14288577895E+01 -0.14517036328E+02  0.11742774086E+02  0.18726417746E+02  0.00000000000E+00 0.  1.
         11    1    3    3    0    0 -0.12219284144E+02  0.61630279605E+00 -0.88450062288E+01  0.15097180849E+02  0.51100000000E-03 0. -1.
        -11    1    3    3    0    0 -0.16889716789E+02 -0.74917371400E+01  0.52316318790E+01  0.19203089100E+02  0.51100000000E-03 0.  1.
         12    1    3    3    0    0  0.30537858723E+02  0.21392470672E+02 -0.81293997366E+01  0.38161312306E+02  0.00000000000E+00 0. -1.
</event>
<event>
 7    1  0.3681059E-013  0.7246157E+02  0.7816164E-02  0.1226708E+00
        -11   -1    0    0    0    0  0.00000000000E+00  0.00000000000E+00  0.45593999997E+02  0.45594000000E+02  0.51100000000E-03 0.  1.
         11   -1    0    0    0    0 -0.00000000000E+00 -0.00000000000E+00 -0.45593999997E+02  0.45594000000E+02  0.51100000000E-03 0. -1.
    9900012    2    1    2    0    0 -0.63651015782E+01 -0.34394023543E+01 -0.17272376673E+02  0.72461574751E+02  0.70000005806E+02 0.  0.
        -12    1    1    2    0    0  0.63651015782E+01  0.34394023543E+01  0.17272376673E+02  0.18726425249E+02  0.00000000000E+00 0.  1.
         11    1    3    3    0    0  0.28724533498E+01 -0.12728797626E+02 -0.34114896828E+02  0.36525326325E+02  0.51100000000E-03 0. -1.
        -11    1    3    3    0    0 -0.56758618364E+01 -0.76191690898E+01 -0.26734010784E+01  0.98698641729E+01  0.51100000000E-03 0.  1.
        -12    1    3    3    0    0 -0.35616930916E+01  0.16908564362E+02  0.19515921234E+02  0.26066384253E+02  0.00000000000E+00 0.  1.
</event>
<event>
 7    1  0.3681059E-013  0.7246163E+02  0.7816164E-02  0.1226708E+00
        -11   -1    0    0    0    0  0.00000000000E+00  0.00000000000E+00  0.45593999997E+02  0.45594000000E+02  0.51100000000E-03 0.  1.
         11   -1    0    0    0    0 -0.00000000000E+00 -0.00000000000E+00 -0.45593999997E+02  0.45594000000E+02  0.51100000000E-03 0. -1.
    9900012    2    1    2    0    0 -0.87078443649E+01 -0.94030374393E+00 -0.16551929920E+02  0.72461625319E+02  0.70000071679E+02 0.  0.
        -12    1    1    2    0    0  0.87078443649E+01  0.94030374393E+00  0.16551929920E+02  0.18726374681E+02  0.00000000000E+00 0.  1.
         11    1    3    3    0    0  0.95323931933E+01  0.12176889355E+02 -0.19639249210E+02  0.24996865086E+02  0.51100000000E-03 0. -1.
        -11    1    3    3    0    0 -0.23341292064E+02  0.86995759751E+01  0.54465056639E+00  0.24915761716E+02  0.51100000000E-03 0.  1.
        -12    1    3    3    0    0  0.51010545058E+01 -0.21816769074E+02  0.25426687227E+01  0.22548998517E+02  0.00000000000E+00 0.  1.
</event>
<event>
 7    1  0.3681059E-013  0.7246155E+02  0.7816164E-02  0.1226708E+00
        -11   -1    0    0    0    0  0.00000000000E+00  0.00000000000E+00  0.45593999997E+02  0.45594000000E+02  0.51100000000E-03 0. -1.
         11   -1    0    0    0    0 -0.00000000000E+00 -0.00000000000E+00 -0.45593999997E+02  0.45594000000E+02  0.51100000000E-03 0.  1.
    9900012    2    1    2    0    0 -0.81454872830E+01  0.11194012303E+02  0.12610516092E+02  0.72461548371E+02  0.69999971441E+02 0.  0.
        -12    1    1    2    0    0  0.81454872830E+01 -0.11194012303E+02 -0.12610516092E+02  0.18726451629E+02  0.00000000000E+00 0.  1.
         11    1    3    3    0    0 -0.29799994416E+02  0.58639255760E+01  0.23402451891E+02  0.38341883693E+02  0.51100000000E-03 0. -1.
        -11    1    3    3    0    0  0.10007552942E+00 -0.28294850930E+01  0.53011821015E+01  0.60098696273E+01  0.51100000000E-03 0.  1.
        -12    1    3    3    0    0  0.21554431603E+02  0.81595718197E+01 -0.16093117901E+02  0.28109795051E+02  0.00000000000E+00 0.  1.
</event>
<event>
 7    1  0.3681059E-013  0.7246149E+02  0.7816164E-02  0.1226708E+00
        -11   -1    0    0    0    0  0.00000000000E+00  0.00000000000E+00  0.45593999997E+02  0.45594000000E+02  0.51100000000E-03 0. -1.
         11   -1    0    0    0    0 -0.00000000000E+00 -0.00000000000E+00 -0.45593999997E+02  0.45594000000E+02  0.51100000000E-03 0.  1.
    9900012    2    1    2    0    0  0.13201561657E+02  0.19931378432E+01  0.13131200515E+02  0.72461487896E+02  0.69999892660E+02 0.  0.
        -12    1    1    2    0    0 -0.13201561657E+02 -0.19931378432E+01 -0.13131200515E+02  0.18726512104E+02  0.00000000000E+00 0.  1.
         11    1    3    3    0    0 -0.12087038023E+02 -0.56089234182E+01  0.13643217649E+02  0.19070760293E+02  0.51100000000E-03 0. -1.
        -11    1    3    3    0    0 -0.10021345806E+02  0.10860511243E+01 -0.12018440516E+02  0.15685974357E+02  0.51100000000E-03 0.  1.
         12    1    3    3    0    0  0.35309945486E+02  0.65160101370E+01  0.11506423382E+02  0.37704753246E+02  0.00000000000E+00 0. -1.
</event>
<event>
 7    1  0.3681059E-013  0.7246152E+02  0.7816164E-02  0.1226708E+00
        -11   -1    0    0    0    0  0.00000000000E+00  0.00000000000E+00  0.45593999997E+02  0.45594000000E+02  0.51100000000E-03 0. -1.
         11   -1    0    0    0    0 -0.00000000000E+00 -0.00000000000E+00 -0.45593999997E+02  0.45594000000E+02  0.51100000000E-03 0.  1.
    9900012    2    1    2    0    0  0.18281317943E+02  0.11494701842E+00  0.40572350358E+01  0.72461522630E+02  0.69999937909E+02 0.  0.
        -12    1    1    2    0    0 -0.18281317943E+02 -0.11494701842E+00 -0.40572350358E+01  0.18726477370E+02  0.00000000000E+00 0.  1.
         11    1    3    3    0    0  0.50204260560E+01  0.14052366561E+02 -0.17740802034E+02  0.23182099577E+02  0.51100000000E-03 0. -1.
        -11    1    3    3    0    0 -0.76063460711E+01  0.25228430274E+01 -0.66018511982E+01  0.10382951266E+02  0.51100000000E-03 0.  1.
         12    1    3    3    0    0  0.20867237958E+02 -0.16460262570E+02  0.28399888268E+02  0.38896471787E+02  0.00000000000E+00 0. -1.
</event>
<event>
 7    1  0.3681059E-013  0.7246162E+02  0.7816164E-02  0.1226708E+00
        -11   -1    0    0    0    0  0.00000000000E+00  0.00000000000E+00  0.45593999997E+02  0.45594000000E+02  0.51100000000E-03 0.  1.
         11   -1    0    0    0    0 -0.00000000000E+00 -0.00000000000E+00 -0.45593999997E+02  0.45594000000E+02  0.51100000000E-03 0. -1.
    9900012    2    1    2    0    0  0.17632060402E+02  0.62767079971E+01 -0.62495135099E+00  0.72461623375E+02  0.70000069148E+02 0.  0.
        -12    1    1    2    0    0 -0.17632060402E+02 -0.62767079971E+01  0.62495135099E+00  0.18726376625E+02  0.00000000000E+00 0.  1.
         11    1    3    3    0    0  0.25341700072E+02 -0.24316487593E+01 -0.14076727363E+02  0.29090701809E+02  0.51100000000E-03 0. -1.
        -11    1    3    3    0    0  0.16102066683E+02  0.21732014781E+01  0.28372897941E+01  0.16493925238E+02  0.51100000000E-03 0.  1.
        -12    1    3    3    0    0 -0.23811706353E+02  0.65351552784E+01  0.10614486218E+02  0.26876996328E+02  0.00000000000E+00 0.  1.
</event>
<event>
 7    1  0.3681059E-013  0.7246165E+02  0.7816164E-02  0.1226708E+00
        -11   -1    0    0    0    0  0.00000000000E+00  0.00000000000E+00  0.45593999997E+02  0.45594000000E+02  0.51100000000E-03 0.  1.
         11   -1    0    0    0    0 -0.00000000000E+00 -0.00000000000E+00 -0.45593999997E+02  0.45594000000E+02  0.51100000000E-03 0. -1.
    9900012    2    1    2    0    0  0.10402893756E+02  0.13585073280E+02  0.76093180733E+01  0.72461651288E+02  0.70000105510E+02 0.  0.
        -12    1    1    2    0    0 -0.10402893756E+02 -0.13585073280E+02 -0.76093180733E+01  0.18726348712E+02  0.00000000000E+00 0.  1.
         11    1    3    3    0    0 -0.37646093243E+01  0.75599609484E+01 -0.21021931426E+02  0.22654952969E+02  0.51100000000E-03 0. -1.
        -11    1    3    3    0    0  0.37718593642E+01  0.96903767175E+01 -0.69829656526E+01  0.12525659007E+02  0.51100000000E-03 0.  1.
        -12    1    3    3    0    0  0.10395643716E+02 -0.36652643860E+01  0.35614215152E+02  0.37281039312E+02  0.00000000000E+00 0.  1.
</event>
<event>
 7    1  0.3681059E-013  0.7246202E+02  0.7816164E-02  0.1226707E+00
        -11   -1    0    0    0    0  0.00000000000E+00  0.00000000000E+00  0.45593999997E+02  0.45594000000E+02  0.51100000000E-03 0.  1.
         11   -1    0    0    0    0 -0.00000000000E+00 -0.00000000000E+00 -0.45593999997E+02  0.45594000000E+02  0.51100000000E-03 0. -1.
    9900012    2    1    2    0    0  0.15844628482E+02 -0.12713155779E+01 -0.98991769376E+01  0.72462023415E+02  0.70000590271E+02 0.  0.
        -12    1    1    2    0    0 -0.15844628482E+02  0.12713155779E+01  0.98991769376E+01  0.18725976585E+02  0.00000000000E+00 0.  1.
         11    1    3    3    0    0 -0.26229338982E+01 -0.75723129244E+01  0.18046751428E+01  0.82144115974E+01  0.51100000000E-03 0. -1.
        -11    1    3    3    0    0 -0.10811595249E+02  0.24807391300E+02  0.16828530249E+01  0.27113267039E+02  0.51100000000E-03 0.  1.
         12    1    3    3    0    0  0.29279157628E+02 -0.18506393954E+02 -0.13386705105E+02  0.37134344779E+02  0.00000000000E+00 0. -1.
</event>
<event>
 7    1  0.3681059E-013  0.7246153E+02  0.7816164E-02  0.1226708E+00
        -11   -1    0    0    0    0  0.00000000000E+00  0.00000000000E+00  0.45593999997E+02  0.45594000000E+02  0.51100000000E-03 0. -1.
         11   -1    0    0    0    0 -0.00000000000E+00 -0.00000000000E+00 -0.45593999997E+02  0.45594000000E+02  0.51100000000E-03 0.  1.
    9900012    2    1    2    0    0  0.28743166342E+01 -0.26758630851E+01  0.18310068943E+02  0.72461533060E+02  0.69999951495E+02 0.  0.
        -12    1    1    2    0    0 -0.28743166342E+01  0.26758630851E+01 -0.18310068943E+02  0.18726466940E+02  0.00000000000E+00 0.  1.
         11    1    3    3    0    0 -0.11823761836E+02  0.10833263668E+02  0.23562891220E+02  0.28502119019E+02  0.51100000000E-03 0. -1.
        -11    1    3    3    0    0  0.16420270619E+02 -0.58882554634E+01  0.14521603146E+02  0.22697440336E+02  0.51100000000E-03 0.  1.
        -12    1    3    3    0    0 -0.17221921481E+01 -0.76208712893E+01 -0.19774425424E+02  0.21261973705E+02  0.00000000000E+00 0.  1.
</event>
<event>
 7    1  0.3681059E-013  0.7246172E+02  0.7816164E-02  0.1226708E+00
        -11   -1    0    0    0    0  0.00000000000E+00  0.00000000000E+00  0.45593999997E+02  0.45594000000E+02  0.51100000000E-03 0.  1.
         11   -1    0    0    0    0 -0.00000000000E+00 -0.00000000000E+00 -0.45593999997E+02  0.45594000000E+02  0.51100000000E-03 0. -1.
    9900012    2    1    2    0    0  0.13613338884E+02 -0.11697520637E+02  0.53402911917E+01  0.72461716476E+02  0.70000190428E+02 0.  0.
        -12    1    1    2    0    0 -0.13613338884E+02  0.11697520637E+02 -0.53402911917E+01  0.18726283524E+02  0.00000000000E+00 0.  1.
         11    1    3    3    0    0  0.13511993699E+02  0.55879288078E+01 -0.74936073595E+01  0.16430248738E+02  0.51100000000E-03 0. -1.
        -11    1    3    3    0    0  0.23140828322E+02  0.25133675487E+01  0.60549818075E+00  0.23284792896E+02  0.51100000000E-03 0.  1.
        -12    1    3    3    0    0 -0.23039483137E+02 -0.19798816994E+02  0.12228400370E+02  0.32746674842E+02  0.00000000000E+00 0.  1.
</event>
<event>
 7    1  0.3681059E-013  0.7246157E+02  0.7816164E-02  0.1226708E+00
        -11   -1    0    0    0    0  0.00000000000E+00  0.00000000000E+00  0.45593999997E+02  0.45594000000E+02  0.51100000000E-03 0. -1.
         11   -1    0    0    0    0 -0.00000000000E+00 -0.00000000000E+00 -0.45593999997E+02  0.45594000000E+02  0.51100000000E-03 0.  1.
    9900012    2    1    2    0    0  0.96242639154E+01  0.11845554764E+02  0.10850599072E+02  0.72461571515E+02  0.70000001591E+02 0.  0.
        -12    1    1    2    0    0 -0.96242639154E+01 -0.11845554764E+02 -0.10850599072E+02  0.18726428485E+02  0.00000000000E+00 0.  1.
         11    1    3    3    0    0  0.38205103034E+01  0.15944585259E+02 -0.68323379920E+01  0.17762515046E+02  0.51100000000E-03 0. -1.
        -11    1    3    3    0    0 -0.12356784655E+02  0.16272944102E+02  0.18257793120E+02  0.27401566500E+02  0.51100000000E-03 0.  1.
         12    1    3    3    0    0  0.18160538267E+02 -0.20371974598E+02 -0.57485605633E+00  0.27297489970E+02  0.00000000000E+00 0. -1.
</event>
<event>
 7    1  0.3681059E-013  0.7246158E+02  0.7816164E-02  0.1226708E+00
        -11   -1    0    0    0    0  0.00000000000E+00  0.00000000000E+00  0.45593999997E+02  0.45594000000E+02  0.51100000000E-03 0.  1.
         11   -1    0    0    0    0 -0.00000000000E+00 -0.00000000000E+00 -0.45593999997E+02  0.45594000000E+02  0.51100000000E-03 0. -1.
    9900012    2    1    2    0    0  0.11753471636E+02 -0.99983167448E+01  0.10609820484E+02  0.72461582192E+02  0.70000015499E+02 0.  0.
        -12    1    1    2    0    0 -0.11753471636E+02  0.99983167448E+01 -0.10609820484E+02  0.18726417808E+02  0.00000000000E+00 0.  1.
         11    1    3    3    0    0 -0.86418354449E+01 -0.13815342142E+02  0.11624091464E+02  0.20016605631E+02  0.51100000000E-03 0. -1.
        -11    1    3    3    0    0  0.79470791115E+01 -0.20144686124E+02  0.92623717551E+01  0.23553258293E+02  0.51100000000E-03 0.  1.
         12    1    3    3    0    0  0.12448227970E+02  0.23961711520E+02 -0.10276642736E+02  0.28891718268E+02  0.00000000000E+00 0. -1.
</event>
<event>
 7    1  0.3681059E-013  0.7246157E+02  0.7816164E-02  0.1226708E+00
        -11   -1    0    0    0    0  0.00000000000E+00  0.00000000000E+00  0.45593999997E+02  0.45594000000E+02  0.51100000000E-03 0.  1.
         11   -1    0    0    0    0 -0.00000000000E+00 -0.00000000000E+00 -0.45593999997E+02  0.45594000000E+02  0.51100000000E-03 0. -1.
    9900012    2    1    2    0    0  0.14236092486E+02  0.74304510015E+01 -0.96333398052E+01  0.72461570358E+02  0.70000000082E+02 0.  0.
        -12    1    1    2    0    0 -0.14236092486E+02 -0.74304510015E+01  0.96333398052E+01  0.18726429642E+02  0.00000000000E+00 0.  1.
         11    1    3    3    0    0  0.27016028767E+01  0.26132855258E+02 -0.10481820074E+00  0.26272338479E+02  0.51100000000E-03 0. -1.
        -11    1    3    3    0    0  0.14688979887E+02 -0.10018413092E+02  0.12877075626E+02  0.21953446380E+02  0.51100000000E-03 0.  1.
        -12    1    3    3    0    0 -0.31544902784E+01 -0.86839911653E+01 -0.22405597230E+02  0.24235785499E+02  0.00000000000E+00 0.  1.
</event>
<event>
 7    1  0.3681059E-013  0.7246160E+02  0.7816164E-02  0.1226708E+00
        -11   -1    0    0    0    0  0.00000000000E+00  0.00000000000E+00  0.45593999997E+02  0.45594000000E+02  0.51100000000E-03 0.  1.
         11   -1    0    0    0    0 -0.00000000000E+00 -0.00000000000E+00 -0.45593999997E+02  0.45594000000E+02  0.51100000000E-03 0. -1.
    9900012    2    1    2    0    0  0.17733262138E+02 -0.60172734216E+01  0.44368708482E-01  0.72461597941E+02  0.70000036015E+02 0.  0.
        -12    1    1    2    0    0 -0.17733262138E+02  0.60172734216E+01 -0.44368708482E-01  0.18726402059E+02  0.00000000000E+00 0.  1.
         11    1    3    3    0    0 -0.65255448024E+01 -0.14791739705E+02 -0.12196905715E+02  0.20251982810E+02  0.51100000000E-03 0. -1.
        -11    1    3    3    0    0  0.19884484595E+01 -0.15933320138E+02 -0.16924983239E+01  0.16145871569E+02  0.51100000000E-03 0.  1.
        -12    1    3    3    0    0  0.22270358481E+02  0.24707786422E+02  0.13933772747E+02  0.36063743562E+02  0.00000000000E+00 0.  1.
</event>
<event>
 7    1  0.3681059E-013  0.7246155E+02  0.7816164E-02  0.1226708E+00
        -11   -1    0    0    0    0  0.00000000000E+00  0.00000000000E+00  0.45593999997E+02  0.45594000000E+02  0.51100000000E-03 0. -1.
         11   -1    0    0    0    0 -0.00000000000E+00 -0.00000000000E+00 -0.45593999997E+02  0.45594000000E+02  0.51100000000E-03 0.  1.
    9900012    2    1    2    0    0  0.68372669105E+01 -0.17086145595E+02 -0.34634488285E+01  0.72461546308E+02  0.69999968753E+02 0.  0.
        -12    1    1    2    0    0 -0.68372669105E+01  0.17086145595E+02  0.34634488285E+01  0.18726453692E+02  0.00000000000E+00 0.  1.
         11    1    3    3    0    0 -0.85723798924E+00  0.25312252378E+01 -0.13075709994E+01  0.29751807263E+01  0.51100000000E-03 0. -1.
        -11    1    3    3    0    0  0.16791158155E+02  0.71310294276E+00 -0.29662643150E+02  0.34092871790E+02  0.51100000000E-03 0.  1.
         12    1    3    3    0    0 -0.90966532549E+01 -0.20330473776E+02  0.27506765320E+02  0.35393493792E+02  0.00000000000E+00 0. -1.
</event>
<event>
 7    1  0.3681059E-013  0.7246155E+02  0.7816164E-02  0.1226708E+00
        -11   -1    0    0    0    0  0.00000000000E+00  0.00000000000E+00  0.45593999997E+02  0.45594000000E+02  0.51100000000E-03 0. -1.
         11   -1    0    0    0    0 -0.00000000000E+00 -0.00000000000E+00 -0.45593999997E+02  0.45594000000E+02  0.51100000000E-03 0.  1.
    9900012    2    1    2    0    0 -0.10259205450E+02  0.86324247755E+01  0.13073250491E+02  0.72461549926E+02  0.69999973467E+02 0.  0.
        -12    1    1    2    0    0  0.10259205450E+02 -0.86324247755E+01 -0.13073250491E+02  0.18726450074E+02  0.00000000000E+00 0.  1.
         11    1    3    3    0    0 -0.17495250808E+02  0.75582892781E+01  0.37226920764E+02  0.41821706894E+02  0.51100000000E-03 0. -1.
        -11    1    3    3    0    0  0.96065693829E+01 -0.17689774796E+01 -0.47052434320E+01  0.10842267874E+02  0.51100000000E-03 0.  1.
        -12    1    3    3    0    0 -0.23705240252E+01  0.28431129770E+01 -0.19448426842E+02  0.19797575159E+02  0.00000000000E+00 0.  1.
</event>
<event>
 7    1  0.3681059E-013  0.7246166E+02  0.7816164E-02  0.1226708E+00
        -11   -1    0    0    0    0  0.00000000000E+00  0.00000000000E+00  0.45593999997E+02  0.45594000000E+02  0.51100000000E-03 0. -1.
         11   -1    0    0    0    0 -0.00000000000E+00 -0.00000000000E+00 -0.45593999997E+02  0.45594000000E+02  0.51100000000E-03 0.  1.
    9900012    2    1    2    0    0 -0.83899964558E+01  0.11475333293E+02  0.12190178789E+02  0.72461660966E+02  0.70000118116E+02 0.  0.
        -12    1    1    2    0    0  0.83899964558E+01 -0.11475333293E+02 -0.12190178789E+02  0.18726339034E+02  0.00000000000E+00 0.  1.
         11    1    3    3    0    0 -0.17253913894E+02 -0.64606229937E+01  0.11934723497E+02  0.21951647303E+02  0.51100000000E-03 0. -1.
        -11    1    3    3    0    0  0.54329466167E+01  0.90485298192E+01  0.23297255640E+02  0.25576452480E+02  0.51100000000E-03 0.  1.
        -12    1    3    3    0    0  0.34309708215E+01  0.88874264674E+01 -0.23041800348E+02  0.24933561183E+02  0.00000000000E+00 0.  1.
</event>
<event>
 7    1  0.3681059E-013  0.7246167E+02  0.7816164E-02  0.1226708E+00
        -11   -1    0    0    0    0  0.00000000000E+00  0.00000000000E+00  0.45593999997E+02  0.45594000000E+02  0.51100000000E-03 0.  1.
         11   -1    0    0    0    0 -0.00000000000E+00 -0.00000000000E+00 -0.45593999997E+02  0.45594000000E+02  0.51100000000E-03 0. -1.
    9900012    2    1    2    0    0 -0.49653528817E+01 -0.33302250330E+01 -0.17746280312E+02  0.72461665790E+02  0.70000124401E+02 0.  0.
        -12    1    1    2    0    0  0.49653528817E+01  0.33302250330E+01  0.17746280312E+02  0.18726334210E+02  0.00000000000E+00 0.  1.
         11    1    3    3    0    0 -0.69242315624E+00  0.16889497670E+01 -0.23931511696E+02  0.24001026092E+02  0.51100000000E-03 0. -1.
        -11    1    3    3    0    0 -0.17447865799E+02 -0.69480165363E+01 -0.14591929269E+02  0.23782921494E+02  0.51100000000E-03 0.  1.
        -12    1    3    3    0    0  0.13174936073E+02  0.19288417363E+01  0.20777160653E+02  0.24677718205E+02  0.00000000000E+00 0.  1.
</event>
<event>
 7    1  0.3681059E-013  0.7246150E+02  0.7816164E-02  0.1226708E+00
        -11   -1    0    0    0    0  0.00000000000E+00  0.00000000000E+00  0.45593999997E+02  0.45594000000E+02  0.51100000000E-03 0.  1.
         11   -1    0    0    0    0 -0.00000000000E+00 -0.00000000000E+00 -0.45593999997E+02  0.45594000000E+02  0.51100000000E-03 0. -1.
    9900012    2    1    2    0    0 -0.10078769671E+02  0.43769323734E+01 -0.15163855459E+02  0.72461504133E+02  0.69999913812E+02 0.  0.
        -12    1    1    2    0    0  0.10078769671E+02 -0.43769323734E+01  0.15163855459E+02  0.18726495867E+02  0.00000000000E+00 0.  1.
         11    1    3    3    0    0 -0.33173093979E+01  0.19975230401E+02  0.34169754036E-01  0.20248840437E+02  0.51100000000E-03 0.  1.
        -11    1    3    3    0    0  0.39979742644E+01  0.83083615305E+01 -0.23066505732E+02  0.24841021647E+02  0.51100000000E-03 0. -1.
         12    1    3    3    0    0 -0.10759434538E+02 -0.23906659558E+02  0.78684805189E+01  0.27371642049E+02  0.00000000000E+00 0. -1.
</event>
<event>
 7    1  0.3681059E-013  0.7246156E+02  0.7816164E-02  0.1226708E+00
        -11   -1    0    0    0    0  0.00000000000E+00  0.00000000000E+00  0.45593999997E+02  0.45594000000E+02  0.51100000000E-03 0.  1.
         11   -1    0    0    0    0 -0.00000000000E+00 -0.00000000000E+00 -0.45593999997E+02  0.45594000000E+02  0.51100000000E-03 0. -1.
    9900012    2    1    2    0    0 -0.95869653529E+01 -0.10602965617E+02 -0.12097381157E+02  0.72461563730E+02  0.69999991448E+02 0.  0.
        -12    1    1    2    0    0  0.95869653529E+01  0.10602965617E+02  0.12097381157E+02  0.18726436270E+02  0.00000000000E+00 0.  1.
         11    1    3    3    0    0  0.25681477672E+01  0.12812410617E+02  0.32736470524E+01  0.13471080657E+02  0.51100000000E-03 0. -1.
        -11    1    3    3    0    0 -0.31689656628E+02 -0.13743130392E+02 -0.51790638327E+01  0.34927505960E+02  0.51100000000E-03 0.  1.
         12    1    3    3    0    0  0.19534543508E+02 -0.96722458423E+01 -0.10191964376E+02  0.24062977113E+02  0.00000000000E+00 0. -1.
</event>
<event>
 7    1  0.3681059E-013  0.7246160E+02  0.7816164E-02  0.1226708E+00
        -11   -1    0    0    0    0  0.00000000000E+00  0.00000000000E+00  0.45593999997E+02  0.45594000000E+02  0.51100000000E-03 0. -1.
         11   -1    0    0    0    0 -0.00000000000E+00 -0.00000000000E+00 -0.45593999997E+02  0.45594000000E+02  0.51100000000E-03 0.  1.
    9900012    2    1    2    0    0 -0.50402041276E+01  0.10167400295E+02  0.14896254903E+02  0.72461598943E+02  0.70000037320E+02 0.  0.
        -12    1    1    2    0    0  0.50402041276E+01 -0.10167400295E+02 -0.14896254903E+02  0.18726401057E+02  0.00000000000E+00 0.  1.
         11    1    3    3    0    0  0.23663961986E+00 -0.15515673301E+01  0.21897887354E+02  0.21954061818E+02  0.51100000000E-03 0. -1.
        -11    1    3    3    0    0  0.91955929902E+01  0.19571517700E+02  0.12505853277E+02  0.24979984026E+02  0.51100000000E-03 0.  1.
         12    1    3    3    0    0 -0.14472436738E+02 -0.78525500742E+01 -0.19507485728E+02  0.25527553099E+02  0.00000000000E+00 0. -1.
</event>
<event>
 7    1  0.3681059E-013  0.7246158E+02  0.7816164E-02  0.1226708E+00
        -11   -1    0    0    0    0  0.00000000000E+00  0.00000000000E+00  0.45593999997E+02  0.45594000000E+02  0.51100000000E-03 0. -1.
         11   -1    0    0    0    0 -0.00000000000E+00 -0.00000000000E+00 -0.45593999997E+02  0.45594000000E+02  0.51100000000E-03 0.  1.
    9900012    2    1    2    0    0  0.73486236657E+01  0.96738452785E+01 -0.14251084108E+02  0.72461576142E+02  0.70000007618E+02 0.  0.
        -12    1    1    2    0    0 -0.73486236657E+01 -0.96738452785E+01  0.14251084108E+02  0.18726423858E+02  0.00000000000E+00 0.  1.
         11    1    3    3    0    0  0.23710849107E+02  0.68369406186E+01 -0.33884606889E+01  0.24908428062E+02  0.51100000000E-03 0. -1.
        -11    1    3    3    0    0  0.12234219975E+02 -0.69925553633E+01 -0.10041648313E+02  0.17303371637E+02  0.51100000000E-03 0.  1.
        -12    1    3    3    0    0 -0.28596445416E+02  0.98294600232E+01 -0.82097510634E+00  0.30249776444E+02  0.00000000000E+00 0.  1.
</event>
<event>
 7    1  0.3681059E-013  0.7246156E+02  0.7816164E-02  0.1226708E+00
        -11   -1    0    0    0    0  0.00000000000E+00  0.00000000000E+00  0.45593999997E+02  0.45594000000E+02  0.51100000000E-03 0.  1.
         11   -1    0    0    0    0 -0.00000000000E+00 -0.00000000000E+00 -0.45593999997E+02  0.45594000000E+02  0.51100000000E-03 0. -1.
    9900012    2    1    2    0    0  0.10299105344E+02  0.13304750776E+02 -0.82214199267E+01  0.72461555872E+02  0.69999981212E+02 0.  0.
        -12    1    1    2    0    0 -0.10299105344E+02 -0.13304750776E+02  0.82214199267E+01  0.18726444128E+02  0.00000000000E+00 0.  1.
         11    1    3    3    0    0 -0.19427938155E+01  0.86998814681E+01  0.18309423581E+02  0.20364119856E+02  0.51100000000E-03 0. -1.
        -11    1    3    3    0    0  0.75050513260E+01  0.50758600540E+01  0.11008473436E+02  0.14257511647E+02  0.51100000000E-03 0.  1.
         12    1    3    3    0    0  0.47368478331E+01 -0.47099074652E+00 -0.37539316944E+02  0.37839924370E+02  0.00000000000E+00 0. -1.
</event>
<event>
 7    1  0.3681059E-013  0.7246131E+02  0.7816164E-02  0.1226709E+00
        -11   -1    0    0    0    0  0.00000000000E+00  0.00000000000E+00  0.45593999997E+02  0.45594000000E+02  0.51100000000E-03 0.  1.
         11   -1    0    0    0    0 -0.00000000000E+00 -0.00000000000E+00 -0.45593999997E+02  0.45594000000E+02  0.51100000000E-03 0. -1.
    9900012    2    1    2    0    0  0.25421030247E+01 -0.18398169472E+02 -0.23945705728E+01  0.72461310598E+02  0.69999661697E+02 0.  0.
        -12    1    1    2    0    0 -0.25421030247E+01  0.18398169472E+02  0.23945705728E+01  0.18726689402E+02  0.00000000000E+00 0.  1.
         11    1    3    3    0    0 -0.41819435759E+01  0.36045185242E+01 -0.84807203278E+01  0.10119477427E+02  0.51100000000E-03 0. -1.
        -11    1    3    3    0    0  0.89379844330E+01 -0.87896941704E+00 -0.23936464308E+02  0.25565885018E+02  0.51100000000E-03 0.  1.
        -12    1    3    3    0    0 -0.22139378325E+01 -0.21123718580E+02  0.30022614063E+02  0.36775948152E+02  0.00000000000E+00 0.  1.
</event>
<event>
 7    1  0.3681059E-013  0.7246157E+02  0.7816164E-02  0.1226708E+00
        -11   -1    0    0    0    0  0.00000000000E+00  0.00000000000E+00  0.45593999997E+02  0.45594000000E+02  0.51100000000E-03 0. -1.
         11   -1    0    0    0    0 -0.00000000000E+00 -0.00000000000E+00 -0.45593999997E+02  0.45594000000E+02  0.51100000000E-03 0.  1.
    9900012    2    1    2    0    0  0.13660518186E+02 -0.12703841790E+02  0.16376325556E+01  0.72461569648E+02  0.69999999159E+02 0.  0.
        -12    1    1    2    0    0 -0.13660518186E+02  0.12703841790E+02 -0.16376325556E+01  0.18726430352E+02  0.00000000000E+00 0.  1.
         11    1    3    3    0    0 -0.14515596888E+02  0.44885064602E+01  0.58782277097E+01  0.16291187941E+02  0.51100000000E-03 0. -1.
        -11    1    3    3    0    0 -0.47830960784E+01 -0.14520848007E+02 -0.14978807580E+02  0.21403217321E+02  0.51100000000E-03 0.  1.
        -12    1    3    3    0    0  0.32959211152E+02 -0.26715002432E+01  0.10738212426E+02  0.34767164386E+02  0.00000000000E+00 0.  1.
</event>
<event>
 7    1  0.3681059E-013  0.7246179E+02  0.7816164E-02  0.1226707E+00
        -11   -1    0    0    0    0  0.00000000000E+00  0.00000000000E+00  0.45593999997E+02  0.45594000000E+02  0.51100000000E-03 0.  1.
         11   -1    0    0    0    0 -0.00000000000E+00 -0.00000000000E+00 -0.45593999997E+02  0.45594000000E+02  0.51100000000E-03 0. -1.
    9900012    2    1    2    0    0 -0.10713111803E+02  0.42545886028E+01 -0.14757997504E+02  0.72461794324E+02  0.70000291840E+02 0.  0.
        -12    1    1    2    0    0  0.10713111803E+02 -0.42545886028E+01  0.14757997504E+02  0.18726205676E+02  0.00000000000E+00 0.  1.
         11    1    3    3    0    0 -0.13558244767E+02  0.67927093078E+01  0.28942117203E+01  0.15438373057E+02  0.51100000000E-03 0. -1.
        -11    1    3    3    0    0 -0.16060444276E+02  0.51896488896E+01  0.12219387334E+02  0.20837076403E+02  0.51100000000E-03 0.  1.
         12    1    3    3    0    0  0.18905577241E+02 -0.77277695946E+01 -0.29871596558E+02  0.36186344864E+02  0.00000000000E+00 0. -1.
</event>
<event>
 7    1  0.3681059E-013  0.7246158E+02  0.7816164E-02  0.1226708E+00
        -11   -1    0    0    0    0  0.00000000000E+00  0.00000000000E+00  0.45593999997E+02  0.45594000000E+02  0.51100000000E-03 0.  1.
         11   -1    0    0    0    0 -0.00000000000E+00 -0.00000000000E+00 -0.45593999997E+02  0.45594000000E+02  0.51100000000E-03 0. -1.
    9900012    2    1    2    0    0 -0.26221941883E+01 -0.14969169929E+02 -0.10941983057E+02  0.72461576318E+02  0.70000007846E+02 0.  0.
        -12    1    1    2    0    0  0.26221941883E+01  0.14969169929E+02  0.10941983057E+02  0.18726423682E+02  0.00000000000E+00 0.  1.
         11    1    3    3    0    0 -0.10859415522E+02  0.37836592323E+01 -0.83152238489E+01  0.14191051074E+02  0.51100000000E-03 0. -1.
        -11    1    3    3    0    0  0.15122961170E+02  0.15625677867E+02 -0.72129792118E+01  0.22910539773E+02  0.51100000000E-03 0.  1.
         12    1    3    3    0    0 -0.68857398355E+01 -0.34378507028E+02  0.45862200038E+01  0.35359985470E+02  0.00000000000E+00 0. -1.
</event>
<event>
 7    1  0.3681059E-013  0.7246157E+02  0.7816164E-02  0.1226708E+00
        -11   -1    0    0    0    0  0.00000000000E+00  0.00000000000E+00  0.45593999997E+02  0.45594000000E+02  0.51100000000E-03 0. -1.
         11   -1    0    0    0    0 -0.00000000000E+00 -0.00000000000E+00 -0.45593999997E+02  0.45594000000E+02  0.51100000000E-03 0.  1.
    9900012    2    1    2    0    0  0.60275281295E+01  0.12090872421E+02  0.12967611460E+02  0.72461568460E+02  0.69999997610E+02 0.  0.
        -12    1    1    2    0    0 -0.60275281295E+01 -0.12090872421E+02 -0.12967611460E+02  0.18726431540E+02  0.00000000000E+00 0.  1.
         11    1    3    3    0    0  0.89081890562E+01  0.84020580961E+01  0.18096617694E+02  0.21850354339E+02  0.51100000000E-03 0. -1.
        -11    1    3    3    0    0 -0.25398651577E+02  0.74757021194E+01 -0.78506332399E+01  0.27615395464E+02  0.51100000000E-03 0.  1.
         12    1    3    3    0    0  0.22517990651E+02 -0.37868877946E+01  0.27216270058E+01  0.22995818656E+02  0.00000000000E+00 0. -1.
</event>
<event>
 7    1  0.3681059E-013  0.7246159E+02  0.7816164E-02  0.1226708E+00
        -11   -1    0    0    0    0  0.00000000000E+00  0.00000000000E+00  0.45593999997E+02  0.45594000000E+02  0.51100000000E-03 0.  1.
         11   -1    0    0    0    0 -0.00000000000E+00 -0.00000000000E+00 -0.45593999997E+02  0.45594000000E+02  0.51100000000E-03 0. -1.
    9900012    2    1    2    0    0  0.54019564324E+01  0.90878787460E+01 -0.15456636421E+02  0.72461593969E+02  0.70000030840E+02 0.  0.
        -12    1    1    2    0    0 -0.54019564324E+01 -0.90878787460E+01  0.15456636421E+02  0.18726406031E+02  0.00000000000E+00 0.  1.
         11    1    3    3    0    0 -0.15623992086E+02  0.75462587386E+01  0.56557070440E+01  0.18249443062E+02  0.51100000000E-03 0. -1.
        -11    1    3    3    0    0  0.13337592410E+02  0.27878582648E+01  0.13233378731E+02  0.18994363319E+02  0.51100000000E-03 0.  1.
        -12    1    3    3    0    0  0.76883561084E+01 -0.12462382574E+01 -0.34345722196E+02  0.35217787588E+02  0.00000000000E+00 0.  1.
</event>
<event>
 7    1  0.3681059E-013  0.7246141E+02  0.7816164E-02  0.1226708E+00
        -11   -1    0    0    0    0  0.00000000000E+00  0.00000000000E+00  0.45593999997E+02  0.45594000000E+02  0.51100000000E-03 0. -1.
         11   -1    0    0    0    0 -0.00000000000E+00 -0.00000000000E+00 -0.45593999997E+02  0.45594000000E+02  0.51100000000E-03 0.  1.
    9900012    2    1    2    0    0 -0.15043423066E+02  0.67572725568E+01  0.88724150088E+01  0.72461413071E+02  0.69999795186E+02 0.  0.
        -12    1    1    2    0    0  0.15043423066E+02 -0.67572725568E+01 -0.88724150088E+01  0.18726586929E+02  0.00000000000E+00 0.  1.
         11    1    3    3    0    0 -0.27511978687E+02 -0.19972098328E+02  0.11123179397E+02  0.35770362076E+02  0.51100000000E-03 0. -1.
        -11    1    3    3    0    0  0.86539469117E+00 -0.38232099639E+01 -0.62030162568E+00  0.39687046712E+01  0.51100000000E-03 0.  1.
        -12    1    3    3    0    0  0.11603160930E+02  0.30552580849E+02 -0.16304627624E+01  0.32722346323E+02  0.00000000000E+00 0.  1.
</event>
<event>
 7    1  0.3681059E-013  0.7246150E+02  0.7816164E-02  0.1226708E+00
        -11   -1    0    0    0    0  0.00000000000E+00  0.00000000000E+00  0.45593999997E+02  0.45594000000E+02  0.51100000000E-03 0.  1.
         11   -1    0    0    0    0 -0.00000000000E+00 -0.00000000000E+00 -0.45593999997E+02  0.45594000000E+02  0.51100000000E-03 0. -1.
    9900012    2    1    2    0    0 -0.42259017724E+01 -0.75168490084E+01 -0.16622893608E+02  0.72461498546E+02  0.69999906535E+02 0.  0.
        -12    1    1    2    0    0  0.42259017724E+01  0.75168490084E+01  0.16622893608E+02  0.18726501454E+02  0.00000000000E+00 0.  1.
         11    1    3    3    0    0  0.13308456109E+02  0.70469077637E+00 -0.11346540736E+02  0.17503016313E+02  0.51100000000E-03 0. -1.
        -11    1    3    3    0    0 -0.60116564046E+00  0.13012239743E+02 -0.20149755054E+02  0.23993591066E+02  0.51100000000E-03 0.  1.
        -12    1    3    3    0    0 -0.16933192241E+02 -0.21233779528E+02  0.14873402183E+02  0.30964891167E+02  0.00000000000E+00 0.  1.
</event>
<event>
 7    1  0.3681059E-013  0.7246159E+02  0.7816164E-02  0.1226708E+00
        -11   -1    0    0    0    0  0.00000000000E+00  0.00000000000E+00  0.45593999997E+02  0.45594000000E+02  0.51100000000E-03 0.  1.
         11   -1    0    0    0    0 -0.00000000000E+00 -0.00000000000E+00 -0.45593999997E+02  0.45594000000E+02  0.51100000000E-03 0. -1.
    9900012    2    1    2    0    0 -0.20255553700E+01  0.12055973429E+02 -0.14185522315E+02  0.72461590488E+02  0.70000026306E+02 0.  0.
        -12    1    1    2    0    0  0.20255553700E+01 -0.12055973429E+02  0.14185522315E+02  0.18726409512E+02  0.00000000000E+00 0.  1.
         11    1    3    3    0    0 -0.95133991308E+01 -0.89259975123E+01 -0.19322947056E+01  0.13187568301E+02  0.51100000000E-03 0. -1.
        -11    1    3    3    0    0 -0.20861044577E+02  0.15278104747E+02 -0.15544829436E+02  0.30170273250E+02  0.51100000000E-03 0.  1.
         12    1    3    3    0    0  0.28348888338E+02  0.57038661951E+01  0.32916018275E+01  0.29103748937E+02  0.00000000000E+00 0. -1.
</event>
<event>
 7    1  0.3681059E-013  0.7246140E+02  0.7816164E-02  0.1226708E+00
        -11   -1    0    0    0    0  0.00000000000E+00  0.00000000000E+00  0.45593999997E+02  0.45594000000E+02  0.51100000000E-03 0. -1.
         11   -1    0    0    0    0 -0.00000000000E+00 -0.00000000000E+00 -0.45593999997E+02  0.45594000000E+02  0.51100000000E-03 0.  1.
    9900012    2    1    2    0    0  0.10972168806E+02  0.13056146543E+02  0.77352530481E+01  0.72461398851E+02  0.69999776663E+02 0.  0.
        -12    1    1    2    0    0 -0.10972168806E+02 -0.13056146543E+02 -0.77352530481E+01  0.18726601149E+02  0.00000000000E+00 0.  1.
         11    1    3    3    0    0  0.28694236700E+02 -0.89560272150E+00  0.27935411308E+02  0.40056816264E+02  0.51100000000E-03 0. -1.
        -11    1    3    3    0    0  0.97360231240E+00  0.68912410435E+00  0.70128796095E+00  0.13836901963E+01  0.51100000000E-03 0.  1.
        -12    1    3    3    0    0 -0.18695670206E+02  0.13262625160E+02 -0.20901446221E+02  0.31020892391E+02  0.00000000000E+00 0.  1.
</event>
<event>
 7    1  0.3681059E-013  0.7246158E+02  0.7816164E-02  0.1226708E+00
        -11   -1    0    0    0    0  0.00000000000E+00  0.00000000000E+00  0.45593999997E+02  0.45594000000E+02  0.51100000000E-03 0. -1.
         11   -1    0    0    0    0 -0.00000000000E+00 -0.00000000000E+00 -0.45593999997E+02  0.45594000000E+02  0.51100000000E-03 0.  1.
    9900012    2    1    2    0    0  0.39241903263E+01 -0.15938721436E+02  0.90131388512E+01  0.72461580623E+02  0.70000013455E+02 0.  0.
        -12    1    1    2    0    0 -0.39241903263E+01  0.15938721436E+02 -0.90131388512E+01  0.18726419377E+02  0.00000000000E+00 0.  1.
         11    1    3    3    0    0  0.45748608101E+00 -0.26627098837E+02  0.79328217505E+01  0.27787431461E+02  0.51100000000E-03 0. -1.
        -11    1    3    3    0    0 -0.53135733834E+01 -0.54856151064E+01 -0.17147636885E+02  0.18771454025E+02  0.51100000000E-03 0.  1.
        -12    1    3    3    0    0  0.87802776287E+01  0.16173992507E+02  0.18227953986E+02  0.25902695137E+02  0.00000000000E+00 0.  1.
</event>
<event>
 7    1  0.3681059E-013  0.7246160E+02  0.7816164E-02  0.1226708E+00
        -11   -1    0    0    0    0  0.00000000000E+00  0.00000000000E+00  0.45593999997E+02  0.45594000000E+02  0.51100000000E-03 0. -1.
         11   -1    0    0    0    0 -0.00000000000E+00 -0.00000000000E+00 -0.45593999997E+02  0.45594000000E+02  0.51100000000E-03 0.  1.
    9900012    2    1    2    0    0  0.11345019388E+02  0.14321704144E+02  0.41057550810E+01  0.72461604210E+02  0.70000044181E+02 0.  0.
        -12    1    1    2    0    0 -0.11345019388E+02 -0.14321704144E+02 -0.41057550810E+01  0.18726395790E+02  0.00000000000E+00 0.  1.
         11    1    3    3    0    0  0.56801774889E+01  0.30568445893E+02 -0.96517534873E+01  0.32555347430E+02  0.51100000000E-03 0. -1.
        -11    1    3    3    0    0 -0.11126846708E+02 -0.50592275129E+01 -0.41704366942E+01  0.12914915531E+02  0.51100000000E-03 0.  1.
        -12    1    3    3    0    0  0.16791688608E+02 -0.11187514237E+02  0.17927945262E+02  0.26991341249E+02  0.00000000000E+00 0.  1.
</event>
<event>
 7    1  0.3681059E-013  0.7246158E+02  0.7816164E-02  0.1226708E+00
        -11   -1    0    0    0    0  0.00000000000E+00  0.00000000000E+00  0.45593999997E+02  0.45594000000E+02  0.51100000000E-03 0.  1.
         11   -1    0    0    0    0 -0.00000000000E+00 -0.00000000000E+00 -0.45593999997E+02  0.45594000000E+02  0.51100000000E-03 0. -1.
    9900012    2    1    2    0    0  0.15354663495E+02 -0.96795464237E+01 -0.46064475459E+01  0.72461583658E+02  0.70000017409E+02 0.  0.
        -12    1    1    2    0    0 -0.15354663495E+02  0.96795464237E+01  0.46064475459E+01  0.18726416342E+02  0.00000000000E+00 0.  1.
         11    1    3    3    0    0  0.17283757166E+01  0.10353435672E+01  0.15686767335E+01  0.25534223848E+01  0.51100000000E-03 0. -1.
        -11    1    3    3    0    0 -0.31434079177E+01 -0.25194778657E+02  0.22324870494E+02  0.33809136749E+02  0.51100000000E-03 0.  1.
         12    1    3    3    0    0  0.16769695696E+02  0.14479888666E+02 -0.28499994773E+02  0.36099024524E+02  0.00000000000E+00 0. -1.
</event>
<event>
 7    1  0.3681059E-013  0.7246158E+02  0.7816164E-02  0.1226708E+00
        -11   -1    0    0    0    0  0.00000000000E+00  0.00000000000E+00  0.45593999997E+02  0.45594000000E+02  0.51100000000E-03 0. -1.
         11   -1    0    0    0    0 -0.00000000000E+00 -0.00000000000E+00 -0.45593999997E+02  0.45594000000E+02  0.51100000000E-03 0.  1.
    9900012    2    1    2    0    0  0.10598751592E+02  0.10747442066E+02  0.11083212292E+02  0.72461584406E+02  0.70000018383E+02 0.  0.
        -12    1    1    2    0    0 -0.10598751592E+02 -0.10747442066E+02 -0.11083212292E+02  0.18726415594E+02  0.00000000000E+00 0.  1.
         11    1    3    3    0    0  0.99029786797E+01 -0.66423329198E+01  0.12748046938E+02  0.17455723255E+02  0.51100000000E-03 0. -1.
        -11    1    3    3    0    0 -0.54296685095E+01  0.10558978689E+02  0.24529057076E+02  0.27251568255E+02  0.51100000000E-03 0.  1.
        -12    1    3    3    0    0  0.61254414220E+01  0.68307962972E+01 -0.26193891722E+02  0.27754292897E+02  0.00000000000E+00 0.  1.
</event>
<event>
 7    1  0.3681059E-013  0.7246155E+02  0.7816164E-02  0.1226708E+00
        -11   -1    0    0    0    0  0.00000000000E+00  0.00000000000E+00  0.45593999997E+02  0.45594000000E+02  0.51100000000E-03 0. -1.
         11   -1    0    0    0    0 -0.00000000000E+00 -0.00000000000E+00 -0.45593999997E+02  0.45594000000E+02  0.51100000000E-03 0.  1.
    9900012    2    1    2    0    0 -0.12822028004E+02 -0.11834303659E+02 -0.67988786880E+01  0.72461550880E+02  0.69999974709E+02 0.  0.
        -12    1    1    2    0    0  0.12822028004E+02  0.11834303659E+02  0.67988786880E+01  0.18726449120E+02  0.00000000000E+00 0.  1.
         11    1    3    3    0    0 -0.59153054989E+01 -0.10939106596E+02  0.13716070212E+02  0.18514466630E+02  0.51100000000E-03 0.  1.
        -11    1    3    3    0    0 -0.23497403811E+01  0.56756947000E+01  0.15700446367E+02  0.16859383339E+02  0.51100000000E-03 0. -1.
        -12    1    3    3    0    0 -0.45569821244E+01 -0.65708917624E+01 -0.36215395266E+02  0.37087700912E+02  0.00000000000E+00 0.  1.
</event>
<event>
 7    1  0.3681059E-013  0.7246159E+02  0.7816164E-02  0.1226708E+00
        -11   -1    0    0    0    0  0.00000000000E+00  0.00000000000E+00  0.45593999997E+02  0.45594000000E+02  0.51100000000E-03 0.  1.
         11   -1    0    0    0    0 -0.00000000000E+00 -0.00000000000E+00 -0.45593999997E+02  0.45594000000E+02  0.51100000000E-03 0. -1.
    9900012    2    1    2    0    0 -0.11379037228E+02 -0.14796540930E+02 -0.15027232507E+01  0.72461593807E+02  0.70000030629E+02 0.  0.
        -12    1    1    2    0    0  0.11379037228E+02  0.14796540930E+02  0.15027232507E+01  0.18726406193E+02  0.00000000000E+00 0.  1.
         11    1    3    3    0    0 -0.32134960028E+02 -0.10191069384E+02 -0.42465464625E+01  0.33978621342E+02  0.51100000000E-03 0. -1.
        -11    1    3    3    0    0 -0.54372068121E+01 -0.58442191941E+01  0.84741968834E+01  0.11641740806E+02  0.51100000000E-03 0.  1.
        -12    1    3    3    0    0  0.26193129611E+02  0.12387476477E+01 -0.57303736716E+01  0.26841231659E+02  0.00000000000E+00 0.  1.
</event>
<event>
 7    1  0.3681059E-013  0.7246157E+02  0.7816164E-02  0.1226708E+00
        -11   -1    0    0    0    0  0.00000000000E+00  0.00000000000E+00  0.45593999997E+02  0.45594000000E+02  0.51100000000E-03 0. -1.
         11   -1    0    0    0    0 -0.00000000000E+00 -0.00000000000E+00 -0.45593999997E+02  0.45594000000E+02  0.51100000000E-03 0.  1.
    9900012    2    1    2    0    0 -0.18348087690E+02  0.36427864572E+01  0.87012072112E+00  0.72461566139E+02  0.69999994587E+02 0.  0.
        -12    1    1    2    0    0  0.18348087690E+02 -0.36427864572E+01 -0.87012072112E+00  0.18726433861E+02  0.00000000000E+00 0.  1.
         11    1    3    3    0    0  0.45425365598E+01  0.17802360580E+01  0.63245353469E+01  0.79877172230E+01  0.51100000000E-03 0. -1.
        -11    1    3    3    0    0 -0.31586442192E+01  0.28079639994E+02 -0.12524288894E+02  0.30907944416E+02  0.51100000000E-03 0.  1.
         12    1    3    3    0    0 -0.19731980031E+02 -0.26217089595E+02  0.70698742677E+01  0.33565904500E+02  0.00000000000E+00 0. -1.
</event>
<event>
 7    1  0.3681059E-013  0.7246155E+02  0.7816164E-02  0.1226708E+00
        -11   -1    0    0    0    0  0.00000000000E+00  0.00000000000E+00  0.45593999997E+02  0.45594000000E+02  0.51100000000E-03 0. -1.
         11   -1    0    0    0    0 -0.00000000000E+00 -0.00000000000E+00 -0.45593999997E+02  0.45594000000E+02  0.51100000000E-03 0.  1.
    9900012    2    1    2    0    0 -0.90684341131E+01  0.16359057487E+02 -0.90810908930E+00  0.72461550223E+02  0.69999973854E+02 0.  0.
        -12    1    1    2    0    0  0.90684341131E+01 -0.16359057487E+02  0.90810908930E+00  0.18726449777E+02  0.00000000000E+00 0.  1.
         11    1    3    3    0    0 -0.20687331899E+02 -0.10475181188E+02  0.29817563128E+01  0.23379178621E+02  0.51100000000E-03 0. -1.
        -11    1    3    3    0    0  0.74852921953E+01  0.89378643747E+01 -0.20974962369E+02  0.23997167863E+02  0.51100000000E-03 0.  1.
        -12    1    3    3    0    0  0.41336055904E+01  0.17896374300E+02  0.17085096967E+02  0.25085203739E+02  0.00000000000E+00 0.  1.
</event>
<event>
 7    1  0.3681059E-013  0.7246158E+02  0.7816164E-02  0.1226708E+00
        -11   -1    0    0    0    0  0.00000000000E+00  0.00000000000E+00  0.45593999997E+02  0.45594000000E+02  0.51100000000E-03 0.  1.
         11   -1    0    0    0    0 -0.00000000000E+00 -0.00000000000E+00 -0.45593999997E+02  0.45594000000E+02  0.51100000000E-03 0. -1.
    9900012    2    1    2    0    0  0.30900220680E+00 -0.48849790622E+01 -0.18075410663E+02  0.72461575529E+02  0.70000006820E+02 0.  0.
        -12    1    1    2    0    0 -0.30900220680E+00  0.48849790622E+01  0.18075410663E+02  0.18726424471E+02  0.00000000000E+00 0.  1.
         11    1    3    3    0    0 -0.70216199019E+01 -0.98801481600E+01 -0.28999103967E+00  0.12124544065E+02  0.51100000000E-03 0. -1.
        -11    1    3    3    0    0  0.19380209521E+02 -0.14340657238E+02 -0.26607558380E+02  0.35905558543E+02  0.51100000000E-03 0.  1.
        -12    1    3    3    0    0 -0.12049587412E+02  0.19335826336E+02  0.88221387564E+01  0.24431472922E+02  0.00000000000E+00 0.  1.
</event>
<event>
 7    1  0.3681059E-013  0.7246154E+02  0.7816164E-02  0.1226708E+00
        -11   -1    0    0    0    0  0.00000000000E+00  0.00000000000E+00  0.45593999997E+02  0.45594000000E+02  0.51100000000E-03 0.  1.
         11   -1    0    0    0    0 -0.00000000000E+00 -0.00000000000E+00 -0.45593999997E+02  0.45594000000E+02  0.51100000000E-03 0. -1.
    9900012    2    1    2    0    0 -0.22591676157E+01  0.15933490729E+02 -0.95760347337E+01  0.72461537271E+02  0.69999956981E+02 0.  0.
        -12    1    1    2    0    0  0.22591676157E+01 -0.15933490729E+02  0.95760347337E+01  0.18726462729E+02  0.00000000000E+00 0.  1.
         11    1    3    3    0    0  0.30401553812E+01  0.14600851780E+02  0.64509156290E+01  0.16249360916E+02  0.51100000000E-03 0. -1.
        -11    1    3    3    0    0 -0.51855425015E+01  0.25322943385E+01  0.19667874918E+02  0.20497016117E+02  0.51100000000E-03 0.  1.
         12    1    3    3    0    0 -0.11378049536E+00 -0.11996553901E+01 -0.35694825281E+02  0.35715160239E+02  0.00000000000E+00 0. -1.
</event>
<event>
 7    1  0.3681059E-013  0.7246156E+02  0.7816164E-02  0.1226708E+00
        -11   -1    0    0    0    0  0.00000000000E+00  0.00000000000E+00  0.45593999997E+02  0.45594000000E+02  0.51100000000E-03 0.  1.
         11   -1    0    0    0    0 -0.00000000000E+00 -0.00000000000E+00 -0.45593999997E+02  0.45594000000E+02  0.51100000000E-03 0. -1.
    9900012    2    1    2    0    0 -0.83389909486E+01 -0.54762476093E+01 -0.15847756132E+02  0.72461563277E+02  0.69999990858E+02 0.  0.
        -12    1    1    2    0    0  0.83389909486E+01  0.54762476093E+01  0.15847756132E+02  0.18726436723E+02  0.00000000000E+00 0.  1.
         11    1    3    3    0    0  0.21048179891E+02  0.51998885684E+01 -0.15518200120E+02  0.26662318974E+02  0.51100000000E-03 0. -1.
        -11    1    3    3    0    0  0.57023235255E+01 -0.42590674222E+01 -0.64516795860E+01  0.96062645517E+01  0.51100000000E-03 0.  1.
        -12    1    3    3    0    0 -0.35089494365E+02 -0.64170687556E+01  0.61221235739E+01  0.36192979751E+02  0.00000000000E+00 0.  1.
</event>
<event>
 7    1  0.3681059E-013  0.7246140E+02  0.7816164E-02  0.1226708E+00
        -11   -1    0    0    0    0  0.00000000000E+00  0.00000000000E+00  0.45593999997E+02  0.45594000000E+02  0.51100000000E-03 0.  1.
         11   -1    0    0    0    0 -0.00000000000E+00 -0.00000000000E+00 -0.45593999997E+02  0.45594000000E+02  0.51100000000E-03 0. -1.
    9900012    2    1    2    0    0  0.79492050734E+01 -0.46759577129E+01 -0.16298187805E+02  0.72461404806E+02  0.69999784421E+02 0.  0.
        -12    1    1    2    0    0 -0.79492050734E+01  0.46759577129E+01  0.16298187805E+02  0.18726595194E+02  0.00000000000E+00 0.  1.
         11    1    3    3    0    0  0.13719995951E+02 -0.12774351987E+02 -0.16224211391E+02  0.24792083275E+02  0.51100000000E-03 0. -1.
        -11    1    3    3    0    0  0.15419145829E+01 -0.18275738718E+02  0.66106602623E+01  0.19495665047E+02  0.51100000000E-03 0.  1.
        -12    1    3    3    0    0 -0.73127054602E+01  0.26374132992E+02 -0.66846366762E+01  0.28173656485E+02  0.00000000000E+00 0.  1.
</event>
<event>
 7    1  0.3681059E-013  0.7246193E+02  0.7816164E-02  0.1226707E+00
        -11   -1    0    0    0    0  0.00000000000E+00  0.00000000000E+00  0.45593999997E+02  0.45594000000E+02  0.51100000000E-03 0. -1.
         11   -1    0    0    0    0 -0.00000000000E+00 -0.00000000000E+00 -0.45593999997E+02  0.45594000000E+02  0.51100000000E-03 0.  1.
    9900012    2    1    2    0    0  0.17013706427E+02  0.23243709716E+01  0.74697188396E+01  0.72461932438E+02  0.70000471757E+02 0.  0.
        -12    1    1    2    0    0 -0.17013706427E+02 -0.23243709716E+01 -0.74697188396E+01  0.18726067562E+02  0.00000000000E+00 0.  1.
         11    1    3    3    0    0  0.38997814021E+01  0.12099057572E+02  0.28836166368E+02  0.31513806183E+02  0.51100000000E-03 0. -1.
        -11    1    3    3    0    0 -0.99000221188E+01 -0.58659563083E+01 -0.83811613843E+01  0.14236001818E+02  0.51100000000E-03 0.  1.
        -12    1    3    3    0    0  0.23013947144E+02 -0.39087302921E+01 -0.12985286144E+02  0.26712124436E+02  0.00000000000E+00 0.  1.
</event>
<event>
 7    1  0.3681059E-013  0.7246152E+02  0.7816164E-02  0.1226708E+00
        -11   -1    0    0    0    0  0.00000000000E+00  0.00000000000E+00  0.45593999997E+02  0.45594000000E+02  0.51100000000E-03 0.  1.
         11   -1    0    0    0    0 -0.00000000000E+00 -0.00000000000E+00 -0.45593999997E+02  0.45594000000E+02  0.51100000000E-03 0. -1.
    9900012    2    1    2    0    0 -0.17752163461E+02 -0.57245846457E+01  0.16646268679E+01  0.72461517160E+02  0.69999930783E+02 0.  0.
        -12    1    1    2    0    0  0.17752163461E+02  0.57245846457E+01 -0.16646268679E+01  0.18726482840E+02  0.00000000000E+00 0.  1.
         11    1    3    3    0    0 -0.10025854600E+02 -0.33027168853E+01  0.11257328570E+02  0.15432211315E+02  0.51100000000E-03 0. -1.
        -11    1    3    3    0    0 -0.20111229948E+02  0.18220680539E+02 -0.16779957950E+02  0.31906453241E+02  0.51100000000E-03 0.  1.
         12    1    3    3    0    0  0.12384921087E+02 -0.20642548300E+02  0.71872562482E+01  0.25122852605E+02  0.00000000000E+00 0. -1.
</event>
<event>
 7    1  0.3681059E-013  0.7246151E+02  0.7816164E-02  0.1226708E+00
        -11   -1    0    0    0    0  0.00000000000E+00  0.00000000000E+00  0.45593999997E+02  0.45594000000E+02  0.51100000000E-03 0. -1.
         11   -1    0    0    0    0 -0.00000000000E+00 -0.00000000000E+00 -0.45593999997E+02  0.45594000000E+02  0.51100000000E-03 0.  1.
    9900012    2    1    2    0    0 -0.12537150648E+02  0.13255063483E+02 -0.42195467938E+01  0.72461509954E+02  0.69999921395E+02 0.  0.
        -12    1    1    2    0    0  0.12537150648E+02 -0.13255063483E+02  0.42195467938E+01  0.18726490046E+02  0.00000000000E+00 0.  1.
         11    1    3    3    0    0 -0.14934612454E+02  0.24002509169E+02  0.25448206337E+01  0.28383784241E+02  0.51100000000E-03 0. -1.
        -11    1    3    3    0    0  0.77888212600E+01 -0.63089810345E+01 -0.23714287026E+02  0.25745609096E+02  0.51100000000E-03 0.  1.
         12    1    3    3    0    0 -0.53913594536E+01 -0.44384646512E+01  0.16949919599E+02  0.18332116616E+02  0.00000000000E+00 0. -1.
</event>
<event>
 7    1  0.3681059E-013  0.7246154E+02  0.7816164E-02  0.1226708E+00
        -11   -1    0    0    0    0  0.00000000000E+00  0.00000000000E+00  0.45593999997E+02  0.45594000000E+02  0.51100000000E-03 0.  1.
         11   -1    0    0    0    0 -0.00000000000E+00 -0.00000000000E+00 -0.45593999997E+02  0.45594000000E+02  0.51100000000E-03 0. -1.
    9900012    2    1    2    0    0 -0.51245677772E+01 -0.14667676370E+02 -0.10453628633E+02  0.72461540735E+02  0.69999961494E+02 0.  0.
        -12    1    1    2    0    0  0.51245677772E+01  0.14667676370E+02  0.10453628633E+02  0.18726459265E+02  0.00000000000E+00 0.  1.
         11    1    3    3    0    0  0.87933228201E+01  0.23469195060E+01 -0.18646400092E+02  0.20748946817E+02  0.51100000000E-03 0. -1.
        -11    1    3    3    0    0  0.14147040130E+02  0.42856143027E+01 -0.22792422257E+01  0.14956609902E+02  0.51100000000E-03 0.  1.
        -12    1    3    3    0    0 -0.28064930727E+02 -0.21300210179E+02  0.10472013685E+02  0.36755984016E+02  0.00000000000E+00 0.  1.
</event>
<event>
 7    1  0.3681059E-013  0.7246159E+02  0.7816164E-02  0.1226708E+00
        -11   -1    0    0    0    0  0.00000000000E+00  0.00000000000E+00  0.45593999997E+02  0.45594000000E+02  0.51100000000E-03 0. -1.
         11   -1    0    0    0    0 -0.00000000000E+00 -0.00000000000E+00 -0.45593999997E+02  0.45594000000E+02  0.51100000000E-03 0.  1.
    9900012    2    1    2    0    0 -0.17797490383E+01 -0.84027240208E+01  0.16640472383E+02  0.72461585534E+02  0.70000019853E+02 0.  0.
        -12    1    1    2    0    0  0.17797490383E+01  0.84027240208E+01 -0.16640472383E+02  0.18726414466E+02  0.00000000000E+00 0.  1.
         11    1    3    3    0    0  0.28637158726E+02 -0.77002128776E+01  0.16040038873E+02  0.33714432897E+02  0.51100000000E-03 0. -1.
        -11    1    3    3    0    0  0.33751236644E+01  0.29963783066E+01 -0.13102539318E+01  0.46996285314E+01  0.51100000000E-03 0.  1.
        -12    1    3    3    0    0 -0.33792031429E+02 -0.36988894498E+01  0.19106874420E+01  0.34047524106E+02  0.00000000000E+00 0.  1.
</event>
<event>
 7    1  0.3681059E-013  0.7246157E+02  0.7816164E-02  0.1226708E+00
        -11   -1    0    0    0    0  0.00000000000E+00  0.00000000000E+00  0.45593999997E+02  0.45594000000E+02  0.51100000000E-03 0. -1.
         11   -1    0    0    0    0 -0.00000000000E+00 -0.00000000000E+00 -0.45593999997E+02  0.45594000000E+02  0.51100000000E-03 0.  1.
    9900012    2    1    2    0    0  0.13855475756E+02 -0.10304826997E+02  0.72467647546E+01  0.72461567685E+02  0.69999996600E+02 0.  0.
        -12    1    1    2    0    0 -0.13855475756E+02  0.10304826997E+02 -0.72467647546E+01  0.18726432315E+02  0.00000000000E+00 0.  1.
         11    1    3    3    0    0  0.21168634957E+02 -0.11428892924E+02  0.33700448098E+02  0.41405928340E+02  0.51100000000E-03 0. -1.
        -11    1    3    3    0    0  0.30880533573E+01  0.34264701191E+01 -0.36352854234E+01  0.58729950949E+01  0.51100000000E-03 0.  1.
        -12    1    3    3    0    0 -0.10401212559E+02 -0.23024041914E+01 -0.22818397920E+02  0.25182644250E+02  0.00000000000E+00 0.  1.
</event>
<event>
 7    1  0.3681059E-013  0.7246157E+02  0.7816164E-02  0.1226708E+00
        -11   -1    0    0    0    0  0.00000000000E+00  0.00000000000E+00  0.45593999997E+02  0.45594000000E+02  0.51100000000E-03 0. -1.
         11   -1    0    0    0    0 -0.00000000000E+00 -0.00000000000E+00 -0.45593999997E+02  0.45594000000E+02  0.51100000000E-03 0.  1.
    9900012    2    1    2    0    0 -0.67054356923E+01  0.82011744839E+01 -0.15442058294E+02  0.72461566942E+02  0.69999995632E+02 0.  0.
        -12    1    1    2    0    0  0.67054356923E+01 -0.82011744839E+01  0.15442058294E+02  0.18726433058E+02  0.00000000000E+00 0.  1.
         11    1    3    3    0    0 -0.14353072417E+02  0.23284211405E+02 -0.74176797138E+01  0.28340556825E+02  0.51100000000E-03 0. -1.
        -11    1    3    3    0    0  0.65897773038E+01 -0.94958544387E+01  0.15828639546E+02  0.19599547102E+02  0.51100000000E-03 0.  1.
        -12    1    3    3    0    0  0.10578594213E+01 -0.55871824820E+01 -0.23853018127E+02  0.24521463015E+02  0.00000000000E+00 0.  1.
</event>
<event>
 7    1  0.3681059E-013  0.7246155E+02  0.7816164E-02  0.1226708E+00
        -11   -1    0    0    0    0  0.00000000000E+00  0.00000000000E+00  0.45593999997E+02  0.45594000000E+02  0.51100000000E-03 0. -1.
         11   -1    0    0    0    0 -0.00000000000E+00 -0.00000000000E+00 -0.45593999997E+02  0.45594000000E+02  0.51100000000E-03 0.  1.
    9900012    2    1    2    0    0  0.12209682042E+02 -0.47522018218E+00 -0.14190757252E+02  0.72461554497E+02  0.69999979421E+02 0.  0.
        -12    1    1    2    0    0 -0.12209682042E+02  0.47522018218E+00  0.14190757252E+02  0.18726445503E+02  0.00000000000E+00 0.  1.
         11    1    3    3    0    0  0.32111411796E+02  0.65081523738E+01 -0.55493159665E+01  0.33230915167E+02  0.51100000000E-03 0. -1.
        -11    1    3    3    0    0  0.31575035947E+01  0.86515452797E+01 -0.65318672971E+01  0.11290897012E+02  0.51100000000E-03 0.  1.
         12    1    3    3    0    0 -0.23059233350E+02 -0.15634917836E+02 -0.21095739889E+01  0.27939742318E+02  0.00000000000E+00 0. -1.
</event>
<event>
 7    1  0.3681059E-013  0.7246147E+02  0.7816164E-02  0.1226708E+00
        -11   -1    0    0    0    0  0.00000000000E+00  0.00000000000E+00  0.45593999997E+02  0.45594000000E+02  0.51100000000E-03 0.  1.
         11   -1    0    0    0    0 -0.00000000000E+00 -0.00000000000E+00 -0.45593999997E+02  0.45594000000E+02  0.51100000000E-03 0. -1.
    9900012    2    1    2    0    0  0.13268493778E+02  0.10486252929E+02 -0.80416687142E+01  0.72461471669E+02  0.69999871521E+02 0.  0.
        -12    1    1    2    0    0 -0.13268493778E+02 -0.10486252929E+02  0.80416687142E+01  0.18726528331E+02  0.00000000000E+00 0.  1.
         11    1    3    3    0    0  0.69862006473E+01 -0.11354030506E+02 -0.90372844084E+00  0.13361801284E+02  0.51100000000E-03 0. -1.
        -11    1    3    3    0    0  0.15890860266E+02  0.74490019544E+01 -0.27347206566E+02  0.32494257605E+02  0.51100000000E-03 0.  1.
        -12    1    3    3    0    0 -0.96085671348E+01  0.14391281481E+02  0.20209266293E+02  0.26605412779E+02  0.00000000000E+00 0.  1.
</event>
<event>
 7    1  0.3681059E-013  0.7246159E+02  0.7816164E-02  0.1226708E+00
        -11   -1    0    0    0    0  0.00000000000E+00  0.00000000000E+00  0.45593999997E+02  0.45594000000E+02  0.51100000000E-03 0.  1.
         11   -1    0    0    0    0 -0.00000000000E+00 -0.00000000000E+00 -0.45593999997E+02  0.45594000000E+02  0.51100000000E-03 0. -1.
    9900012    2    1    2    0    0  0.18029957134E+02 -0.28443382853E+01 -0.41843748887E+01  0.72461585293E+02  0.70000019539E+02 0.  0.
        -12    1    1    2    0    0 -0.18029957134E+02  0.28443382853E+01  0.41843748887E+01  0.18726414707E+02  0.00000000000E+00 0.  1.
         11    1    3    3    0    0  0.23474797626E+02 -0.21782614298E+02 -0.13805200710E+01  0.32053927141E+02  0.51100000000E-03 0. -1.
        -11    1    3    3    0    0  0.14202168864E+02  0.62156250206E+01  0.40408899600E+01  0.16020748633E+02  0.51100000000E-03 0.  1.
         12    1    3    3    0    0 -0.19647009355E+02  0.12722650992E+02 -0.68447447777E+01  0.24386909520E+02  0.00000000000E+00 0. -1.
</event>
<event>
 7    1  0.3681059E-013  0.7246177E+02  0.7816164E-02  0.1226707E+00
        -11   -1    0    0    0    0  0.00000000000E+00  0.00000000000E+00  0.45593999997E+02  0.45594000000E+02  0.51100000000E-03 0.  1.
         11   -1    0    0    0    0 -0.00000000000E+00 -0.00000000000E+00 -0.45593999997E+02  0.45594000000E+02  0.51100000000E-03 0. -1.
    9900012    2    1    2    0    0 -0.59466857970E+01  0.40867927617E+01 -0.17280236964E+02  0.72461774097E+02  0.70000265490E+02 0.  0.
        -12    1    1    2    0    0  0.59466857970E+01 -0.40867927617E+01  0.17280236964E+02  0.18726225903E+02  0.00000000000E+00 0.  1.
         11    1    3    3    0    0  0.15215757785E+02  0.10072498057E+02  0.13589423566E+02  0.22751855643E+02  0.51100000000E-03 0. -1.
        -11    1    3    3    0    0 -0.13326580816E+02 -0.72296854239E+01  0.25386672697E+01  0.15372408378E+02  0.51100000000E-03 0.  1.
        -12    1    3    3    0    0 -0.78358627661E+01  0.12439801288E+01 -0.33408327800E+02  0.34337510076E+02  0.00000000000E+00 0.  1.
</event>
<event>
 7    1  0.3681059E-013  0.7246160E+02  0.7816164E-02  0.1226708E+00
        -11   -1    0    0    0    0  0.00000000000E+00  0.00000000000E+00  0.45593999997E+02  0.45594000000E+02  0.51100000000E-03 0.  1.
         11   -1    0    0    0    0 -0.00000000000E+00 -0.00000000000E+00 -0.45593999997E+02  0.45594000000E+02  0.51100000000E-03 0. -1.
    9900012    2    1    2    0    0 -0.12466699300E+02 -0.13960171737E+02  0.61086057907E+00  0.72461597862E+02  0.70000035912E+02 0.  0.
        -12    1    1    2    0    0  0.12466699300E+02  0.13960171737E+02 -0.61086057907E+00  0.18726402138E+02  0.00000000000E+00 0.  1.
         11    1    3    3    0    0 -0.26325219430E+02 -0.29463564014E+01  0.19579541975E+02  0.32940198213E+02  0.51100000000E-03 0. -1.
        -11    1    3    3    0    0  0.37170080675E+01 -0.37484073118E+01  0.81274064193E+01  0.96913075338E+01  0.51100000000E-03 0.  1.
         12    1    3    3    0    0  0.10141512063E+02 -0.72654080242E+01 -0.27096087816E+02  0.29830092115E+02  0.00000000000E+00 0. -1.
</event>
<event>
 7    1  0.3681059E-013  0.7246163E+02  0.7816164E-02  0.1226708E+00
        -11   -1    0    0    0    0  0.00000000000E+00  0.00000000000E+00  0.45593999997E+02  0.45594000000E+02  0.51100000000E-03 0. -1.
         11   -1    0    0    0    0 -0.00000000000E+00 -0.00000000000E+00 -0.45593999997E+02  0.45594000000E+02  0.51100000000E-03 0.  1.
    9900012    2    1    2    0    0 -0.16261504473E+01  0.14520720551E+02  0.11712433786E+02  0.72461633674E+02  0.70000082563E+02 0.  0.
        -12    1    1    2    0    0  0.16261504473E+01 -0.14520720551E+02 -0.11712433786E+02  0.18726366326E+02  0.00000000000E+00 0.  1.
         11    1    3    3    0    0 -0.14575408490E+02 -0.18020514559E+01 -0.53229632757E+01  0.15621263086E+02  0.51100000000E-03 0. -1.
        -11    1    3    3    0    0 -0.12107354680E+02 -0.10562512087E+02  0.11303270206E+02  0.19644811441E+02  0.51100000000E-03 0.  1.
        -12    1    3    3    0    0  0.25056612723E+02  0.26885284094E+02  0.57321268551E+01  0.37195559147E+02  0.00000000000E+00 0.  1.
</event>
<event>
 7    1  0.3681059E-013  0.7246155E+02  0.7816164E-02  0.1226708E+00
        -11   -1    0    0    0    0  0.00000000000E+00  0.00000000000E+00  0.45593999997E+02  0.45594000000E+02  0.51100000000E-03 0.  1.
         11   -1    0    0    0    0 -0.00000000000E+00 -0.00000000000E+00 -0.45593999997E+02  0.45594000000E+02  0.51100000000E-03 0. -1.
    9900012    2    1    2    0    0 -0.15897167986E+02 -0.98259013896E+01  0.11880918609E+01  0.72461552116E+02  0.69999976319E+02 0.  0.
        -12    1    1    2    0    0  0.15897167986E+02  0.98259013896E+01 -0.11880918609E+01  0.18726447884E+02  0.00000000000E+00 0.  1.
         11    1    3    3    0    0  0.11093885718E+02 -0.24411441704E+01 -0.31040507362E+01  0.11775763942E+02  0.51100000000E-03 0. -1.
        -11    1    3    3    0    0 -0.24596146443E+02  0.15411582631E+02 -0.13166563742E+02  0.31872334400E+02  0.51100000000E-03 0.  1.
         12    1    3    3    0    0 -0.23949072601E+01 -0.22796339851E+02  0.17458706339E+02  0.28813453774E+02  0.00000000000E+00 0. -1.
</event>
<event>
 7    1  0.3681059E-013  0.7246156E+02  0.7816164E-02  0.1226708E+00
        -11   -1    0    0    0    0  0.00000000000E+00  0.00000000000E+00  0.45593999997E+02  0.45594000000E+02  0.51100000000E-03 0. -1.
         11   -1    0    0    0    0 -0.00000000000E+00 -0.00000000000E+00 -0.45593999997E+02  0.45594000000E+02  0.51100000000E-03 0.  1.
    9900012    2    1    2    0    0 -0.18580818240E+02 -0.22946036839E+01  0.40952896759E+00  0.72461555423E+02  0.69999980627E+02 0.  0.
        -12    1    1    2    0    0  0.18580818240E+02  0.22946036839E+01 -0.40952896759E+00  0.18726444577E+02  0.00000000000E+00 0.  1.
         11    1    3    3    0    0  0.11291291488E+02 -0.60418311408E+01 -0.12513741279E+02  0.17905047000E+02  0.51100000000E-03 0. -1.
        -11    1    3    3    0    0  0.60867540544E+01 -0.49668281436E+01  0.15593444438E+02  0.17460626175E+02  0.51100000000E-03 0.  1.
         12    1    3    3    0    0 -0.35958863783E+02  0.87140556005E+01 -0.26701741909E+01  0.37095882248E+02  0.00000000000E+00 0. -1.
</event>
<event>
 7    1  0.3681059E-013  0.7246177E+02  0.7816164E-02  0.1226707E+00
        -11   -1    0    0    0    0  0.00000000000E+00  0.00000000000E+00  0.45593999997E+02  0.45594000000E+02  0.51100000000E-03 0.  1.
         11   -1    0    0    0    0 -0.00000000000E+00 -0.00000000000E+00 -0.45593999997E+02  0.45594000000E+02  0.51100000000E-03 0. -1.
    9900012    2    1    2    0    0 -0.16631200161E+02  0.83444335254E+01  0.21084006793E+01  0.72461768583E+02  0.70000258308E+02 0.  0.
        -12    1    1    2    0    0  0.16631200161E+02 -0.83444335254E+01 -0.21084006793E+01  0.18726231417E+02  0.00000000000E+00 0.  1.
         11    1    3    3    0    0 -0.22956569106E+02  0.14021555519E+01  0.45341284845E+01  0.23442022666E+02  0.51100000000E-03 0. -1.
        -11    1    3    3    0    0 -0.46705673300E+01  0.10377775406E+02  0.20452094629E+02  0.23405140387E+02  0.51100000000E-03 0.  1.
         12    1    3    3    0    0  0.10995936275E+02 -0.34354974324E+01 -0.22877822434E+02  0.25614605530E+02  0.00000000000E+00 0. -1.
</event>
<event>
 7    1  0.3681059E-013  0.7246173E+02  0.7816164E-02  0.1226708E+00
        -11   -1    0    0    0    0  0.00000000000E+00  0.00000000000E+00  0.45593999997E+02  0.45594000000E+02  0.51100000000E-03 0. -1.
         11   -1    0    0    0    0 -0.00000000000E+00 -0.00000000000E+00 -0.45593999997E+02  0.45594000000E+02  0.51100000000E-03 0.  1.
    9900012    2    1    2    0    0  0.64015820709E+01  0.42639025188E+01  0.17073723361E+02  0.72461731095E+02  0.70000209473E+02 0.  0.
        -12    1    1    2    0    0 -0.64015820709E+01 -0.42639025188E+01 -0.17073723361E+02  0.18726268905E+02  0.00000000000E+00 0.  1.
         11    1    3    3    0    0  0.12439112978E+02 -0.52393676014E+01  0.23399101673E+01  0.13698820547E+02  0.51100000000E-03 0. -1.
        -11    1    3    3    0    0 -0.66935002326E+01 -0.17290904852E+02 -0.11039822667E+02  0.21579064409E+02  0.51100000000E-03 0.  1.
         12    1    3    3    0    0  0.65596932596E+00  0.26794174973E+02  0.25773635861E+02  0.37183846139E+02  0.00000000000E+00 0. -1.
</event>
<event>
 7    1  0.3681059E-013  0.7246157E+02  0.7816164E-02  0.1226708E+00
        -11   -1    0    0    0    0  0.00000000000E+00  0.00000000000E+00  0.45593999997E+02  0.45594000000E+02  0.51100000000E-03 0.  1.
         11   -1    0    0    0    0 -0.00000000000E+00 -0.00000000000E+00 -0.45593999997E+02  0.45594000000E+02  0.51100000000E-03 0. -1.
    9900012    2    1    2    0    0  0.51118855567E+01  0.17511566092E+02 -0.42300158520E+01  0.72461565341E+02  0.69999993547E+02 0.  0.
        -12    1    1    2    0    0 -0.51118855567E+01 -0.17511566092E+02  0.42300158520E+01  0.18726434659E+02  0.00000000000E+00 0.  1.
         11    1    3    3    0    0  0.73764898445E+01 -0.98849456622E+01 -0.78290098518E+01  0.14608838034E+02  0.51100000000E-03 0. -1.
        -11    1    3    3    0    0  0.17579564230E+02 -0.33382252526E+01  0.10319587060E+02  0.20656202548E+02  0.51100000000E-03 0.  1.
        -12    1    3    3    0    0 -0.19844168518E+02  0.30734737007E+02 -0.67205930605E+01  0.37196524759E+02  0.00000000000E+00 0.  1.
</event>
<event>
 7    1  0.3681059E-013  0.7246162E+02  0.7816164E-02  0.1226708E+00
        -11   -1    0    0    0    0  0.00000000000E+00  0.00000000000E+00  0.45593999997E+02  0.45594000000E+02  0.51100000000E-03 0.  1.
         11   -1    0    0    0    0 -0.00000000000E+00 -0.00000000000E+00 -0.45593999997E+02  0.45594000000E+02  0.51100000000E-03 0. -1.
    9900012    2    1    2    0    0 -0.16657074014E+02 -0.62508339485E+01 -0.58434908018E+01  0.72461616886E+02  0.70000060695E+02 0.  0.
        -12    1    1    2    0    0  0.16657074014E+02  0.62508339485E+01  0.58434908018E+01  0.18726383114E+02  0.00000000000E+00 0.  1.
         11    1    3    3    0    0 -0.25766453705E+02 -0.16461391636E+01 -0.22433579010E+01  0.25916260641E+02  0.51100000000E-03 0. -1.
        -11    1    3    3    0    0 -0.16083714617E+01  0.12038497905E+02  0.15055865362E+02  0.19344026795E+02  0.51100000000E-03 0.  1.
         12    1    3    3    0    0  0.10717751153E+02 -0.16643192690E+02 -0.18655998263E+02  0.27201329450E+02  0.00000000000E+00 0. -1.
</event>
<event>
 7    1  0.3681059E-013  0.7246171E+02  0.7816164E-02  0.1226708E+00
        -11   -1    0    0    0    0  0.00000000000E+00  0.00000000000E+00  0.45593999997E+02  0.45594000000E+02  0.51100000000E-03 0. -1.
         11   -1    0    0    0    0 -0.00000000000E+00 -0.00000000000E+00 -0.45593999997E+02  0.45594000000E+02  0.51100000000E-03 0.  1.
    9900012    2    1    2    0    0  0.13686434928E+02  0.54429665361E+01  0.11564150907E+02  0.72461709071E+02  0.70000180782E+02 0.  0.
        -12    1    1    2    0    0 -0.13686434928E+02 -0.54429665361E+01 -0.11564150907E+02  0.18726290929E+02  0.00000000000E+00 0.  1.
         11    1    3    3    0    0  0.10487381039E+02 -0.34292795190E+01 -0.19352842669E+02  0.22277289752E+02  0.51100000000E-03 0. -1.
        -11    1    3    3    0    0 -0.16013890032E+02  0.71406285116E+01  0.57043622863E+01  0.18438356729E+02  0.51100000000E-03 0.  1.
         12    1    3    3    0    0  0.19212943922E+02  0.17316175436E+01  0.25212631289E+02  0.31746062590E+02  0.00000000000E+00 0. -1.
</event>
<event>
 7    1  0.3681059E-013  0.7246161E+02  0.7816164E-02  0.1226708E+00
        -11   -1    0    0    0    0  0.00000000000E+00  0.00000000000E+00  0.45593999997E+02  0.45594000000E+02  0.51100000000E-03 0. -1.
         11   -1    0    0    0    0 -0.00000000000E+00 -0.00000000000E+00 -0.45593999997E+02  0.45594000000E+02  0.51100000000E-03 0.  1.
    9900012    2    1    2    0    0 -0.18498314514E+02  0.33122838022E+00 -0.28948842432E+01  0.72461609347E+02  0.70000050873E+02 0.  0.
        -12    1    1    2    0    0  0.18498314514E+02 -0.33122838022E+00  0.28948842432E+01  0.18726390653E+02  0.00000000000E+00 0.  1.
         11    1    3    3    0    0 -0.11640217539E+02  0.20414572505E+02  0.24034750061E+01  0.23622576643E+02  0.51100000000E-03 0. -1.
        -11    1    3    3    0    0 -0.84626512414E+01 -0.95560369499E+01  0.18667188447E+02  0.22614115790E+02  0.51100000000E-03 0.  1.
        -12    1    3    3    0    0  0.16045542655E+01 -0.10527307175E+02 -0.23965547696E+02  0.26224916913E+02  0.00000000000E+00 0.  1.
</event>
<event>
 7    1  0.3681059E-013  0.7246145E+02  0.7816164E-02  0.1226708E+00
        -11   -1    0    0    0    0  0.00000000000E+00  0.00000000000E+00  0.45593999997E+02  0.45594000000E+02  0.51100000000E-03 0.  1.
         11   -1    0    0    0    0 -0.00000000000E+00 -0.00000000000E+00 -0.45593999997E+02  0.45594000000E+02  0.51100000000E-03 0. -1.
    9900012    2    1    2    0    0 -0.17388054613E+02 -0.66388324156E+01 -0.20652251823E+01  0.72461449487E+02  0.69999842625E+02 0.  0.
        -12    1    1    2    0    0  0.17388054613E+02  0.66388324156E+01  0.20652251823E+01  0.18726550513E+02  0.00000000000E+00 0.  1.
         11    1    3    3    0    0 -0.66520767748E+01 -0.14145847631E+00 -0.11044297779E+02  0.12893667035E+02  0.51100000000E-03 0. -1.
        -11    1    3    3    0    0  0.11075864522E+02  0.11037040807E+01 -0.19770620190E+02  0.22688551311E+02  0.51100000000E-03 0.  1.
        -12    1    3    3    0    0 -0.21811842360E+02 -0.76010780200E+01  0.28749692787E+02  0.36879231141E+02  0.00000000000E+00 0.  1.
</event>
<event>
 7    1  0.3681059E-013  0.7246153E+02  0.7816164E-02  0.1226708E+00
        -11   -1    0    0    0    0  0.00000000000E+00  0.00000000000E+00  0.45593999997E+02  0.45594000000E+02  0.51100000000E-03 0. -1.
         11   -1    0    0    0    0 -0.00000000000E+00 -0.00000000000E+00 -0.45593999997E+02  0.45594000000E+02  0.51100000000E-03 0.  1.
    9900012    2    1    2    0    0 -0.46643761539E+01 -0.87529387987E+01  0.15884285207E+02  0.72461525183E+02  0.69999941234E+02 0.  0.
        -12    1    1    2    0    0  0.46643761539E+01  0.87529387987E+01 -0.15884285207E+02  0.18726474817E+02  0.00000000000E+00 0.  1.
         11    1    3    3    0    0  0.39169879151E+01 -0.18795340026E+01 -0.98988534675E+01  0.10810307240E+02  0.51100000000E-03 0. -1.
        -11    1    3    3    0    0  0.70949079459E+01 -0.24136304820E+02 -0.21676211469E+01  0.25250693274E+02  0.51100000000E-03 0.  1.
         12    1    3    3    0    0 -0.15676272015E+02  0.17262900024E+02  0.27950759822E+02  0.36400524669E+02  0.00000000000E+00 0. -1.
</event>
<event>
 7    1  0.3681059E-013  0.7246153E+02  0.7816164E-02  0.1226708E+00
        -11   -1    0    0    0    0  0.00000000000E+00  0.00000000000E+00  0.45593999997E+02  0.45594000000E+02  0.51100000000E-03 0.  1.
         11   -1    0    0    0    0 -0.00000000000E+00 -0.00000000000E+00 -0.45593999997E+02  0.45594000000E+02  0.51100000000E-03 0. -1.
    9900012    2    1    2    0    0  0.72455182894E+01  0.22813333472E+01 -0.17116619983E+02  0.72461529517E+02  0.69999946880E+02 0.  0.
        -12    1    1    2    0    0 -0.72455182894E+01 -0.22813333472E+01  0.17116619983E+02  0.18726470483E+02  0.00000000000E+00 0.  1.
         11    1    3    3    0    0  0.27351319428E+02 -0.19627506816E+02 -0.99486814094E+01  0.35104272679E+02  0.51100000000E-03 0. -1.
        -11    1    3    3    0    0  0.18988418536E+01  0.28700288064E+01 -0.75062540669E+01  0.82575127074E+01  0.51100000000E-03 0.  1.
        -12    1    3    3    0    0 -0.22004642992E+02  0.19038811357E+02  0.33831549360E+00  0.29099744131E+02  0.00000000000E+00 0.  1.
</event>
<event>
 7    1  0.3681059E-013  0.7246158E+02  0.7816164E-02  0.1226708E+00
        -11   -1    0    0    0    0  0.00000000000E+00  0.00000000000E+00  0.45593999997E+02  0.45594000000E+02  0.51100000000E-03 0.  1.
         11   -1    0    0    0    0 -0.00000000000E+00 -0.00000000000E+00 -0.45593999997E+02  0.45594000000E+02  0.51100000000E-03 0. -1.
    9900012    2    1    2    0    0 -0.37561724445E+01 -0.15142279296E+02  0.10357674931E+02  0.72461577926E+02  0.70000009942E+02 0.  0.
        -12    1    1    2    0    0  0.37561724445E+01  0.15142279296E+02 -0.10357674931E+02  0.18726422074E+02  0.00000000000E+00 0.  1.
         11    1    3    3    0    0  0.77914366652E+00 -0.20202646929E+01 -0.23187981030E+01  0.31725950240E+01  0.51100000000E-03 0. -1.
        -11    1    3    3    0    0  0.30715235400E+02 -0.47903763152E+01  0.11181595747E+02  0.33036365942E+02  0.51100000000E-03 0.  1.
         12    1    3    3    0    0 -0.35250551511E+02 -0.83316382878E+01  0.14948772870E+01  0.36252616960E+02  0.00000000000E+00 0. -1.
</event>
<event>
 7    1  0.3681059E-013  0.7246157E+02  0.7816164E-02  0.1226708E+00
        -11   -1    0    0    0    0  0.00000000000E+00  0.00000000000E+00  0.45593999997E+02  0.45594000000E+02  0.51100000000E-03 0.  1.
         11   -1    0    0    0    0 -0.00000000000E+00 -0.00000000000E+00 -0.45593999997E+02  0.45594000000E+02  0.51100000000E-03 0. -1.
    9900012    2    1    2    0    0  0.28395109601E+01 -0.18205658684E+02 -0.33422026555E+01  0.72461570837E+02  0.70000000706E+02 0.  0.
        -12    1    1    2    0    0 -0.28395109601E+01  0.18205658684E+02  0.33422026555E+01  0.18726429163E+02  0.00000000000E+00 0.  1.
         11    1    3    3    0    0  0.27212180876E+01 -0.36282395921E+01 -0.94470665154E+00  0.46326689215E+01  0.51100000000E-03 0. -1.
        -11    1    3    3    0    0 -0.20549821637E+02 -0.30195155161E+02  0.11678766278E+02  0.38346266396E+02  0.51100000000E-03 0.  1.
         12    1    3    3    0    0  0.20668114509E+02  0.15617736069E+02 -0.14076262282E+02  0.29482635519E+02  0.00000000000E+00 0. -1.
</event>
<event>
 7    1  0.3681059E-013  0.7246140E+02  0.7816164E-02  0.1226708E+00
        -11   -1    0    0    0    0  0.00000000000E+00  0.00000000000E+00  0.45593999997E+02  0.45594000000E+02  0.51100000000E-03 0. -1.
         11   -1    0    0    0    0 -0.00000000000E+00 -0.00000000000E+00 -0.45593999997E+02  0.45594000000E+02  0.51100000000E-03 0.  1.
    9900012    2    1    2    0    0  0.14911093357E+02 -0.36370751578E+01  0.10729232029E+02  0.72461402852E+02  0.69999781875E+02 0.  0.
        -12    1    1    2    0    0 -0.14911093357E+02  0.36370751578E+01 -0.10729232029E+02  0.18726597148E+02  0.00000000000E+00 0.  1.
         11    1    3    3    0    0 -0.41695147894E+01 -0.19313357039E+02 -0.97596385971E+00  0.19782394178E+02  0.51100000000E-03 0. -1.
        -11    1    3    3    0    0 -0.10214832075E+02  0.83353319750E+01 -0.90872271751E+01  0.16012440521E+02  0.51100000000E-03 0.  1.
         12    1    3    3    0    0  0.29295440221E+02  0.73409499060E+01  0.20792423064E+02  0.36666568153E+02  0.00000000000E+00 0. -1.
</event>
<event>
 7    1  0.3681059E-013  0.7246165E+02  0.7816164E-02  0.1226708E+00
        -11   -1    0    0    0    0  0.00000000000E+00  0.00000000000E+00  0.45593999997E+02  0.45594000000E+02  0.51100000000E-03 0. -1.
         11   -1    0    0    0    0 -0.00000000000E+00 -0.00000000000E+00 -0.45593999997E+02  0.45594000000E+02  0.51100000000E-03 0.  1.
    9900012    2    1    2    0    0 -0.10929956887E+02 -0.10992366513E+02  0.10506197213E+02  0.72461648007E+02  0.70000101235E+02 0.  0.
        -12    1    1    2    0    0  0.10929956887E+02  0.10992366513E+02 -0.10506197213E+02  0.18726351993E+02  0.00000000000E+00 0.  1.
         11    1    3    3    0    0 -0.47448229334E+01 -0.23004780861E+01  0.14370790493E+02  0.15307683161E+02  0.51100000000E-03 0. -1.
        -11    1    3    3    0    0 -0.67457153386E+01 -0.20232246324E+02  0.20878860994E+02  0.29845859066E+02  0.51100000000E-03 0.  1.
         12    1    3    3    0    0  0.56058138493E+00  0.11540357897E+02 -0.24743454274E+02  0.27308105780E+02  0.00000000000E+00 0. -1.
</event>
<event>
 7    1  0.3681059E-013  0.7246160E+02  0.7816164E-02  0.1226708E+00
        -11   -1    0    0    0    0  0.00000000000E+00  0.00000000000E+00  0.45593999997E+02  0.45594000000E+02  0.51100000000E-03 0. -1.
         11   -1    0    0    0    0 -0.00000000000E+00 -0.00000000000E+00 -0.45593999997E+02  0.45594000000E+02  0.51100000000E-03 0.  1.
    9900012    2    1    2    0    0 -0.10201449029E+02 -0.15042700254E+02 -0.45084052183E+01  0.72461598561E+02  0.70000036823E+02 0.  0.
        -12    1    1    2    0    0  0.10201449029E+02  0.15042700254E+02  0.45084052183E+01  0.18726401439E+02  0.00000000000E+00 0.  1.
         11    1    3    3    0    0 -0.15757104549E+02 -0.15137630051E+02 -0.96412779905E+01  0.23882806134E+02  0.51100000000E-03 0. -1.
        -11    1    3    3    0    0 -0.43777464110E+01 -0.83598804016E+01 -0.18961509016E+02  0.21179969037E+02  0.51100000000E-03 0.  1.
        -12    1    3    3    0    0  0.99334019310E+01  0.84548101978E+01  0.24094381788E+02  0.27398823390E+02  0.00000000000E+00 0.  1.
</event>
<event>
 7    1  0.3681059E-013  0.7246144E+02  0.7816164E-02  0.1226708E+00
        -11   -1    0    0    0    0  0.00000000000E+00  0.00000000000E+00  0.45593999997E+02  0.45594000000E+02  0.51100000000E-03 0. -1.
         11   -1    0    0    0    0 -0.00000000000E+00 -0.00000000000E+00 -0.45593999997E+02  0.45594000000E+02  0.51100000000E-03 0.  1.
    9900012    2    1    2    0    0 -0.17110505534E+02  0.56792867872E+01 -0.50655884964E+01  0.72461444394E+02  0.69999835992E+02 0.  0.
        -12    1    1    2    0    0  0.17110505534E+02 -0.56792867872E+01  0.50655884964E+01  0.18726555606E+02  0.00000000000E+00 0.  1.
         11    1    3    3    0    0  0.48736370084E+01 -0.10950526575E+01 -0.59841904722E+01  0.77949992868E+01  0.51100000000E-03 0. -1.
        -11    1    3    3    0    0 -0.85827850605E+00 -0.15838255853E+02 -0.21309737006E+02  0.26564861791E+02  0.51100000000E-03 0.  1.
         12    1    3    3    0    0 -0.21125864036E+02  0.22612595298E+02  0.22228338982E+02  0.38101583317E+02  0.00000000000E+00 0. -1.
</event>
<event>
 7    1  0.3681059E-013  0.7246151E+02  0.7816164E-02  0.1226708E+00
        -11   -1    0    0    0    0  0.00000000000E+00  0.00000000000E+00  0.45593999997E+02  0.45594000000E+02  0.51100000000E-03 0.  1.
         11   -1    0    0    0    0 -0.00000000000E+00 -0.00000000000E+00 -0.45593999997E+02  0.45594000000E+02  0.51100000000E-03 0. -1.
    9900012    2    1    2    0    0  0.86364873409E+01 -0.38624507007E+01 -0.16160879532E+02  0.72461508971E+02  0.69999920115E+02 0.  0.
        -12    1    1    2    0    0 -0.86364873409E+01  0.38624507007E+01  0.16160879532E+02  0.18726491029E+02  0.00000000000E+00 0.  1.
         11    1    3    3    0    0  0.21817183765E+02 -0.37548207457E+01 -0.20157281615E+01  0.22229515211E+02  0.51100000000E-03 0. -1.
        -11    1    3    3    0    0  0.11036481744E+02 -0.13072022168E+02  0.36627560935E+01  0.17495641609E+02  0.51100000000E-03 0.  1.
        -12    1    3    3    0    0 -0.24217178167E+02  0.12964392213E+02 -0.17807907464E+02  0.32736352150E+02  0.00000000000E+00 0.  1.
</event>
<event>
 7    1  0.3681059E-013  0.7246145E+02  0.7816164E-02  0.1226708E+00
        -11   -1    0    0    0    0  0.00000000000E+00  0.00000000000E+00  0.45593999997E+02  0.45594000000E+02  0.51100000000E-03 0.  1.
         11   -1    0    0    0    0 -0.00000000000E+00 -0.00000000000E+00 -0.45593999997E+02  0.45594000000E+02  0.51100000000E-03 0. -1.
    9900012    2    1    2    0    0  0.72052595965E+01 -0.15996660938E+02 -0.65478775792E+01  0.72461451257E+02  0.69999844932E+02 0.  0.
        -12    1    1    2    0    0 -0.72052595965E+01  0.15996660938E+02  0.65478775792E+01  0.18726548743E+02  0.00000000000E+00 0.  1.
         11    1    3    3    0    0 -0.87742432549E+01 -0.31934378282E+02 -0.10587524156E+01  0.33134767509E+02  0.51100000000E-03 0. -1.
        -11    1    3    3    0    0 -0.74631669963E+01  0.13355543394E+02 -0.32092064953E+01  0.15632287342E+02  0.51100000000E-03 0.  1.
        -12    1    3    3    0    0  0.23442669848E+02  0.25821739504E+01 -0.22799186683E+01  0.23694396406E+02  0.00000000000E+00 0.  1.
</event>
<event>
 7    1  0.3681059E-013  0.7246152E+02  0.7816164E-02  0.1226708E+00
        -11   -1    0    0    0    0  0.00000000000E+00  0.00000000000E+00  0.45593999997E+02  0.45594000000E+02  0.51100000000E-03 0.  1.
         11   -1    0    0    0    0 -0.00000000000E+00 -0.00000000000E+00 -0.45593999997E+02  0.45594000000E+02  0.51100000000E-03 0. -1.
    9900012    2    1    2    0    0 -0.74879627551E+01 -0.14178747805E+02 -0.96733991126E+01  0.72461518058E+02  0.69999931952E+02 0.  0.
        -12    1    1    2    0    0  0.74879627551E+01  0.14178747805E+02  0.96733991126E+01  0.18726481942E+02  0.00000000000E+00 0.  1.
         11    1    3    3    0    0  0.98134708059E+01 -0.11020348158E+02  0.24232839061E+01  0.14954082651E+02  0.51100000000E-03 0. -1.
        -11    1    3    3    0    0 -0.32650049568E+02  0.18253741229E+01  0.60147778882E+01  0.33249590686E+02  0.51100000000E-03 0.  1.
         12    1    3    3    0    0  0.15348616007E+02 -0.49837737705E+01 -0.18111460907E+02  0.24257844721E+02  0.00000000000E+00 0. -1.
</event>
<event>
 7    1  0.3681059E-013  0.7246151E+02  0.7816164E-02  0.1226708E+00
        -11   -1    0    0    0    0  0.00000000000E+00  0.00000000000E+00  0.45593999997E+02  0.45594000000E+02  0.51100000000E-03 0.  1.
         11   -1    0    0    0    0 -0.00000000000E+00 -0.00000000000E+00 -0.45593999997E+02  0.45594000000E+02  0.51100000000E-03 0. -1.
    9900012    2    1    2    0    0 -0.18244865841E+02 -0.16445649705E+00  0.42165472822E+01  0.72461509500E+02  0.69999920803E+02 0.  0.
        -12    1    1    2    0    0  0.18244865841E+02  0.16445649705E+00 -0.42165472822E+01  0.18726490500E+02  0.00000000000E+00 0.  1.
         11    1    3    3    0    0 -0.65704856881E+01 -0.13944405247E+02 -0.20686331423E+02  0.25798101246E+02  0.51100000000E-03 0. -1.
        -11    1    3    3    0    0 -0.79241675479E+01  0.93184953800E+01 -0.70937466676E+01  0.14140298070E+02  0.51100000000E-03 0.  1.
        -12    1    3    3    0    0 -0.37502126047E+01  0.44614533703E+01  0.31996625373E+02  0.32523110183E+02  0.00000000000E+00 0.  1.
</event>
<event>
 7    1  0.3681059E-013  0.7246171E+02  0.7816164E-02  0.1226708E+00
        -11   -1    0    0    0    0  0.00000000000E+00  0.00000000000E+00  0.45593999997E+02  0.45594000000E+02  0.51100000000E-03 0.  1.
         11   -1    0    0    0    0 -0.00000000000E+00 -0.00000000000E+00 -0.45593999997E+02  0.45594000000E+02  0.51100000000E-03 0. -1.
    9900012    2    1    2    0    0  0.40327366114E+00 -0.58383205497E+01 -0.17788351915E+02  0.72461706177E+02  0.70000177013E+02 0.  0.
        -12    1    1    2    0    0 -0.40327366114E+00  0.58383205497E+01  0.17788351915E+02  0.18726293823E+02  0.00000000000E+00 0.  1.
         11    1    3    3    0    0 -0.81323627308E-01 -0.32707448148E+01 -0.15380705260E+02  0.15724836398E+02  0.51100000000E-03 0. -1.
        -11    1    3    3    0    0  0.11313834703E+02  0.16319618620E+02 -0.20417518659E+02  0.28481711255E+02  0.51100000000E-03 0.  1.
        -12    1    3    3    0    0 -0.10829237415E+02 -0.18887194355E+02  0.18009872005E+02  0.28255158524E+02  0.00000000000E+00 0.  1.
</event>
<event>
 7    1  0.3681059E-013  0.7246163E+02  0.7816164E-02  0.1226708E+00
        -11   -1    0    0    0    0  0.00000000000E+00  0.00000000000E+00  0.45593999997E+02  0.45594000000E+02  0.51100000000E-03 0. -1.
         11   -1    0    0    0    0 -0.00000000000E+00 -0.00000000000E+00 -0.45593999997E+02  0.45594000000E+02  0.51100000000E-03 0.  1.
    9900012    2    1    2    0    0  0.17490412869E+02 -0.50936103474E+00  0.66710529608E+01  0.72461629861E+02  0.70000077596E+02 0.  0.
        -12    1    1    2    0    0 -0.17490412869E+02  0.50936103474E+00 -0.66710529608E+01  0.18726370139E+02  0.00000000000E+00 0.  1.
         11    1    3    3    0    0  0.24955229767E+02 -0.30252896651E+01  0.17015777124E+02  0.30355436774E+02  0.51100000000E-03 0. -1.
        -11    1    3    3    0    0  0.14326021845E+02 -0.16523988608E+01 -0.13430812187E+02  0.19706649643E+02  0.51100000000E-03 0.  1.
         12    1    3    3    0    0 -0.21790838743E+02  0.41683274911E+01  0.30860880232E+01  0.22399543444E+02  0.00000000000E+00 0. -1.
</event>
<event>
 7    1  0.3681059E-013  0.7246158E+02  0.7816164E-02  0.1226708E+00
        -11   -1    0    0    0    0  0.00000000000E+00  0.00000000000E+00  0.45593999997E+02  0.45594000000E+02  0.51100000000E-03 0.  1.
         11   -1    0    0    0    0 -0.00000000000E+00 -0.00000000000E+00 -0.45593999997E+02  0.45594000000E+02  0.51100000000E-03 0. -1.
    9900012    2    1    2    0    0 -0.16315354874E+02  0.91884438180E+01  0.24626395479E+00  0.72461576145E+02  0.70000007622E+02 0.  0.
        -12    1    1    2    0    0  0.16315354874E+02 -0.91884438180E+01 -0.24626395479E+00  0.18726423855E+02  0.00000000000E+00 0.  1.
         11    1    3    3    0    0  0.19943885510E+01 -0.42590997507E+01 -0.31880703600E+01  0.56816643037E+01  0.51100000000E-03 0. -1.
        -11    1    3    3    0    0  0.49565823457E+01  0.20308240883E+01  0.29523906718E+02  0.30005883143E+02  0.51100000000E-03 0.  1.
         12    1    3    3    0    0 -0.23266325770E+02  0.11416719480E+02 -0.26089572403E+02  0.36774028699E+02  0.00000000000E+00 0. -1.
</event>
<event>
 7    1  0.3681059E-013  0.7246161E+02  0.7816164E-02  0.1226708E+00
        -11   -1    0    0    0    0  0.00000000000E+00  0.00000000000E+00  0.45593999997E+02  0.45594000000E+02  0.51100000000E-03 0. -1.
         11   -1    0    0    0    0 -0.00000000000E+00 -0.00000000000E+00 -0.45593999997E+02  0.45594000000E+02  0.51100000000E-03 0.  1.
    9900012    2    1    2    0    0  0.46266739570E+01 -0.11465607593E+01  0.18109582073E+02  0.72461610162E+02  0.70000051935E+02 0.  0.
        -12    1    1    2    0    0 -0.46266739570E+01  0.11465607593E+01 -0.18109582073E+02  0.18726389838E+02  0.00000000000E+00 0.  1.
         11    1    3    3    0    0  0.76544756437E+01  0.17039138519E+02  0.73276523502E+01  0.20065336481E+02  0.51100000000E-03 0. -1.
        -11    1    3    3    0    0 -0.18709439648E+02  0.64954615125E+01 -0.30669758438E+01  0.20040970368E+02  0.51100000000E-03 0.  1.
        -12    1    3    3    0    0  0.15681637961E+02 -0.24681160791E+02  0.13848905567E+02  0.32355303314E+02  0.00000000000E+00 0.  1.
</event>
<event>
 7    1  0.3681059E-013  0.7246158E+02  0.7816164E-02  0.1226708E+00
        -11   -1    0    0    0    0  0.00000000000E+00  0.00000000000E+00  0.45593999997E+02  0.45594000000E+02  0.51100000000E-03 0.  1.
         11   -1    0    0    0    0 -0.00000000000E+00 -0.00000000000E+00 -0.45593999997E+02  0.45594000000E+02  0.51100000000E-03 0. -1.
    9900012    2    1    2    0    0 -0.21217230554E+00 -0.36821298719E+01 -0.18359623902E+02  0.72461577830E+02  0.70000009816E+02 0.  0.
        -12    1    1    2    0    0  0.21217230554E+00  0.36821298719E+01  0.18359623902E+02  0.18726422170E+02  0.00000000000E+00 0.  1.
         11    1    3    3    0    0  0.20924393745E+00  0.61424409024E+01 -0.10772666975E+01  0.62397008793E+01  0.51100000000E-03 0. -1.
        -11    1    3    3    0    0  0.27231150738E+02  0.10889282934E+02 -0.92266338774E+01  0.30744801614E+02  0.51100000000E-03 0.  1.
        -12    1    3    3    0    0 -0.27652566981E+02 -0.20713853708E+02 -0.80557233271E+01  0.35477075336E+02  0.00000000000E+00 0.  1.
</event>
<event>
 7    1  0.3681059E-013  0.7246158E+02  0.7816164E-02  0.1226708E+00
        -11   -1    0    0    0    0  0.00000000000E+00  0.00000000000E+00  0.45593999997E+02  0.45594000000E+02  0.51100000000E-03 0.  1.
         11   -1    0    0    0    0 -0.00000000000E+00 -0.00000000000E+00 -0.45593999997E+02  0.45594000000E+02  0.51100000000E-03 0. -1.
    9900012    2    1    2    0    0  0.14443560015E+02 -0.11214868614E+02  0.40359641505E+01  0.72461582548E+02  0.70000015963E+02 0.  0.
        -12    1    1    2    0    0 -0.14443560015E+02  0.11214868614E+02 -0.40359641505E+01  0.18726417452E+02  0.00000000000E+00 0.  1.
         11    1    3    3    0    0  0.61467950964E+01 -0.61728094156E+01  0.43588882265E+01  0.97409739179E+01  0.51100000000E-03 0. -1.
        -11    1    3    3    0    0  0.23167496978E+02  0.14456209937E+02  0.17475112750E+02  0.32420587408E+02  0.51100000000E-03 0.  1.
         12    1    3    3    0    0 -0.14870732059E+02 -0.19498269136E+02 -0.17798036826E+02  0.30300021223E+02  0.00000000000E+00 0. -1.
</event>
<event>
 7    1  0.3681059E-013  0.7246147E+02  0.7816164E-02  0.1226708E+00
        -11   -1    0    0    0    0  0.00000000000E+00  0.00000000000E+00  0.45593999997E+02  0.45594000000E+02  0.51100000000E-03 0.  1.
         11   -1    0    0    0    0 -0.00000000000E+00 -0.00000000000E+00 -0.45593999997E+02  0.45594000000E+02  0.51100000000E-03 0. -1.
    9900012    2    1    2    0    0  0.13215310665E+02 -0.12022686816E+02 -0.56119099086E+01  0.72461468899E+02  0.69999867914E+02 0.  0.
        -12    1    1    2    0    0 -0.13215310665E+02  0.12022686816E+02  0.56119099086E+01  0.18726531101E+02  0.00000000000E+00 0.  1.
         11    1    3    3    0    0  0.13494299052E+02 -0.24043805832E+02 -0.11411894029E+02  0.29840107764E+02  0.51100000000E-03 0. -1.
        -11    1    3    3    0    0 -0.14916527731E+02  0.15040496157E+02 -0.76427692960E+01  0.22519574751E+02  0.51100000000E-03 0.  1.
         12    1    3    3    0    0  0.14637539345E+02 -0.30193771408E+01  0.13442753417E+02  0.20101786383E+02  0.00000000000E+00 0. -1.
</event>
<event>
 7    1  0.3681059E-013  0.7246155E+02  0.7816164E-02  0.1226708E+00
        -11   -1    0    0    0    0  0.00000000000E+00  0.00000000000E+00  0.45593999997E+02  0.45594000000E+02  0.51100000000E-03 0. -1.
         11   -1    0    0    0    0 -0.00000000000E+00 -0.00000000000E+00 -0.45593999997E+02  0.45594000000E+02  0.51100000000E-03 0.  1.
    9900012    2    1    2    0    0  0.10878642591E+02 -0.11878889864E+02 -0.95512778239E+01  0.72461553538E+02  0.69999978172E+02 0.  0.
        -12    1    1    2    0    0 -0.10878642591E+02  0.11878889864E+02  0.95512778239E+01  0.18726446462E+02  0.00000000000E+00 0.  1.
         11    1    3    3    0    0  0.40898065469E+00 -0.26822324579E+02 -0.15953579293E+02  0.31210912411E+02  0.51100000000E-03 0. -1.
        -11    1    3    3    0    0  0.73937762263E+01 -0.56968564674E+01 -0.10750892507E+02  0.14237408137E+02  0.51100000000E-03 0.  1.
        -12    1    3    3    0    0  0.30758857098E+01  0.20640291183E+02  0.17153193976E+02  0.27013232990E+02  0.00000000000E+00 0.  1.
</event>
<event>
 7    1  0.3681059E-013  0.7246153E+02  0.7816164E-02  0.1226708E+00
        -11   -1    0    0    0    0  0.00000000000E+00  0.00000000000E+00  0.45593999997E+02  0.45594000000E+02  0.51100000000E-03 0. -1.
         11   -1    0    0    0    0 -0.00000000000E+00 -0.00000000000E+00 -0.45593999997E+02  0.45594000000E+02  0.51100000000E-03 0.  1.
    9900012    2    1    2    0    0  0.15590698779E+02  0.10239546211E+02  0.16621061506E+01  0.72461526977E+02  0.69999943571E+02 0.  0.
        -12    1    1    2    0    0 -0.15590698779E+02 -0.10239546211E+02 -0.16621061506E+01  0.18726473023E+02  0.00000000000E+00 0.  1.
         11    1    3    3    0    0  0.32904744556E+02  0.16150849385E+02  0.95108819971E+01  0.37868575716E+02  0.51100000000E-03 0.  1.
        -11    1    3    3    0    0  0.39526561173E+00 -0.77578833488E+01  0.77121364517E+01  0.10946142602E+02  0.51100000000E-03 0. -1.
        -12    1    3    3    0    0 -0.17709311389E+02  0.18465801745E+01 -0.15560912298E+02  0.23646808659E+02  0.00000000000E+00 0.  1.
</event>
<event>
 7    1  0.3681059E-013  0.7246153E+02  0.7816164E-02  0.1226708E+00
        -11   -1    0    0    0    0  0.00000000000E+00  0.00000000000E+00  0.45593999997E+02  0.45594000000E+02  0.51100000000E-03 0.  1.
         11   -1    0    0    0    0 -0.00000000000E+00 -0.00000000000E+00 -0.45593999997E+02  0.45594000000E+02  0.51100000000E-03 0. -1.
    9900012    2    1    2    0    0  0.14332616909E+02  0.51477109214E+01 -0.10897600646E+02  0.72461533835E+02  0.69999952505E+02 0.  0.
        -12    1    1    2    0    0 -0.14332616909E+02 -0.51477109214E+01  0.10897600646E+02  0.18726466165E+02  0.00000000000E+00 0.  1.
         11    1    3    3    0    0 -0.12061041827E+02  0.10752753282E+02 -0.53507082990E+01  0.17021178357E+02  0.51100000000E-03 0. -1.
        -11    1    3    3    0    0 -0.45955518831E+01 -0.19383345563E+02 -0.79333959333E+01  0.21442293572E+02  0.51100000000E-03 0.  1.
         12    1    3    3    0    0  0.30989210620E+02  0.13778303203E+02  0.23865035866E+01  0.33998061906E+02  0.00000000000E+00 0. -1.
</event>
<event>
 7    1  0.3681059E-013  0.7246157E+02  0.7816164E-02  0.1226708E+00
        -11   -1    0    0    0    0  0.00000000000E+00  0.00000000000E+00  0.45593999997E+02  0.45594000000E+02  0.51100000000E-03 0.  1.
         11   -1    0    0    0    0 -0.00000000000E+00 -0.00000000000E+00 -0.45593999997E+02  0.45594000000E+02  0.51100000000E-03 0. -1.
    9900012    2    1    2    0    0 -0.14072585457E+02  0.11027236057E+02 -0.55714978020E+01  0.72461569901E+02  0.69999999488E+02 0.  0.
        -12    1    1    2    0    0  0.14072585457E+02 -0.11027236057E+02  0.55714978020E+01  0.18726430099E+02  0.00000000000E+00 0.  1.
         11    1    3    3    0    0 -0.37863599494E+01  0.10457243276E+02  0.97329365045E+01  0.14779056528E+02  0.51100000000E-03 0. -1.
        -11    1    3    3    0    0 -0.29040823380E+02 -0.63966103458E+01  0.38496412672E+01  0.29985092707E+02  0.51100000000E-03 0.  1.
         12    1    3    3    0    0  0.18754597872E+02  0.69666031261E+01 -0.19154075574E+02  0.27697420666E+02  0.00000000000E+00 0. -1.
</event>
<event>
 7    1  0.3681059E-013  0.7246178E+02  0.7816164E-02  0.1226707E+00
        -11   -1    0    0    0    0  0.00000000000E+00  0.00000000000E+00  0.45593999997E+02  0.45594000000E+02  0.51100000000E-03 0.  1.
         11   -1    0    0    0    0 -0.00000000000E+00 -0.00000000000E+00 -0.45593999997E+02  0.45594000000E+02  0.51100000000E-03 0. -1.
    9900012    2    1    2    0    0  0.14873316477E+02  0.46374482714E+01  0.10389899347E+02  0.72461775662E+02  0.70000267530E+02 0.  0.
        -12    1    1    2    0    0 -0.14873316477E+02 -0.46374482714E+01 -0.10389899347E+02  0.18726224338E+02  0.00000000000E+00 0.  1.
         11    1    3    3    0    0 -0.46769483144E+01 -0.15912945595E+02  0.84701406794E+00  0.16607622230E+02  0.51100000000E-03 0. -1.
        -11    1    3    3    0    0  0.14935619856E+02 -0.10475967128E+02  0.15484390654E+02  0.23928748023E+02  0.51100000000E-03 0.  1.
        -12    1    3    3    0    0  0.46146449355E+01  0.31026360994E+02 -0.59415053750E+01  0.31925405409E+02  0.00000000000E+00 0.  1.
</event>
<event>
 7    1  0.3681059E-013  0.7246125E+02  0.7816164E-02  0.1226709E+00
        -11   -1    0    0    0    0  0.00000000000E+00  0.00000000000E+00  0.45593999997E+02  0.45594000000E+02  0.51100000000E-03 0.  1.
         11   -1    0    0    0    0 -0.00000000000E+00 -0.00000000000E+00 -0.45593999997E+02  0.45594000000E+02  0.51100000000E-03 0. -1.
    9900012    2    1    2    0    0 -0.67679774515E+01  0.13426651637E+02 -0.11162923114E+02  0.72461245198E+02  0.69999576500E+02 0.  0.
        -12    1    1    2    0    0  0.67679774515E+01 -0.13426651637E+02  0.11162923114E+02  0.18726754802E+02  0.00000000000E+00 0.  1.
         11    1    3    3    0    0  0.20620632450E+01  0.39622464658E+01 -0.23612075981E+02  0.24030847556E+02  0.51100000000E-03 0. -1.
        -11    1    3    3    0    0  0.15286698685E+02 -0.53429891003E+01 -0.25634701401E+01  0.16395184312E+02  0.51100000000E-03 0.  1.
         12    1    3    3    0    0 -0.24116739381E+02  0.14807394272E+02  0.15012623007E+02  0.32035213329E+02  0.00000000000E+00 0. -1.
</event>
<event>
 7    1  0.3681059E-013  0.7246155E+02  0.7816164E-02  0.1226708E+00
        -11   -1    0    0    0    0  0.00000000000E+00  0.00000000000E+00  0.45593999997E+02  0.45594000000E+02  0.51100000000E-03 0.  1.
         11   -1    0    0    0    0 -0.00000000000E+00 -0.00000000000E+00 -0.45593999997E+02  0.45594000000E+02  0.51100000000E-03 0. -1.
    9900012    2    1    2    0    0 -0.16122178119E+02 -0.14289157080E+01 -0.94187819524E+01  0.72461551301E+02  0.69999975258E+02 0.  0.
        -12    1    1    2    0    0  0.16122178119E+02  0.14289157080E+01  0.94187819524E+01  0.18726448699E+02  0.00000000000E+00 0.  1.
         11    1    3    3    0    0 -0.69970697928E+01 -0.75303187818E+01 -0.90530341044E+01  0.13697522163E+02  0.51100000000E-03 0. -1.
        -11    1    3    3    0    0 -0.23622614878E+02 -0.18512018407E+02  0.21426091822E+01  0.30088428566E+02  0.51100000000E-03 0.  1.
        -12    1    3    3    0    0  0.14497506552E+02  0.24613421481E+02 -0.25083570303E+01  0.28675600573E+02  0.00000000000E+00 0.  1.
</event>
<event>
 7    1  0.3681059E-013  0.7246152E+02  0.7816164E-02  0.1226708E+00
        -11   -1    0    0    0    0  0.00000000000E+00  0.00000000000E+00  0.45593999997E+02  0.45594000000E+02  0.51100000000E-03 0.  1.
         11   -1    0    0    0    0 -0.00000000000E+00 -0.00000000000E+00 -0.45593999997E+02  0.45594000000E+02  0.51100000000E-03 0. -1.
    9900012    2    1    2    0    0 -0.13401847033E+02  0.37632811734E+01 -0.12526341091E+02  0.72461521147E+02  0.69999935977E+02 0.  0.
        -12    1    1    2    0    0  0.13401847033E+02 -0.37632811734E+01  0.12526341091E+02  0.18726478853E+02  0.00000000000E+00 0.  1.
         11    1    3    3    0    0 -0.22252624308E+02 -0.27448625387E+02 -0.12649528082E+02  0.37531545201E+02  0.51100000000E-03 0. -1.
        -11    1    3    3    0    0  0.18406648586E+01  0.73838553369E+00 -0.29015687128E+01  0.35145926612E+01  0.51100000000E-03 0.  1.
        -12    1    3    3    0    0  0.70101124158E+01  0.30473521027E+02  0.30247557038E+01  0.31415383285E+02  0.00000000000E+00 0.  1.
</event>
<event>
 7    1  0.3681059E-013  0.7246157E+02  0.7816164E-02  0.1226708E+00
        -11   -1    0    0    0    0  0.00000000000E+00  0.00000000000E+00  0.45593999997E+02  0.45594000000E+02  0.51100000000E-03 0.  1.
         11   -1    0    0    0    0 -0.00000000000E+00 -0.00000000000E+00 -0.45593999997E+02  0.45594000000E+02  0.51100000000E-03 0. -1.
    9900012    2    1    2    0    0  0.41592174705E+01  0.30434388342E+01 -0.18003269964E+02  0.72461565761E+02  0.69999994094E+02 0.  0.
        -12    1    1    2    0    0 -0.41592174705E+01 -0.30434388342E+01  0.18003269964E+02  0.18726434239E+02  0.00000000000E+00 0.  1.
         11    1    3    3    0    0  0.88066988665E-02  0.11633181186E+02  0.21485096613E+01  0.11829922911E+02  0.51100000000E-03 0. -1.
        -11    1    3    3    0    0  0.53510190986E+01  0.18526995927E+02  0.85792704394E+01  0.21106559762E+02  0.51100000000E-03 0.  1.
        -12    1    3    3    0    0 -0.12006083269E+01 -0.27116738278E+02 -0.28731050065E+02  0.39525083087E+02  0.00000000000E+00 0.  1.
</event>
<event>
 7    1  0.3681059E-013  0.7246170E+02  0.7816164E-02  0.1226708E+00
        -11   -1    0    0    0    0  0.00000000000E+00  0.00000000000E+00  0.45593999997E+02  0.45594000000E+02  0.51100000000E-03 0.  1.
         11   -1    0    0    0    0 -0.00000000000E+00 -0.00000000000E+00 -0.45593999997E+02  0.45594000000E+02  0.51100000000E-03 0. -1.
    9900012    2    1    2    0    0 -0.15041005788E+02 -0.79096608116E+01 -0.78663776399E+01  0.72461695334E+02  0.70000162888E+02 0.  0.
        -12    1    1    2    0    0  0.15041005788E+02  0.79096608116E+01  0.78663776399E+01  0.18726304666E+02  0.00000000000E+00 0.  1.
         11    1    3    3    0    0 -0.48009850958E+01  0.14804803613E+02 -0.30695137925E+00  0.15566820078E+02  0.51100000000E-03 0. -1.
        -11    1    3    3    0    0  0.11227898283E+02 -0.30713747296E+02  0.21340216612E+00  0.32702377797E+02  0.51100000000E-03 0.  1.
         12    1    3    3    0    0 -0.21467918975E+02  0.79992828715E+01 -0.77728284268E+01  0.24192497459E+02  0.00000000000E+00 0. -1.
</event>
<event>
 7    1  0.3681059E-013  0.7246159E+02  0.7816164E-02  0.1226708E+00
        -11   -1    0    0    0    0  0.00000000000E+00  0.00000000000E+00  0.45593999997E+02  0.45594000000E+02  0.51100000000E-03 0.  1.
         11   -1    0    0    0    0 -0.00000000000E+00 -0.00000000000E+00 -0.45593999997E+02  0.45594000000E+02  0.51100000000E-03 0. -1.
    9900012    2    1    2    0    0 -0.56608940680E+01 -0.21164786987E+01 -0.17724369137E+02  0.72461589104E+02  0.70000024504E+02 0.  0.
        -12    1    1    2    0    0  0.56608940680E+01  0.21164786987E+01  0.17724369137E+02  0.18726410896E+02  0.00000000000E+00 0.  1.
         11    1    3    3    0    0 -0.18061810386E+02 -0.21276708122E+00 -0.16535973731E+02  0.24489032070E+02  0.51100000000E-03 0. -1.
        -11    1    3    3    0    0  0.14778241053E+02 -0.10264985499E+02 -0.20209663072E+02  0.27059135568E+02  0.51100000000E-03 0.  1.
         12    1    3    3    0    0 -0.23773247356E+01  0.83612738813E+01  0.19021267666E+02  0.20913421467E+02  0.00000000000E+00 0. -1.
</event>
<event>
 7    1  0.3681059E-013  0.7246156E+02  0.7816164E-02  0.1226708E+00
        -11   -1    0    0    0    0  0.00000000000E+00  0.00000000000E+00  0.45593999997E+02  0.45594000000E+02  0.51100000000E-03 0. -1.
         11   -1    0    0    0    0 -0.00000000000E+00 -0.00000000000E+00 -0.45593999997E+02  0.45594000000E+02  0.51100000000E-03 0.  1.
    9900012    2    1    2    0    0 -0.16974061767E+02  0.79060582102E+01 -0.23444126097E+00  0.72461561684E+02  0.69999988783E+02 0.  0.
        -12    1    1    2    0    0  0.16974061767E+02 -0.79060582102E+01  0.23444126097E+00  0.18726438316E+02  0.00000000000E+00 0.  1.
         11    1    3    3    0    0 -0.23002544169E+02 -0.12724088578E+02  0.18695657752E+02  0.32257512108E+02  0.51100000000E-03 0. -1.
        -11    1    3    3    0    0 -0.93904997658E+01 -0.32340468643E+00 -0.60450125197E+01  0.11172656491E+02  0.51100000000E-03 0.  1.
        -12    1    3    3    0    0  0.15418982167E+02  0.20953551474E+02 -0.12885086494E+02  0.29031393084E+02  0.00000000000E+00 0.  1.
</event>
<event>
 7    1  0.3681059E-013  0.7246165E+02  0.7816164E-02  0.1226708E+00
        -11   -1    0    0    0    0  0.00000000000E+00  0.00000000000E+00  0.45593999997E+02  0.45594000000E+02  0.51100000000E-03 0.  1.
         11   -1    0    0    0    0 -0.00000000000E+00 -0.00000000000E+00 -0.45593999997E+02  0.45594000000E+02  0.51100000000E-03 0. -1.
    9900012    2    1    2    0    0  0.52074009713E+01  0.35147020209E+01 -0.17641029698E+02  0.72461652679E+02  0.70000107321E+02 0.  0.
        -12    1    1    2    0    0 -0.52074009713E+01 -0.35147020209E+01  0.17641029698E+02  0.18726347321E+02  0.00000000000E+00 0.  1.
         11    1    3    3    0    0  0.16483604866E+02  0.94873667901E+01 -0.16607365766E+02  0.25249236740E+02  0.51100000000E-03 0. -1.
        -11    1    3    3    0    0  0.10039359642E+02 -0.11482114132E+01 -0.17254622733E+02  0.19995727979E+02  0.51100000000E-03 0.  1.
        -12    1    3    3    0    0 -0.21315563537E+02 -0.48244533561E+01  0.16220958801E+02  0.27216687960E+02  0.00000000000E+00 0.  1.
</event>
<event>
 7    1  0.3681059E-013  0.7246159E+02  0.7816164E-02  0.1226708E+00
        -11   -1    0    0    0    0  0.00000000000E+00  0.00000000000E+00  0.45593999997E+02  0.45594000000E+02  0.51100000000E-03 0. -1.
         11   -1    0    0    0    0 -0.00000000000E+00 -0.00000000000E+00 -0.45593999997E+02  0.45594000000E+02  0.51100000000E-03 0.  1.
    9900012    2    1    2    0    0 -0.58944348678E+01  0.57061293260E+00  0.17765368360E+02  0.72461594191E+02  0.70000031130E+02 0.  0.
        -12    1    1    2    0    0  0.58944348678E+01 -0.57061293260E+00 -0.17765368360E+02  0.18726405809E+02  0.00000000000E+00 0.  1.
         11    1    3    3    0    0  0.88290303472E+01 -0.21771183970E+00  0.49470023985E+01  0.10122845860E+02  0.51100000000E-03 0. -1.
        -11    1    3    3    0    0  0.21207596164E+01 -0.23844147958E+02 -0.87842515541E+01  0.25499099765E+02  0.51100000000E-03 0.  1.
         12    1    3    3    0    0 -0.16844224831E+02  0.24632472730E+02  0.21602617516E+02  0.36839648567E+02  0.00000000000E+00 0. -1.
</event>
<event>
 7    1  0.3681059E-013  0.7246159E+02  0.7816164E-02  0.1226708E+00
        -11   -1    0    0    0    0  0.00000000000E+00  0.00000000000E+00  0.45593999997E+02  0.45594000000E+02  0.51100000000E-03 0.  1.
         11   -1    0    0    0    0 -0.00000000000E+00 -0.00000000000E+00 -0.45593999997E+02  0.45594000000E+02  0.51100000000E-03 0. -1.
    9900012    2    1    2    0    0 -0.40079622674E+01 -0.70300195767E+01 -0.16887674538E+02  0.72461588489E+02  0.70000023702E+02 0.  0.
        -12    1    1    2    0    0  0.40079622674E+01  0.70300195767E+01  0.16887674538E+02  0.18726411511E+02  0.00000000000E+00 0.  1.
         11    1    3    3    0    0 -0.23891823801E+02  0.41572842727E+01 -0.23931953368E+02  0.34071111654E+02  0.51100000000E-03 0.  1.
        -11    1    3    3    0    0  0.18072790603E+01  0.53730387951E+01 -0.78667418789E+01  0.96964648994E+01  0.51100000000E-03 0. -1.
        -12    1    3    3    0    0  0.18076582473E+02 -0.16560342644E+02  0.14911020709E+02  0.28694011936E+02  0.00000000000E+00 0.  1.
</event>
<event>
 7    1  0.3681059E-013  0.7246159E+02  0.7816164E-02  0.1226708E+00
        -11   -1    0    0    0    0  0.00000000000E+00  0.00000000000E+00  0.45593999997E+02  0.45594000000E+02  0.51100000000E-03 0.  1.
         11   -1    0    0    0    0 -0.00000000000E+00 -0.00000000000E+00 -0.45593999997E+02  0.45594000000E+02  0.51100000000E-03 0. -1.
    9900012    2    1    2    0    0 -0.49266857987E+01  0.15945715594E+02 -0.84935521406E+01  0.72461587991E+02  0.70000023053E+02 0.  0.
        -12    1    1    2    0    0  0.49266857987E+01 -0.15945715594E+02  0.84935521406E+01  0.18726412009E+02  0.00000000000E+00 0.  1.
         11    1    3    3    0    0  0.69046122873E+01  0.88008990216E+01 -0.18810269425E+01  0.11343181081E+02  0.51100000000E-03 0. -1.
        -11    1    3    3    0    0 -0.16852956649E+02  0.18785111406E+02  0.19631148961E+02  0.31973185142E+02  0.51100000000E-03 0.  1.
         12    1    3    3    0    0  0.50216585626E+01 -0.11640294833E+02 -0.26243674159E+02  0.29145221768E+02  0.00000000000E+00 0. -1.
</event>
<event>
 7    1  0.3681059E-013  0.7246151E+02  0.7816164E-02  0.1226708E+00
        -11   -1    0    0    0    0  0.00000000000E+00  0.00000000000E+00  0.45593999997E+02  0.45594000000E+02  0.51100000000E-03 0. -1.
         11   -1    0    0    0    0 -0.00000000000E+00 -0.00000000000E+00 -0.45593999997E+02  0.45594000000E+02  0.51100000000E-03 0.  1.
    9900012    2    1    2    0    0  0.24932660158E+01  0.88445680182E+01  0.16316820719E+02  0.72461510814E+02  0.69999922515E+02 0.  0.
        -12    1    1    2    0    0 -0.24932660158E+01 -0.88445680182E+01 -0.16316820719E+02  0.18726489186E+02  0.00000000000E+00 0.  1.
         11    1    3    3    0    0  0.43209055493E+01  0.27718293180E+02  0.15020589527E+01  0.28093240877E+02  0.51100000000E-03 0. -1.
        -11    1    3    3    0    0 -0.12926017437E+02 -0.75038460741E+01  0.22267578729E+02  0.26818551329E+02  0.51100000000E-03 0.  1.
        -12    1    3    3    0    0  0.11098377904E+02 -0.11369879088E+02 -0.74528169618E+01  0.17549718608E+02  0.00000000000E+00 0.  1.
</event>
<event>
 7    1  0.3681059E-013  0.7246158E+02  0.7816164E-02  0.1226708E+00
        -11   -1    0    0    0    0  0.00000000000E+00  0.00000000000E+00  0.45593999997E+02  0.45594000000E+02  0.51100000000E-03 0.  1.
         11   -1    0    0    0    0 -0.00000000000E+00 -0.00000000000E+00 -0.45593999997E+02  0.45594000000E+02  0.51100000000E-03 0. -1.
    9900012    2    1    2    0    0  0.13279687948E+02  0.28271603097E+01 -0.12897119971E+02  0.72461584140E+02  0.70000018037E+02 0.  0.
        -12    1    1    2    0    0 -0.13279687948E+02 -0.28271603097E+01  0.12897119971E+02  0.18726415860E+02  0.00000000000E+00 0.  1.
         11    1    3    3    0    0 -0.11767403838E+02 -0.15018811142E+01 -0.85191558892E+01  0.14604912095E+02  0.51100000000E-03 0. -1.
        -11    1    3    3    0    0  0.21375189280E+02 -0.15400146703E+02  0.14698906958E+02  0.30168213424E+02  0.51100000000E-03 0.  1.
         12    1    3    3    0    0  0.36719025065E+01  0.19729188126E+02 -0.19076871040E+02  0.27688458621E+02  0.00000000000E+00 0. -1.
</event>
<event>
 7    1  0.3681059E-013  0.7246152E+02  0.7816164E-02  0.1226708E+00
        -11   -1    0    0    0    0  0.00000000000E+00  0.00000000000E+00  0.45593999997E+02  0.45594000000E+02  0.51100000000E-03 0.  1.
         11   -1    0    0    0    0 -0.00000000000E+00 -0.00000000000E+00 -0.45593999997E+02  0.45594000000E+02  0.51100000000E-03 0. -1.
    9900012    2    1    2    0    0 -0.51326990333E+01 -0.13810396756E+02 -0.11558954162E+02  0.72461519304E+02  0.69999933576E+02 0.  0.
        -12    1    1    2    0    0  0.51326990333E+01  0.13810396756E+02  0.11558954162E+02  0.18726480696E+02  0.00000000000E+00 0.  1.
         11    1    3    3    0    0  0.47490040092E+01  0.15244093667E+02 -0.16323618489E+02  0.22834096252E+02  0.51100000000E-03 0. -1.
        -11    1    3    3    0    0 -0.57215323342E+00  0.18092855118E+01  0.15525932638E+02  0.15641465978E+02  0.51100000000E-03 0.  1.
         12    1    3    3    0    0 -0.93095498091E+01 -0.30863775935E+02 -0.10761268311E+02  0.33985957074E+02  0.00000000000E+00 0. -1.
</event>
<event>
 7    1  0.3681059E-013  0.7246163E+02  0.7816164E-02  0.1226708E+00
        -11   -1    0    0    0    0  0.00000000000E+00  0.00000000000E+00  0.45593999997E+02  0.45594000000E+02  0.51100000000E-03 0.  1.
         11   -1    0    0    0    0 -0.00000000000E+00 -0.00000000000E+00 -0.45593999997E+02  0.45594000000E+02  0.51100000000E-03 0. -1.
    9900012    2    1    2    0    0 -0.13308600099E+02 -0.96212563669E+01 -0.89994238378E+01  0.72461627151E+02  0.70000074067E+02 0.  0.
        -12    1    1    2    0    0  0.13308600099E+02  0.96212563669E+01  0.89994238378E+01  0.18726372849E+02  0.00000000000E+00 0.  1.
         11    1    3    3    0    0  0.57952415073E+01 -0.14630482132E+02  0.55912532191E+01  0.16700237853E+02  0.51100000000E-03 0. -1.
        -11    1    3    3    0    0  0.26448087549E+01  0.24202218910E+02 -0.30223520013E+01  0.24533182129E+02  0.51100000000E-03 0.  1.
         12    1    3    3    0    0 -0.21748650361E+02 -0.19192993145E+02 -0.11568325056E+02  0.31228207169E+02  0.00000000000E+00 0. -1.
</event>
<event>
 7    1  0.3681059E-013  0.7246149E+02  0.7816164E-02  0.1226708E+00
        -11   -1    0    0    0    0  0.00000000000E+00  0.00000000000E+00  0.45593999997E+02  0.45594000000E+02  0.51100000000E-03 0. -1.
         11   -1    0    0    0    0 -0.00000000000E+00 -0.00000000000E+00 -0.45593999997E+02  0.45594000000E+02  0.51100000000E-03 0.  1.
    9900012    2    1    2    0    0 -0.66958588962E+01  0.10969322849E+02  0.13620637580E+02  0.72461485690E+02  0.69999889787E+02 0.  0.
        -12    1    1    2    0    0  0.66958588962E+01 -0.10969322849E+02 -0.13620637580E+02  0.18726514310E+02  0.00000000000E+00 0.  1.
         11    1    3    3    0    0  0.12355471085E+02 -0.55365547768E+01  0.62716768532E+01  0.14921294694E+02  0.51100000000E-03 0. -1.
        -11    1    3    3    0    0  0.27422582110E+00 -0.11759767027E+02  0.18156924358E+02  0.21634260393E+02  0.51100000000E-03 0.  1.
        -12    1    3    3    0    0 -0.19325555802E+02  0.28265644653E+02 -0.10807963632E+02  0.35905930604E+02  0.00000000000E+00 0.  1.
</event>
<event>
 7    1  0.3681059E-013  0.7246155E+02  0.7816164E-02  0.1226708E+00
        -11   -1    0    0    0    0  0.00000000000E+00  0.00000000000E+00  0.45593999997E+02  0.45594000000E+02  0.51100000000E-03 0.  1.
         11   -1    0    0    0    0 -0.00000000000E+00 -0.00000000000E+00 -0.45593999997E+02  0.45594000000E+02  0.51100000000E-03 0. -1.
    9900012    2    1    2    0    0  0.19616083692E+01 -0.39837590175E+01 -0.18192355690E+02  0.72461546816E+02  0.69999969415E+02 0.  0.
        -12    1    1    2    0    0 -0.19616083692E+01  0.39837590175E+01  0.18192355690E+02  0.18726453184E+02  0.00000000000E+00 0.  1.
         11    1    3    3    0    0  0.50033196343E+01 -0.12617732683E+02 -0.34904257472E+02  0.37450601802E+02  0.51100000000E-03 0. -1.
        -11    1    3    3    0    0  0.50681698251E+01  0.13095231044E+01 -0.70942676719E+01  0.88164522456E+01  0.51100000000E-03 0.  1.
        -12    1    3    3    0    0 -0.81098810901E+01  0.73244505608E+01  0.23806169454E+02  0.26194492768E+02  0.00000000000E+00 0.  1.
</event>
<event>
 7    1  0.3681059E-013  0.7246157E+02  0.7816164E-02  0.1226708E+00
        -11   -1    0    0    0    0  0.00000000000E+00  0.00000000000E+00  0.45593999997E+02  0.45594000000E+02  0.51100000000E-03 0. -1.
         11   -1    0    0    0    0 -0.00000000000E+00 -0.00000000000E+00 -0.45593999997E+02  0.45594000000E+02  0.51100000000E-03 0.  1.
    9900012    2    1    2    0    0 -0.16311306558E+02  0.74471902581E+01 -0.53999887710E+01  0.72461568330E+02  0.69999997441E+02 0.  0.
        -12    1    1    2    0    0  0.16311306558E+02 -0.74471902581E+01  0.53999887710E+01  0.18726431670E+02  0.00000000000E+00 0.  1.
         11    1    3    3    0    0 -0.27491243961E+01 -0.20619005278E+02  0.16945887657E+02  0.26830284612E+02  0.51100000000E-03 0.  1.
        -11    1    3    3    0    0 -0.17938879823E+02  0.96562192032E+01 -0.15141071779E+02  0.25383026484E+02  0.51100000000E-03 0. -1.
        -12    1    3    3    0    0  0.43766976615E+01  0.18409976333E+02 -0.72048046487E+01  0.20248257234E+02  0.00000000000E+00 0.  1.
</event>
<event>
 7    1  0.3681059E-013  0.7246159E+02  0.7816164E-02  0.1226708E+00
        -11   -1    0    0    0    0  0.00000000000E+00  0.00000000000E+00  0.45593999997E+02  0.45594000000E+02  0.51100000000E-03 0. -1.
         11   -1    0    0    0    0 -0.00000000000E+00 -0.00000000000E+00 -0.45593999997E+02  0.45594000000E+02  0.51100000000E-03 0.  1.
    9900012    2    1    2    0    0 -0.18079929544E+02  0.48489330730E+01 -0.53137080856E+00  0.72461591930E+02  0.70000028185E+02 0.  0.
        -12    1    1    2    0    0  0.18079929544E+02 -0.48489330730E+01  0.53137080856E+00  0.18726408070E+02  0.00000000000E+00 0.  1.
         11    1    3    3    0    0 -0.15320584216E+02 -0.61457082603E+01  0.28750388874E+02  0.33152298433E+02  0.51100000000E-03 0. -1.
        -11    1    3    3    0    0 -0.80753524766E+01  0.61497732556E+01 -0.10833844504E+01  0.10208072827E+02  0.51100000000E-03 0.  1.
        -12    1    3    3    0    0  0.53160071482E+01  0.48448680777E+01 -0.28198375233E+02  0.29101220669E+02  0.00000000000E+00 0.  1.
</event>
<event>
 7    1  0.3681059E-013  0.7246157E+02  0.7816164E-02  0.1226708E+00
        -11   -1    0    0    0    0  0.00000000000E+00  0.00000000000E+00  0.45593999997E+02  0.45594000000E+02  0.51100000000E-03 0.  1.
         11   -1    0    0    0    0 -0.00000000000E+00 -0.00000000000E+00 -0.45593999997E+02  0.45594000000E+02  0.51100000000E-03 0. -1.
    9900012    2    1    2    0    0  0.11300285494E+02 -0.78336840586E+01 -0.12712826598E+02  0.72461574333E+02  0.70000005261E+02 0.  0.
        -12    1    1    2    0    0 -0.11300285494E+02  0.78336840586E+01  0.12712826598E+02  0.18726425667E+02  0.00000000000E+00 0.  1.
         11    1    3    3    0    0  0.23220164400E+02  0.19564394233E+01 -0.30008384302E+02  0.37993510217E+02  0.51100000000E-03 0. -1.
        -11    1    3    3    0    0 -0.41926877047E+01 -0.46952461249E+01 -0.64316821285E+01  0.89994722971E+01  0.51100000000E-03 0.  1.
        -12    1    3    3    0    0 -0.77271912013E+01 -0.50948773570E+01  0.23727239832E+02  0.25468591818E+02  0.00000000000E+00 0.  1.
</event>
<event>
 7    1  0.3681059E-013  0.7246161E+02  0.7816164E-02  0.1226708E+00
        -11   -1    0    0    0    0  0.00000000000E+00  0.00000000000E+00  0.45593999997E+02  0.45594000000E+02  0.51100000000E-03 0.  1.
         11   -1    0    0    0    0 -0.00000000000E+00 -0.00000000000E+00 -0.45593999997E+02  0.45594000000E+02  0.51100000000E-03 0. -1.
    9900012    2    1    2    0    0  0.13362286537E+02  0.76209017403E+01  0.10679373706E+02  0.72461605056E+02  0.70000045284E+02 0.  0.
        -12    1    1    2    0    0 -0.13362286537E+02 -0.76209017403E+01 -0.10679373706E+02  0.18726394944E+02  0.00000000000E+00 0.  1.
         11    1    3    3    0    0  0.22032621779E+02  0.50588082416E+01 -0.50759745268E+01  0.23168804047E+02  0.51100000000E-03 0. -1.
        -11    1    3    3    0    0  0.18130528025E+02  0.17230634488E+01  0.12919386351E+02  0.22329252966E+02  0.51100000000E-03 0.  1.
         12    1    3    3    0    0 -0.26800863267E+02  0.83903004990E+00  0.28359618824E+01  0.26963548043E+02  0.00000000000E+00 0. -1.
</event>
<event>
 7    1  0.3681059E-013  0.7246156E+02  0.7816164E-02  0.1226708E+00
        -11   -1    0    0    0    0  0.00000000000E+00  0.00000000000E+00  0.45593999997E+02  0.45594000000E+02  0.51100000000E-03 0.  1.
         11   -1    0    0    0    0 -0.00000000000E+00 -0.00000000000E+00 -0.45593999997E+02  0.45594000000E+02  0.51100000000E-03 0. -1.
    9900012    2    1    2    0    0 -0.12860488104E+02  0.52334489147E+01 -0.12565765716E+02  0.72461558537E+02  0.69999984685E+02 0.  0.
        -12    1    1    2    0    0  0.12860488104E+02 -0.52334489147E+01  0.12565765716E+02  0.18726441463E+02  0.00000000000E+00 0.  1.
         11    1    3    3    0    0  0.41871102251E+00 -0.56168065263E+01 -0.42181890947E+01  0.70368284031E+01  0.51100000000E-03 0. -1.
        -11    1    3    3    0    0 -0.96186118443E+01  0.30461397145E+02 -0.24092003749E+02  0.40010486810E+02  0.51100000000E-03 0.  1.
         12    1    3    3    0    0 -0.36605872821E+01 -0.19611141704E+02  0.15744427127E+02  0.25414243325E+02  0.00000000000E+00 0. -1.
</event>
<event>
 7    1  0.3681059E-013  0.7246162E+02  0.7816164E-02  0.1226708E+00
        -11   -1    0    0    0    0  0.00000000000E+00  0.00000000000E+00  0.45593999997E+02  0.45594000000E+02  0.51100000000E-03 0. -1.
         11   -1    0    0    0    0 -0.00000000000E+00 -0.00000000000E+00 -0.45593999997E+02  0.45594000000E+02  0.51100000000E-03 0.  1.
    9900012    2    1    2    0    0  0.85993515541E+01  0.13728988017E+02  0.93937869780E+01  0.72461623070E+02  0.70000068751E+02 0.  0.
        -12    1    1    2    0    0 -0.85993515541E+01 -0.13728988017E+02 -0.93937869780E+01  0.18726376930E+02  0.00000000000E+00 0.  1.
         11    1    3    3    0    0 -0.13757529403E+02 -0.98841739803E+01 -0.56497785343E+01  0.17857393659E+02  0.51100000000E-03 0. -1.
        -11    1    3    3    0    0  0.17929639923E+02 -0.84485480632E+01  0.28821622447E+01  0.20028899411E+02  0.51100000000E-03 0.  1.
         12    1    3    3    0    0  0.44272410339E+01  0.32061710060E+02  0.12161403268E+02  0.34575330000E+02  0.00000000000E+00 0. -1.
</event>
<event>
 7    1  0.3681059E-013  0.7246161E+02  0.7816164E-02  0.1226708E+00
        -11   -1    0    0    0    0  0.00000000000E+00  0.00000000000E+00  0.45593999997E+02  0.45594000000E+02  0.51100000000E-03 0.  1.
         11   -1    0    0    0    0 -0.00000000000E+00 -0.00000000000E+00 -0.45593999997E+02  0.45594000000E+02  0.51100000000E-03 0. -1.
    9900012    2    1    2    0    0  0.24157596026E+01  0.68980249162E+01 -0.17241197388E+02  0.72461614081E+02  0.70000057040E+02 0.  0.
        -12    1    1    2    0    0 -0.24157596026E+01 -0.68980249162E+01  0.17241197388E+02  0.18726385919E+02  0.00000000000E+00 0.  1.
         11    1    3    3    0    0  0.17839837055E+02  0.57807452167E+00 -0.25007340520E+02  0.30723948908E+02  0.51100000000E-03 0. -1.
        -11    1    3    3    0    0  0.10618852617E+02 -0.22560519865E+01 -0.44349802488E+01  0.11726843205E+02  0.51100000000E-03 0.  1.
        -12    1    3    3    0    0 -0.26042930070E+02  0.85760023810E+01  0.12201123381E+02  0.30010821969E+02  0.00000000000E+00 0.  1.
</event>
<event>
 7    1  0.3681059E-013  0.7246161E+02  0.7816164E-02  0.1226708E+00
        -11   -1    0    0    0    0  0.00000000000E+00  0.00000000000E+00  0.45593999997E+02  0.45594000000E+02  0.51100000000E-03 0.  1.
         11   -1    0    0    0    0 -0.00000000000E+00 -0.00000000000E+00 -0.45593999997E+02  0.45594000000E+02  0.51100000000E-03 0. -1.
    9900012    2    1    2    0    0  0.83798588923E+01  0.15278126441E+02  0.68581808169E+01  0.72461606147E+02  0.70000046705E+02 0.  0.
        -12    1    1    2    0    0 -0.83798588923E+01 -0.15278126441E+02 -0.68581808169E+01  0.18726393853E+02  0.00000000000E+00 0.  1.
         11    1    3    3    0    0 -0.59875419001E+01 -0.78591752612E+00  0.87869415412E+00  0.61024935920E+01  0.51100000000E-03 0. -1.
        -11    1    3    3    0    0  0.14617588163E+02 -0.13855500784E+02  0.24077627286E+02  0.31390777653E+02  0.51100000000E-03 0.  1.
         12    1    3    3    0    0 -0.25018737069E+00  0.29919544751E+02 -0.18098140623E+02  0.34968334903E+02  0.00000000000E+00 0. -1.
</event>
<event>
 7    1  0.3681059E-013  0.7246155E+02  0.7816164E-02  0.1226708E+00
        -11   -1    0    0    0    0  0.00000000000E+00  0.00000000000E+00  0.45593999997E+02  0.45594000000E+02  0.51100000000E-03 0.  1.
         11   -1    0    0    0    0 -0.00000000000E+00 -0.00000000000E+00 -0.45593999997E+02  0.45594000000E+02  0.51100000000E-03 0. -1.
    9900012    2    1    2    0    0 -0.11120075075E+02 -0.87111737640E+01 -0.12293872140E+02  0.72461550517E+02  0.69999974237E+02 0.  0.
        -12    1    1    2    0    0  0.11120075075E+02  0.87111737640E+01  0.12293872140E+02  0.18726449483E+02  0.00000000000E+00 0.  1.
         11    1    3    3    0    0 -0.13800255829E+01  0.21981317113E+02 -0.26778709769E+02  0.34672497311E+02  0.51100000000E-03 0. -1.
        -11    1    3    3    0    0  0.30488301182E+00  0.52034189040E+00 -0.12738650174E+01  0.14094118197E+01  0.51100000000E-03 0.  1.
        -12    1    3    3    0    0 -0.10044932504E+02 -0.31212832767E+02  0.15758702646E+02  0.36379641387E+02  0.00000000000E+00 0.  1.
</event>
<event>
 7    1  0.3681059E-013  0.7246162E+02  0.7816164E-02  0.1226708E+00
        -11   -1    0    0    0    0  0.00000000000E+00  0.00000000000E+00  0.45593999997E+02  0.45594000000E+02  0.51100000000E-03 0.  1.
         11   -1    0    0    0    0 -0.00000000000E+00 -0.00000000000E+00 -0.45593999997E+02  0.45594000000E+02  0.51100000000E-03 0. -1.
    9900012    2    1    2    0    0  0.30569982065E+01 -0.18473235273E+02  0.26771573892E+00  0.72461619378E+02  0.70000063940E+02 0.  0.
        -12    1    1    2    0    0 -0.30569982065E+01  0.18473235273E+02 -0.26771573892E+00  0.18726380622E+02  0.00000000000E+00 0.  1.
         11    1    3    3    0    0  0.42617438793E+01 -0.81053247930E+01 -0.60949562338E+01  0.11000329206E+02  0.51100000000E-03 0. -1.
        -11    1    3    3    0    0  0.83293073672E+01 -0.26603389199E+02  0.23150261049E+02  0.36236063045E+02  0.51100000000E-03 0.  1.
         12    1    3    3    0    0 -0.95340530400E+01  0.16235478719E+02 -0.16787589076E+02  0.25225227127E+02  0.00000000000E+00 0. -1.
</event>
<event>
 7    1  0.3681059E-013  0.7246155E+02  0.7816164E-02  0.1226708E+00
        -11   -1    0    0    0    0  0.00000000000E+00  0.00000000000E+00  0.45593999997E+02  0.45594000000E+02  0.51100000000E-03 0.  1.
         11   -1    0    0    0    0 -0.00000000000E+00 -0.00000000000E+00 -0.45593999997E+02  0.45594000000E+02  0.51100000000E-03 0. -1.
    9900012    2    1    2    0    0 -0.14776688250E+02  0.50946220622E+01  0.10313781908E+02  0.72461553812E+02  0.69999978528E+02 0.  0.
        -12    1    1    2    0    0  0.14776688250E+02 -0.50946220622E+01 -0.10313781908E+02  0.18726446188E+02  0.00000000000E+00 0.  1.
         11    1    3    3    0    0 -0.21121030450E+02  0.70796910147E+01  0.11314247445E+02  0.24984638233E+02  0.51100000000E-03 0. -1.
        -11    1    3    3    0    0 -0.70178635212E+01  0.14095070749E+02 -0.15452073995E+02  0.22061006750E+02  0.51100000000E-03 0.  1.
        -12    1    3    3    0    0  0.13362205721E+02 -0.16080139702E+02  0.14451608458E+02  0.25415908828E+02  0.00000000000E+00 0.  1.
</event>
<event>
 7    1  0.3681059E-013  0.7246157E+02  0.7816164E-02  0.1226708E+00
        -11   -1    0    0    0    0  0.00000000000E+00  0.00000000000E+00  0.45593999997E+02  0.45594000000E+02  0.51100000000E-03 0.  1.
         11   -1    0    0    0    0 -0.00000000000E+00 -0.00000000000E+00 -0.45593999997E+02  0.45594000000E+02  0.51100000000E-03 0. -1.
    9900012    2    1    2    0    0 -0.86571201501E+01  0.16010691099E+02  0.44035367138E+01  0.72461572302E+02  0.70000002615E+02 0.  0.
        -12    1    1    2    0    0  0.86571201501E+01 -0.16010691099E+02 -0.44035367138E+01  0.18726427698E+02  0.00000000000E+00 0.  1.
         11    1    3    3    0    0 -0.16677977087E+02  0.19418448933E+02  0.20238548664E+02  0.32631731964E+02  0.51100000000E-03 0.  1.
        -11    1    3    3    0    0 -0.12941795046E+02  0.84655190243E+00  0.40121940950E+00  0.12975657456E+02  0.51100000000E-03 0. -1.
         12    1    3    3    0    0  0.20962651983E+02 -0.42543097368E+01 -0.16236231360E+02  0.26854182882E+02  0.00000000000E+00 0. -1.
</event>
<event>
 7    1  0.3681059E-013  0.7246151E+02  0.7816164E-02  0.1226708E+00
        -11   -1    0    0    0    0  0.00000000000E+00  0.00000000000E+00  0.45593999997E+02  0.45594000000E+02  0.51100000000E-03 0. -1.
         11   -1    0    0    0    0 -0.00000000000E+00 -0.00000000000E+00 -0.45593999997E+02  0.45594000000E+02  0.51100000000E-03 0.  1.
    9900012    2    1    2    0    0 -0.28086299325E+01 -0.92773473955E+01  0.16022607147E+02  0.72461507628E+02  0.69999918365E+02 0.  0.
        -12    1    1    2    0    0  0.28086299325E+01  0.92773473955E+01 -0.16022607147E+02  0.18726492372E+02  0.00000000000E+00 0.  1.
         11    1    3    3    0    0  0.12172099205E+02  0.35828218161E+01  0.35145665966E+01  0.13166198762E+02  0.51100000000E-03 0. -1.
        -11    1    3    3    0    0  0.17317057156E+02 -0.70129324842E+01 -0.82880057883E+01  0.20439000239E+02  0.51100000000E-03 0.  1.
         12    1    3    3    0    0 -0.32297786293E+02 -0.58472367274E+01  0.20796046338E+02  0.38856308627E+02  0.00000000000E+00 0. -1.
</event>
<event>
 7    1  0.3681059E-013  0.7246161E+02  0.7816164E-02  0.1226708E+00
        -11   -1    0    0    0    0  0.00000000000E+00  0.00000000000E+00  0.45593999997E+02  0.45594000000E+02  0.51100000000E-03 0.  1.
         11   -1    0    0    0    0 -0.00000000000E+00 -0.00000000000E+00 -0.45593999997E+02  0.45594000000E+02  0.51100000000E-03 0. -1.
    9900012    2    1    2    0    0  0.13730258811E+02 -0.67902327233E+01 -0.10772670982E+02  0.72461609330E+02  0.70000050851E+02 0.  0.
        -12    1    1    2    0    0 -0.13730258811E+02  0.67902327233E+01  0.10772670982E+02  0.18726390670E+02  0.00000000000E+00 0.  1.
         11    1    3    3    0    0 -0.46767741065E+01 -0.41045394572E+01 -0.27797667852E+02  0.28485606865E+02  0.51100000000E-03 0. -1.
        -11    1    3    3    0    0 -0.10188543060E+02  0.29027578397E+01  0.79423481607E+00  0.10623710368E+02  0.51100000000E-03 0.  1.
        -12    1    3    3    0    0  0.28595575978E+02 -0.55884511058E+01  0.16230762054E+02  0.33352292097E+02  0.00000000000E+00 0.  1.
</event>
<event>
 7    1  0.3681059E-013  0.7246159E+02  0.7816164E-02  0.1226708E+00
        -11   -1    0    0    0    0  0.00000000000E+00  0.00000000000E+00  0.45593999997E+02  0.45594000000E+02  0.51100000000E-03 0.  1.
         11   -1    0    0    0    0 -0.00000000000E+00 -0.00000000000E+00 -0.45593999997E+02  0.45594000000E+02  0.51100000000E-03 0. -1.
    9900012    2    1    2    0    0  0.45289718653E+01  0.17115710234E+02 -0.61007648579E+01  0.72461589377E+02  0.70000024858E+02 0.  0.
        -12    1    1    2    0    0 -0.45289718653E+01 -0.17115710234E+02  0.61007648579E+01  0.18726410623E+02  0.00000000000E+00 0.  1.
         11    1    3    3    0    0  0.17172898755E+01  0.23028297999E+02 -0.23068890058E+02  0.32640852961E+02  0.51100000000E-03 0. -1.
        -11    1    3    3    0    0  0.14300120662E+02  0.87214706110E+01  0.42384497525E+01  0.17277787970E+02  0.51100000000E-03 0.  1.
         12    1    3    3    0    0 -0.11488438672E+02 -0.14634058375E+02  0.12729675448E+02  0.22542948446E+02  0.00000000000E+00 0. -1.
</event>
<event>
 7    1  0.3681059E-013  0.7246163E+02  0.7816164E-02  0.1226708E+00
        -11   -1    0    0    0    0  0.00000000000E+00  0.00000000000E+00  0.45593999997E+02  0.45594000000E+02  0.51100000000E-03 0.  1.
         11   -1    0    0    0    0 -0.00000000000E+00 -0.00000000000E+00 -0.45593999997E+02  0.45594000000E+02  0.51100000000E-03 0. -1.
    9900012    2    1    2    0    0 -0.24963260862E+01 -0.17793510342E+02 -0.52760117562E+01  0.72461629443E+02  0.70000077051E+02 0.  0.
        -12    1    1    2    0    0  0.24963260862E+01  0.17793510342E+02  0.52760117562E+01  0.18726370557E+02  0.00000000000E+00 0.  1.
         11    1    3    3    0    0 -0.26683924537E+01 -0.31536342278E+02  0.13499076201E+02  0.34407648293E+02  0.51100000000E-03 0.  1.
        -11    1    3    3    0    0  0.40650059706E+01  0.67532948146E+01  0.73218064361E+01  0.10758257951E+02  0.51100000000E-03 0. -1.
        -12    1    3    3    0    0 -0.38929396031E+01  0.69895371214E+01 -0.26096894393E+02  0.27295723198E+02  0.00000000000E+00 0.  1.
</event>
<event>
 7    1  0.3681059E-013  0.7246156E+02  0.7816164E-02  0.1226708E+00
        -11   -1    0    0    0    0  0.00000000000E+00  0.00000000000E+00  0.45593999997E+02  0.45594000000E+02  0.51100000000E-03 0.  1.
         11   -1    0    0    0    0 -0.00000000000E+00 -0.00000000000E+00 -0.45593999997E+02  0.45594000000E+02  0.51100000000E-03 0. -1.
    9900012    2    1    2    0    0 -0.78337124455E+01 -0.14576481061E+02 -0.87657765559E+01  0.72461556413E+02  0.69999981917E+02 0.  0.
        -12    1    1    2    0    0  0.78337124455E+01  0.14576481061E+02  0.87657765559E+01  0.18726443587E+02  0.00000000000E+00 0.  1.
         11    1    3    3    0    0 -0.73296568028E+01 -0.52925104510E-01 -0.11048441273E+02  0.13258760302E+02  0.51100000000E-03 0. -1.
        -11    1    3    3    0    0  0.15231301093E+01 -0.29106068418E+02 -0.17912857959E+02  0.34210431518E+02  0.51100000000E-03 0.  1.
         12    1    3    3    0    0 -0.20271857520E+01  0.14582512462E+02  0.20195522677E+02  0.24992364593E+02  0.00000000000E+00 0. -1.
</event>
<event>
 7    1  0.3681059E-013  0.7246151E+02  0.7816164E-02  0.1226708E+00
        -11   -1    0    0    0    0  0.00000000000E+00  0.00000000000E+00  0.45593999997E+02  0.45594000000E+02  0.51100000000E-03 0.  1.
         11   -1    0    0    0    0 -0.00000000000E+00 -0.00000000000E+00 -0.45593999997E+02  0.45594000000E+02  0.51100000000E-03 0. -1.
    9900012    2    1    2    0    0  0.56029703683E+01  0.15169035950E+02 -0.94439687192E+01  0.72461508770E+02  0.69999919854E+02 0.  0.
        -12    1    1    2    0    0 -0.56029703683E+01 -0.15169035950E+02  0.94439687192E+01  0.18726491230E+02  0.00000000000E+00 0.  1.
         11    1    3    3    0    0  0.15681695277E+02 -0.31274977416E+01  0.15234427410E+02  0.22085845867E+02  0.51100000000E-03 0. -1.
        -11    1    3    3    0    0  0.34791917054E+01 -0.10796730297E+02 -0.98307913959E+01  0.15010616901E+02  0.51100000000E-03 0.  1.
        -12    1    3    3    0    0 -0.13557916614E+02  0.29093263989E+02 -0.14847604733E+02  0.35365046002E+02  0.00000000000E+00 0.  1.
</event>
<event>
 7    1  0.3681059E-013  0.7246160E+02  0.7816164E-02  0.1226708E+00
        -11   -1    0    0    0    0  0.00000000000E+00  0.00000000000E+00  0.45593999997E+02  0.45594000000E+02  0.51100000000E-03 0.  1.
         11   -1    0    0    0    0 -0.00000000000E+00 -0.00000000000E+00 -0.45593999997E+02  0.45594000000E+02  0.51100000000E-03 0. -1.
    9900012    2    1    2    0    0 -0.16826970815E+02  0.48812571966E+00 -0.82032271885E+01  0.72461597520E+02  0.70000035467E+02 0.  0.
        -12    1    1    2    0    0  0.16826970815E+02 -0.48812571966E+00  0.82032271885E+01  0.18726402480E+02  0.00000000000E+00 0.  1.
         11    1    3    3    0    0 -0.33013345996E+02 -0.63288344605E+01  0.42706372373E+01  0.33884708972E+02  0.51100000000E-03 0. -1.
        -11    1    3    3    0    0 -0.89454929795E+01  0.63609796465E+01 -0.64420666866E+01  0.12727298620E+02  0.51100000000E-03 0.  1.
        -12    1    3    3    0    0  0.25131868160E+02  0.45598053369E+00 -0.60317977392E+01  0.25849589928E+02  0.00000000000E+00 0.  1.
</event>
<event>
 7    1  0.3681059E-013  0.7246161E+02  0.7816164E-02  0.1226708E+00
        -11   -1    0    0    0    0  0.00000000000E+00  0.00000000000E+00  0.45593999997E+02  0.45594000000E+02  0.51100000000E-03 0. -1.
         11   -1    0    0    0    0 -0.00000000000E+00 -0.00000000000E+00 -0.45593999997E+02  0.45594000000E+02  0.51100000000E-03 0.  1.
    9900012    2    1    2    0    0 -0.23902528029E+01  0.85725424578E+01  0.16476528657E+02  0.72461607148E+02  0.70000048009E+02 0.  0.
        -12    1    1    2    0    0  0.23902528029E+01 -0.85725424578E+01 -0.16476528657E+02  0.18726392852E+02  0.00000000000E+00 0.  1.
         11    1    3    3    0    0  0.13479482974E+02  0.19258052626E+02 -0.12518776767E+02  0.26632476869E+02  0.51100000000E-03 0. -1.
        -11    1    3    3    0    0  0.43299999977E+01 -0.98714907522E+00 -0.39783827293E+01  0.59624569331E+01  0.51100000000E-03 0.  1.
         12    1    3    3    0    0 -0.20199735774E+02 -0.96983610931E+01  0.32973688153E+02  0.39866673346E+02  0.00000000000E+00 0. -1.
</event>
<event>
 7    1  0.3681059E-013  0.7246164E+02  0.7816164E-02  0.1226708E+00
        -11   -1    0    0    0    0  0.00000000000E+00  0.00000000000E+00  0.45593999997E+02  0.45594000000E+02  0.51100000000E-03 0.  1.
         11   -1    0    0    0    0 -0.00000000000E+00 -0.00000000000E+00 -0.45593999997E+02  0.45594000000E+02  0.51100000000E-03 0. -1.
    9900012    2    1    2    0    0  0.16436284488E+02 -0.56901451851E+01 -0.69388375425E+01  0.72461637128E+02  0.70000087063E+02 0.  0.
        -12    1    1    2    0    0 -0.16436284488E+02  0.56901451851E+01  0.69388375425E+01  0.18726362872E+02  0.00000000000E+00 0.  1.
         11    1    3    3    0    0 -0.23996101477E+01 -0.25626087012E+01 -0.37700797236E+01  0.51515622484E+01  0.51100000000E-03 0. -1.
        -11    1    3    3    0    0 -0.18204448119E+02  0.11605040761E+02  0.11951291800E+02  0.24676147964E+02  0.51100000000E-03 0.  1.
         12    1    3    3    0    0  0.37040342755E+02 -0.14732577245E+02 -0.15120049619E+02  0.42633926915E+02  0.00000000000E+00 0. -1.
</event>
<event>
 7    1  0.3681059E-013  0.7246156E+02  0.7816164E-02  0.1226708E+00
        -11   -1    0    0    0    0  0.00000000000E+00  0.00000000000E+00  0.45593999997E+02  0.45594000000E+02  0.51100000000E-03 0. -1.
         11   -1    0    0    0    0 -0.00000000000E+00 -0.00000000000E+00 -0.45593999997E+02  0.45594000000E+02  0.51100000000E-03 0.  1.
    9900012    2    1    2    0    0  0.48084079385E+01 -0.11859627649E+02  0.13671432335E+02  0.72461558348E+02  0.69999984437E+02 0.  0.
        -12    1    1    2    0    0 -0.48084079385E+01  0.11859627649E+02 -0.13671432335E+02  0.18726441652E+02  0.00000000000E+00 0.  1.
         11    1    3    3    0    0 -0.91134590835E-01 -0.68196301945E+01 -0.92489419950E+01  0.11491674804E+02  0.51100000000E-03 0. -1.
        -11    1    3    3    0    0 -0.20271248914E+02  0.11122564552E+02 -0.26447852746E+00  0.23123687506E+02  0.51100000000E-03 0.  1.
         12    1    3    3    0    0  0.25170791443E+02 -0.16162562006E+02  0.23184852858E+02  0.37846196038E+02  0.00000000000E+00 0. -1.
</event>
<event>
 7    1  0.3681059E-013  0.7246160E+02  0.7816164E-02  0.1226708E+00
        -11   -1    0    0    0    0  0.00000000000E+00  0.00000000000E+00  0.45593999997E+02  0.45594000000E+02  0.51100000000E-03 0.  1.
         11   -1    0    0    0    0 -0.00000000000E+00 -0.00000000000E+00 -0.45593999997E+02  0.45594000000E+02  0.51100000000E-03 0. -1.
    9900012    2    1    2    0    0  0.18572041290E+02 -0.29731666152E+00 -0.23809768006E+01  0.72461597105E+02  0.70000034926E+02 0.  0.
        -12    1    1    2    0    0 -0.18572041290E+02  0.29731666152E+00  0.23809768006E+01  0.18726402895E+02  0.00000000000E+00 0.  1.
         11    1    3    3    0    0 -0.74420213541E+01  0.17844011730E+01 -0.35002747188E+01  0.84154437048E+01  0.51100000000E-03 0. -1.
        -11    1    3    3    0    0  0.36044840940E+01 -0.31852917177E+01  0.28354304369E+02  0.28759432634E+02  0.51100000000E-03 0.  1.
        -12    1    3    3    0    0  0.22409578550E+02  0.11035738832E+01 -0.27235006451E+02  0.35286720767E+02  0.00000000000E+00 0.  1.
</event>
<event>
 7    1  0.3681059E-013  0.7246174E+02  0.7816164E-02  0.1226708E+00
        -11   -1    0    0    0    0  0.00000000000E+00  0.00000000000E+00  0.45593999997E+02  0.45594000000E+02  0.51100000000E-03 0. -1.
         11   -1    0    0    0    0 -0.00000000000E+00 -0.00000000000E+00 -0.45593999997E+02  0.45594000000E+02  0.51100000000E-03 0.  1.
    9900012    2    1    2    0    0 -0.48439852249E+01  0.40714117268E+01  0.17624763080E+02  0.72461738763E+02  0.70000219461E+02 0.  0.
        -12    1    1    2    0    0  0.48439852249E+01 -0.40714117268E+01 -0.17624763080E+02  0.18726261237E+02  0.00000000000E+00 0.  1.
         11    1    3    3    0    0 -0.21928995317E-01  0.78156795908E+00  0.36379197729E+01  0.37209931323E+01  0.51100000000E-03 0. -1.
        -11    1    3    3    0    0 -0.29718625152E+01  0.23685081813E+02 -0.18594129986E+02  0.30258168112E+02  0.51100000000E-03 0.  1.
         12    1    3    3    0    0 -0.18501937143E+01 -0.20395238045E+02  0.32580973294E+02  0.38482577518E+02  0.00000000000E+00 0. -1.
</event>
<event>
 7    1  0.3681059E-013  0.7246160E+02  0.7816164E-02  0.1226708E+00
        -11   -1    0    0    0    0  0.00000000000E+00  0.00000000000E+00  0.45593999997E+02  0.45594000000E+02  0.51100000000E-03 0.  1.
         11   -1    0    0    0    0 -0.00000000000E+00 -0.00000000000E+00 -0.45593999997E+02  0.45594000000E+02  0.51100000000E-03 0. -1.
    9900012    2    1    2    0    0  0.22655240034E+01 -0.62745637245E+01 -0.17497868687E+02  0.72461597315E+02  0.70000035200E+02 0.  0.
        -12    1    1    2    0    0 -0.22655240034E+01  0.62745637245E+01  0.17497868687E+02  0.18726402685E+02  0.00000000000E+00 0.  1.
         11    1    3    3    0    0  0.16215473553E+02 -0.16919602774E+02 -0.30191616488E+02  0.38219736354E+02  0.51100000000E-03 0. -1.
        -11    1    3    3    0    0  0.58158078458E+01  0.96382428283E+00 -0.35552486517E+01  0.68842117474E+01  0.51100000000E-03 0.  1.
        -12    1    3    3    0    0 -0.19765757395E+02  0.96812147664E+01  0.16248996453E+02  0.27357649214E+02  0.00000000000E+00 0.  1.
</event>
<event>
 7    1  0.3681059E-013  0.7246160E+02  0.7816164E-02  0.1226708E+00
        -11   -1    0    0    0    0  0.00000000000E+00  0.00000000000E+00  0.45593999997E+02  0.45594000000E+02  0.51100000000E-03 0.  1.
         11   -1    0    0    0    0 -0.00000000000E+00 -0.00000000000E+00 -0.45593999997E+02  0.45594000000E+02  0.51100000000E-03 0. -1.
    9900012    2    1    2    0    0 -0.18358056653E+02 -0.18498409723E+01 -0.31996858871E+01  0.72461597637E+02  0.70000035619E+02 0.  0.
        -12    1    1    2    0    0  0.18358056653E+02  0.18498409723E+01  0.31996858871E+01  0.18726402363E+02  0.00000000000E+00 0.  1.
         11    1    3    3    0    0 -0.23749747983E+02 -0.56969650726E+01 -0.82286602884E+01  0.25772403665E+02  0.51100000000E-03 0. -1.
        -11    1    3    3    0    0 -0.13166887465E+02 -0.41471153310E+01  0.17994868273E+02  0.22679964187E+02  0.51100000000E-03 0.  1.
         12    1    3    3    0    0  0.18558578795E+02  0.79942394313E+01 -0.12965893872E+02  0.24009229785E+02  0.00000000000E+00 0. -1.
</event>
<event>
 7    1  0.3681059E-013  0.7246146E+02  0.7816164E-02  0.1226708E+00
        -11   -1    0    0    0    0  0.00000000000E+00  0.00000000000E+00  0.45593999997E+02  0.45594000000E+02  0.51100000000E-03 0.  1.
         11   -1    0    0    0    0 -0.00000000000E+00 -0.00000000000E+00 -0.45593999997E+02  0.45594000000E+02  0.51100000000E-03 0. -1.
    9900012    2    1    2    0    0  0.11533543509E+02 -0.24475286779E+01 -0.14548888856E+02  0.72461462962E+02  0.69999860180E+02 0.  0.
        -12    1    1    2    0    0 -0.11533543509E+02  0.24475286779E+01  0.14548888856E+02  0.18726537038E+02  0.00000000000E+00 0.  1.
         11    1    3    3    0    0 -0.97492750378E+01  0.50069489646E+00 -0.74111570445E+01  0.12256602635E+02  0.51100000000E-03 0. -1.
        -11    1    3    3    0    0  0.72684176006E+01 -0.23962160357E+02  0.12710029434E+02  0.28081308229E+02  0.51100000000E-03 0.  1.
         12    1    3    3    0    0  0.14014400946E+02  0.21013936782E+02 -0.19847761245E+02  0.32123552098E+02  0.00000000000E+00 0. -1.
</event>
<event>
 7    1  0.3681059E-013  0.7246171E+02  0.7816164E-02  0.1226708E+00
        -11   -1    0    0    0    0  0.00000000000E+00  0.00000000000E+00  0.45593999997E+02  0.45594000000E+02  0.51100000000E-03 0.  1.
         11   -1    0    0    0    0 -0.00000000000E+00 -0.00000000000E+00 -0.45593999997E+02  0.45594000000E+02  0.51100000000E-03 0. -1.
    9900012    2    1    2    0    0  0.23755565703E+01 -0.10648648170E+02 -0.15219620912E+02  0.72461712659E+02  0.70000185456E+02 0.  0.
        -12    1    1    2    0    0 -0.23755565703E+01  0.10648648170E+02  0.15219620912E+02  0.18726287341E+02  0.00000000000E+00 0.  1.
         11    1    3    3    0    0 -0.18120471520E+02  0.78648669648E+01 -0.17136605538E+01  0.19827865575E+02  0.51100000000E-03 0. -1.
        -11    1    3    3    0    0  0.10854558760E+00  0.11380921051E+02  0.44729034685E+01  0.12228818905E+02  0.51100000000E-03 0.  1.
        -12    1    3    3    0    0  0.20387482503E+02 -0.29894436186E+02 -0.17978863827E+02  0.40405028179E+02  0.00000000000E+00 0.  1.
</event>
<event>
 7    1  0.3681059E-013  0.7246130E+02  0.7816164E-02  0.1226709E+00
        -11   -1    0    0    0    0  0.00000000000E+00  0.00000000000E+00  0.45593999997E+02  0.45594000000E+02  0.51100000000E-03 0.  1.
         11   -1    0    0    0    0 -0.00000000000E+00 -0.00000000000E+00 -0.45593999997E+02  0.45594000000E+02  0.51100000000E-03 0. -1.
    9900012    2    1    2    0    0  0.88229158734E+01 -0.10702229716E+01 -0.16483325421E+02  0.72461301448E+02  0.69999649777E+02 0.  0.
        -12    1    1    2    0    0 -0.88229158734E+01  0.10702229716E+01  0.16483325421E+02  0.18726698552E+02  0.00000000000E+00 0.  1.
         11    1    3    3    0    0 -0.96474767719E+00  0.48585379722E+01 -0.25799760448E+01  0.55850162006E+01  0.51100000000E-03 0. -1.
        -11    1    3    3    0    0 -0.17764520824E+01  0.87546283644E+01  0.23457641849E+02  0.25101001199E+02  0.51100000000E-03 0.  1.
         12    1    3    3    0    0  0.11564115633E+02 -0.14683389308E+02 -0.37360991226E+02  0.41775284048E+02  0.00000000000E+00 0. -1.
</event>
<event>
 7    1  0.3681059E-013  0.7246157E+02  0.7816164E-02  0.1226708E+00
        -11   -1    0    0    0    0  0.00000000000E+00  0.00000000000E+00  0.45593999997E+02  0.45594000000E+02  0.51100000000E-03 0.  1.
         11   -1    0    0    0    0 -0.00000000000E+00 -0.00000000000E+00 -0.45593999997E+02  0.45594000000E+02  0.51100000000E-03 0. -1.
    9900012    2    1    2    0    0 -0.38254924116E+01 -0.49663360870E+00 -0.18324797802E+02  0.72461568103E+02  0.69999997145E+02 0.  0.
        -12    1    1    2    0    0  0.38254924116E+01  0.49663360870E+00  0.18324797802E+02  0.18726431897E+02  0.00000000000E+00 0.  1.
         11    1    3    3    0    0 -0.29052724280E+02 -0.86870978530E+01 -0.31095479183E+01  0.30482712243E+02  0.51100000000E-03 0. -1.
        -11    1    3    3    0    0 -0.56448797384E+01  0.51798696660E+01 -0.56486545716E+01  0.95185616428E+01  0.51100000000E-03 0.  1.
        -12    1    3    3    0    0  0.30872111607E+02  0.30105945782E+01 -0.95665953116E+01  0.32460294217E+02  0.00000000000E+00 0.  1.
</event>
<event>
 7    1  0.3681059E-013  0.7246162E+02  0.7816164E-02  0.1226708E+00
        -11   -1    0    0    0    0  0.00000000000E+00  0.00000000000E+00  0.45593999997E+02  0.45594000000E+02  0.51100000000E-03 0. -1.
         11   -1    0    0    0    0 -0.00000000000E+00 -0.00000000000E+00 -0.45593999997E+02  0.45594000000E+02  0.51100000000E-03 0.  1.
    9900012    2    1    2    0    0 -0.18485796479E+02  0.18756924685E+01  0.23311496537E+01  0.72461624151E+02  0.70000070159E+02 0.  0.
        -12    1    1    2    0    0  0.18485796479E+02 -0.18756924685E+01 -0.23311496537E+01  0.18726375849E+02  0.00000000000E+00 0.  1.
         11    1    3    3    0    0  0.14881734891E+02  0.62166920181E+01  0.17617406659E+02  0.23884855257E+02  0.51100000000E-03 0. -1.
        -11    1    3    3    0    0 -0.20412966924E+01 -0.43933646132E+01  0.81313989349E+01  0.94651039989E+01  0.51100000000E-03 0.  1.
        -12    1    3    3    0    0 -0.31326234678E+02  0.52365063578E-01 -0.23417655940E+02  0.39111664896E+02  0.00000000000E+00 0.  1.
</event>
<event>
 7    1  0.3681059E-013  0.7246161E+02  0.7816164E-02  0.1226708E+00
        -11   -1    0    0    0    0  0.00000000000E+00  0.00000000000E+00  0.45593999997E+02  0.45594000000E+02  0.51100000000E-03 0.  1.
         11   -1    0    0    0    0 -0.00000000000E+00 -0.00000000000E+00 -0.45593999997E+02  0.45594000000E+02  0.51100000000E-03 0. -1.
    9900012    2    1    2    0    0 -0.16907251254E+02 -0.76348508851E+01  0.25557206439E+01  0.72461606834E+02  0.70000047599E+02 0.  0.
        -12    1    1    2    0    0  0.16907251254E+02  0.76348508851E+01 -0.25557206439E+01  0.18726393166E+02  0.00000000000E+00 0.  1.
         11    1    3    3    0    0  0.41559527228E+01 -0.25929188009E+01  0.96894645688E+01  0.10857296847E+02  0.51100000000E-03 0. -1.
        -11    1    3    3    0    0  0.13142033624E+02  0.16002345750E+02 -0.54321173967E+01  0.21407849424E+02  0.51100000000E-03 0.  1.
         12    1    3    3    0    0 -0.34205237601E+02 -0.21044277834E+02 -0.17016265282E+01  0.40196460563E+02  0.00000000000E+00 0. -1.
</event>
<event>
 7    1  0.3681059E-013  0.7246158E+02  0.7816164E-02  0.1226708E+00
        -11   -1    0    0    0    0  0.00000000000E+00  0.00000000000E+00  0.45593999997E+02  0.45594000000E+02  0.51100000000E-03 0.  1.
         11   -1    0    0    0    0 -0.00000000000E+00 -0.00000000000E+00 -0.45593999997E+02  0.45594000000E+02  0.51100000000E-03 0. -1.
    9900012    2    1    2    0    0  0.15018382553E+02  0.21048247769E+01 -0.10986212737E+02  0.72461575564E+02  0.70000006865E+02 0.  0.
        -12    1    1    2    0    0 -0.15018382553E+02 -0.21048247769E+01  0.10986212737E+02  0.18726424436E+02  0.00000000000E+00 0.  1.
         11    1    3    3    0    0  0.11465722708E+02  0.19542767289E+02 -0.15173738656E+01  0.22708698206E+02  0.51100000000E-03 0. -1.
        -11    1    3    3    0    0  0.16338538338E+02  0.13652011711E+01  0.10517777369E+02  0.19479097780E+02  0.51100000000E-03 0.  1.
        -12    1    3    3    0    0 -0.12785878493E+02 -0.18803143683E+02 -0.19986616241E+02  0.30273779578E+02  0.00000000000E+00 0.  1.
</event>
<event>
 7    1  0.3681059E-013  0.7246146E+02  0.7816164E-02  0.1226708E+00
        -11   -1    0    0    0    0  0.00000000000E+00  0.00000000000E+00  0.45593999997E+02  0.45594000000E+02  0.51100000000E-03 0.  1.
         11   -1    0    0    0    0 -0.00000000000E+00 -0.00000000000E+00 -0.45593999997E+02  0.45594000000E+02  0.51100000000E-03 0. -1.
    9900012    2    1    2    0    0  0.17776753401E+02 -0.28282862812E+01 -0.51643959014E+01  0.72461464021E+02  0.69999861559E+02 0.  0.
        -12    1    1    2    0    0 -0.17776753401E+02  0.28282862812E+01  0.51643959014E+01  0.18726535979E+02  0.00000000000E+00 0.  1.
         11    1    3    3    0    0  0.93543321050E+01  0.23722277652E+02  0.34356022371E+01  0.25730397376E+02  0.51100000000E-03 0. -1.
        -11    1    3    3    0    0  0.58810440266E+01 -0.11931163460E+01  0.12356533433E+02  0.13736597985E+02  0.51100000000E-03 0.  1.
        -12    1    3    3    0    0  0.25413772692E+01 -0.25357447587E+02 -0.20956531572E+02  0.32994468659E+02  0.00000000000E+00 0.  1.
</event>
<event>
 7    1  0.3681059E-013  0.7246162E+02  0.7816164E-02  0.1226708E+00
        -11   -1    0    0    0    0  0.00000000000E+00  0.00000000000E+00  0.45593999997E+02  0.45594000000E+02  0.51100000000E-03 0. -1.
         11   -1    0    0    0    0 -0.00000000000E+00 -0.00000000000E+00 -0.45593999997E+02  0.45594000000E+02  0.51100000000E-03 0.  1.
    9900012    2    1    2    0    0  0.93072990225E+01 -0.26068941562E+01  0.16039195197E+02  0.72461615009E+02  0.70000058250E+02 0.  0.
        -12    1    1    2    0    0 -0.93072990225E+01  0.26068941562E+01 -0.16039195197E+02  0.18726384991E+02  0.00000000000E+00 0.  1.
         11    1    3    3    0    0 -0.46857222981E+01  0.40743375700E+01 -0.28726206054E+01  0.68416496178E+01  0.51100000000E-03 0. -1.
        -11    1    3    3    0    0 -0.18853781740E+02 -0.19139009044E+01 -0.10155473731E+02  0.21500273243E+02  0.51100000000E-03 0.  1.
         12    1    3    3    0    0  0.32846803061E+02 -0.47673308218E+01  0.29067289533E+02  0.44119692149E+02  0.00000000000E+00 0. -1.
</event>
<event>
 7    1  0.3681059E-013  0.7246158E+02  0.7816164E-02  0.1226708E+00
        -11   -1    0    0    0    0  0.00000000000E+00  0.00000000000E+00  0.45593999997E+02  0.45594000000E+02  0.51100000000E-03 0. -1.
         11   -1    0    0    0    0 -0.00000000000E+00 -0.00000000000E+00 -0.45593999997E+02  0.45594000000E+02  0.51100000000E-03 0.  1.
    9900012    2    1    2    0    0  0.18298260267E+02 -0.34864728659E+01 -0.19227132359E+01  0.72461584218E+02  0.70000018138E+02 0.  0.
        -12    1    1    2    0    0 -0.18298260267E+02  0.34864728659E+01  0.19227132359E+01  0.18726415782E+02  0.00000000000E+00 0.  1.
         11    1    3    3    0    0  0.75253005799E+01 -0.61488157281E+01 -0.84071828805E+01  0.12849856339E+02  0.51100000000E-03 0. -1.
        -11    1    3    3    0    0 -0.60141344845E+01  0.17293820599E+02 -0.18578793561E+02  0.26084815793E+02  0.51100000000E-03 0.  1.
        -12    1    3    3    0    0  0.16787094172E+02 -0.14631477737E+02  0.25063263206E+02  0.33526912086E+02  0.00000000000E+00 0.  1.
</event>
<event>
 7    1  0.3681059E-013  0.7246159E+02  0.7816164E-02  0.1226708E+00
        -11   -1    0    0    0    0  0.00000000000E+00  0.00000000000E+00  0.45593999997E+02  0.45594000000E+02  0.51100000000E-03 0.  1.
         11   -1    0    0    0    0 -0.00000000000E+00 -0.00000000000E+00 -0.45593999997E+02  0.45594000000E+02  0.51100000000E-03 0. -1.
    9900012    2    1    2    0    0  0.13823956281E+02  0.11669372690E+02  0.48375868654E+01  0.72461594234E+02  0.70000031186E+02 0.  0.
        -12    1    1    2    0    0 -0.13823956281E+02 -0.11669372690E+02 -0.48375868654E+01  0.18726405766E+02  0.00000000000E+00 0.  1.
         11    1    3    3    0    0  0.74772218208E+00  0.19555935642E+02 -0.19087630816E+02  0.27337361938E+02  0.51100000000E-03 0. -1.
        -11    1    3    3    0    0 -0.83815991278E+00 -0.12183732160E+02 -0.46374064138E+01  0.13063360207E+02  0.51100000000E-03 0.  1.
        -12    1    3    3    0    0  0.13914394012E+02  0.42971692080E+01  0.28562624095E+02  0.32060872089E+02  0.00000000000E+00 0.  1.
</event>
<event>
 7    1  0.3681059E-013  0.7246157E+02  0.7816164E-02  0.1226708E+00
        -11   -1    0    0    0    0  0.00000000000E+00  0.00000000000E+00  0.45593999997E+02  0.45594000000E+02  0.51100000000E-03 0.  1.
         11   -1    0    0    0    0 -0.00000000000E+00 -0.00000000000E+00 -0.45593999997E+02  0.45594000000E+02  0.51100000000E-03 0. -1.
    9900012    2    1    2    0    0 -0.74225390676E+01  0.11185419849E+02 -0.13056473553E+02  0.72461569346E+02  0.69999998765E+02 0.  0.
        -12    1    1    2    0    0  0.74225390676E+01 -0.11185419849E+02  0.13056473553E+02  0.18726430654E+02  0.00000000000E+00 0.  1.
         11    1    3    3    0    0 -0.10137105337E+02  0.24766147168E+02 -0.10930486903E+02  0.28906720574E+02  0.51100000000E-03 0. -1.
        -11    1    3    3    0    0 -0.11573866196E+02  0.10057462534E+02  0.25408842445E+01  0.15542297910E+02  0.51100000000E-03 0.  1.
        -12    1    3    3    0    0  0.14288432465E+02 -0.23638189853E+02 -0.46668708939E+01  0.28012550861E+02  0.00000000000E+00 0.  1.
</event>
<event>
 7    1  0.3681059E-013  0.7246156E+02  0.7816164E-02  0.1226708E+00
        -11   -1    0    0    0    0  0.00000000000E+00  0.00000000000E+00  0.45593999997E+02  0.45594000000E+02  0.51100000000E-03 0.  1.
         11   -1    0    0    0    0 -0.00000000000E+00 -0.00000000000E+00 -0.45593999997E+02  0.45594000000E+02  0.51100000000E-03 0. -1.
    9900012    2    1    2    0    0  0.89522741653E+01  0.15671288909E+02 -0.49947091494E+01  0.72461558045E+02  0.69999984043E+02 0.  0.
        -12    1    1    2    0    0 -0.89522741653E+01 -0.15671288909E+02  0.49947091494E+01  0.18726441955E+02  0.00000000000E+00 0.  1.
         11    1    3    3    0    0 -0.84769517330E+01  0.36488095044E+00  0.67559680724E+01  0.10845964856E+02  0.51100000000E-03 0. -1.
        -11    1    3    3    0    0  0.17544402486E+01 -0.19438834540E+02 -0.13045652390E+02  0.23476273030E+02  0.51100000000E-03 0.  1.
         12    1    3    3    0    0  0.15674785650E+02  0.34745242499E+02  0.12949751678E+01  0.38139320159E+02  0.00000000000E+00 0. -1.
</event>
<event>
 7    1  0.3681059E-013  0.7246152E+02  0.7816164E-02  0.1226708E+00
        -11   -1    0    0    0    0  0.00000000000E+00  0.00000000000E+00  0.45593999997E+02  0.45594000000E+02  0.51100000000E-03 0.  1.
         11   -1    0    0    0    0 -0.00000000000E+00 -0.00000000000E+00 -0.45593999997E+02  0.45594000000E+02  0.51100000000E-03 0. -1.
    9900012    2    1    2    0    0 -0.13257669942E+02 -0.87209823102E+01 -0.99428243575E+01  0.72461518725E+02  0.69999932821E+02 0.  0.
        -12    1    1    2    0    0  0.13257669942E+02  0.87209823102E+01  0.99428243575E+01  0.18726481275E+02  0.00000000000E+00 0.  1.
         11    1    3    3    0    0 -0.83075422735E+01 -0.39480727483E+01 -0.10864197006E+01  0.92619028865E+01  0.51100000000E-03 0. -1.
        -11    1    3    3    0    0 -0.20404763832E+02  0.22672949627E+01  0.20672804471E+02  0.29135199647E+02  0.51100000000E-03 0.  1.
         12    1    3    3    0    0  0.15454636164E+02 -0.70402045245E+01 -0.29529209128E+02  0.34064416191E+02  0.00000000000E+00 0. -1.
</event>
<event>
 7    1  0.3681059E-013  0.7246151E+02  0.7816164E-02  0.1226708E+00
        -11   -1    0    0    0    0  0.00000000000E+00  0.00000000000E+00  0.45593999997E+02  0.45594000000E+02  0.51100000000E-03 0. -1.
         11   -1    0    0    0    0 -0.00000000000E+00 -0.00000000000E+00 -0.45593999997E+02  0.45594000000E+02  0.51100000000E-03 0.  1.
    9900012    2    1    2    0    0 -0.72714499984E+01  0.17236569191E+02  0.84153465674E+00  0.72461508521E+02  0.69999919528E+02 0.  0.
        -12    1    1    2    0    0  0.72714499984E+01 -0.17236569191E+02 -0.84153465674E+00  0.18726491479E+02  0.00000000000E+00 0.  1.
         11    1    3    3    0    0 -0.21008808316E+01 -0.10019012524E+01 -0.26475312122E+01  0.35251848418E+01  0.51100000000E-03 0. -1.
        -11    1    3    3    0    0  0.70005136475E+00 -0.24493011580E+02  0.74798195297E+01  0.25619238642E+02  0.51100000000E-03 0.  1.
         12    1    3    3    0    0 -0.58706205316E+01  0.42731482023E+02 -0.39907536608E+01  0.43317085037E+02  0.00000000000E+00 0. -1.
</event>
<event>
 7    1  0.3681059E-013  0.7246158E+02  0.7816164E-02  0.1226708E+00
        -11   -1    0    0    0    0  0.00000000000E+00  0.00000000000E+00  0.45593999997E+02  0.45594000000E+02  0.51100000000E-03 0.  1.
         11   -1    0    0    0    0 -0.00000000000E+00 -0.00000000000E+00 -0.45593999997E+02  0.45594000000E+02  0.51100000000E-03 0. -1.
    9900012    2    1    2    0    0  0.15914504166E+02 -0.50019147643E+01 -0.85081213773E+01  0.72461582202E+02  0.70000015512E+02 0.  0.
        -12    1    1    2    0    0 -0.15914504166E+02  0.50019147643E+01  0.85081213773E+01  0.18726417798E+02  0.00000000000E+00 0.  1.
         11    1    3    3    0    0 -0.11460954276E+02 -0.17606165713E+02  0.12459101081E+02  0.24424572546E+02  0.51100000000E-03 0. -1.
        -11    1    3    3    0    0  0.14567960210E+01  0.90110283222E+01  0.56312209431E+01  0.10725275551E+02  0.51100000000E-03 0.  1.
         12    1    3    3    0    0  0.25918662422E+02  0.35932226264E+01 -0.26598443402E+02  0.37311734105E+02  0.00000000000E+00 0. -1.
</event>
<event>
 7    1  0.3681059E-013  0.7246161E+02  0.7816164E-02  0.1226708E+00
        -11   -1    0    0    0    0  0.00000000000E+00  0.00000000000E+00  0.45593999997E+02  0.45594000000E+02  0.51100000000E-03 0.  1.
         11   -1    0    0    0    0 -0.00000000000E+00 -0.00000000000E+00 -0.45593999997E+02  0.45594000000E+02  0.51100000000E-03 0. -1.
    9900012    2    1    2    0    0 -0.99832633343E+01  0.15838811166E+02 -0.37993430128E+00  0.72461605899E+02  0.70000046381E+02 0.  0.
        -12    1    1    2    0    0  0.99832633343E+01 -0.15838811166E+02  0.37993430128E+00  0.18726394101E+02  0.00000000000E+00 0.  1.
         11    1    3    3    0    0 -0.22841019920E+02  0.10342543530E+02 -0.48969867673E+01  0.25547228369E+02  0.51100000000E-03 0. -1.
        -11    1    3    3    0    0 -0.13692540895E+02  0.11266106149E+02  0.81274441074E+01  0.19505542082E+02  0.51100000000E-03 0.  1.
         12    1    3    3    0    0  0.26550297481E+02 -0.57698385128E+01 -0.36103916414E+01  0.27408835448E+02  0.00000000000E+00 0. -1.
</event>
<event>
 7    1  0.3681059E-013  0.7246155E+02  0.7816164E-02  0.1226708E+00
        -11   -1    0    0    0    0  0.00000000000E+00  0.00000000000E+00  0.45593999997E+02  0.45594000000E+02  0.51100000000E-03 0.  1.
         11   -1    0    0    0    0 -0.00000000000E+00 -0.00000000000E+00 -0.45593999997E+02  0.45594000000E+02  0.51100000000E-03 0. -1.
    9900012    2    1    2    0    0  0.15505827906E+02  0.75223124141E+01 -0.73255662384E+01  0.72461553359E+02  0.69999977938E+02 0.  0.
        -12    1    1    2    0    0 -0.15505827906E+02 -0.75223124141E+01  0.73255662384E+01  0.18726446641E+02  0.00000000000E+00 0.  1.
         11    1    3    3    0    0  0.38634258480E+01  0.24899694955E+02 -0.10817498313E+02  0.27421508677E+02  0.51100000000E-03 0. -1.
        -11    1    3    3    0    0  0.39406628213E+01 -0.49295739586E+01  0.21168666990E+02  0.22089408894E+02  0.51100000000E-03 0.  1.
         12    1    3    3    0    0  0.77017392362E+01 -0.12447808582E+02 -0.17676734916E+02  0.22950635787E+02  0.00000000000E+00 0. -1.
</event>
<event>
 7    1  0.3681059E-013  0.7246159E+02  0.7816164E-02  0.1226708E+00
        -11   -1    0    0    0    0  0.00000000000E+00  0.00000000000E+00  0.45593999997E+02  0.45594000000E+02  0.51100000000E-03 0.  1.
         11   -1    0    0    0    0 -0.00000000000E+00 -0.00000000000E+00 -0.45593999997E+02  0.45594000000E+02  0.51100000000E-03 0. -1.
    9900012    2    1    2    0    0 -0.14179281667E+01 -0.13609662914E+02 -0.12784566282E+02  0.72461586037E+02  0.70000020507E+02 0.  0.
        -12    1    1    2    0    0  0.14179281667E+01  0.13609662914E+02  0.12784566282E+02  0.18726413963E+02  0.00000000000E+00 0.  1.
         11    1    3    3    0    0 -0.81244730063E+01 -0.26413350087E+02 -0.91048933664E+00  0.27649613299E+02  0.51100000000E-03 0. -1.
        -11    1    3    3    0    0 -0.30516521361E+01  0.15266534074E+01  0.14292482270E+02  0.14694158741E+02  0.51100000000E-03 0.  1.
        -12    1    3    3    0    0  0.97581969757E+01  0.11277033766E+02 -0.26166559216E+02  0.30117813997E+02  0.00000000000E+00 0.  1.
</event>
<event>
 7    1  0.3681059E-013  0.7246165E+02  0.7816164E-02  0.1226708E+00
        -11   -1    0    0    0    0  0.00000000000E+00  0.00000000000E+00  0.45593999997E+02  0.45594000000E+02  0.51100000000E-03 0.  1.
         11   -1    0    0    0    0 -0.00000000000E+00 -0.00000000000E+00 -0.45593999997E+02  0.45594000000E+02  0.51100000000E-03 0. -1.
    9900012    2    1    2    0    0 -0.16672250404E+02  0.82692204806E+01  0.20814190952E+01  0.72461648344E+02  0.70000101674E+02 0.  0.
        -12    1    1    2    0    0  0.16672250404E+02 -0.82692204806E+01 -0.20814190952E+01  0.18726351656E+02  0.00000000000E+00 0.  1.
         11    1    3    3    0    0 -0.18043078162E+02 -0.11515421691E+02  0.20382566479E+02  0.29556837159E+02  0.51100000000E-03 0. -1.
        -11    1    3    3    0    0  0.16211384271E+02  0.10328007330E+02 -0.27440459176E+01  0.19416655315E+02  0.51100000000E-03 0.  1.
        -12    1    3    3    0    0 -0.14840556513E+02  0.94566348421E+01 -0.15557101466E+02  0.23488155870E+02  0.00000000000E+00 0.  1.
</event>
<event>
 7    1  0.3681059E-013  0.7246151E+02  0.7816164E-02  0.1226708E+00
        -11   -1    0    0    0    0  0.00000000000E+00  0.00000000000E+00  0.45593999997E+02  0.45594000000E+02  0.51100000000E-03 0. -1.
         11   -1    0    0    0    0 -0.00000000000E+00 -0.00000000000E+00 -0.45593999997E+02  0.45594000000E+02  0.51100000000E-03 0.  1.
    9900012    2    1    2    0    0  0.59273087240E+00  0.40356213421E+01  0.18276862291E+02  0.72461514352E+02  0.69999927125E+02 0.  0.
        -12    1    1    2    0    0 -0.59273087240E+00 -0.40356213421E+01 -0.18276862291E+02  0.18726485648E+02  0.00000000000E+00 0.  1.
         11    1    3    3    0    0 -0.20024919471E+02  0.22044485681E+01  0.92823798659E+01  0.22181514140E+02  0.51100000000E-03 0. -1.
        -11    1    3    3    0    0  0.68964105200E+01 -0.11690733786E+02 -0.14523767637E+02  0.19878972839E+02  0.51100000000E-03 0.  1.
         12    1    3    3    0    0  0.13721239824E+02  0.13521906560E+02  0.23518250062E+02  0.30401027373E+02  0.00000000000E+00 0. -1.
</event>
<event>
 7    1  0.3681059E-013  0.7246146E+02  0.7816164E-02  0.1226708E+00
        -11   -1    0    0    0    0  0.00000000000E+00  0.00000000000E+00  0.45593999997E+02  0.45594000000E+02  0.51100000000E-03 0.  1.
         11   -1    0    0    0    0 -0.00000000000E+00 -0.00000000000E+00 -0.45593999997E+02  0.45594000000E+02  0.51100000000E-03 0. -1.
    9900012    2    1    2    0    0 -0.50756293552E+01  0.30884543591E+01 -0.17759018888E+02  0.72461459595E+02  0.69999855793E+02 0.  0.
        -12    1    1    2    0    0  0.50756293552E+01 -0.30884543591E+01  0.17759018888E+02  0.18726540405E+02  0.00000000000E+00 0.  1.
         11    1    3    3    0    0 -0.14540696159E+02 -0.10495446489E+02 -0.30388536748E+02  0.35285257655E+02  0.51100000000E-03 0. -1.
        -11    1    3    3    0    0  0.45421221431E+01  0.12176768492E+02 -0.84380862891E+01  0.15495349785E+02  0.51100000000E-03 0.  1.
        -12    1    3    3    0    0  0.49229446609E+01  0.14071323563E+01  0.21067604149E+02  0.21680852156E+02  0.00000000000E+00 0.  1.
</event>
<event>
 7    1  0.3681059E-013  0.7246161E+02  0.7816164E-02  0.1226708E+00
        -11   -1    0    0    0    0  0.00000000000E+00  0.00000000000E+00  0.45593999997E+02  0.45594000000E+02  0.51100000000E-03 0. -1.
         11   -1    0    0    0    0 -0.00000000000E+00 -0.00000000000E+00 -0.45593999997E+02  0.45594000000E+02  0.51100000000E-03 0.  1.
    9900012    2    1    2    0    0 -0.10053096316E+02 -0.13832025255E+02  0.76346704990E+01  0.72461605210E+02  0.70000045484E+02 0.  0.
        -12    1    1    2    0    0  0.10053096316E+02  0.13832025255E+02 -0.76346704990E+01  0.18726394790E+02  0.00000000000E+00 0.  1.
         11    1    3    3    0    0  0.69019780638E+01  0.24899718414E+01 -0.19378948922E+02  0.20721508693E+02  0.51100000000E-03 0.  1.
        -11    1    3    3    0    0 -0.27632371527E+02 -0.46684195087E+01  0.14332967266E+02  0.31476595239E+02  0.51100000000E-03 0. -1.
         12    1    3    3    0    0  0.10677297147E+02 -0.11653577588E+02  0.12680652155E+02  0.20263501278E+02  0.00000000000E+00 0. -1.
</event>
<event>
 7    1  0.3681059E-013  0.7246187E+02  0.7816164E-02  0.1226707E+00
        -11   -1    0    0    0    0  0.00000000000E+00  0.00000000000E+00  0.45593999997E+02  0.45594000000E+02  0.51100000000E-03 0.  1.
         11   -1    0    0    0    0 -0.00000000000E+00 -0.00000000000E+00 -0.45593999997E+02  0.45594000000E+02  0.51100000000E-03 0. -1.
    9900012    2    1    2    0    0 -0.99881642952E+01 -0.15839911709E+02  0.42677887924E-01  0.72461867182E+02  0.70000386750E+02 0.  0.
        -12    1    1    2    0    0  0.99881642952E+01  0.15839911709E+02 -0.42677887924E-01  0.18726132818E+02  0.00000000000E+00 0.  1.
         11    1    3    3    0    0  0.12886816681E+00 -0.12947631536E+02  0.23269817889E+02  0.26629723886E+02  0.51100000000E-03 0. -1.
        -11    1    3    3    0    0 -0.97310901716E+01 -0.14563254545E+02  0.23914364901E+01  0.17677711040E+02  0.51100000000E-03 0.  1.
         12    1    3    3    0    0 -0.38594229046E+00  0.11670974372E+02 -0.25618576491E+02  0.28154432256E+02  0.00000000000E+00 0. -1.
</event>
<event>
 7    1  0.3681059E-013  0.7246157E+02  0.7816164E-02  0.1226708E+00
        -11   -1    0    0    0    0  0.00000000000E+00  0.00000000000E+00  0.45593999997E+02  0.45594000000E+02  0.51100000000E-03 0.  1.
         11   -1    0    0    0    0 -0.00000000000E+00 -0.00000000000E+00 -0.45593999997E+02  0.45594000000E+02  0.51100000000E-03 0. -1.
    9900012    2    1    2    0    0  0.11584137623E+02  0.14447049088E+02 -0.27874423759E+01  0.72461566629E+02  0.69999995225E+02 0.  0.
        -12    1    1    2    0    0 -0.11584137623E+02 -0.14447049088E+02  0.27874423759E+01  0.18726433371E+02  0.00000000000E+00 0.  1.
         11    1    3    3    0    0  0.55503590242E+01  0.17008614321E+02 -0.19291661403E+02  0.26310979578E+02  0.51100000000E-03 0. -1.
        -11    1    3    3    0    0  0.18470526887E+02  0.56089288892E+01 -0.50552953848E+01  0.19954359385E+02  0.51100000000E-03 0.  1.
         12    1    3    3    0    0 -0.12436748289E+02 -0.81704941216E+01  0.21559514412E+02  0.26196227665E+02  0.00000000000E+00 0. -1.
</event>
<event>
 7    1  0.3681059E-013  0.7246157E+02  0.7816164E-02  0.1226708E+00
        -11   -1    0    0    0    0  0.00000000000E+00  0.00000000000E+00  0.45593999997E+02  0.45594000000E+02  0.51100000000E-03 0.  1.
         11   -1    0    0    0    0 -0.00000000000E+00 -0.00000000000E+00 -0.45593999997E+02  0.45594000000E+02  0.51100000000E-03 0. -1.
    9900012    2    1    2    0    0 -0.18606376463E+02 -0.20491155040E+01 -0.53209613625E+00  0.72461568260E+02  0.69999997350E+02 0.  0.
        -12    1    1    2    0    0  0.18606376463E+02  0.20491155040E+01  0.53209613625E+00  0.18726431740E+02  0.00000000000E+00 0.  1.
         11    1    3    3    0    0  0.10189541830E+01  0.15155036673E+02  0.13668490960E+02  0.20433821218E+02  0.51100000000E-03 0. -1.
        -11    1    3    3    0    0  0.11340144101E+02  0.31470474178E+01  0.13432479418E+01  0.11845129420E+02  0.51100000000E-03 0.  1.
        -12    1    3    3    0    0 -0.30965474747E+02 -0.20351199594E+02 -0.15543835039E+02  0.40182617622E+02  0.00000000000E+00 0.  1.
</event>
<event>
 7    1  0.3681059E-013  0.7246157E+02  0.7816164E-02  0.1226708E+00
        -11   -1    0    0    0    0  0.00000000000E+00  0.00000000000E+00  0.45593999997E+02  0.45594000000E+02  0.51100000000E-03 0. -1.
         11   -1    0    0    0    0 -0.00000000000E+00 -0.00000000000E+00 -0.45593999997E+02  0.45594000000E+02  0.51100000000E-03 0.  1.
    9900012    2    1    2    0    0  0.12222803672E+02 -0.12478788015E+02 -0.67499634370E+01  0.72461572516E+02  0.70000002894E+02 0.  0.
        -12    1    1    2    0    0 -0.12222803672E+02  0.12478788015E+02  0.67499634370E+01  0.18726427484E+02  0.00000000000E+00 0.  1.
         11    1    3    3    0    0  0.29417000956E+01 -0.70667884824E+01 -0.33644898850E+01  0.83613929076E+01  0.51100000000E-03 0. -1.
        -11    1    3    3    0    0 -0.56204316441E+01  0.16539465996E+01 -0.31210117371E+02  0.31755254963E+02  0.51100000000E-03 0.  1.
         12    1    3    3    0    0  0.14901535220E+02 -0.70659461323E+01  0.27824643819E+02  0.32344924645E+02  0.00000000000E+00 0. -1.
</event>
<event>
 7    1  0.3681059E-013  0.7246153E+02  0.7816164E-02  0.1226708E+00
        -11   -1    0    0    0    0  0.00000000000E+00  0.00000000000E+00  0.45593999997E+02  0.45594000000E+02  0.51100000000E-03 0. -1.
         11   -1    0    0    0    0 -0.00000000000E+00 -0.00000000000E+00 -0.45593999997E+02  0.45594000000E+02  0.51100000000E-03 0.  1.
    9900012    2    1    2    0    0 -0.15868518250E+02 -0.47210510660E+00  0.99321567747E+01  0.72461534961E+02  0.69999953971E+02 0.  0.
        -12    1    1    2    0    0  0.15868518250E+02  0.47210510660E+00 -0.99321567747E+01  0.18726465039E+02  0.00000000000E+00 0.  1.
         11    1    3    3    0    0  0.40396043170E+01  0.74463218777E+01  0.25418567970E+01  0.88446112849E+01  0.51100000000E-03 0. -1.
        -11    1    3    3    0    0  0.81473189615E+01 -0.27181653194E+02  0.83238783439E+01  0.29572081894E+02  0.51100000000E-03 0.  1.
         12    1    3    3    0    0 -0.28055441528E+02  0.19263226210E+02 -0.93357836626E+00  0.34044841781E+02  0.00000000000E+00 0. -1.
</event>
<event>
 7    1  0.3681059E-013  0.7246159E+02  0.7816164E-02  0.1226708E+00
        -11   -1    0    0    0    0  0.00000000000E+00  0.00000000000E+00  0.45593999997E+02  0.45594000000E+02  0.51100000000E-03 0.  1.
         11   -1    0    0    0    0 -0.00000000000E+00 -0.00000000000E+00 -0.45593999997E+02  0.45594000000E+02  0.51100000000E-03 0. -1.
    9900012    2    1    2    0    0 -0.12797537721E+02  0.72659760679E+01 -0.11580455047E+02  0.72461593003E+02  0.70000029582E+02 0.  0.
        -12    1    1    2    0    0  0.12797537721E+02 -0.72659760679E+01  0.11580455047E+02  0.18726406997E+02  0.00000000000E+00 0.  1.
         11    1    3    3    0    0 -0.16223070883E+02  0.12278682919E+02 -0.19396842619E+01  0.20438112888E+02  0.51100000000E-03 0. -1.
        -11    1    3    3    0    0  0.15180457921E+02  0.13136686993E+02 -0.19742721396E+02  0.28156595963E+02  0.51100000000E-03 0.  1.
        -12    1    3    3    0    0 -0.11754924759E+02 -0.18149393844E+02  0.10101950611E+02  0.23866884152E+02  0.00000000000E+00 0.  1.
</event>
<event>
 7    1  0.3681059E-013  0.7246155E+02  0.7816164E-02  0.1226708E+00
        -11   -1    0    0    0    0  0.00000000000E+00  0.00000000000E+00  0.45593999997E+02  0.45594000000E+02  0.51100000000E-03 0.  1.
         11   -1    0    0    0    0 -0.00000000000E+00 -0.00000000000E+00 -0.45593999997E+02  0.45594000000E+02  0.51100000000E-03 0. -1.
    9900012    2    1    2    0    0  0.16388759024E+02  0.20620749716E+01 -0.88224827528E+01  0.72461554062E+02  0.69999978855E+02 0.  0.
        -12    1    1    2    0    0 -0.16388759024E+02 -0.20620749716E+01  0.88224827528E+01  0.18726445938E+02  0.00000000000E+00 0.  1.
         11    1    3    3    0    0  0.21395034312E+01 -0.19923615034E+02 -0.46835004455E+01  0.20578218767E+02  0.51100000000E-03 0. -1.
        -11    1    3    3    0    0 -0.66624286518E+00 -0.38742862054E+01 -0.18388310547E+02  0.18803827754E+02  0.51100000000E-03 0.  1.
        -12    1    3    3    0    0  0.14915498458E+02  0.25859976211E+02  0.14249328240E+02  0.33079507541E+02  0.00000000000E+00 0.  1.
</event>
<event>
 7    1  0.3681059E-013  0.7246160E+02  0.7816164E-02  0.1226708E+00
        -11   -1    0    0    0    0  0.00000000000E+00  0.00000000000E+00  0.45593999997E+02  0.45594000000E+02  0.51100000000E-03 0.  1.
         11   -1    0    0    0    0 -0.00000000000E+00 -0.00000000000E+00 -0.45593999997E+02  0.45594000000E+02  0.51100000000E-03 0. -1.
    9900012    2    1    2    0    0  0.52724782869E+01  0.15074760239E+02 -0.97790976313E+01  0.72461596874E+02  0.70000034626E+02 0.  0.
        -12    1    1    2    0    0 -0.52724782869E+01 -0.15074760239E+02  0.97790976313E+01  0.18726403126E+02  0.00000000000E+00 0.  1.
         11    1    3    3    0    0  0.39540538878E-01  0.42143644245E+01 -0.10960873440E+02  0.11743218374E+02  0.51100000000E-03 0. -1.
        -11    1    3    3    0    0  0.48194394693E+01 -0.77926337391E+01 -0.26103002966E+02  0.27664397725E+02  0.51100000000E-03 0.  1.
        -12    1    3    3    0    0  0.41349827868E+00  0.18653029553E+02  0.27284778774E+02  0.33053980775E+02  0.00000000000E+00 0.  1.
</event>
<event>
 7    1  0.3681059E-013  0.7246167E+02  0.7816164E-02  0.1226708E+00
        -11   -1    0    0    0    0  0.00000000000E+00  0.00000000000E+00  0.45593999997E+02  0.45594000000E+02  0.51100000000E-03 0.  1.
         11   -1    0    0    0    0 -0.00000000000E+00 -0.00000000000E+00 -0.45593999997E+02  0.45594000000E+02  0.51100000000E-03 0. -1.
    9900012    2    1    2    0    0 -0.75518193650E+01  0.17098197272E+02  0.11389737496E+01  0.72461665952E+02  0.70000124612E+02 0.  0.
        -12    1    1    2    0    0  0.75518193650E+01 -0.17098197272E+02 -0.11389737496E+01  0.18726334048E+02  0.00000000000E+00 0.  1.
         11    1    3    3    0    0  0.18621795498E+02 -0.98590058155E+01  0.90051190591E+01  0.22914262649E+02  0.51100000000E-03 0. -1.
        -11    1    3    3    0    0  0.14813674723E+01  0.15944527423E+02 -0.11277063451E+02  0.19585570318E+02  0.51100000000E-03 0.  1.
        -12    1    3    3    0    0 -0.27654982335E+02  0.11012675664E+02  0.34109181415E+01  0.29961832985E+02  0.00000000000E+00 0.  1.
</event>
<event>
 7    1  0.3681059E-013  0.7246158E+02  0.7816164E-02  0.1226708E+00
        -11   -1    0    0    0    0  0.00000000000E+00  0.00000000000E+00  0.45593999997E+02  0.45594000000E+02  0.51100000000E-03 0.  1.
         11   -1    0    0    0    0 -0.00000000000E+00 -0.00000000000E+00 -0.45593999997E+02  0.45594000000E+02  0.51100000000E-03 0. -1.
    9900012    2    1    2    0    0 -0.16583779064E+02 -0.84999988813E+01 -0.18458819014E+01  0.72461575113E+02  0.70000006278E+02 0.  0.
        -12    1    1    2    0    0  0.16583779064E+02  0.84999988813E+01  0.18458819014E+01  0.18726424887E+02  0.00000000000E+00 0.  1.
         11    1    3    3    0    0 -0.46598232580E+00 -0.15511386087E+02  0.16722175378E+02  0.22813403680E+02  0.51100000000E-03 0. -1.
        -11    1    3    3    0    0  0.47404770612E+01  0.11494117901E+02  0.85902036676E+01  0.15112196015E+02  0.51100000000E-03 0.  1.
        -12    1    3    3    0    0 -0.20858273800E+02 -0.44827306959E+01 -0.27158260947E+02  0.34535975418E+02  0.00000000000E+00 0.  1.
</event>
<event>
 7    1  0.3681059E-013  0.7246153E+02  0.7816164E-02  0.1226708E+00
        -11   -1    0    0    0    0  0.00000000000E+00  0.00000000000E+00  0.45593999997E+02  0.45594000000E+02  0.51100000000E-03 0. -1.
         11   -1    0    0    0    0 -0.00000000000E+00 -0.00000000000E+00 -0.45593999997E+02  0.45594000000E+02  0.51100000000E-03 0.  1.
    9900012    2    1    2    0    0 -0.87193540165E+01  0.10952914430E+02  0.12437332723E+02  0.72461529050E+02  0.69999946272E+02 0.  0.
        -12    1    1    2    0    0  0.87193540165E+01 -0.10952914430E+02 -0.12437332723E+02  0.18726470950E+02  0.00000000000E+00 0.  1.
         11    1    3    3    0    0  0.39414072022E+01  0.65890104563E+01 -0.23677480572E+01  0.80346736492E+01  0.51100000000E-03 0. -1.
        -11    1    3    3    0    0 -0.18115776893E+02  0.30696503264E+02  0.10763327240E+02  0.37233129046E+02  0.51100000000E-03 0.  1.
         12    1    3    3    0    0  0.54550156739E+01 -0.26332599290E+02  0.40417535396E+01  0.27193726355E+02  0.00000000000E+00 0. -1.
</event>
<event>
 7    1  0.3681059E-013  0.7246163E+02  0.7816164E-02  0.1226708E+00
        -11   -1    0    0    0    0  0.00000000000E+00  0.00000000000E+00  0.45593999997E+02  0.45594000000E+02  0.51100000000E-03 0.  1.
         11   -1    0    0    0    0 -0.00000000000E+00 -0.00000000000E+00 -0.45593999997E+02  0.45594000000E+02  0.51100000000E-03 0. -1.
    9900012    2    1    2    0    0 -0.92248377704E+01 -0.16258400306E+02 -0.11151950232E+01  0.72461631630E+02  0.70000079901E+02 0.  0.
        -12    1    1    2    0    0  0.92248377704E+01  0.16258400306E+02  0.11151950232E+01  0.18726368370E+02  0.00000000000E+00 0.  1.
         11    1    3    3    0    0  0.78199427518E+01  0.46506560902E+01  0.86212505739E+01  0.12534195963E+02  0.51100000000E-03 0. -1.
        -11    1    3    3    0    0 -0.21689233454E+02  0.10954904957E+02 -0.13006985713E+02  0.27561104260E+02  0.51100000000E-03 0.  1.
         12    1    3    3    0    0  0.46444529314E+01 -0.31863961353E+02  0.32705401160E+01  0.32366331407E+02  0.00000000000E+00 0. -1.
</event>
<event>
 7    1  0.3681059E-013  0.7246158E+02  0.7816164E-02  0.1226708E+00
        -11   -1    0    0    0    0  0.00000000000E+00  0.00000000000E+00  0.45593999997E+02  0.45594000000E+02  0.51100000000E-03 0.  1.
         11   -1    0    0    0    0 -0.00000000000E+00 -0.00000000000E+00 -0.45593999997E+02  0.45594000000E+02  0.51100000000E-03 0. -1.
    9900012    2    1    2    0    0  0.17722964064E+02  0.54546525116E+01 -0.26119427554E+01  0.72461576577E+02  0.70000008185E+02 0.  0.
        -12    1    1    2    0    0 -0.17722964064E+02 -0.54546525116E+01  0.26119427554E+01  0.18726423423E+02  0.00000000000E+00 0.  1.
         11    1    3    3    0    0  0.48370381670E+01  0.24264834886E+02 -0.21579723486E+02  0.32830833317E+02  0.51100000000E-03 0. -1.
        -11    1    3    3    0    0 -0.45799347642E+01 -0.97943945338E+01 -0.18840313480E+01  0.10975223966E+02  0.51100000000E-03 0.  1.
        -12    1    3    3    0    0  0.17465860662E+02 -0.90157878410E+01  0.20851812079E+02  0.28655519294E+02  0.00000000000E+00 0.  1.
</event>
<event>
 7    1  0.3681059E-013  0.7246162E+02  0.7816164E-02  0.1226708E+00
        -11   -1    0    0    0    0  0.00000000000E+00  0.00000000000E+00  0.45593999997E+02  0.45594000000E+02  0.51100000000E-03 0. -1.
         11   -1    0    0    0    0 -0.00000000000E+00 -0.00000000000E+00 -0.45593999997E+02  0.45594000000E+02  0.51100000000E-03 0.  1.
    9900012    2    1    2    0    0  0.98152758382E+01 -0.13853817601E+02  0.78999532028E+01  0.72461623882E+02  0.70000069808E+02 0.  0.
        -12    1    1    2    0    0 -0.98152758382E+01  0.13853817601E+02 -0.78999532028E+01  0.18726376118E+02  0.00000000000E+00 0.  1.
         11    1    3    3    0    0  0.69580768604E+01 -0.52970611444E+01  0.71011650097E+01  0.11265000449E+02  0.51100000000E-03 0. -1.
        -11    1    3    3    0    0  0.16533338799E+02 -0.30795311015E+02 -0.15251096643E+01  0.34986117705E+02  0.51100000000E-03 0.  1.
         12    1    3    3    0    0 -0.13676139821E+02  0.22238554558E+02  0.23238978575E+01  0.26210505728E+02  0.00000000000E+00 0. -1.
</event>
<event>
 7    1  0.3681059E-013  0.7246161E+02  0.7816164E-02  0.1226708E+00
        -11   -1    0    0    0    0  0.00000000000E+00  0.00000000000E+00  0.45593999997E+02  0.45594000000E+02  0.51100000000E-03 0.  1.
         11   -1    0    0    0    0 -0.00000000000E+00 -0.00000000000E+00 -0.45593999997E+02  0.45594000000E+02  0.51100000000E-03 0. -1.
    9900012    2    1    2    0    0  0.41914912730E+01 -0.64751512621E+01  0.17064045483E+02  0.72461606028E+02  0.70000046550E+02 0.  0.
        -12    1    1    2    0    0 -0.41914912730E+01  0.64751512621E+01 -0.17064045483E+02  0.18726393972E+02  0.00000000000E+00 0.  1.
         11    1    3    3    0    0  0.16814965698E+01  0.36321646616E+01 -0.15239129923E+01  0.42827983740E+01  0.51100000000E-03 0. -1.
        -11    1    3    3    0    0  0.33152717605E+02 -0.20359410497E+00  0.12336691527E+02  0.35374257494E+02  0.51100000000E-03 0.  1.
         12    1    3    3    0    0 -0.30642722902E+02 -0.99037218187E+01  0.62512669481E+01  0.32804550160E+02  0.00000000000E+00 0. -1.
</event>
<event>
 7    1  0.3681059E-013  0.7246159E+02  0.7816164E-02  0.1226708E+00
        -11   -1    0    0    0    0  0.00000000000E+00  0.00000000000E+00  0.45593999997E+02  0.45594000000E+02  0.51100000000E-03 0.  1.
         11   -1    0    0    0    0 -0.00000000000E+00 -0.00000000000E+00 -0.45593999997E+02  0.45594000000E+02  0.51100000000E-03 0. -1.
    9900012    2    1    2    0    0 -0.12211830461E+02 -0.52621038677E+01 -0.13185594949E+02  0.72461589386E+02  0.70000024871E+02 0.  0.
        -12    1    1    2    0    0  0.12211830461E+02  0.52621038677E+01  0.13185594949E+02  0.18726410614E+02  0.00000000000E+00 0.  1.
         11    1    3    3    0    0 -0.51713370845E+01 -0.87555835638E+01 -0.78281874549E+01  0.12832906525E+02  0.51100000000E-03 0. -1.
        -11    1    3    3    0    0 -0.22691288294E+02 -0.17004519749E+02 -0.15020011223E+02  0.32088144130E+02  0.51100000000E-03 0.  1.
         12    1    3    3    0    0  0.15650794918E+02  0.20497999445E+02  0.96626037284E+01  0.27540538731E+02  0.00000000000E+00 0. -1.
</event>
<event>
 7    1  0.3681059E-013  0.7246154E+02  0.7816164E-02  0.1226708E+00
        -11   -1    0    0    0    0  0.00000000000E+00  0.00000000000E+00  0.45593999997E+02  0.45594000000E+02  0.51100000000E-03 0. -1.
         11   -1    0    0    0    0 -0.00000000000E+00 -0.00000000000E+00 -0.45593999997E+02  0.45594000000E+02  0.51100000000E-03 0.  1.
    9900012    2    1    2    0    0 -0.17698906753E+02  0.28597553409E+01  0.54083856530E+01  0.72461544483E+02  0.69999966376E+02 0.  0.
        -12    1    1    2    0    0  0.17698906753E+02 -0.28597553409E+01 -0.54083856530E+01  0.18726455517E+02  0.00000000000E+00 0.  1.
         11    1    3    3    0    0 -0.66686611267E+01 -0.64602769949E+01 -0.43660711909E+01  0.10260058381E+02  0.51100000000E-03 0. -1.
        -11    1    3    3    0    0  0.27432748004E+01 -0.10247266363E+02 -0.20816379055E+02  0.23363511332E+02  0.51100000000E-03 0.  1.
         12    1    3    3    0    0 -0.13773520426E+02  0.19567298699E+02  0.30590835899E+02  0.38837974771E+02  0.00000000000E+00 0. -1.
</event>
<event>
 7    1  0.3681059E-013  0.7246171E+02  0.7816164E-02  0.1226708E+00
        -11   -1    0    0    0    0  0.00000000000E+00  0.00000000000E+00  0.45593999997E+02  0.45594000000E+02  0.51100000000E-03 0. -1.
         11   -1    0    0    0    0 -0.00000000000E+00 -0.00000000000E+00 -0.45593999997E+02  0.45594000000E+02  0.51100000000E-03 0.  1.
    9900012    2    1    2    0    0 -0.13436606298E+02  0.12939235840E+02 -0.16454613828E+01  0.72461714835E+02  0.70000188290E+02 0.  0.
        -12    1    1    2    0    0  0.13436606298E+02 -0.12939235840E+02  0.16454613828E+01  0.18726285165E+02  0.00000000000E+00 0.  1.
         11    1    3    3    0    0 -0.15580459146E+02  0.23747173005E+01  0.84366202597E+00  0.15782957750E+02  0.51100000000E-03 0. -1.
        -11    1    3    3    0    0 -0.88539732179E+01 -0.17612454996E+02 -0.14145908683E+02  0.24263102552E+02  0.51100000000E-03 0.  1.
         12    1    3    3    0    0  0.10997826066E+02  0.28176973536E+02  0.11656785274E+02  0.32415654532E+02  0.00000000000E+00 0. -1.
</event>
<event>
 7    1  0.3681059E-013  0.7246147E+02  0.7816164E-02  0.1226708E+00
        -11   -1    0    0    0    0  0.00000000000E+00  0.00000000000E+00  0.45593999997E+02  0.45594000000E+02  0.51100000000E-03 0.  1.
         11   -1    0    0    0    0 -0.00000000000E+00 -0.00000000000E+00 -0.45593999997E+02  0.45594000000E+02  0.51100000000E-03 0. -1.
    9900012    2    1    2    0    0  0.18491542838E+02 -0.89243568250E+00 -0.28194649809E+01  0.72461468534E+02  0.69999867438E+02 0.  0.
        -12    1    1    2    0    0 -0.18491542838E+02  0.89243568250E+00  0.28194649809E+01  0.18726531466E+02  0.00000000000E+00 0.  1.
         11    1    3    3    0    0  0.46341933422E+01  0.29645821204E+01 -0.12857503085E+02  0.13984987698E+02  0.51100000000E-03 0. -1.
        -11    1    3    3    0    0 -0.16541776978E+02  0.57388343354E+00 -0.12191398453E+02  0.20556992102E+02  0.51100000000E-03 0.  1.
         12    1    3    3    0    0  0.30399126474E+02 -0.44309012364E+01  0.22229436557E+02  0.37919488733E+02  0.00000000000E+00 0. -1.
</event>
<event>
 7    1  0.3681059E-013  0.7246157E+02  0.7816164E-02  0.1226708E+00
        -11   -1    0    0    0    0  0.00000000000E+00  0.00000000000E+00  0.45593999997E+02  0.45594000000E+02  0.51100000000E-03 0.  1.
         11   -1    0    0    0    0 -0.00000000000E+00 -0.00000000000E+00 -0.45593999997E+02  0.45594000000E+02  0.51100000000E-03 0. -1.
    9900012    2    1    2    0    0 -0.53282699969E+01 -0.36054946123E+01 -0.17586620376E+02  0.72461567643E+02  0.69999996546E+02 0.  0.
        -12    1    1    2    0    0  0.53282699969E+01  0.36054946123E+01  0.17586620376E+02  0.18726432357E+02  0.00000000000E+00 0.  1.
         11    1    3    3    0    0 -0.13519794258E+02  0.85274590488E+01 -0.10688757694E+02  0.19228934862E+02  0.51100000000E-03 0. -1.
        -11    1    3    3    0    0  0.54582802416E+01  0.18593998462E+02 -0.10723974446E+02  0.22147984788E+02  0.51100000000E-03 0.  1.
         12    1    3    3    0    0  0.27332440199E+01 -0.30726952123E+02  0.38261117636E+01  0.31084647993E+02  0.00000000000E+00 0. -1.
</event>
<event>
 7    1  0.3681059E-013  0.7246156E+02  0.7816164E-02  0.1226708E+00
        -11   -1    0    0    0    0  0.00000000000E+00  0.00000000000E+00  0.45593999997E+02  0.45594000000E+02  0.51100000000E-03 0.  1.
         11   -1    0    0    0    0 -0.00000000000E+00 -0.00000000000E+00 -0.45593999997E+02  0.45594000000E+02  0.51100000000E-03 0. -1.
    9900012    2    1    2    0    0  0.81915241617E+01  0.28214880908E+01 -0.16601732073E+02  0.72461564916E+02  0.69999992993E+02 0.  0.
        -12    1    1    2    0    0 -0.81915241617E+01 -0.28214880908E+01  0.16601732073E+02  0.18726435084E+02  0.00000000000E+00 0.  1.
         11    1    3    3    0    0  0.20063582051E+02  0.74487131403E+01 -0.60965174183E+01  0.22253048714E+02  0.51100000000E-03 0. -1.
        -11    1    3    3    0    0  0.55914483072E+01  0.16367843677E+02  0.59902633859E+01  0.18304476406E+02  0.51100000000E-03 0.  1.
        -12    1    3    3    0    0 -0.17463506197E+02 -0.20995068726E+02 -0.16495478041E+02  0.31904039796E+02  0.00000000000E+00 0.  1.
</event>
<event>
 7    1  0.3681059E-013  0.7246160E+02  0.7816164E-02  0.1226708E+00
        -11   -1    0    0    0    0  0.00000000000E+00  0.00000000000E+00  0.45593999997E+02  0.45594000000E+02  0.51100000000E-03 0. -1.
         11   -1    0    0    0    0 -0.00000000000E+00 -0.00000000000E+00 -0.45593999997E+02  0.45594000000E+02  0.51100000000E-03 0.  1.
    9900012    2    1    2    0    0 -0.12284990518E+02 -0.64981640100E+01  0.12551139340E+02  0.72461595480E+02  0.70000032808E+02 0.  0.
        -12    1    1    2    0    0  0.12284990518E+02  0.64981640100E+01 -0.12551139340E+02  0.18726404520E+02  0.00000000000E+00 0.  1.
         11    1    3    3    0    0  0.18083644235E+02 -0.10911833577E+02  0.21366943248E+02  0.30043844042E+02  0.51100000000E-03 0. -1.
        -11    1    3    3    0    0 -0.11810589157E+02 -0.99901982643E+01  0.35481193941E+01  0.15870829502E+02  0.51100000000E-03 0.  1.
        -12    1    3    3    0    0 -0.18558045596E+02  0.14403867831E+02 -0.12363923302E+02  0.26546921936E+02  0.00000000000E+00 0.  1.
</event>
<event>
 7    1  0.3681059E-013  0.7246146E+02  0.7816164E-02  0.1226708E+00
        -11   -1    0    0    0    0  0.00000000000E+00  0.00000000000E+00  0.45593999997E+02  0.45594000000E+02  0.51100000000E-03 0. -1.
         11   -1    0    0    0    0 -0.00000000000E+00 -0.00000000000E+00 -0.45593999997E+02  0.45594000000E+02  0.51100000000E-03 0.  1.
    9900012    2    1    2    0    0  0.18240560547E+02 -0.41196694318E+01  0.99672046677E+00  0.72461463294E+02  0.69999860613E+02 0.  0.
        -12    1    1    2    0    0 -0.18240560547E+02  0.41196694318E+01 -0.99672046677E+00  0.18726536706E+02  0.00000000000E+00 0.  1.
         11    1    3    3    0    0 -0.75514288505E+01  0.55111720673E+01 -0.53656556646E+01  0.10779023899E+02  0.51100000000E-03 0. -1.
        -11    1    3    3    0    0  0.63824849702E+01 -0.49151891127E+01 -0.24012989479E+02  0.25328222646E+02  0.51100000000E-03 0.  1.
         12    1    3    3    0    0  0.19409504427E+02 -0.47156523863E+01  0.30375365610E+02  0.36354216750E+02  0.00000000000E+00 0. -1.
</event>
<event>
 7    1  0.3681059E-013  0.7246151E+02  0.7816164E-02  0.1226708E+00
        -11   -1    0    0    0    0  0.00000000000E+00  0.00000000000E+00  0.45593999997E+02  0.45594000000E+02  0.51100000000E-03 0.  1.
         11   -1    0    0    0    0 -0.00000000000E+00 -0.00000000000E+00 -0.45593999997E+02  0.45594000000E+02  0.51100000000E-03 0. -1.
    9900012    2    1    2    0    0  0.12141926447E+02 -0.37454554330E+01 -0.13755964260E+02  0.72461511622E+02  0.69999923569E+02 0.  0.
        -12    1    1    2    0    0 -0.12141926447E+02  0.37454554330E+01  0.13755964260E+02  0.18726488378E+02  0.00000000000E+00 0.  1.
         11    1    3    3    0    0 -0.33387675213E+01  0.29895741875E+02 -0.16493923682E+02  0.34306737961E+02  0.51100000000E-03 0. -1.
        -11    1    3    3    0    0  0.24301200404E+01 -0.20951647855E+01 -0.18581231623E+01  0.37078053935E+01  0.51100000000E-03 0.  1.
        -12    1    3    3    0    0  0.13050573928E+02 -0.31546032522E+02  0.45960825840E+01  0.34446968268E+02  0.00000000000E+00 0.  1.
</event>
<event>
 7    1  0.3681059E-013  0.7246155E+02  0.7816164E-02  0.1226708E+00
        -11   -1    0    0    0    0  0.00000000000E+00  0.00000000000E+00  0.45593999997E+02  0.45594000000E+02  0.51100000000E-03 0.  1.
         11   -1    0    0    0    0 -0.00000000000E+00 -0.00000000000E+00 -0.45593999997E+02  0.45594000000E+02  0.51100000000E-03 0. -1.
    9900012    2    1    2    0    0  0.16223172599E+02  0.24673791615E+01 -0.90222233157E+01  0.72461553389E+02  0.69999977978E+02 0.  0.
        -12    1    1    2    0    0 -0.16223172599E+02 -0.24673791615E+01  0.90222233157E+01  0.18726446611E+02  0.00000000000E+00 0.  1.
         11    1    3    3    0    0  0.12385533688E+02 -0.24210616748E+02 -0.12116303259E+02  0.29771802313E+02  0.51100000000E-03 0. -1.
        -11    1    3    3    0    0  0.85160875057E+01 -0.41335206036E+00  0.11154780036E+02  0.14040075650E+02  0.51100000000E-03 0.  1.
        -12    1    3    3    0    0 -0.46784485941E+01  0.27091347970E+02 -0.80607000924E+01  0.28649675427E+02  0.00000000000E+00 0.  1.
</event>
<event>
 7    1  0.3681059E-013  0.7246159E+02  0.7816164E-02  0.1226708E+00
        -11   -1    0    0    0    0  0.00000000000E+00  0.00000000000E+00  0.45593999997E+02  0.45594000000E+02  0.51100000000E-03 0. -1.
         11   -1    0    0    0    0 -0.00000000000E+00 -0.00000000000E+00 -0.45593999997E+02  0.45594000000E+02  0.51100000000E-03 0.  1.
    9900012    2    1    2    0    0  0.12965821565E+01 -0.10096336687E+02  0.15718187623E+02  0.72461586517E+02  0.70000021134E+02 0.  0.
        -12    1    1    2    0    0 -0.12965821565E+01  0.10096336687E+02 -0.15718187623E+02  0.18726413483E+02  0.00000000000E+00 0.  1.
         11    1    3    3    0    0 -0.15617507030E+02  0.95797396571E+01 -0.10226393948E+02  0.20982303762E+02  0.51100000000E-03 0. -1.
        -11    1    3    3    0    0 -0.42797578677E+01 -0.33910373649E+01 -0.71137033683E+01  0.89677331411E+01  0.51100000000E-03 0.  1.
        -12    1    3    3    0    0  0.21193847054E+02 -0.16285038979E+02  0.33058284939E+02  0.42511549614E+02  0.00000000000E+00 0.  1.
</event>
<event>
 7    1  0.3681059E-013  0.7246160E+02  0.7816164E-02  0.1226708E+00
        -11   -1    0    0    0    0  0.00000000000E+00  0.00000000000E+00  0.45593999997E+02  0.45594000000E+02  0.51100000000E-03 0. -1.
         11   -1    0    0    0    0 -0.00000000000E+00 -0.00000000000E+00 -0.45593999997E+02  0.45594000000E+02  0.51100000000E-03 0.  1.
    9900012    2    1    2    0    0  0.14863622746E+02 -0.10773544715E+02 -0.36988422534E+01  0.72461602031E+02  0.70000041343E+02 0.  0.
        -12    1    1    2    0    0 -0.14863622746E+02  0.10773544715E+02  0.36988422534E+01  0.18726397969E+02  0.00000000000E+00 0.  1.
         11    1    3    3    0    0 -0.16240596981E+01 -0.14378254726E+01  0.61146182868E+01  0.64879479843E+01  0.51100000000E-03 0. -1.
        -11    1    3    3    0    0  0.36082959547E+02  0.60505248519E+01  0.50947848502E+01  0.36939757087E+02  0.51100000000E-03 0.  1.
        -12    1    3    3    0    0 -0.19595277103E+02 -0.15386244094E+02 -0.14908245390E+02  0.29033896960E+02  0.00000000000E+00 0.  1.
</event>
<event>
 7    1  0.3681059E-013  0.7246126E+02  0.7816164E-02  0.1226709E+00
        -11   -1    0    0    0    0  0.00000000000E+00  0.00000000000E+00  0.45593999997E+02  0.45594000000E+02  0.51100000000E-03 0.  1.
         11   -1    0    0    0    0 -0.00000000000E+00 -0.00000000000E+00 -0.45593999997E+02  0.45594000000E+02  0.51100000000E-03 0. -1.
    9900012    2    1    2    0    0 -0.18566560382E+02 -0.99781557362E-01  0.24420351266E+01  0.72461263597E+02  0.69999600468E+02 0.  0.
        -12    1    1    2    0    0  0.18566560382E+02  0.99781557362E-01 -0.24420351266E+01  0.18726736403E+02  0.00000000000E+00 0.  1.
         11    1    3    3    0    0  0.57741370735E+01  0.38571392299E+01  0.48534958551E+01  0.84719893920E+01  0.51100000000E-03 0. -1.
        -11    1    3    3    0    0  0.40548947123E+01 -0.44487317661E+01  0.24280046572E+02  0.25015076399E+02  0.51100000000E-03 0.  1.
         12    1    3    3    0    0 -0.28395592167E+02  0.49181097887E+00 -0.26691507301E+02  0.38974197805E+02  0.00000000000E+00 0. -1.
</event>
<event>
 7    1  0.3681059E-013  0.7246158E+02  0.7816164E-02  0.1226708E+00
        -11   -1    0    0    0    0  0.00000000000E+00  0.00000000000E+00  0.45593999997E+02  0.45594000000E+02  0.51100000000E-03 0.  1.
         11   -1    0    0    0    0 -0.00000000000E+00 -0.00000000000E+00 -0.45593999997E+02  0.45594000000E+02  0.51100000000E-03 0. -1.
    9900012    2    1    2    0    0 -0.12483873135E+02  0.12090489549E+02 -0.69750749183E+01  0.72461582935E+02  0.70000016467E+02 0.  0.
        -12    1    1    2    0    0  0.12483873135E+02 -0.12090489549E+02  0.69750749183E+01  0.18726417065E+02  0.00000000000E+00 0.  1.
         11    1    3    3    0    0  0.64752405488E+01  0.34150124482E+00  0.29242750994E+00  0.64908302532E+01  0.51100000000E-03 0. -1.
        -11    1    3    3    0    0  0.17363400911E+02  0.97514117154E+01 -0.19223576197E+02  0.27678937908E+02  0.51100000000E-03 0.  1.
         12    1    3    3    0    0 -0.36322514595E+02  0.19975765889E+01  0.11956073769E+02  0.38291814774E+02  0.00000000000E+00 0. -1.
</event>
<event>
 7    1  0.3681059E-013  0.7246160E+02  0.7816164E-02  0.1226708E+00
        -11   -1    0    0    0    0  0.00000000000E+00  0.00000000000E+00  0.45593999997E+02  0.45594000000E+02  0.51100000000E-03 0. -1.
         11   -1    0    0    0    0 -0.00000000000E+00 -0.00000000000E+00 -0.45593999997E+02  0.45594000000E+02  0.51100000000E-03 0.  1.
    9900012    2    1    2    0    0 -0.15070532381E+02  0.13541483572E+01  0.11032835551E+02  0.72461598202E+02  0.70000036354E+02 0.  0.
        -12    1    1    2    0    0  0.15070532381E+02 -0.13541483572E+01 -0.11032835551E+02  0.18726401798E+02  0.00000000000E+00 0.  1.
         11    1    3    3    0    0 -0.13694202374E+02  0.44501822546E+01 -0.47650861000E+01  0.15167113983E+02  0.51100000000E-03 0. -1.
        -11    1    3    3    0    0 -0.54223087767E+01  0.14946512405E+02 -0.14683791826E+02  0.21642860444E+02  0.51100000000E-03 0.  1.
         12    1    3    3    0    0  0.40459787701E+01 -0.18042546302E+02  0.30481713477E+02  0.35651623775E+02  0.00000000000E+00 0. -1.
</event>
<event>
 7    1  0.3681059E-013  0.7246157E+02  0.7816164E-02  0.1226708E+00
        -11   -1    0    0    0    0  0.00000000000E+00  0.00000000000E+00  0.45593999997E+02  0.45594000000E+02  0.51100000000E-03 0.  1.
         11   -1    0    0    0    0 -0.00000000000E+00 -0.00000000000E+00 -0.45593999997E+02  0.45594000000E+02  0.51100000000E-03 0. -1.
    9900012    2    1    2    0    0  0.51501282693E+01  0.35750407090E+01 -0.17645801683E+02  0.72461573371E+02  0.70000004008E+02 0.  0.
        -12    1    1    2    0    0 -0.51501282693E+01 -0.35750407090E+01  0.17645801683E+02  0.18726426629E+02  0.00000000000E+00 0.  1.
         11    1    3    3    0    0 -0.11948442205E+02  0.92524353569E+01 -0.88501904254E+01  0.17512815365E+02  0.51100000000E-03 0. -1.
        -11    1    3    3    0    0  0.25477143731E+01  0.18935557836E+02  0.91573480407E+01  0.21187336371E+02  0.51100000000E-03 0.  1.
         12    1    3    3    0    0  0.14550856102E+02 -0.24612952484E+02 -0.17952959299E+02  0.33761421635E+02  0.00000000000E+00 0. -1.
</event>
<event>
 7    1  0.3681059E-013  0.7246162E+02  0.7816164E-02  0.1226708E+00
        -11   -1    0    0    0    0  0.00000000000E+00  0.00000000000E+00  0.45593999997E+02  0.45594000000E+02  0.51100000000E-03 0.  1.
         11   -1    0    0    0    0 -0.00000000000E+00 -0.00000000000E+00 -0.45593999997E+02  0.45594000000E+02  0.51100000000E-03 0. -1.
    9900012    2    1    2    0    0  0.11624549705E+02 -0.90775279348E+01 -0.11538876615E+02  0.72461619068E+02  0.70000063537E+02 0.  0.
        -12    1    1    2    0    0 -0.11624549705E+02  0.90775279348E+01  0.11538876615E+02  0.18726380932E+02  0.00000000000E+00 0.  1.
         11    1    3    3    0    0 -0.40917079024E+01 -0.69848331467E+01 -0.11554645225E+02  0.14108146377E+02  0.51100000000E-03 0. -1.
        -11    1    3    3    0    0  0.10980883850E+02  0.26461366789E+02  0.47016779342E+01  0.29032559620E+02  0.51100000000E-03 0.  1.
         12    1    3    3    0    0  0.47353737575E+01 -0.28554061577E+02 -0.46859093243E+01  0.29320913071E+02  0.00000000000E+00 0. -1.
</event>
<event>
 7    1  0.3681059E-013  0.7246161E+02  0.7816164E-02  0.1226708E+00
        -11   -1    0    0    0    0  0.00000000000E+00  0.00000000000E+00  0.45593999997E+02  0.45594000000E+02  0.51100000000E-03 0. -1.
         11   -1    0    0    0    0 -0.00000000000E+00 -0.00000000000E+00 -0.45593999997E+02  0.45594000000E+02  0.51100000000E-03 0.  1.
    9900012    2    1    2    0    0  0.18389020458E+02 -0.22226687359E+01 -0.27534325153E+01  0.72461608988E+02  0.70000050406E+02 0.  0.
        -12    1    1    2    0    0 -0.18389020458E+02  0.22226687359E+01  0.27534325153E+01  0.18726391012E+02  0.00000000000E+00 0.  1.
         11    1    3    3    0    0 -0.37603220196E+01  0.11048830643E+01 -0.32322402276E+01  0.50801737596E+01  0.51100000000E-03 0. -1.
        -11    1    3    3    0    0 -0.42872829127E+01  0.24507223874E+02 -0.11159566309E+02  0.27267576667E+02  0.51100000000E-03 0.  1.
         12    1    3    3    0    0  0.26436625390E+02 -0.27834775674E+02  0.11638374021E+02  0.40113858562E+02  0.00000000000E+00 0. -1.
</event>
<event>
 7    1  0.3681059E-013  0.7246157E+02  0.7816164E-02  0.1226708E+00
        -11   -1    0    0    0    0  0.00000000000E+00  0.00000000000E+00  0.45593999997E+02  0.45594000000E+02  0.51100000000E-03 0.  1.
         11   -1    0    0    0    0 -0.00000000000E+00 -0.00000000000E+00 -0.45593999997E+02  0.45594000000E+02  0.51100000000E-03 0. -1.
    9900012    2    1    2    0    0 -0.11687759106E+02  0.86147744064E+01 -0.11826292296E+02  0.72461568401E+02  0.69999997533E+02 0.  0.
        -12    1    1    2    0    0  0.11687759106E+02 -0.86147744064E+01  0.11826292296E+02  0.18726431599E+02  0.00000000000E+00 0.  1.
         11    1    3    3    0    0 -0.14116402260E+02 -0.71767908816E+01 -0.15943872281E+02  0.22471898089E+02  0.51100000000E-03 0. -1.
        -11    1    3    3    0    0 -0.11612966198E+02  0.12561608037E+02 -0.17200418468E+02  0.24259212191E+02  0.51100000000E-03 0.  1.
        -12    1    3    3    0    0  0.14041609352E+02  0.32299572508E+01  0.21317998454E+02  0.25730458121E+02  0.00000000000E+00 0.  1.
</event>
<event>
 7    1  0.3681059E-013  0.7246128E+02  0.7816164E-02  0.1226709E+00
        -11   -1    0    0    0    0  0.00000000000E+00  0.00000000000E+00  0.45593999997E+02  0.45594000000E+02  0.51100000000E-03 0.  1.
         11   -1    0    0    0    0 -0.00000000000E+00 -0.00000000000E+00 -0.45593999997E+02  0.45594000000E+02  0.51100000000E-03 0. -1.
    9900012    2    1    2    0    0  0.10748080152E+02 -0.12806474314E+02 -0.84358292007E+01  0.72461275097E+02  0.69999615449E+02 0.  0.
        -12    1    1    2    0    0 -0.10748080152E+02  0.12806474314E+02  0.84358292007E+01  0.18726724903E+02  0.00000000000E+00 0.  1.
         11    1    3    3    0    0  0.28013542682E+01 -0.27291622312E+02 -0.12646091985E+02  0.30209334268E+02  0.51100000000E-03 0. -1.
        -11    1    3    3    0    0  0.76987076236E+01  0.39866563941E+01 -0.16720494532E+02  0.18834502009E+02  0.51100000000E-03 0.  1.
        -12    1    3    3    0    0  0.24801826043E+00  0.10498491604E+02  0.20930757317E+02  0.23417438819E+02  0.00000000000E+00 0.  1.
</event>
<event>
 7    1  0.3681059E-013  0.7246158E+02  0.7816164E-02  0.1226708E+00
        -11   -1    0    0    0    0  0.00000000000E+00  0.00000000000E+00  0.45593999997E+02  0.45594000000E+02  0.51100000000E-03 0.  1.
         11   -1    0    0    0    0 -0.00000000000E+00 -0.00000000000E+00 -0.45593999997E+02  0.45594000000E+02  0.51100000000E-03 0. -1.
    9900012    2    1    2    0    0 -0.27579083609E+01  0.13980262231E+02 -0.12150107408E+02  0.72461577475E+02  0.70000009354E+02 0.  0.
        -12    1    1    2    0    0  0.27579083609E+01 -0.13980262231E+02  0.12150107408E+02  0.18726422525E+02  0.00000000000E+00 0.  1.
         11    1    3    3    0    0  0.68078718549E+01  0.33929942207E+01  0.58942180079E+01  0.96229587529E+01  0.51100000000E-03 0.  1.
        -11    1    3    3    0    0 -0.44299005608E+01  0.34646220576E+02 -0.15134053435E+02  0.38066050397E+02  0.51100000000E-03 0. -1.
         12    1    3    3    0    0 -0.51358796550E+01 -0.24058952566E+02 -0.29102719806E+01  0.24772568325E+02  0.00000000000E+00 0. -1.
</event>
<event>
 7    1  0.3681059E-013  0.7246157E+02  0.7816164E-02  0.1226708E+00
        -11   -1    0    0    0    0  0.00000000000E+00  0.00000000000E+00  0.45593999997E+02  0.45594000000E+02  0.51100000000E-03 0.  1.
         11   -1    0    0    0    0 -0.00000000000E+00 -0.00000000000E+00 -0.45593999997E+02  0.45594000000E+02  0.51100000000E-03 0. -1.
    9900012    2    1    2    0    0  0.17130189955E+02 -0.72335897026E+01 -0.22160389778E+01  0.72461573308E+02  0.70000003926E+02 0.  0.
        -12    1    1    2    0    0 -0.17130189955E+02  0.72335897026E+01  0.22160389778E+01  0.18726426692E+02  0.00000000000E+00 0.  1.
         11    1    3    3    0    0 -0.47908246501E+01  0.93861307032E+01  0.15864456965E+02  0.19045536103E+02  0.51100000000E-03 0. -1.
        -11    1    3    3    0    0  0.15038753844E+02 -0.33427236028E+01  0.12195095965E+02  0.19648365940E+02  0.51100000000E-03 0.  1.
         12    1    3    3    0    0  0.68822607614E+01 -0.13276996803E+02 -0.30275591908E+02  0.33767671265E+02  0.00000000000E+00 0. -1.
</event>
<event>
 7    1  0.3681059E-013  0.7246159E+02  0.7816164E-02  0.1226708E+00
        -11   -1    0    0    0    0  0.00000000000E+00  0.00000000000E+00  0.45593999997E+02  0.45594000000E+02  0.51100000000E-03 0.  1.
         11   -1    0    0    0    0 -0.00000000000E+00 -0.00000000000E+00 -0.45593999997E+02  0.45594000000E+02  0.51100000000E-03 0. -1.
    9900012    2    1    2    0    0  0.98496226830E+01 -0.46305868513E+01 -0.15238798594E+02  0.72461591263E+02  0.70000027316E+02 0.  0.
        -12    1    1    2    0    0 -0.98496226830E+01  0.46305868513E+01  0.15238798594E+02  0.18726408737E+02  0.00000000000E+00 0.  1.
         11    1    3    3    0    0  0.23743406251E+02  0.14046742303E+02  0.65610215459E+01  0.28356786025E+02  0.51100000000E-03 0. -1.
        -11    1    3    3    0    0  0.53864726819E+01  0.40685675783E+01  0.64855128839E+00  0.67814415228E+01  0.51100000000E-03 0.  1.
        -12    1    3    3    0    0 -0.19280256249E+02 -0.22745896732E+02 -0.22448371429E+02  0.37323363715E+02  0.00000000000E+00 0.  1.
</event>
<event>
 7    1  0.3681059E-013  0.7246111E+02  0.7816164E-02  0.1226709E+00
        -11   -1    0    0    0    0  0.00000000000E+00  0.00000000000E+00  0.45593999997E+02  0.45594000000E+02  0.51100000000E-03 0.  1.
         11   -1    0    0    0    0 -0.00000000000E+00 -0.00000000000E+00 -0.45593999997E+02  0.45594000000E+02  0.51100000000E-03 0. -1.
    9900012    2    1    2    0    0 -0.82914049597E+01  0.14404308857E+02 -0.86293141484E+01  0.72461105636E+02  0.69999394693E+02 0.  0.
        -12    1    1    2    0    0  0.82914049597E+01 -0.14404308857E+02  0.86293141484E+01  0.18726894364E+02  0.00000000000E+00 0.  1.
         11    1    3    3    0    0 -0.28476696751E+01  0.16167374245E+02 -0.12844410920E+02  0.20843994452E+02  0.51100000000E-03 0. -1.
        -11    1    3    3    0    0  0.52058530670E+01 -0.13220247817E+02 -0.18937929569E+02  0.23675325449E+02  0.51100000000E-03 0.  1.
        -12    1    3    3    0    0 -0.10649588352E+02  0.11457182429E+02  0.23153026341E+02  0.27941785734E+02  0.00000000000E+00 0.  1.
</event>
<event>
 7    1  0.3681059E-013  0.7246223E+02  0.7816164E-02  0.1226706E+00
        -11   -1    0    0    0    0  0.00000000000E+00  0.00000000000E+00  0.45593999997E+02  0.45594000000E+02  0.51100000000E-03 0.  1.
         11   -1    0    0    0    0 -0.00000000000E+00 -0.00000000000E+00 -0.45593999997E+02  0.45594000000E+02  0.51100000000E-03 0. -1.
    9900012    2    1    2    0    0  0.55369380664E+01 -0.17747177583E+02 -0.22438004394E+01  0.72462225364E+02  0.70000853345E+02 0.  0.
        -12    1    1    2    0    0 -0.55369380664E+01  0.17747177583E+02  0.22438004394E+01  0.18725774636E+02  0.00000000000E+00 0.  1.
         11    1    3    3    0    0 -0.11450551844E+02 -0.31542967330E+02  0.13291505964E+02  0.36093462796E+02  0.51100000000E-03 0. -1.
        -11    1    3    3    0    0 -0.66961498898E-01 -0.63035274568E+01 -0.47264232077E+01  0.78789605178E+01  0.51100000000E-03 0.  1.
        -12    1    3    3    0    0  0.17054451409E+02  0.20099317205E+02 -0.10808883195E+02  0.28489802051E+02  0.00000000000E+00 0.  1.
</event>
<event>
 7    1  0.3681059E-013  0.7246159E+02  0.7816164E-02  0.1226708E+00
        -11   -1    0    0    0    0  0.00000000000E+00  0.00000000000E+00  0.45593999997E+02  0.45594000000E+02  0.51100000000E-03 0.  1.
         11   -1    0    0    0    0 -0.00000000000E+00 -0.00000000000E+00 -0.45593999997E+02  0.45594000000E+02  0.51100000000E-03 0. -1.
    9900012    2    1    2    0    0 -0.17280011134E+02 -0.45040053560E+01  0.56385831671E+01  0.72461588994E+02  0.70000024359E+02 0.  0.
        -12    1    1    2    0    0  0.17280011134E+02  0.45040053560E+01 -0.56385831671E+01  0.18726411006E+02  0.00000000000E+00 0.  1.
         11    1    3    3    0    0  0.12924419447E+02 -0.11505069908E+02 -0.69996831509E+01  0.18665551589E+02  0.51100000000E-03 0. -1.
        -11    1    3    3    0    0  0.88999908939E+01  0.59951902580E+01  0.98718189229E+01  0.14580979159E+02  0.51100000000E-03 0.  1.
         12    1    3    3    0    0 -0.39104421475E+02  0.10058742935E+01  0.27664473951E+01  0.39215058246E+02  0.00000000000E+00 0. -1.
</event>
<event>
 7    1  0.3681059E-013  0.7246154E+02  0.7816164E-02  0.1226708E+00
        -11   -1    0    0    0    0  0.00000000000E+00  0.00000000000E+00  0.45593999997E+02  0.45594000000E+02  0.51100000000E-03 0.  1.
         11   -1    0    0    0    0 -0.00000000000E+00 -0.00000000000E+00 -0.45593999997E+02  0.45594000000E+02  0.51100000000E-03 0. -1.
    9900012    2    1    2    0    0 -0.33993494378E+01 -0.13285293309E+02 -0.12752481097E+02  0.72461538267E+02  0.69999958278E+02 0.  0.
        -12    1    1    2    0    0  0.33993494378E+01  0.13285293309E+02  0.12752481097E+02  0.18726461733E+02  0.00000000000E+00 0.  1.
         11    1    3    3    0    0  0.66169893374E+01  0.86751476083E+01  0.15528989163E+01  0.11020627442E+02  0.51100000000E-03 0. -1.
        -11    1    3    3    0    0  0.68508745384E+01 -0.97473333800E+01  0.18843269152E+02  0.22293805923E+02  0.51100000000E-03 0.  1.
         12    1    3    3    0    0 -0.16867213314E+02 -0.12213107538E+02 -0.33148649165E+02  0.39147104901E+02  0.00000000000E+00 0. -1.
</event>
<event>
 7    1  0.3681059E-013  0.7246159E+02  0.7816164E-02  0.1226708E+00
        -11   -1    0    0    0    0  0.00000000000E+00  0.00000000000E+00  0.45593999997E+02  0.45594000000E+02  0.51100000000E-03 0.  1.
         11   -1    0    0    0    0 -0.00000000000E+00 -0.00000000000E+00 -0.45593999997E+02  0.45594000000E+02  0.51100000000E-03 0. -1.
    9900012    2    1    2    0    0 -0.15754597142E+02  0.43449760441E+01 -0.91428878243E+01  0.72461586950E+02  0.70000021698E+02 0.  0.
        -12    1    1    2    0    0  0.15754597142E+02 -0.43449760441E+01  0.91428878243E+01  0.18726413050E+02  0.00000000000E+00 0.  1.
         11    1    3    3    0    0 -0.13397893893E+02 -0.19433599751E+02 -0.92821859597E+01  0.25363898291E+02  0.51100000000E-03 0. -1.
        -11    1    3    3    0    0 -0.13864955686E+02 -0.49588392926E+01 -0.53341847578E+01  0.15661437054E+02  0.51100000000E-03 0.  1.
         12    1    3    3    0    0  0.11508252436E+02  0.28737415088E+02  0.54734828932E+01  0.31436251606E+02  0.00000000000E+00 0. -1.
</event>
<event>
 7    1  0.3681059E-013  0.7246151E+02  0.7816164E-02  0.1226708E+00
        -11   -1    0    0    0    0  0.00000000000E+00  0.00000000000E+00  0.45593999997E+02  0.45594000000E+02  0.51100000000E-03 0.  1.
         11   -1    0    0    0    0 -0.00000000000E+00 -0.00000000000E+00 -0.45593999997E+02  0.45594000000E+02  0.51100000000E-03 0. -1.
    9900012    2    1    2    0    0  0.10614858036E+02 -0.75576207489E+01 -0.13449480675E+02  0.72461511463E+02  0.69999923361E+02 0.  0.
        -12    1    1    2    0    0 -0.10614858036E+02  0.75576207489E+01  0.13449480675E+02  0.18726488537E+02  0.00000000000E+00 0.  1.
         11    1    3    3    0    0  0.10691012168E+02  0.73023305565E+01  0.17802686384E+01  0.13068708024E+02  0.51100000000E-03 0. -1.
        -11    1    3    3    0    0  0.16215197305E+02  0.11996469267E+02  0.65067144240E+01  0.21193990454E+02  0.51100000000E-03 0.  1.
         12    1    3    3    0    0 -0.16291351437E+02 -0.26856420572E+02 -0.21736463738E+02  0.38198812985E+02  0.00000000000E+00 0. -1.
</event>
<event>
 7    1  0.3681059E-013  0.7246157E+02  0.7816164E-02  0.1226708E+00
        -11   -1    0    0    0    0  0.00000000000E+00  0.00000000000E+00  0.45593999997E+02  0.45594000000E+02  0.51100000000E-03 0.  1.
         11   -1    0    0    0    0 -0.00000000000E+00 -0.00000000000E+00 -0.45593999997E+02  0.45594000000E+02  0.51100000000E-03 0. -1.
    9900012    2    1    2    0    0  0.27505245155E+01 -0.81741032841E+01 -0.16622213249E+02  0.72461566199E+02  0.69999994665E+02 0.  0.
        -12    1    1    2    0    0 -0.27505245155E+01  0.81741032841E+01  0.16622213249E+02  0.18726433801E+02  0.00000000000E+00 0.  1.
         11    1    3    3    0    0  0.73610233100E-01 -0.15563501106E+01 -0.37190676601E+01  0.40322585054E+01  0.51100000000E-03 0. -1.
        -11    1    3    3    0    0  0.26820269614E+02  0.15231817483E+02  0.50364870203E+01  0.31252221165E+02  0.51100000000E-03 0.  1.
         12    1    3    3    0    0 -0.24143355332E+02 -0.21849570657E+02 -0.17939632609E+02  0.37177086528E+02  0.00000000000E+00 0. -1.
</event>
<event>
 7    1  0.3681059E-013  0.7246137E+02  0.7816164E-02  0.1226709E+00
        -11   -1    0    0    0    0  0.00000000000E+00  0.00000000000E+00  0.45593999997E+02  0.45594000000E+02  0.51100000000E-03 0.  1.
         11   -1    0    0    0    0 -0.00000000000E+00 -0.00000000000E+00 -0.45593999997E+02  0.45594000000E+02  0.51100000000E-03 0. -1.
    9900012    2    1    2    0    0 -0.11533702595E+02  0.99293623513E+01 -0.10911840728E+02  0.72461366551E+02  0.69999734586E+02 0.  0.
        -12    1    1    2    0    0  0.11533702595E+02 -0.99293623513E+01  0.10911840728E+02  0.18726633449E+02  0.00000000000E+00 0.  1.
         11    1    3    3    0    0 -0.38315795152E+02 -0.30210766722E+00 -0.55086988234E+01  0.38710944062E+02  0.51100000000E-03 0. -1.
        -11    1    3    3    0    0  0.15950794203E+02 -0.29839550663E+01 -0.27370520400E+01  0.16456709199E+02  0.51100000000E-03 0.  1.
        -12    1    3    3    0    0  0.10831298354E+02  0.13215425085E+02 -0.26660898643E+01  0.17293713290E+02  0.00000000000E+00 0.  1.
</event>
<event>
 7    1  0.3681059E-013  0.7246158E+02  0.7816164E-02  0.1226708E+00
        -11   -1    0    0    0    0  0.00000000000E+00  0.00000000000E+00  0.45593999997E+02  0.45594000000E+02  0.51100000000E-03 0. -1.
         11   -1    0    0    0    0 -0.00000000000E+00 -0.00000000000E+00 -0.45593999997E+02  0.45594000000E+02  0.51100000000E-03 0.  1.
    9900012    2    1    2    0    0 -0.25540965830E+01 -0.10603470718E+02  0.15222416199E+02  0.72461576007E+02  0.70000007442E+02 0.  0.
        -12    1    1    2    0    0  0.25540965830E+01  0.10603470718E+02 -0.15222416199E+02  0.18726423993E+02  0.00000000000E+00 0.  1.
         11    1    3    3    0    0  0.17262457098E+02  0.92287206242E+01 -0.11621306787E+02  0.22764368674E+02  0.51100000000E-03 0. -1.
        -11    1    3    3    0    0 -0.22299039036E+02 -0.31319651418E+01  0.68677948865E+01  0.23541940329E+02  0.51100000000E-03 0.  1.
         12    1    3    3    0    0  0.24824853554E+01 -0.16700226200E+02  0.19975928099E+02  0.26155267005E+02  0.00000000000E+00 0. -1.
</event>
<event>
 7    1  0.3681059E-013  0.7246159E+02  0.7816164E-02  0.1226708E+00
        -11   -1    0    0    0    0  0.00000000000E+00  0.00000000000E+00  0.45593999997E+02  0.45594000000E+02  0.51100000000E-03 0. -1.
         11   -1    0    0    0    0 -0.00000000000E+00 -0.00000000000E+00 -0.45593999997E+02  0.45594000000E+02  0.51100000000E-03 0.  1.
    9900012    2    1    2    0    0  0.55234285780E+01 -0.66461176150E+01  0.16613229824E+02  0.72461586895E+02  0.70000021625E+02 0.  0.
        -12    1    1    2    0    0 -0.55234285780E+01  0.66461176150E+01 -0.16613229824E+02  0.18726413105E+02  0.00000000000E+00 0.  1.
         11    1    3    3    0    0  0.19120770766E+02 -0.21389850831E+02  0.51345337826E+01  0.29146063725E+02  0.51100000000E-03 0. -1.
        -11    1    3    3    0    0  0.11702010522E+01 -0.97114134763E+01 -0.42938420960E+01  0.10682602792E+02  0.51100000000E-03 0.  1.
         12    1    3    3    0    0 -0.14767543241E+02  0.24455146692E+02  0.15772538137E+02  0.32632920378E+02  0.00000000000E+00 0. -1.
</event>
<event>
 7    1  0.3681059E-013  0.7246174E+02  0.7816164E-02  0.1226708E+00
        -11   -1    0    0    0    0  0.00000000000E+00  0.00000000000E+00  0.45593999997E+02  0.45594000000E+02  0.51100000000E-03 0. -1.
         11   -1    0    0    0    0 -0.00000000000E+00 -0.00000000000E+00 -0.45593999997E+02  0.45594000000E+02  0.51100000000E-03 0.  1.
    9900012    2    1    2    0    0 -0.16510250298E+02  0.86012356327E+01  0.20256559176E+01  0.72461737660E+02  0.70000218025E+02 0.  0.
        -12    1    1    2    0    0  0.16510250298E+02 -0.86012356327E+01 -0.20256559176E+01  0.18726262340E+02  0.00000000000E+00 0.  1.
         11    1    3    3    0    0 -0.82722459739E+01 -0.80296313783E+01  0.17475101081E+02  0.20935238035E+02  0.51100000000E-03 0. -1.
        -11    1    3    3    0    0  0.27770683824E+01 -0.79456212896E+01 -0.22216344034E+02  0.23757334635E+02  0.51100000000E-03 0.  1.
         12    1    3    3    0    0 -0.11015072707E+02  0.24576488301E+02  0.67668988711E+01  0.27769164990E+02  0.00000000000E+00 0. -1.
</event>
<event>
 7    1  0.5695139E-013  0.7246159E+02  0.7816164E-02  0.1226708E+00
        -11   -1    0    0    0    0  0.00000000000E+00  0.00000000000E+00  0.45593999997E+02  0.45594000000E+02  0.51100000000E-03 0. -1.
         11   -1    0    0    0    0 -0.00000000000E+00 -0.00000000000E+00 -0.45593999997E+02  0.45594000000E+02  0.51100000000E-03 0.  1.
    9900012    2    1    2    0    0 -0.15717026192E+02 -0.49040183371E+01  0.89221192327E+01  0.72461587643E+02  0.70000022600E+02 0.  0.
        -12    1    1    2    0    0  0.15717026192E+02  0.49040183371E+01 -0.89221192327E+01  0.18726412357E+02  0.00000000000E+00 0.  1.
         11    1    3    3    0    0 -0.11675549749E+02  0.25710725136E+02  0.13440113795E+02  0.31272935712E+02  0.51100000000E-03 0. -1.
        -11    1    3    3    0    0 -0.38535483824E+00  0.21634010007E+01  0.61452296620E+01  0.65263044750E+01  0.51100000000E-03 0.  1.
        -12    1    3    3    0    0 -0.36561216048E+01 -0.32778144474E+02 -0.10663224224E+02  0.34662347456E+02  0.00000000000E+00 0.  1.
</event>
<event>
 7    1  0.3681059E-013  0.7246158E+02  0.7816164E-02  0.1226708E+00
        -11   -1    0    0    0    0  0.00000000000E+00  0.00000000000E+00  0.45593999997E+02  0.45594000000E+02  0.51100000000E-03 0.  1.
         11   -1    0    0    0    0 -0.00000000000E+00 -0.00000000000E+00 -0.45593999997E+02  0.45594000000E+02  0.51100000000E-03 0. -1.
    9900012    2    1    2    0    0  0.50254054820E+01 -0.92648814306E+01 -0.15478571560E+02  0.72461577338E+02  0.70000009176E+02 0.  0.
        -12    1    1    2    0    0 -0.50254054820E+01  0.92648814306E+01  0.15478571560E+02  0.18726422662E+02  0.00000000000E+00 0.  1.
         11    1    3    3    0    0  0.46239766586E+01 -0.10411848066E+02 -0.84792225388E+01  0.14201582849E+02  0.51100000000E-03 0. -1.
        -11    1    3    3    0    0  0.11488696311E+02 -0.73244428893E+01 -0.29095143777E+02  0.32127324791E+02  0.51100000000E-03 0.  1.
        -12    1    3    3    0    0 -0.11087267487E+02  0.84714095245E+01  0.22095794756E+02  0.26132669698E+02  0.00000000000E+00 0.  1.
</event>
<event>
 7    1  0.3681059E-013  0.7246148E+02  0.7816164E-02  0.1226708E+00
        -11   -1    0    0    0    0  0.00000000000E+00  0.00000000000E+00  0.45593999997E+02  0.45594000000E+02  0.51100000000E-03 0. -1.
         11   -1    0    0    0    0 -0.00000000000E+00 -0.00000000000E+00 -0.45593999997E+02  0.45594000000E+02  0.51100000000E-03 0.  1.
    9900012    2    1    2    0    0  0.12002654298E+02 -0.63336840575E+01  0.12903608348E+02  0.72461484778E+02  0.69999888599E+02 0.  0.
        -12    1    1    2    0    0 -0.12002654298E+02  0.63336840575E+01 -0.12903608348E+02  0.18726515222E+02  0.00000000000E+00 0.  1.
         11    1    3    3    0    0  0.18141352130E+01  0.10122072632E+02  0.14195444320E+02  0.17528778640E+02  0.51100000000E-03 0. -1.
        -11    1    3    3    0    0  0.73808005123E+01  0.10059780161E+02  0.18085308027E+02  0.21971658103E+02  0.51100000000E-03 0.  1.
         12    1    3    3    0    0  0.28077185728E+01 -0.26515536850E+02 -0.19377143999E+02  0.32961048035E+02  0.00000000000E+00 0. -1.
</event>
<event>
 7    1  0.3681059E-013  0.7246164E+02  0.7816164E-02  0.1226708E+00
        -11   -1    0    0    0    0  0.00000000000E+00  0.00000000000E+00  0.45593999997E+02  0.45594000000E+02  0.51100000000E-03 0. -1.
         11   -1    0    0    0    0 -0.00000000000E+00 -0.00000000000E+00 -0.45593999997E+02  0.45594000000E+02  0.51100000000E-03 0.  1.
    9900012    2    1    2    0    0 -0.16319342129E+02  0.47450726690E+01  0.78638398567E+01  0.72461638382E+02  0.70000088697E+02 0.  0.
        -12    1    1    2    0    0  0.16319342129E+02 -0.47450726690E+01 -0.78638398567E+01  0.18726361618E+02  0.00000000000E+00 0.  1.
         11    1    3    3    0    0 -0.26695552814E+02 -0.70487963403E+01  0.17036714505E+02  0.32443608173E+02  0.51100000000E-03 0. -1.
        -11    1    3    3    0    0  0.10165568478E+02 -0.10863990738E+02  0.15334122853E+01  0.14957153162E+02  0.51100000000E-03 0.  1.
        -12    1    3    3    0    0  0.21064220732E+00  0.22657859747E+02 -0.10706286934E+02  0.25060877047E+02  0.00000000000E+00 0.  1.
</event>
<event>
 7    1  0.3681059E-013  0.7246166E+02  0.7816164E-02  0.1226708E+00
        -11   -1    0    0    0    0  0.00000000000E+00  0.00000000000E+00  0.45593999997E+02  0.45594000000E+02  0.51100000000E-03 0.  1.
         11   -1    0    0    0    0 -0.00000000000E+00 -0.00000000000E+00 -0.45593999997E+02  0.45594000000E+02  0.51100000000E-03 0. -1.
    9900012    2    1    2    0    0  0.15525456970E+02  0.18923150079E+01 -0.10298301509E+02  0.72461663354E+02  0.70000121227E+02 0.  0.
        -12    1    1    2    0    0 -0.15525456970E+02 -0.18923150079E+01  0.10298301509E+02  0.18726336646E+02  0.00000000000E+00 0.  1.
         11    1    3    3    0    0  0.41491873989E+01  0.31933801910E+01 -0.68535426564E+01  0.86246437793E+01  0.51100000000E-03 0. -1.
        -11    1    3    3    0    0  0.31192093719E+00  0.26350405647E+02  0.13460186652E+02  0.29590839755E+02  0.51100000000E-03 0.  1.
         12    1    3    3    0    0  0.11064348634E+02 -0.27651470830E+02 -0.16904945505E+02  0.34246179820E+02  0.00000000000E+00 0. -1.
</event>
<event>
 7    1  0.3681059E-013  0.7246162E+02  0.7816164E-02  0.1226708E+00
        -11   -1    0    0    0    0  0.00000000000E+00  0.00000000000E+00  0.45593999997E+02  0.45594000000E+02  0.51100000000E-03 0.  1.
         11   -1    0    0    0    0 -0.00000000000E+00 -0.00000000000E+00 -0.45593999997E+02  0.45594000000E+02  0.51100000000E-03 0. -1.
    9900012    2    1    2    0    0 -0.83120438265E+01  0.10427072015E+02 -0.13147746420E+02  0.72461624502E+02  0.70000070616E+02 0.  0.
        -12    1    1    2    0    0  0.83120438265E+01 -0.10427072015E+02  0.13147746420E+02  0.18726375498E+02  0.00000000000E+00 0.  1.
         11    1    3    3    0    0 -0.48269030802E+01 -0.55821849708E+01  0.13589961142E+02  0.15464372813E+02  0.51100000000E-03 0. -1.
        -11    1    3    3    0    0 -0.63640401941E+01  0.13532561411E+02  0.11316814481E+02  0.18753706732E+02  0.51100000000E-03 0.  1.
         12    1    3    3    0    0  0.28788994479E+01  0.24766955743E+01 -0.38054522043E+02  0.38243544957E+02  0.00000000000E+00 0. -1.
</event>
<event>
 7    1  0.3681059E-013  0.7246161E+02  0.7816164E-02  0.1226708E+00
        -11   -1    0    0    0    0  0.00000000000E+00  0.00000000000E+00  0.45593999997E+02  0.45594000000E+02  0.51100000000E-03 0. -1.
         11   -1    0    0    0    0 -0.00000000000E+00 -0.00000000000E+00 -0.45593999997E+02  0.45594000000E+02  0.51100000000E-03 0.  1.
    9900012    2    1    2    0    0 -0.80503083459E+01 -0.29764455492E-02  0.16907701628E+02  0.72461605588E+02  0.70000045977E+02 0.  0.
        -12    1    1    2    0    0  0.80503083459E+01  0.29764455492E-02 -0.16907701628E+02  0.18726394412E+02  0.00000000000E+00 0.  1.
         11    1    3    3    0    0 -0.17612305813E+01 -0.12460179257E+02  0.65824817130E+00  0.12601241653E+02  0.51100000000E-03 0. -1.
        -11    1    3    3    0    0  0.10940736885E+02  0.16895448132E+02 -0.14172576638E+02  0.24617429191E+02  0.51100000000E-03 0.  1.
         12    1    3    3    0    0 -0.17229814650E+02 -0.44382453204E+01  0.30422030094E+02  0.35242934745E+02  0.00000000000E+00 0. -1.
</event>
<event>
 7    1  0.3681059E-013  0.7246160E+02  0.7816164E-02  0.1226708E+00
        -11   -1    0    0    0    0  0.00000000000E+00  0.00000000000E+00  0.45593999997E+02  0.45594000000E+02  0.51100000000E-03 0.  1.
         11   -1    0    0    0    0 -0.00000000000E+00 -0.00000000000E+00 -0.45593999997E+02  0.45594000000E+02  0.51100000000E-03 0. -1.
    9900012    2    1    2    0    0 -0.78003999297E+01  0.85423583995E+01 -0.14726171110E+02  0.72461595069E+02  0.70000032273E+02 0.  0.
        -12    1    1    2    0    0  0.78003999297E+01 -0.85423583995E+01  0.14726171110E+02  0.18726404931E+02  0.00000000000E+00 0.  1.
         11    1    3    3    0    0  0.84946348343E+01 -0.12378550206E+02 -0.16140383858E+02  0.22043124041E+02  0.51100000000E-03 0. -1.
        -11    1    3    3    0    0 -0.51870531837E+01 -0.62457058138E+01 -0.14805222341E+02  0.16885170140E+02  0.51100000000E-03 0.  1.
        -12    1    3    3    0    0 -0.11107981580E+02  0.27166614419E+02  0.16219435089E+02  0.33533300887E+02  0.00000000000E+00 0.  1.
</event>
<event>
 7    1  0.3681059E-013  0.7246162E+02  0.7816164E-02  0.1226708E+00
        -11   -1    0    0    0    0  0.00000000000E+00  0.00000000000E+00  0.45593999997E+02  0.45594000000E+02  0.51100000000E-03 0. -1.
         11   -1    0    0    0    0 -0.00000000000E+00 -0.00000000000E+00 -0.45593999997E+02  0.45594000000E+02  0.51100000000E-03 0.  1.
    9900012    2    1    2    0    0  0.87938860297E+01 -0.14301819909E+02  0.82947450518E+01  0.72461620753E+02  0.70000065732E+02 0.  0.
        -12    1    1    2    0    0 -0.87938860297E+01  0.14301819909E+02 -0.82947450518E+01  0.18726379247E+02  0.00000000000E+00 0.  1.
         11    1    3    3    0    0 -0.11702487154E+02  0.21566884549E+00  0.19680016562E+02  0.22897549449E+02  0.51100000000E-03 0. -1.
        -11    1    3    3    0    0 -0.74502827579E+01 -0.18470854146E+02 -0.62615441062E+01  0.20877885452E+02  0.51100000000E-03 0.  1.
         12    1    3    3    0    0  0.27946655942E+02  0.39533653920E+01 -0.51237274038E+01  0.28686185853E+02  0.00000000000E+00 0. -1.
</event>
<event>
 7    1  0.3681059E-013  0.7246152E+02  0.7816164E-02  0.1226708E+00
        -11   -1    0    0    0    0  0.00000000000E+00  0.00000000000E+00  0.45593999997E+02  0.45594000000E+02  0.51100000000E-03 0.  1.
         11   -1    0    0    0    0 -0.00000000000E+00 -0.00000000000E+00 -0.45593999997E+02  0.45594000000E+02  0.51100000000E-03 0. -1.
    9900012    2    1    2    0    0  0.72406666061E+01  0.16720435033E+02 -0.43221159314E+01  0.72461524445E+02  0.69999940273E+02 0.  0.
        -12    1    1    2    0    0 -0.72406666061E+01 -0.16720435033E+02  0.43221159314E+01  0.18726475555E+02  0.00000000000E+00 0.  1.
         11    1    3    3    0    0  0.24312451022E+02  0.13948442383E+02 -0.37438605185E+01  0.28278451362E+02  0.51100000000E-03 0. -1.
        -11    1    3    3    0    0  0.36755829630E+00 -0.78647651297E+01 -0.16501028833E+02  0.18283150233E+02  0.51100000000E-03 0.  1.
        -12    1    3    3    0    0 -0.17439342712E+02  0.10636757780E+02  0.15922773420E+02  0.25899922850E+02  0.00000000000E+00 0.  1.
</event>
<event>
 7    1  0.3681059E-013  0.7246158E+02  0.7816164E-02  0.1226708E+00
        -11   -1    0    0    0    0  0.00000000000E+00  0.00000000000E+00  0.45593999997E+02  0.45594000000E+02  0.51100000000E-03 0.  1.
         11   -1    0    0    0    0 -0.00000000000E+00 -0.00000000000E+00 -0.45593999997E+02  0.45594000000E+02  0.51100000000E-03 0. -1.
    9900012    2    1    2    0    0  0.13254840418E+02 -0.20320032990E+01 -0.13071297654E+02  0.72461584052E+02  0.70000017922E+02 0.  0.
        -12    1    1    2    0    0 -0.13254840418E+02  0.20320032990E+01  0.13071297654E+02  0.18726415948E+02  0.00000000000E+00 0.  1.
         11    1    3    3    0    0  0.18136677107E+02 -0.22686227054E+02 -0.50869462728E+01  0.29486962832E+02  0.51100000000E-03 0. -1.
        -11    1    3    3    0    0 -0.13908167480E+01 -0.10228719380E+02  0.16103273289E+01  0.10447689972E+02  0.51100000000E-03 0.  1.
         12    1    3    3    0    0 -0.34910199412E+01  0.30882943134E+02 -0.95946787098E+01  0.32526931248E+02  0.00000000000E+00 0. -1.
</event>
<event>
 7    1  0.3681059E-013  0.7246144E+02  0.7816164E-02  0.1226708E+00
        -11   -1    0    0    0    0  0.00000000000E+00  0.00000000000E+00  0.45593999997E+02  0.45594000000E+02  0.51100000000E-03 0.  1.
         11   -1    0    0    0    0 -0.00000000000E+00 -0.00000000000E+00 -0.45593999997E+02  0.45594000000E+02  0.51100000000E-03 0. -1.
    9900012    2    1    2    0    0  0.18677434211E+02 -0.13045699825E+01  0.36828855689E+00  0.72461438970E+02  0.69999828925E+02 0.  0.
        -12    1    1    2    0    0 -0.18677434211E+02  0.13045699825E+01 -0.36828855689E+00  0.18726561030E+02  0.00000000000E+00 0.  1.
         11    1    3    3    0    0 -0.88590460906E+01  0.43888209972E+01  0.37002074470E+01  0.10556324303E+02  0.51100000000E-03 0. -1.
        -11    1    3    3    0    0  0.10650198779E+02 -0.94755987667E+01  0.24958054065E+02  0.28742271465E+02  0.51100000000E-03 0.  1.
         12    1    3    3    0    0  0.16886281523E+02  0.37822077870E+01 -0.28289972955E+02  0.33162843202E+02  0.00000000000E+00 0. -1.
</event>
<event>
 7    1  0.3681059E-013  0.7246157E+02  0.7816164E-02  0.1226708E+00
        -11   -1    0    0    0    0  0.00000000000E+00  0.00000000000E+00  0.45593999997E+02  0.45594000000E+02  0.51100000000E-03 0.  1.
         11   -1    0    0    0    0 -0.00000000000E+00 -0.00000000000E+00 -0.45593999997E+02  0.45594000000E+02  0.51100000000E-03 0. -1.
    9900012    2    1    2    0    0 -0.79658672659E+01  0.13066212113E+02  0.10793430535E+02  0.72461572605E+02  0.70000003010E+02 0.  0.
        -12    1    1    2    0    0  0.79658672659E+01 -0.13066212113E+02 -0.10793430535E+02  0.18726427395E+02  0.00000000000E+00 0.  1.
         11    1    3    3    0    0 -0.46160443915E+01 -0.11349516507E+02 -0.53027339510E+01  0.13350594683E+02  0.51100000000E-03 0. -1.
        -11    1    3    3    0    0  0.88933877589E+01 -0.21072856636E+01  0.26554129437E+02  0.28082998222E+02  0.51100000000E-03 0.  1.
         12    1    3    3    0    0 -0.12243210633E+02  0.26523014284E+02 -0.10457964951E+02  0.31027979700E+02  0.00000000000E+00 0. -1.
</event>
<event>
 7    1  0.3681059E-013  0.7246156E+02  0.7816164E-02  0.1226708E+00
        -11   -1    0    0    0    0  0.00000000000E+00  0.00000000000E+00  0.45593999997E+02  0.45594000000E+02  0.51100000000E-03 0.  1.
         11   -1    0    0    0    0 -0.00000000000E+00 -0.00000000000E+00 -0.45593999997E+02  0.45594000000E+02  0.51100000000E-03 0. -1.
    9900012    2    1    2    0    0  0.38738675716E+01  0.91780348512E+01 -0.15856743601E+02  0.72461561702E+02  0.69999988807E+02 0.  0.
        -12    1    1    2    0    0 -0.38738675716E+01 -0.91780348512E+01  0.15856743601E+02  0.18726438298E+02  0.00000000000E+00 0.  1.
         11    1    3    3    0    0 -0.73581913374E+01  0.22573755082E+01 -0.13042230965E+02  0.15143926596E+02  0.51100000000E-03 0.  1.
        -11    1    3    3    0    0 -0.14420967542E+02  0.17590953713E+02 -0.14716382376E+02  0.27092025910E+02  0.51100000000E-03 0. -1.
        -12    1    3    3    0    0  0.25653026451E+02 -0.10670294370E+02  0.11901869740E+02  0.30225609197E+02  0.00000000000E+00 0.  1.
</event>
<event>
 7    1  0.3681059E-013  0.7246155E+02  0.7816164E-02  0.1226708E+00
        -11   -1    0    0    0    0  0.00000000000E+00  0.00000000000E+00  0.45593999997E+02  0.45594000000E+02  0.51100000000E-03 0.  1.
         11   -1    0    0    0    0 -0.00000000000E+00 -0.00000000000E+00 -0.45593999997E+02  0.45594000000E+02  0.51100000000E-03 0. -1.
    9900012    2    1    2    0    0 -0.62173641692E+01  0.13020122811E+02  0.11937360048E+02  0.72461553991E+02  0.69999978762E+02 0.  0.
        -12    1    1    2    0    0  0.62173641692E+01 -0.13020122811E+02 -0.11937360048E+02  0.18726446009E+02  0.00000000000E+00 0.  1.
         11    1    3    3    0    0  0.16454448975E+02  0.47700220822E+01 -0.16276603368E+02  0.23631119720E+02  0.51100000000E-03 0. -1.
        -11    1    3    3    0    0 -0.60831581836E+01  0.14434017519E+02  0.16828051023E+00  0.15664418081E+02  0.51100000000E-03 0.  1.
        -12    1    3    3    0    0 -0.16588654961E+02 -0.61839167907E+01  0.28045682906E+02  0.33166016190E+02  0.00000000000E+00 0.  1.
</event>
<event>
 7    1  0.3681059E-013  0.7246160E+02  0.7816164E-02  0.1226708E+00
        -11   -1    0    0    0    0  0.00000000000E+00  0.00000000000E+00  0.45593999997E+02  0.45594000000E+02  0.51100000000E-03 0.  1.
         11   -1    0    0    0    0 -0.00000000000E+00 -0.00000000000E+00 -0.45593999997E+02  0.45594000000E+02  0.51100000000E-03 0. -1.
    9900012    2    1    2    0    0 -0.10753223092E+02  0.71951612170E+01 -0.13537936810E+02  0.72461604595E+02  0.70000044683E+02 0.  0.
        -12    1    1    2    0    0  0.10753223092E+02 -0.71951612170E+01  0.13537936810E+02  0.18726395405E+02  0.00000000000E+00 0.  1.
         11    1    3    3    0    0 -0.97603868624E+01 -0.77951939760E+01 -0.12975594504E+02  0.18011003687E+02  0.51100000000E-03 0. -1.
        -11    1    3    3    0    0  0.21492968955E+02 -0.69981485792E+01 -0.34619782683E+01  0.22867161866E+02  0.51100000000E-03 0.  1.
        -12    1    3    3    0    0 -0.22485805185E+02  0.21988503772E+02  0.28996359628E+01  0.31583439041E+02  0.00000000000E+00 0.  1.
</event>
<event>
 7    1  0.3681059E-013  0.7246158E+02  0.7816164E-02  0.1226708E+00
        -11   -1    0    0    0    0  0.00000000000E+00  0.00000000000E+00  0.45593999997E+02  0.45594000000E+02  0.51100000000E-03 0.  1.
         11   -1    0    0    0    0 -0.00000000000E+00 -0.00000000000E+00 -0.45593999997E+02  0.45594000000E+02  0.51100000000E-03 0. -1.
    9900012    2    1    2    0    0 -0.37284249537E+01 -0.18320298781E+02  0.10696765436E+01  0.72461582618E+02  0.70000016054E+02 0.  0.
        -12    1    1    2    0    0  0.37284249537E+01  0.18320298781E+02 -0.10696765436E+01  0.18726417382E+02  0.00000000000E+00 0.  1.
         11    1    3    3    0    0 -0.25623713899E+02 -0.46076074798E+01 -0.95397908442E+01  0.27727465991E+02  0.51100000000E-03 0. -1.
        -11    1    3    3    0    0  0.18268192574E+01 -0.23698519163E+01 -0.12046377154E+02  0.12412440111E+02  0.51100000000E-03 0.  1.
        -12    1    3    3    0    0  0.20068469688E+02 -0.11342839384E+02  0.22655844542E+02  0.32321676516E+02  0.00000000000E+00 0.  1.
</event>
<event>
 7    1  0.3681059E-013  0.7246158E+02  0.7816164E-02  0.1226708E+00
        -11   -1    0    0    0    0  0.00000000000E+00  0.00000000000E+00  0.45593999997E+02  0.45594000000E+02  0.51100000000E-03 0.  1.
         11   -1    0    0    0    0 -0.00000000000E+00 -0.00000000000E+00 -0.45593999997E+02  0.45594000000E+02  0.51100000000E-03 0. -1.
    9900012    2    1    2    0    0  0.12557873495E+01 -0.11319384886E+02 -0.14865167246E+02  0.72461583543E+02  0.70000017259E+02 0.  0.
        -12    1    1    2    0    0 -0.12557873495E+01  0.11319384886E+02  0.14865167246E+02  0.18726416457E+02  0.00000000000E+00 0.  1.
         11    1    3    3    0    0  0.10469322840E+02  0.11988664074E+01 -0.13988772695E+02  0.17513702155E+02  0.51100000000E-03 0. -1.
        -11    1    3    3    0    0  0.20971143451E+02 -0.78549307552E+01 -0.76471334133E+01  0.23663631262E+02  0.51100000000E-03 0.  1.
        -12    1    3    3    0    0 -0.30184678941E+02 -0.46633205382E+01  0.67707388626E+01  0.31284250126E+02  0.00000000000E+00 0.  1.
</event>
<event>
 7    1  0.3681059E-013  0.7246153E+02  0.7816164E-02  0.1226708E+00
        -11   -1    0    0    0    0  0.00000000000E+00  0.00000000000E+00  0.45593999997E+02  0.45594000000E+02  0.51100000000E-03 0. -1.
         11   -1    0    0    0    0 -0.00000000000E+00 -0.00000000000E+00 -0.45593999997E+02  0.45594000000E+02  0.51100000000E-03 0.  1.
    9900012    2    1    2    0    0  0.14279164265E+02  0.96466569568E+01  0.73299376604E+01  0.72461534539E+02  0.69999953422E+02 0.  0.
        -12    1    1    2    0    0 -0.14279164265E+02 -0.96466569568E+01 -0.73299376604E+01  0.18726465461E+02  0.00000000000E+00 0.  1.
         11    1    3    3    0    0  0.15517539452E+01  0.69811282359E+01  0.18322767744E+02  0.19668958025E+02  0.51100000000E-03 0. -1.
        -11    1    3    3    0    0  0.14509634137E+02 -0.11926483002E+01  0.18191830448E+02  0.23300098456E+02  0.51100000000E-03 0.  1.
        -12    1    3    3    0    0 -0.17822238175E+01  0.38581770211E+01 -0.29184660531E+02  0.29492478058E+02  0.00000000000E+00 0.  1.
</event>
<event>
 7    1  0.3681059E-013  0.7246146E+02  0.7816164E-02  0.1226708E+00
        -11   -1    0    0    0    0  0.00000000000E+00  0.00000000000E+00  0.45593999997E+02  0.45594000000E+02  0.51100000000E-03 0. -1.
         11   -1    0    0    0    0 -0.00000000000E+00 -0.00000000000E+00 -0.45593999997E+02  0.45594000000E+02  0.51100000000E-03 0.  1.
    9900012    2    1    2    0    0 -0.15449432266E+02  0.97694454670E+01 -0.40689510391E+01  0.72461457750E+02  0.69999853390E+02 0.  0.
        -12    1    1    2    0    0  0.15449432266E+02 -0.97694454670E+01  0.40689510391E+01  0.18726542250E+02  0.00000000000E+00 0.  1.
         11    1    3    3    0    0 -0.25368588737E+02 -0.53545038716E+01  0.22483734421E+02  0.34318425372E+02  0.51100000000E-03 0. -1.
        -11    1    3    3    0    0  0.34279397607E+01  0.79900915248E+01  0.11863864278E+01  0.87749556463E+01  0.51100000000E-03 0.  1.
        -12    1    3    3    0    0  0.64912167101E+01  0.71338578138E+01 -0.27739071888E+02  0.29368076731E+02  0.00000000000E+00 0.  1.
</event>
<event>
 7    1  0.3681059E-013  0.7246157E+02  0.7816164E-02  0.1226708E+00
        -11   -1    0    0    0    0  0.00000000000E+00  0.00000000000E+00  0.45593999997E+02  0.45594000000E+02  0.51100000000E-03 0. -1.
         11   -1    0    0    0    0 -0.00000000000E+00 -0.00000000000E+00 -0.45593999997E+02  0.45594000000E+02  0.51100000000E-03 0.  1.
    9900012    2    1    2    0    0 -0.11783509714E+02 -0.92577746485E+01 -0.11230396020E+02  0.72461567147E+02  0.69999995900E+02 0.  0.
        -12    1    1    2    0    0  0.11783509714E+02  0.92577746485E+01  0.11230396020E+02  0.18726432853E+02  0.00000000000E+00 0.  1.
         11    1    3    3    0    0 -0.17970601666E+02  0.99240022525E+01 -0.22352316973E+02  0.30348878386E+02  0.51100000000E-03 0. -1.
        -11    1    3    3    0    0  0.36378859049E+01 -0.16082530225E+01 -0.12181610492E+02  0.12814535734E+02  0.51100000000E-03 0.  1.
         12    1    3    3    0    0  0.25492060463E+01 -0.17573523878E+02  0.23303531445E+02  0.29298153027E+02  0.00000000000E+00 0. -1.
</event>
<event>
 7    1  0.3681059E-013  0.7246153E+02  0.7816164E-02  0.1226708E+00
        -11   -1    0    0    0    0  0.00000000000E+00  0.00000000000E+00  0.45593999997E+02  0.45594000000E+02  0.51100000000E-03 0. -1.
         11   -1    0    0    0    0 -0.00000000000E+00 -0.00000000000E+00 -0.45593999997E+02  0.45594000000E+02  0.51100000000E-03 0.  1.
    9900012    2    1    2    0    0  0.44153338580E+01 -0.17057957624E+02 -0.63412633618E+01  0.72461529099E+02  0.69999946335E+02 0.  0.
        -12    1    1    2    0    0 -0.44153338580E+01  0.17057957624E+02  0.63412633618E+01  0.18726470901E+02  0.00000000000E+00 0.  1.
         11    1    3    3    0    0 -0.46586149347E+01 -0.30592380873E+02 -0.81060314366E-01  0.30945161684E+02  0.51100000000E-03 0. -1.
        -11    1    3    3    0    0 -0.41536452364E+01 -0.87389558099E+01  0.74456243674E+01  0.12208990125E+02  0.51100000000E-03 0.  1.
        -12    1    3    3    0    0  0.13227594029E+02  0.22273379058E+02 -0.13705827415E+02  0.29307377290E+02  0.00000000000E+00 0.  1.
</event>
<event>
 7    1  0.3681059E-013  0.7246135E+02  0.7816164E-02  0.1226709E+00
        -11   -1    0    0    0    0  0.00000000000E+00  0.00000000000E+00  0.45593999997E+02  0.45594000000E+02  0.51100000000E-03 0.  1.
         11   -1    0    0    0    0 -0.00000000000E+00 -0.00000000000E+00 -0.45593999997E+02  0.45594000000E+02  0.51100000000E-03 0. -1.
    9900012    2    1    2    0    0  0.73195722528E+01  0.16188064706E+02 -0.59209626916E+01  0.72461351178E+02  0.69999714560E+02 0.  0.
        -12    1    1    2    0    0 -0.73195722528E+01 -0.16188064706E+02  0.59209626916E+01  0.18726648822E+02  0.00000000000E+00 0.  1.
         11    1    3    3    0    0 -0.13896419124E+01 -0.26647653465E+01 -0.33172669738E+02  0.33308528889E+02  0.51100000000E-03 0. -1.
        -11    1    3    3    0    0 -0.33426919322E+01  0.18012029265E+01 -0.10893236513E+01  0.39502591832E+01  0.51100000000E-03 0.  1.
        -12    1    3    3    0    0  0.12051906097E+02  0.17051627126E+02  0.28341030697E+02  0.35202563106E+02  0.00000000000E+00 0.  1.
</event>
<event>
 7    1  0.3681059E-013  0.7246157E+02  0.7816164E-02  0.1226708E+00
        -11   -1    0    0    0    0  0.00000000000E+00  0.00000000000E+00  0.45593999997E+02  0.45594000000E+02  0.51100000000E-03 0.  1.
         11   -1    0    0    0    0 -0.00000000000E+00 -0.00000000000E+00 -0.45593999997E+02  0.45594000000E+02  0.51100000000E-03 0. -1.
    9900012    2    1    2    0    0 -0.11253816762E+02 -0.79346884481E+01 -0.12691401485E+02  0.72461565632E+02  0.69999993926E+02 0.  0.
        -12    1    1    2    0    0  0.11253816762E+02  0.79346884481E+01  0.12691401485E+02  0.18726434368E+02  0.00000000000E+00 0.  1.
         11    1    3    3    0    0 -0.25883210576E+02 -0.13838823181E+02  0.87438381935E+01  0.30625288952E+02  0.51100000000E-03 0. -1.
        -11    1    3    3    0    0 -0.52972107571E+01 -0.82573671385E+01 -0.12313241523E+02  0.15743585072E+02  0.51100000000E-03 0.  1.
        -12    1    3    3    0    0  0.19926604571E+02  0.14161501872E+02 -0.91219981554E+01  0.26092691608E+02  0.00000000000E+00 0.  1.
</event>
<event>
 7    1  0.3681059E-013  0.7246160E+02  0.7816164E-02  0.1226708E+00
        -11   -1    0    0    0    0  0.00000000000E+00  0.00000000000E+00  0.45593999997E+02  0.45594000000E+02  0.51100000000E-03 0.  1.
         11   -1    0    0    0    0 -0.00000000000E+00 -0.00000000000E+00 -0.45593999997E+02  0.45594000000E+02  0.51100000000E-03 0. -1.
    9900012    2    1    2    0    0  0.14909740269E+02  0.11292848385E+02 -0.92151834773E+00  0.72461602172E+02  0.70000041527E+02 0.  0.
        -12    1    1    2    0    0 -0.14909740269E+02 -0.11292848385E+02  0.92151834773E+00  0.18726397828E+02  0.00000000000E+00 0.  1.
         11    1    3    3    0    0  0.54758088272E+01  0.38193802999E+01 -0.71809596593E+01  0.98050155572E+01  0.51100000000E-03 0. -1.
        -11    1    3    3    0    0  0.31592931391E+02  0.97662005970E+01  0.17814031868E+02  0.37561039917E+02  0.51100000000E-03 0.  1.
         12    1    3    3    0    0 -0.22158999950E+02 -0.22927325118E+01 -0.11554590557E+02  0.25095546698E+02  0.00000000000E+00 0. -1.
</event>
<event>
 7    1  0.3681059E-013  0.7246157E+02  0.7816164E-02  0.1226708E+00
        -11   -1    0    0    0    0  0.00000000000E+00  0.00000000000E+00  0.45593999997E+02  0.45594000000E+02  0.51100000000E-03 0.  1.
         11   -1    0    0    0    0 -0.00000000000E+00 -0.00000000000E+00 -0.45593999997E+02  0.45594000000E+02  0.51100000000E-03 0. -1.
    9900012    2    1    2    0    0 -0.16565581649E+02 -0.57186286367E+01  0.65998481390E+01  0.72461569365E+02  0.69999998790E+02 0.  0.
        -12    1    1    2    0    0  0.16565581649E+02  0.57186286367E+01 -0.65998481390E+01  0.18726430635E+02  0.00000000000E+00 0.  1.
         11    1    3    3    0    0 -0.16822774375E+02 -0.91967741268E+01 -0.10340239790E+02  0.21783180465E+02  0.51100000000E-03 0. -1.
        -11    1    3    3    0    0 -0.42796403769E+01 -0.21306778080E+02  0.12569203352E+02  0.25105357736E+02  0.51100000000E-03 0.  1.
         12    1    3    3    0    0  0.45368331025E+01  0.24784923570E+02  0.43708845772E+01  0.25573031165E+02  0.00000000000E+00 0. -1.
</event>
<event>
 7    1  0.3681059E-013  0.7246161E+02  0.7816164E-02  0.1226708E+00
        -11   -1    0    0    0    0  0.00000000000E+00  0.00000000000E+00  0.45593999997E+02  0.45594000000E+02  0.51100000000E-03 0.  1.
         11   -1    0    0    0    0 -0.00000000000E+00 -0.00000000000E+00 -0.45593999997E+02  0.45594000000E+02  0.51100000000E-03 0. -1.
    9900012    2    1    2    0    0  0.11900735649E+02 -0.65218627176E+01 -0.12904093557E+02  0.72461605984E+02  0.70000046493E+02 0.  0.
        -12    1    1    2    0    0 -0.11900735649E+02  0.65218627176E+01  0.12904093557E+02  0.18726394016E+02  0.00000000000E+00 0.  1.
         11    1    3    3    0    0  0.10024451595E+01 -0.68753472748E+01 -0.66282009223E+01  0.96025175956E+01  0.51100000000E-03 0. -1.
        -11    1    3    3    0    0 -0.42142911099E+01 -0.27117225379E+02  0.77432924693E+01  0.28514255037E+02  0.51100000000E-03 0.  1.
         12    1    3    3    0    0  0.15112581600E+02  0.27470709936E+02 -0.14019185104E+02  0.34344833352E+02  0.00000000000E+00 0. -1.
</event>
<event>
 7    1  0.3681059E-013  0.7246159E+02  0.7816164E-02  0.1226708E+00
        -11   -1    0    0    0    0  0.00000000000E+00  0.00000000000E+00  0.45593999997E+02  0.45594000000E+02  0.51100000000E-03 0.  1.
         11   -1    0    0    0    0 -0.00000000000E+00 -0.00000000000E+00 -0.45593999997E+02  0.45594000000E+02  0.51100000000E-03 0. -1.
    9900012    2    1    2    0    0 -0.95613504581E+00 -0.15961832162E+01 -0.18633743296E+02  0.72461591260E+02  0.70000027312E+02 0.  0.
        -12    1    1    2    0    0  0.95613504581E+00  0.15961832162E+01  0.18633743296E+02  0.18726408740E+02  0.00000000000E+00 0.  1.
         11    1    3    3    0    0  0.73645061503E+01 -0.17545418619E+02 -0.28100689397E+02  0.33937094899E+02  0.51100000000E-03 0. -1.
        -11    1    3    3    0    0  0.99153877203E+01 -0.21761446341E+00 -0.39844136996E+01  0.10688209508E+02  0.51100000000E-03 0.  1.
        -12    1    3    3    0    0 -0.18236028916E+02  0.16166849867E+02  0.13451359800E+02  0.27836286852E+02  0.00000000000E+00 0.  1.
</event>
<event>
 7    1  0.3681059E-013  0.7246167E+02  0.7816164E-02  0.1226708E+00
        -11   -1    0    0    0    0  0.00000000000E+00  0.00000000000E+00  0.45593999997E+02  0.45594000000E+02  0.51100000000E-03 0. -1.
         11   -1    0    0    0    0 -0.00000000000E+00 -0.00000000000E+00 -0.45593999997E+02  0.45594000000E+02  0.51100000000E-03 0.  1.
    9900012    2    1    2    0    0 -0.43760549774E+01 -0.81547675042E+01  0.16279599337E+02  0.72461669746E+02  0.70000129554E+02 0.  0.
        -12    1    1    2    0    0  0.43760549774E+01  0.81547675042E+01 -0.16279599337E+02  0.18726330254E+02  0.00000000000E+00 0.  1.
         11    1    3    3    0    0 -0.65294930517E+01  0.14918517424E+02  0.14469442993E+01  0.16349008830E+02  0.51100000000E-03 0. -1.
        -11    1    3    3    0    0  0.22497087884E+02 -0.14293628626E+02 -0.41012528954E+01  0.26967518576E+02  0.51100000000E-03 0.  1.
         12    1    3    3    0    0 -0.20343649810E+02 -0.87796563023E+01  0.18933907933E+02  0.29145142340E+02  0.00000000000E+00 0. -1.
</event>
<event>
 7    1  0.3681059E-013  0.7246150E+02  0.7816164E-02  0.1226708E+00
        -11   -1    0    0    0    0  0.00000000000E+00  0.00000000000E+00  0.45593999997E+02  0.45594000000E+02  0.51100000000E-03 0.  1.
         11   -1    0    0    0    0 -0.00000000000E+00 -0.00000000000E+00 -0.45593999997E+02  0.45594000000E+02  0.51100000000E-03 0. -1.
    9900012    2    1    2    0    0 -0.28759578734E+01 -0.16478118597E+02 -0.84191523481E+01  0.72461504000E+02  0.69999913639E+02 0.  0.
        -12    1    1    2    0    0  0.28759578734E+01  0.16478118597E+02  0.84191523481E+01  0.18726496000E+02  0.00000000000E+00 0.  1.
         11    1    3    3    0    0  0.16339773312E+02 -0.33682745528E+02 -0.11404164526E+02  0.39135284680E+02  0.51100000000E-03 0. -1.
        -11    1    3    3    0    0 -0.22069084501E+01 -0.48390986400E+01 -0.46557203535E-01  0.53187863643E+01  0.51100000000E-03 0.  1.
        -12    1    3    3    0    0 -0.17008822735E+02  0.22043725571E+02  0.30315693814E+01  0.28007432956E+02  0.00000000000E+00 0.  1.
</event>
<event>
 7    1  0.3681059E-013  0.7246170E+02  0.7816164E-02  0.1226708E+00
        -11   -1    0    0    0    0  0.00000000000E+00  0.00000000000E+00  0.45593999997E+02  0.45594000000E+02  0.51100000000E-03 0. -1.
         11   -1    0    0    0    0 -0.00000000000E+00 -0.00000000000E+00 -0.45593999997E+02  0.45594000000E+02  0.51100000000E-03 0.  1.
    9900012    2    1    2    0    0  0.16666810509E+02  0.27851311758E+01 -0.80706052482E+01  0.72461703054E+02  0.70000172945E+02 0.  0.
        -12    1    1    2    0    0 -0.16666810509E+02 -0.27851311758E+01  0.80706052482E+01  0.18726296946E+02  0.00000000000E+00 0.  1.
         11    1    3    3    0    0  0.21878670816E+02  0.22059866892E+02  0.73460594739E+01  0.31926142173E+02  0.51100000000E-03 0. -1.
        -11    1    3    3    0    0  0.38705278944E+01 -0.21459589237E+01  0.85988251683E+01  0.96708800230E+01  0.51100000000E-03 0.  1.
        -12    1    3    3    0    0 -0.90823882012E+01 -0.17128776792E+02 -0.24015489890E+02  0.30864680859E+02  0.00000000000E+00 0.  1.
</event>
<event>
 7    1  0.3681059E-013  0.7246139E+02  0.7816164E-02  0.1226708E+00
        -11   -1    0    0    0    0  0.00000000000E+00  0.00000000000E+00  0.45593999997E+02  0.45594000000E+02  0.51100000000E-03 0. -1.
         11   -1    0    0    0    0 -0.00000000000E+00 -0.00000000000E+00 -0.45593999997E+02  0.45594000000E+02  0.51100000000E-03 0.  1.
    9900012    2    1    2    0    0  0.11956576655E+02 -0.63659699202E+01  0.12930601815E+02  0.72461394284E+02  0.69999770713E+02 0.  0.
        -12    1    1    2    0    0 -0.11956576655E+02  0.63659699202E+01 -0.12930601815E+02  0.18726605716E+02  0.00000000000E+00 0.  1.
         11    1    3    3    0    0  0.13236577514E+02  0.94112822650E+01  0.25499681258E+02  0.30232647298E+02  0.51100000000E-03 0. -1.
        -11    1    3    3    0    0  0.72048162277E+01  0.10231711524E+02 -0.10938286841E+01  0.12561598586E+02  0.51100000000E-03 0.  1.
         12    1    3    3    0    0 -0.84848170859E+01 -0.26008963709E+02 -0.11475250758E+02  0.29667148400E+02  0.00000000000E+00 0. -1.
</event>
<event>
 7    1  0.3681059E-013  0.7246157E+02  0.7816164E-02  0.1226708E+00
        -11   -1    0    0    0    0  0.00000000000E+00  0.00000000000E+00  0.45593999997E+02  0.45594000000E+02  0.51100000000E-03 0. -1.
         11   -1    0    0    0    0 -0.00000000000E+00 -0.00000000000E+00 -0.45593999997E+02  0.45594000000E+02  0.51100000000E-03 0.  1.
    9900012    2    1    2    0    0 -0.28414798691E+01 -0.37630645900E+00  0.18505768453E+02  0.72461572673E+02  0.70000003099E+02 0.  0.
        -12    1    1    2    0    0  0.28414798691E+01  0.37630645900E+00 -0.18505768453E+02  0.18726427327E+02  0.00000000000E+00 0.  1.
         11    1    3    3    0    0  0.20201578785E+02 -0.40845364778E+01  0.23780817142E+02  0.31469262588E+02  0.51100000000E-03 0.  1.
        -11    1    3    3    0    0 -0.19383898856E+02  0.11047727142E+02  0.93767350585E+01  0.24201466288E+02  0.51100000000E-03 0. -1.
        -12    1    3    3    0    0 -0.36591597980E+01 -0.73394971228E+01 -0.14651783747E+02  0.16790843797E+02  0.00000000000E+00 0.  1.
</event>
<event>
 7    1  0.3681059E-013  0.7246150E+02  0.7816164E-02  0.1226708E+00
        -11   -1    0    0    0    0  0.00000000000E+00  0.00000000000E+00  0.45593999997E+02  0.45594000000E+02  0.51100000000E-03 0.  1.
         11   -1    0    0    0    0 -0.00000000000E+00 -0.00000000000E+00 -0.45593999997E+02  0.45594000000E+02  0.51100000000E-03 0. -1.
    9900012    2    1    2    0    0 -0.10647288689E+02 -0.10979744222E+02 -0.10805662866E+02  0.72461497668E+02  0.69999905391E+02 0.  0.
        -12    1    1    2    0    0  0.10647288689E+02  0.10979744222E+02  0.10805662866E+02  0.18726502332E+02  0.00000000000E+00 0.  1.
         11    1    3    3    0    0  0.48888927445E+00 -0.18802723576E+02 -0.24890889071E+02  0.31198361906E+02  0.51100000000E-03 0. -1.
        -11    1    3    3    0    0  0.38531455161E+01 -0.12178562249E+02  0.42856663320E+00  0.12780758132E+02  0.51100000000E-03 0.  1.
        -12    1    3    3    0    0 -0.14989323479E+02  0.20001541602E+02  0.13656659572E+02  0.28482377630E+02  0.00000000000E+00 0.  1.
</event>
<event>
 7    1  0.3681059E-013  0.7246157E+02  0.7816164E-02  0.1226708E+00
        -11   -1    0    0    0    0  0.00000000000E+00  0.00000000000E+00  0.45593999997E+02  0.45594000000E+02  0.51100000000E-03 0.  1.
         11   -1    0    0    0    0 -0.00000000000E+00 -0.00000000000E+00 -0.45593999997E+02  0.45594000000E+02  0.51100000000E-03 0. -1.
    9900012    2    1    2    0    0  0.17771462838E+02  0.58728266219E+01 -0.60359289304E+00  0.72461566588E+02  0.69999995172E+02 0.  0.
        -12    1    1    2    0    0 -0.17771462838E+02 -0.58728266219E+01  0.60359289304E+00  0.18726433412E+02  0.00000000000E+00 0.  1.
         11    1    3    3    0    0  0.23014846135E+02 -0.60263240248E+01 -0.72050497913E+01  0.24857845173E+02  0.51100000000E-03 0. -1.
        -11    1    3    3    0    0  0.14778426375E+02 -0.10674869783E-01  0.16623801901E+02  0.22243039135E+02  0.51100000000E-03 0.  1.
         12    1    3    3    0    0 -0.20021809672E+02  0.11909825516E+02 -0.10022345002E+02  0.25360682280E+02  0.00000000000E+00 0. -1.
</event>
<event>
 7    1  0.3681059E-013  0.7246187E+02  0.7816164E-02  0.1226707E+00
        -11   -1    0    0    0    0  0.00000000000E+00  0.00000000000E+00  0.45593999997E+02  0.45594000000E+02  0.51100000000E-03 0.  1.
         11   -1    0    0    0    0 -0.00000000000E+00 -0.00000000000E+00 -0.45593999997E+02  0.45594000000E+02  0.51100000000E-03 0. -1.
    9900012    2    1    2    0    0  0.21724690584E+01  0.13830666465E+02 -0.12436272941E+02  0.72461872762E+02  0.70000394019E+02 0.  0.
        -12    1    1    2    0    0 -0.21724690584E+01 -0.13830666465E+02  0.12436272941E+02  0.18726127238E+02  0.00000000000E+00 0.  1.
         11    1    3    3    0    0  0.34716424087E+01 -0.97214580277E+01 -0.35429261449E+01  0.10913815700E+02  0.51100000000E-03 0. -1.
        -11    1    3    3    0    0  0.12457530862E+02  0.28934574994E+02  0.13862759548E+02  0.34417667088E+02  0.51100000000E-03 0.  1.
         12    1    3    3    0    0 -0.13756704213E+02 -0.53824505007E+01 -0.22756106344E+02  0.27130389974E+02  0.00000000000E+00 0. -1.
</event>
<event>
 7    1  0.3681059E-013  0.7246157E+02  0.7816164E-02  0.1226708E+00
        -11   -1    0    0    0    0  0.00000000000E+00  0.00000000000E+00  0.45593999997E+02  0.45594000000E+02  0.51100000000E-03 0. -1.
         11   -1    0    0    0    0 -0.00000000000E+00 -0.00000000000E+00 -0.45593999997E+02  0.45594000000E+02  0.51100000000E-03 0.  1.
    9900012    2    1    2    0    0 -0.10279165092E+02 -0.15116837865E+02 -0.40619061254E+01  0.72461572060E+02  0.70000002300E+02 0.  0.
        -12    1    1    2    0    0  0.10279165092E+02  0.15116837865E+02  0.40619061254E+01  0.18726427940E+02  0.00000000000E+00 0.  1.
         11    1    3    3    0    0 -0.77194079147E+01  0.31600911620E+00  0.16083980774E+02  0.17843305695E+02  0.51100000000E-03 0. -1.
        -11    1    3    3    0    0 -0.55168516855E+00 -0.26167479371E+02  0.54991494536E+01  0.26744756086E+02  0.51100000000E-03 0.  1.
         12    1    3    3    0    0 -0.20080720085E+01  0.10734632389E+02 -0.25645036353E+02  0.27873510279E+02  0.00000000000E+00 0. -1.
</event>
<event>
 7    1  0.3681059E-013  0.7246164E+02  0.7816164E-02  0.1226708E+00
        -11   -1    0    0    0    0  0.00000000000E+00  0.00000000000E+00  0.45593999997E+02  0.45594000000E+02  0.51100000000E-03 0. -1.
         11   -1    0    0    0    0 -0.00000000000E+00 -0.00000000000E+00 -0.45593999997E+02  0.45594000000E+02  0.51100000000E-03 0.  1.
    9900012    2    1    2    0    0  0.18483514498E+02  0.13807985553E+00  0.30028561302E+01  0.72461641059E+02  0.70000092185E+02 0.  0.
        -12    1    1    2    0    0 -0.18483514498E+02 -0.13807985553E+00 -0.30028561302E+01  0.18726358941E+02  0.00000000000E+00 0.  1.
         11    1    3    3    0    0 -0.91308573127E+01  0.20968158884E+01  0.45630277180E+01  0.10420672452E+02  0.51100000000E-03 0. -1.
        -11    1    3    3    0    0  0.38395914874E+01  0.17410365680E+02  0.18265552650E+02  0.25524374816E+02  0.51100000000E-03 0.  1.
         12    1    3    3    0    0  0.23774780323E+02 -0.19369101713E+02 -0.19825724238E+02  0.36516593791E+02  0.00000000000E+00 0. -1.
</event>
<event>
 7    1  0.3681059E-013  0.7246158E+02  0.7816164E-02  0.1226708E+00
        -11   -1    0    0    0    0  0.00000000000E+00  0.00000000000E+00  0.45593999997E+02  0.45594000000E+02  0.51100000000E-03 0.  1.
         11   -1    0    0    0    0 -0.00000000000E+00 -0.00000000000E+00 -0.45593999997E+02  0.45594000000E+02  0.51100000000E-03 0. -1.
    9900012    2    1    2    0    0 -0.27288677590E+01  0.10289992384E+02 -0.15406112598E+02  0.72461575678E+02  0.70000007013E+02 0.  0.
        -12    1    1    2    0    0  0.27288677590E+01 -0.10289992384E+02  0.15406112598E+02  0.18726424322E+02  0.00000000000E+00 0.  1.
         11    1    3    3    0    0 -0.39832590758E+01  0.68314567919E+01 -0.18663739313E+02  0.20269936363E+02  0.51100000000E-03 0. -1.
        -11    1    3    3    0    0  0.13167226329E+02 -0.19791023814E+02 -0.59295150466E+01  0.24499380029E+02  0.51100000000E-03 0.  1.
         12    1    3    3    0    0 -0.11912835013E+02  0.23249559407E+02  0.91871417617E+01  0.27692259287E+02  0.00000000000E+00 0. -1.
</event>
<event>
 7    1  0.3681059E-013  0.7246159E+02  0.7816164E-02  0.1226708E+00
        -11   -1    0    0    0    0  0.00000000000E+00  0.00000000000E+00  0.45593999997E+02  0.45594000000E+02  0.51100000000E-03 0.  1.
         11   -1    0    0    0    0 -0.00000000000E+00 -0.00000000000E+00 -0.45593999997E+02  0.45594000000E+02  0.51100000000E-03 0. -1.
    9900012    2    1    2    0    0 -0.17181822060E+02 -0.73934729489E+01  0.89448310806E+00  0.72461586794E+02  0.70000021494E+02 0.  0.
        -12    1    1    2    0    0  0.17181822060E+02  0.73934729489E+01 -0.89448310806E+00  0.18726413206E+02  0.00000000000E+00 0.  1.
         11    1    3    3    0    0 -0.20731071942E+02  0.20606488752E+02 -0.51319246403E+01  0.29677287163E+02  0.51100000000E-03 0. -1.
        -11    1    3    3    0    0 -0.13104953931E+02 -0.90275779089E+01  0.72983018255E+01  0.17507203952E+02  0.51100000000E-03 0.  1.
        -12    1    3    3    0    0  0.16654203814E+02 -0.18972383792E+02 -0.12718940771E+01  0.25277095679E+02  0.00000000000E+00 0.  1.
</event>
<event>
 7    1  0.3681059E-013  0.7246154E+02  0.7816164E-02  0.1226708E+00
        -11   -1    0    0    0    0  0.00000000000E+00  0.00000000000E+00  0.45593999997E+02  0.45594000000E+02  0.51100000000E-03 0.  1.
         11   -1    0    0    0    0 -0.00000000000E+00 -0.00000000000E+00 -0.45593999997E+02  0.45594000000E+02  0.51100000000E-03 0. -1.
    9900012    2    1    2    0    0 -0.12184315277E+02  0.11474328606E+02  0.84001536133E+01  0.72461539137E+02  0.69999959412E+02 0.  0.
        -12    1    1    2    0    0  0.12184315277E+02 -0.11474328606E+02 -0.84001536133E+01  0.18726460863E+02  0.00000000000E+00 0.  1.
         11    1    3    3    0    0  0.26868051421E+02  0.40677944012E+01  0.22722052072E+01  0.27269067737E+02  0.51100000000E-03 0. -1.
        -11    1    3    3    0    0 -0.80013251256E+00 -0.40975893571E+01 -0.16649371234E+01  0.44947153929E+01  0.51100000000E-03 0.  1.
        -12    1    3    3    0    0 -0.38252234186E+02  0.11504123562E+02  0.77928855295E+01  0.40697756007E+02  0.00000000000E+00 0.  1.
</event>
<event>
 7    1  0.3681059E-013  0.7246158E+02  0.7816164E-02  0.1226708E+00
        -11   -1    0    0    0    0  0.00000000000E+00  0.00000000000E+00  0.45593999997E+02  0.45594000000E+02  0.51100000000E-03 0. -1.
         11   -1    0    0    0    0 -0.00000000000E+00 -0.00000000000E+00 -0.45593999997E+02  0.45594000000E+02  0.51100000000E-03 0.  1.
    9900012    2    1    2    0    0 -0.14243882030E+02  0.10769258262E+02 -0.56403537664E+01  0.72461583114E+02  0.70000016700E+02 0.  0.
        -12    1    1    2    0    0  0.14243882030E+02 -0.10769258262E+02  0.56403537664E+01  0.18726416886E+02  0.00000000000E+00 0.  1.
         11    1    3    3    0    0 -0.99414759803E+01 -0.78132725714E+01  0.67232918966E+01  0.14320713220E+02  0.51100000000E-03 0. -1.
        -11    1    3    3    0    0 -0.15351820312E+02 -0.14309612917E+02 -0.10307996012E+02  0.23381578021E+02  0.51100000000E-03 0.  1.
         12    1    3    3    0    0  0.11049414262E+02  0.32892143750E+02 -0.20556496512E+01  0.34759291873E+02  0.00000000000E+00 0. -1.
</event>
<event>
 7    1  0.3681059E-013  0.7246157E+02  0.7816164E-02  0.1226708E+00
        -11   -1    0    0    0    0  0.00000000000E+00  0.00000000000E+00  0.45593999997E+02  0.45594000000E+02  0.51100000000E-03 0.  1.
         11   -1    0    0    0    0 -0.00000000000E+00 -0.00000000000E+00 -0.45593999997E+02  0.45594000000E+02  0.51100000000E-03 0. -1.
    9900012    2    1    2    0    0 -0.15874751080E+02  0.96383898113E+01  0.24027081448E+01  0.72461567173E+02  0.69999995934E+02 0.  0.
        -12    1    1    2    0    0  0.15874751080E+02 -0.96383898113E+01 -0.24027081448E+01  0.18726432827E+02  0.00000000000E+00 0.  1.
         11    1    3    3    0    0 -0.62358753345E+00 -0.58331540296E+00 -0.15701681667E+02  0.15724882375E+02  0.51100000000E-03 0. -1.
        -11    1    3    3    0    0 -0.62910290078E+01  0.26199351493E+02 -0.48413322361E+01  0.27375565067E+02  0.51100000000E-03 0.  1.
         12    1    3    3    0    0 -0.89601345384E+01 -0.15977646279E+02  0.22945722048E+02  0.29361119731E+02  0.00000000000E+00 0. -1.
</event>
<event>
 7    1  0.3681059E-013  0.7246157E+02  0.7816164E-02  0.1226708E+00
        -11   -1    0    0    0    0  0.00000000000E+00  0.00000000000E+00  0.45593999997E+02  0.45594000000E+02  0.51100000000E-03 0.  1.
         11   -1    0    0    0    0 -0.00000000000E+00 -0.00000000000E+00 -0.45593999997E+02  0.45594000000E+02  0.51100000000E-03 0. -1.
    9900012    2    1    2    0    0  0.51174056419E+01 -0.92678049987E+01 -0.15446648886E+02  0.72461574506E+02  0.70000005486E+02 0.  0.
        -12    1    1    2    0    0 -0.51174056419E+01  0.92678049987E+01  0.15446648886E+02  0.18726425494E+02  0.00000000000E+00 0.  1.
         11    1    3    3    0    0  0.71289061167E+01  0.14404060982E+02  0.53780490166E+01  0.16947615959E+02  0.51100000000E-03 0. -1.
        -11    1    3    3    0    0 -0.20331400986E+02 -0.52938801094E+01  0.18003766079E+01  0.21086308090E+02  0.51100000000E-03 0.  1.
         12    1    3    3    0    0  0.18319900511E+02 -0.18377985871E+02 -0.22625074510E+02  0.34427650457E+02  0.00000000000E+00 0. -1.
</event>
<event>
 7    1  0.3681059E-013  0.7246167E+02  0.7816164E-02  0.1226708E+00
        -11   -1    0    0    0    0  0.00000000000E+00  0.00000000000E+00  0.45593999997E+02  0.45594000000E+02  0.51100000000E-03 0.  1.
         11   -1    0    0    0    0 -0.00000000000E+00 -0.00000000000E+00 -0.45593999997E+02  0.45594000000E+02  0.51100000000E-03 0. -1.
    9900012    2    1    2    0    0 -0.14491307491E+02  0.78549642747E+01 -0.88869007175E+01  0.72461669315E+02  0.70000128992E+02 0.  0.
        -12    1    1    2    0    0  0.14491307491E+02 -0.78549642747E+01  0.88869007175E+01  0.18726330685E+02  0.00000000000E+00 0.  1.
         11    1    3    3    0    0 -0.18014312688E+01  0.34583431344E+02  0.73250851990E+01  0.35396549995E+02  0.51100000000E-03 0. -1.
        -11    1    3    3    0    0  0.33917884168E+01 -0.44440591970E+01 -0.10820289578E+01  0.56942670939E+01  0.51100000000E-03 0.  1.
        -12    1    3    3    0    0 -0.16081664639E+02 -0.22284407872E+02 -0.15129956959E+02  0.31370852226E+02  0.00000000000E+00 0.  1.
</event>
<event>
 7    1  0.3681059E-013  0.7246159E+02  0.7816164E-02  0.1226708E+00
        -11   -1    0    0    0    0  0.00000000000E+00  0.00000000000E+00  0.45593999997E+02  0.45594000000E+02  0.51100000000E-03 0. -1.
         11   -1    0    0    0    0 -0.00000000000E+00 -0.00000000000E+00 -0.45593999997E+02  0.45594000000E+02  0.51100000000E-03 0.  1.
    9900012    2    1    2    0    0  0.13904810283E+02  0.89744079377E+01 -0.87632532872E+01  0.72461592042E+02  0.70000028330E+02 0.  0.
        -12    1    1    2    0    0 -0.13904810283E+02 -0.89744079377E+01  0.87632532872E+01  0.18726407958E+02  0.00000000000E+00 0.  1.
         11    1    3    3    0    0 -0.89557822548E+01  0.18534522164E+02  0.91748034614E+01  0.22536893452E+02  0.51100000000E-03 0. -1.
        -11    1    3    3    0    0  0.15746439018E+02 -0.91812795484E+00  0.10778165552E+02  0.19103982664E+02  0.51100000000E-03 0.  1.
        -12    1    3    3    0    0  0.71141535197E+01 -0.86419862712E+01 -0.28716222301E+02  0.30820715927E+02  0.00000000000E+00 0.  1.
</event>
<event>
 7    1  0.3681059E-013  0.7246162E+02  0.7816164E-02  0.1226708E+00
        -11   -1    0    0    0    0  0.00000000000E+00  0.00000000000E+00  0.45593999997E+02  0.45594000000E+02  0.51100000000E-03 0.  1.
         11   -1    0    0    0    0 -0.00000000000E+00 -0.00000000000E+00 -0.45593999997E+02  0.45594000000E+02  0.51100000000E-03 0. -1.
    9900012    2    1    2    0    0 -0.34650274450E+01  0.72986315441E+01 -0.16893811615E+02  0.72461619984E+02  0.70000064730E+02 0.  0.
        -12    1    1    2    0    0  0.34650274450E+01 -0.72986315441E+01  0.16893811615E+02  0.18726380016E+02  0.00000000000E+00 0.  1.
         11    1    3    3    0    0 -0.14713412431E+02 -0.19696076813E+01 -0.86699665641E+01  0.17191049423E+02  0.51100000000E-03 0. -1.
        -11    1    3    3    0    0 -0.13702026288E+02  0.12328673780E+02  0.12849180862E+02  0.22468715376E+02  0.51100000000E-03 0.  1.
        -12    1    3    3    0    0  0.24950411274E+02 -0.30604345543E+01 -0.21073025913E+02  0.32801855185E+02  0.00000000000E+00 0.  1.
</event>
<event>
 7    1  0.3681059E-013  0.7246156E+02  0.7816164E-02  0.1226708E+00
        -11   -1    0    0    0    0  0.00000000000E+00  0.00000000000E+00  0.45593999997E+02  0.45594000000E+02  0.51100000000E-03 0.  1.
         11   -1    0    0    0    0 -0.00000000000E+00 -0.00000000000E+00 -0.45593999997E+02  0.45594000000E+02  0.51100000000E-03 0. -1.
    9900012    2    1    2    0    0 -0.62585056905E+01 -0.14653758217E+02  0.98375825902E+01  0.72461560013E+02  0.69999986607E+02 0.  0.
        -12    1    1    2    0    0  0.62585056905E+01  0.14653758217E+02 -0.98375825902E+01  0.18726439987E+02  0.00000000000E+00 0.  1.
         11    1    3    3    0    0 -0.94619866501E+01 -0.22097388856E+02 -0.69770466211E+01  0.25030041259E+02  0.51100000000E-03 0. -1.
        -11    1    3    3    0    0 -0.14910323504E+02  0.12448113988E+02 -0.35234376958E+01  0.19740514236E+02  0.51100000000E-03 0.  1.
        -12    1    3    3    0    0  0.18113804463E+02 -0.50044833485E+01  0.20338066907E+02  0.27691004518E+02  0.00000000000E+00 0.  1.
</event>
<event>
 7    1  0.3681059E-013  0.7246154E+02  0.7816164E-02  0.1226708E+00
        -11   -1    0    0    0    0  0.00000000000E+00  0.00000000000E+00  0.45593999997E+02  0.45594000000E+02  0.51100000000E-03 0.  1.
         11   -1    0    0    0    0 -0.00000000000E+00 -0.00000000000E+00 -0.45593999997E+02  0.45594000000E+02  0.51100000000E-03 0. -1.
    9900012    2    1    2    0    0 -0.36833014406E+01 -0.69979012718E+01 -0.16974778506E+02  0.72461536452E+02  0.69999955913E+02 0.  0.
        -12    1    1    2    0    0  0.36833014406E+01  0.69979012718E+01  0.16974778506E+02  0.18726463548E+02  0.00000000000E+00 0.  1.
         11    1    3    3    0    0 -0.15991184583E+02 -0.32271966244E+01  0.71069192216E+01  0.17794411581E+02  0.51100000000E-03 0. -1.
        -11    1    3    3    0    0 -0.50714763213E+01  0.18667634344E+02 -0.36238408544E+01  0.19680768961E+02  0.51100000000E-03 0.  1.
         12    1    3    3    0    0  0.17379359464E+02 -0.22438338991E+02 -0.20457856873E+02  0.34986355910E+02  0.00000000000E+00 0. -1.
</event>
<event>
 7    1  0.3681059E-013  0.7246206E+02  0.7816164E-02  0.1226707E+00
        -11   -1    0    0    0    0  0.00000000000E+00  0.00000000000E+00  0.45593999997E+02  0.45594000000E+02  0.51100000000E-03 0. -1.
         11   -1    0    0    0    0 -0.00000000000E+00 -0.00000000000E+00 -0.45593999997E+02  0.45594000000E+02  0.51100000000E-03 0.  1.
    9900012    2    1    2    0    0 -0.15474112117E+01 -0.17435098427E+02  0.66546051315E+01  0.72462057886E+02  0.70000635175E+02 0.  0.
        -12    1    1    2    0    0  0.15474112117E+01  0.17435098427E+02 -0.66546051315E+01  0.18725942114E+02  0.00000000000E+00 0.  1.
         11    1    3    3    0    0  0.84824649576E+01  0.51681232284E+01 -0.30470473544E+01  0.10389716421E+02  0.51100000000E-03 0. -1.
        -11    1    3    3    0    0 -0.66275044873E+01  0.17475764469E+02  0.11258181141E+02  0.21819092611E+02  0.51100000000E-03 0.  1.
         12    1    3    3    0    0 -0.34023716821E+01 -0.40078986124E+02 -0.15565286551E+01  0.40253248854E+02  0.00000000000E+00 0. -1.
</event>
<event>
 7    1  0.3681059E-013  0.7246159E+02  0.7816164E-02  0.1226708E+00
        -11   -1    0    0    0    0  0.00000000000E+00  0.00000000000E+00  0.45593999997E+02  0.45594000000E+02  0.51100000000E-03 0.  1.
         11   -1    0    0    0    0 -0.00000000000E+00 -0.00000000000E+00 -0.45593999997E+02  0.45594000000E+02  0.51100000000E-03 0. -1.
    9900012    2    1    2    0    0 -0.50606271979E+01 -0.16100417024E+02 -0.81144979964E+01  0.72461589407E+02  0.70000024897E+02 0.  0.
        -12    1    1    2    0    0  0.50606271979E+01  0.16100417024E+02  0.81144979964E+01  0.18726410593E+02  0.00000000000E+00 0.  1.
         11    1    3    3    0    0  0.86819882760E+01 -0.80868508100E+01 -0.23725364071E+01  0.12099710976E+02  0.51100000000E-03 0. -1.
        -11    1    3    3    0    0  0.73411946704E+01 -0.25709801900E+02  0.10124848456E+02  0.28590201284E+02  0.51100000000E-03 0.  1.
         12    1    3    3    0    0 -0.21083810144E+02  0.17696235687E+02 -0.15866810045E+02  0.31771677146E+02  0.00000000000E+00 0. -1.
</event>
<event>
 7    1  0.3681059E-013  0.7246155E+02  0.7816164E-02  0.1226708E+00
        -11   -1    0    0    0    0  0.00000000000E+00  0.00000000000E+00  0.45593999997E+02  0.45594000000E+02  0.51100000000E-03 0. -1.
         11   -1    0    0    0    0 -0.00000000000E+00 -0.00000000000E+00 -0.45593999997E+02  0.45594000000E+02  0.51100000000E-03 0.  1.
    9900012    2    1    2    0    0 -0.20359410155E+01  0.54161949107E+01  0.17810100922E+02  0.72461550310E+02  0.69999973967E+02 0.  0.
        -12    1    1    2    0    0  0.20359410155E+01 -0.54161949107E+01 -0.17810100922E+02  0.18726449690E+02  0.00000000000E+00 0.  1.
         11    1    3    3    0    0  0.53542765758E+01 -0.30658959015E+01  0.35524289892E+01  0.71195328016E+01  0.51100000000E-03 0. -1.
        -11    1    3    3    0    0 -0.28418014584E+02 -0.11692880065E+02  0.18538184552E+02  0.35888316815E+02  0.51100000000E-03 0.  1.
        -12    1    3    3    0    0  0.21027796992E+02  0.20174970878E+02 -0.42805126191E+01  0.29453700694E+02  0.00000000000E+00 0.  1.
</event>
<event>
 7    1  0.3681059E-013  0.7246156E+02  0.7816164E-02  0.1226708E+00
        -11   -1    0    0    0    0  0.00000000000E+00  0.00000000000E+00  0.45593999997E+02  0.45594000000E+02  0.51100000000E-03 0.  1.
         11   -1    0    0    0    0 -0.00000000000E+00 -0.00000000000E+00 -0.45593999997E+02  0.45594000000E+02  0.51100000000E-03 0. -1.
    9900012    2    1    2    0    0 -0.24449531578E+01 -0.18562323479E+02  0.37662191959E+00  0.72461561658E+02  0.69999988750E+02 0.  0.
        -12    1    1    2    0    0  0.24449531578E+01  0.18562323479E+02 -0.37662191959E+00  0.18726438342E+02  0.00000000000E+00 0.  1.
         11    1    3    3    0    0  0.25137110616E+01  0.18194434360E+01  0.76881116935E+00  0.31969029690E+01  0.51100000000E-03 0. -1.
        -11    1    3    3    0    0  0.24764467650E+02 -0.10857731265E+02 -0.18888505874E+02  0.32984008862E+02  0.51100000000E-03 0.  1.
         12    1    3    3    0    0 -0.29723131869E+02 -0.95240356502E+01  0.18496316625E+02  0.36280649827E+02  0.00000000000E+00 0. -1.
</event>
<event>
 7    1  0.3681059E-013  0.7246160E+02  0.7816164E-02  0.1226708E+00
        -11   -1    0    0    0    0  0.00000000000E+00  0.00000000000E+00  0.45593999997E+02  0.45594000000E+02  0.51100000000E-03 0. -1.
         11   -1    0    0    0    0 -0.00000000000E+00 -0.00000000000E+00 -0.45593999997E+02  0.45594000000E+02  0.51100000000E-03 0.  1.
    9900012    2    1    2    0    0  0.73669725698E+01 -0.15892109492E+02  0.66216764966E+01  0.72461600758E+02  0.70000039684E+02 0.  0.
        -12    1    1    2    0    0 -0.73669725698E+01  0.15892109492E+02 -0.66216764966E+01  0.18726399242E+02  0.00000000000E+00 0.  1.
         11    1    3    3    0    0  0.26633767398E+02 -0.18989770919E+02  0.11909115917E+02  0.34810860483E+02  0.51100000000E-03 0. -1.
        -11    1    3    3    0    0  0.16532197755E+01  0.56693886948E+01 -0.13729315353E+02  0.14945541279E+02  0.51100000000E-03 0.  1.
        -12    1    3    3    0    0 -0.20920014604E+02 -0.25717272676E+01  0.84418759330E+01  0.22705198995E+02  0.00000000000E+00 0.  1.
</event>
<event>
 7    1  0.3681059E-013  0.7246157E+02  0.7816164E-02  0.1226708E+00
        -11   -1    0    0    0    0  0.00000000000E+00  0.00000000000E+00  0.45593999997E+02  0.45594000000E+02  0.51100000000E-03 0. -1.
         11   -1    0    0    0    0 -0.00000000000E+00 -0.00000000000E+00 -0.45593999997E+02  0.45594000000E+02  0.51100000000E-03 0.  1.
    9900012    2    1    2    0    0  0.15849358246E+02  0.46969675672E+01  0.87986060587E+01  0.72461571357E+02  0.70000001385E+02 0.  0.
        -12    1    1    2    0    0 -0.15849358246E+02 -0.46969675672E+01 -0.87986060587E+01  0.18726428643E+02  0.00000000000E+00 0.  1.
         11    1    3    3    0    0  0.15992885423E+02  0.15805708924E+02  0.21158879391E+02  0.30875410865E+02  0.51100000000E-03 0. -1.
        -11    1    3    3    0    0 -0.19915782454E+01  0.76634300391E+01  0.97257556651E+01  0.12541326381E+02  0.51100000000E-03 0.  1.
         12    1    3    3    0    0  0.18480510683E+01 -0.18772171396E+02 -0.22086028997E+02  0.29044834111E+02  0.00000000000E+00 0. -1.
</event>
<event>
 7    1  0.3681059E-013  0.7246155E+02  0.7816164E-02  0.1226708E+00
        -11   -1    0    0    0    0  0.00000000000E+00  0.00000000000E+00  0.45593999997E+02  0.45594000000E+02  0.51100000000E-03 0. -1.
         11   -1    0    0    0    0 -0.00000000000E+00 -0.00000000000E+00 -0.45593999997E+02  0.45594000000E+02  0.51100000000E-03 0.  1.
    9900012    2    1    2    0    0  0.15084345966E+02  0.64910623659E+01  0.90004816949E+01  0.72461546663E+02  0.69999969216E+02 0.  0.
        -12    1    1    2    0    0 -0.15084345966E+02 -0.64910623659E+01 -0.90004816949E+01  0.18726453337E+02  0.00000000000E+00 0.  1.
         11    1    3    3    0    0  0.87757059952E+01 -0.27811395611E+01  0.29680917986E+01  0.96725034070E+01  0.51100000000E-03 0. -1.
        -11    1    3    3    0    0  0.29204971119E+02  0.21640615823E+02  0.15468637125E+01  0.36381855077E+02  0.51100000000E-03 0.  1.
         12    1    3    3    0    0 -0.22896331148E+02 -0.12368413896E+02  0.44855261839E+01  0.26407188179E+02  0.00000000000E+00 0. -1.
</event>
<event>
 7    1  0.3681059E-013  0.7246160E+02  0.7816164E-02  0.1226708E+00
        -11   -1    0    0    0    0  0.00000000000E+00  0.00000000000E+00  0.45593999997E+02  0.45594000000E+02  0.51100000000E-03 0.  1.
         11   -1    0    0    0    0 -0.00000000000E+00 -0.00000000000E+00 -0.45593999997E+02  0.45594000000E+02  0.51100000000E-03 0. -1.
    9900012    2    1    2    0    0 -0.10970604551E+02 -0.12894496851E+02 -0.80034828850E+01  0.72461602814E+02  0.70000042363E+02 0.  0.
        -12    1    1    2    0    0  0.10970604551E+02  0.12894496851E+02  0.80034828850E+01  0.18726397186E+02  0.00000000000E+00 0.  1.
         11    1    3    3    0    0  0.17371074473E+02 -0.13828796952E+02  0.42633171795E+01  0.22608974482E+02  0.51100000000E-03 0. -1.
        -11    1    3    3    0    0 -0.18529462950E+01 -0.59126585829E+01  0.11855922333E+02  0.13377437577E+02  0.51100000000E-03 0.  1.
         12    1    3    3    0    0 -0.26488732729E+02  0.68469586840E+01 -0.24122722398E+02  0.36475190756E+02  0.00000000000E+00 0. -1.
</event>
<event>
 7    1  0.3681059E-013  0.7246167E+02  0.7816164E-02  0.1226708E+00
        -11   -1    0    0    0    0  0.00000000000E+00  0.00000000000E+00  0.45593999997E+02  0.45594000000E+02  0.51100000000E-03 0. -1.
         11   -1    0    0    0    0 -0.00000000000E+00 -0.00000000000E+00 -0.45593999997E+02  0.45594000000E+02  0.51100000000E-03 0.  1.
    9900012    2    1    2    0    0  0.34831141479E+00 -0.16315532874E+02  0.91846350303E+01  0.72461669488E+02  0.70000129218E+02 0.  0.
        -12    1    1    2    0    0 -0.34831141479E+00  0.16315532874E+02 -0.91846350303E+01  0.18726330512E+02  0.00000000000E+00 0.  1.
         11    1    3    3    0    0 -0.10265143982E+02 -0.12078336554E+02  0.44527299400E+01  0.16464695535E+02  0.51100000000E-03 0. -1.
        -11    1    3    3    0    0  0.19653785620E+01 -0.26863699623E+02 -0.86918909243E+01  0.28303180712E+02  0.51100000000E-03 0.  1.
        -12    1    3    3    0    0  0.86480768343E+01  0.22626503302E+02  0.13423796015E+02  0.27693793241E+02  0.00000000000E+00 0.  1.
</event>
<event>
 7    1  0.3681059E-013  0.7246154E+02  0.7816164E-02  0.1226708E+00
        -11   -1    0    0    0    0  0.00000000000E+00  0.00000000000E+00  0.45593999997E+02  0.45594000000E+02  0.51100000000E-03 0. -1.
         11   -1    0    0    0    0 -0.00000000000E+00 -0.00000000000E+00 -0.45593999997E+02  0.45594000000E+02  0.51100000000E-03 0.  1.
    9900012    2    1    2    0    0  0.20786838400E+01  0.16851506784E+02  0.78984870103E+01  0.72461539992E+02  0.69999960525E+02 0.  0.
        -12    1    1    2    0    0 -0.20786838400E+01 -0.16851506784E+02 -0.78984870103E+01  0.18726460008E+02  0.00000000000E+00 0.  1.
         11    1    3    3    0    0 -0.16434863969E+02  0.20781141352E+02 -0.15835630473E+02  0.30866288768E+02  0.51100000000E-03 0. -1.
        -11    1    3    3    0    0 -0.76998331162E+01 -0.13019040601E+01  0.57394055350E+01  0.96913962026E+01  0.51100000000E-03 0.  1.
         12    1    3    3    0    0  0.26213380925E+02 -0.26277305081E+01  0.17994711948E+02  0.31903855021E+02  0.00000000000E+00 0. -1.
</event>
<event>
 7    1  0.3681059E-013  0.7246167E+02  0.7816164E-02  0.1226708E+00
        -11   -1    0    0    0    0  0.00000000000E+00  0.00000000000E+00  0.45593999997E+02  0.45594000000E+02  0.51100000000E-03 0.  1.
         11   -1    0    0    0    0 -0.00000000000E+00 -0.00000000000E+00 -0.45593999997E+02  0.45594000000E+02  0.51100000000E-03 0. -1.
    9900012    2    1    2    0    0  0.32567003925E+01  0.13357372912E+02 -0.12714168532E+02  0.72461665869E+02  0.70000124503E+02 0.  0.
        -12    1    1    2    0    0 -0.32567003925E+01 -0.13357372912E+02  0.12714168532E+02  0.18726334131E+02  0.00000000000E+00 0.  1.
         11    1    3    3    0    0 -0.49823742346E+01  0.82466455323E+01  0.10723879474E+02  0.14416407555E+02  0.51100000000E-03 0. -1.
        -11    1    3    3    0    0 -0.21514294663E+02  0.46891274066E+01 -0.36752306968E+01  0.22323980640E+02  0.51100000000E-03 0.  1.
         12    1    3    3    0    0  0.29753369290E+02  0.42159997295E+00 -0.19762817309E+02  0.35721277674E+02  0.00000000000E+00 0. -1.
</event>
<event>
 7    1  0.3681059E-013  0.7246168E+02  0.7816164E-02  0.1226708E+00
        -11   -1    0    0    0    0  0.00000000000E+00  0.00000000000E+00  0.45593999997E+02  0.45594000000E+02  0.51100000000E-03 0.  1.
         11   -1    0    0    0    0 -0.00000000000E+00 -0.00000000000E+00 -0.45593999997E+02  0.45594000000E+02  0.51100000000E-03 0. -1.
    9900012    2    1    2    0    0  0.91715941132E+01 -0.16257823434E+02 -0.14967208912E+01  0.72461678022E+02  0.70000140335E+02 0.  0.
        -12    1    1    2    0    0 -0.91715941132E+01  0.16257823434E+02  0.14967208912E+01  0.18726321978E+02  0.00000000000E+00 0.  1.
         11    1    3    3    0    0  0.11065393401E+01  0.26895209790E+01 -0.24469237417E+01  0.38007089426E+01  0.51100000000E-03 0. -1.
        -11    1    3    3    0    0  0.32990249371E+02  0.18196692793E+01  0.10792002763E+02  0.34758237494E+02  0.51100000000E-03 0.  1.
         12    1    3    3    0    0 -0.24925194598E+02 -0.20767013692E+02 -0.98417999123E+01  0.33902731585E+02  0.00000000000E+00 0. -1.
</event>
<event>
 7    1  0.3681059E-013  0.7246165E+02  0.7816164E-02  0.1226708E+00
        -11   -1    0    0    0    0  0.00000000000E+00  0.00000000000E+00  0.45593999997E+02  0.45594000000E+02  0.51100000000E-03 0.  1.
         11   -1    0    0    0    0 -0.00000000000E+00 -0.00000000000E+00 -0.45593999997E+02  0.45594000000E+02  0.51100000000E-03 0. -1.
    9900012    2    1    2    0    0 -0.13268872857E+02  0.82861248573E+01 -0.10293355235E+02  0.72461654547E+02  0.70000109754E+02 0.  0.
        -12    1    1    2    0    0  0.13268872857E+02 -0.82861248573E+01  0.10293355235E+02  0.18726345453E+02  0.00000000000E+00 0.  1.
         11    1    3    3    0    0  0.57492264117E+01  0.96459490616E+01 -0.10373143643E+02  0.15287251124E+02  0.51100000000E-03 0. -1.
        -11    1    3    3    0    0  0.32675478645E+01  0.11086005676E+02  0.21132945988E+02  0.24086880190E+02  0.51100000000E-03 0.  1.
        -12    1    3    3    0    0 -0.22285647134E+02 -0.12445829880E+02 -0.21053157580E+02  0.33087523233E+02  0.00000000000E+00 0.  1.
</event>
<event>
 7    1  0.3681059E-013  0.7246158E+02  0.7816164E-02  0.1226708E+00
        -11   -1    0    0    0    0  0.00000000000E+00  0.00000000000E+00  0.45593999997E+02  0.45594000000E+02  0.51100000000E-03 0. -1.
         11   -1    0    0    0    0 -0.00000000000E+00 -0.00000000000E+00 -0.45593999997E+02  0.45594000000E+02  0.51100000000E-03 0.  1.
    9900012    2    1    2    0    0  0.16827722682E+02  0.74936558882E+01 -0.33692256849E+01  0.72461579868E+02  0.70000012472E+02 0.  0.
        -12    1    1    2    0    0 -0.16827722682E+02 -0.74936558882E+01  0.33692256849E+01  0.18726420132E+02  0.00000000000E+00 0.  1.
         11    1    3    3    0    0 -0.99124422448E+01  0.92346682846E+01 -0.12815549269E+02  0.18648697352E+02  0.51100000000E-03 0. -1.
        -11    1    3    3    0    0 -0.12742014109E+01 -0.20049598776E+01 -0.15873869964E+02  0.16050644886E+02  0.51100000000E-03 0.  1.
         12    1    3    3    0    0  0.28014366338E+02  0.26394748125E+00  0.25320193548E+02  0.37762237631E+02  0.00000000000E+00 0. -1.
</event>
<event>
 7    1  0.3681059E-013  0.7246157E+02  0.7816164E-02  0.1226708E+00
        -11   -1    0    0    0    0  0.00000000000E+00  0.00000000000E+00  0.45593999997E+02  0.45594000000E+02  0.51100000000E-03 0. -1.
         11   -1    0    0    0    0 -0.00000000000E+00 -0.00000000000E+00 -0.45593999997E+02  0.45594000000E+02  0.51100000000E-03 0.  1.
    9900012    2    1    2    0    0 -0.37716170037E+01 -0.53361421322E+01  0.17549351516E+02  0.72461568244E+02  0.69999997329E+02 0.  0.
        -12    1    1    2    0    0  0.37716170037E+01  0.53361421322E+01 -0.17549351516E+02  0.18726431756E+02  0.00000000000E+00 0.  1.
         11    1    3    3    0    0  0.15110871127E+00 -0.17422862927E+02  0.16229708887E+02  0.23811393013E+02  0.51100000000E-03 0. -1.
        -11    1    3    3    0    0 -0.16563784209E+02  0.41834899090E+01 -0.17623058394E+02  0.24544504936E+02  0.51100000000E-03 0.  1.
         12    1    3    3    0    0  0.12641058494E+02  0.79032308862E+01  0.18942701023E+02  0.24105670294E+02  0.00000000000E+00 0. -1.
</event>
<event>
 7    1  0.3681059E-013  0.7246155E+02  0.7816164E-02  0.1226708E+00
        -11   -1    0    0    0    0  0.00000000000E+00  0.00000000000E+00  0.45593999997E+02  0.45594000000E+02  0.51100000000E-03 0.  1.
         11   -1    0    0    0    0 -0.00000000000E+00 -0.00000000000E+00 -0.45593999997E+02  0.45594000000E+02  0.51100000000E-03 0. -1.
    9900012    2    1    2    0    0  0.50553787999E+00 -0.17090980108E+02 -0.76369377520E+01  0.72461548446E+02  0.69999971538E+02 0.  0.
        -12    1    1    2    0    0 -0.50553787999E+00  0.17090980108E+02  0.76369377520E+01  0.18726451554E+02  0.00000000000E+00 0.  1.
         11    1    3    3    0    0 -0.20161106640E+01  0.91496318397E+01  0.15551929439E+01  0.94973201676E+01  0.51100000000E-03 0. -1.
        -11    1    3    3    0    0 -0.17317121136E+02  0.76669043320E+01  0.73819314055E+01  0.20326264241E+02  0.51100000000E-03 0.  1.
         12    1    3    3    0    0  0.19838769680E+02 -0.33907516279E+02 -0.16574062101E+02  0.42637964037E+02  0.00000000000E+00 0. -1.
</event>
<event>
 7    1  0.3681059E-013  0.7246153E+02  0.7816164E-02  0.1226708E+00
        -11   -1    0    0    0    0  0.00000000000E+00  0.00000000000E+00  0.45593999997E+02  0.45594000000E+02  0.51100000000E-03 0.  1.
         11   -1    0    0    0    0 -0.00000000000E+00 -0.00000000000E+00 -0.45593999997E+02  0.45594000000E+02  0.51100000000E-03 0. -1.
    9900012    2    1    2    0    0 -0.16164551002E+02 -0.24468648381E+01 -0.91324129629E+01  0.72461526142E+02  0.69999942483E+02 0.  0.
        -12    1    1    2    0    0  0.16164551002E+02  0.24468648381E+01  0.91324129629E+01  0.18726473858E+02  0.00000000000E+00 0.  1.
         11    1    3    3    0    0  0.36490269102E+01 -0.13382338210E+02 -0.10316539820E+02  0.17286797490E+02  0.51100000000E-03 0. -1.
        -11    1    3    3    0    0  0.11343322276E+02  0.40624981862E+00  0.15578217719E+02  0.19274772806E+02  0.51100000000E-03 0.  1.
        -12    1    3    3    0    0 -0.31156900189E+02  0.10529223553E+02 -0.14394090861E+02  0.35899955845E+02  0.00000000000E+00 0.  1.
</event>
<event>
 7    1  0.3681059E-013  0.7246155E+02  0.7816164E-02  0.1226708E+00
        -11   -1    0    0    0    0  0.00000000000E+00  0.00000000000E+00  0.45593999997E+02  0.45594000000E+02  0.51100000000E-03 0. -1.
         11   -1    0    0    0    0 -0.00000000000E+00 -0.00000000000E+00 -0.45593999997E+02  0.45594000000E+02  0.51100000000E-03 0.  1.
    9900012    2    1    2    0    0 -0.17331366964E+02  0.16654529394E+01 -0.68941847799E+01  0.72461553511E+02  0.69999978136E+02 0.  0.
        -12    1    1    2    0    0  0.17331366964E+02 -0.16654529394E+01  0.68941847799E+01  0.18726446489E+02  0.00000000000E+00 0.  1.
         11    1    3    3    0    0  0.97302887196E+01  0.23065579258E+01 -0.10574728769E+02  0.14554161495E+02  0.51100000000E-03 0. -1.
        -11    1    3    3    0    0 -0.11273778142E+01 -0.15707023032E+02  0.18631290170E+02  0.24394805327E+02  0.51100000000E-03 0.  1.
         12    1    3    3    0    0 -0.25934277870E+02  0.15065918046E+02 -0.14950746181E+02  0.33512586688E+02  0.00000000000E+00 0. -1.
</event>
<event>
 7    1  0.3681059E-013  0.7246157E+02  0.7816164E-02  0.1226708E+00
        -11   -1    0    0    0    0  0.00000000000E+00  0.00000000000E+00  0.45593999997E+02  0.45594000000E+02  0.51100000000E-03 0. -1.
         11   -1    0    0    0    0 -0.00000000000E+00 -0.00000000000E+00 -0.45593999997E+02  0.45594000000E+02  0.51100000000E-03 0.  1.
    9900012    2    1    2    0    0  0.17185493550E+01  0.72848957627E+00  0.18633170298E+02  0.72461570967E+02  0.70000000877E+02 0.  0.
        -12    1    1    2    0    0 -0.17185493550E+01 -0.72848957627E+00 -0.18633170298E+02  0.18726429033E+02  0.00000000000E+00 0.  1.
         11    1    3    3    0    0  0.55155527368E+01 -0.36014040878E+01  0.58128259835E+01  0.87852364550E+01  0.51100000000E-03 0. -1.
        -11    1    3    3    0    0  0.28445845883E+02  0.75601733539E+01  0.10262973003E+02  0.31171316691E+02  0.51100000000E-03 0.  1.
         12    1    3    3    0    0 -0.32242849264E+02 -0.32302796898E+01  0.25573713116E+01  0.32505017822E+02  0.00000000000E+00 0. -1.
</event>
<event>
 7    1  0.3681059E-013  0.7246155E+02  0.7816164E-02  0.1226708E+00
        -11   -1    0    0    0    0  0.00000000000E+00  0.00000000000E+00  0.45593999997E+02  0.45594000000E+02  0.51100000000E-03 0.  1.
         11   -1    0    0    0    0 -0.00000000000E+00 -0.00000000000E+00 -0.45593999997E+02  0.45594000000E+02  0.51100000000E-03 0. -1.
    9900012    2    1    2    0    0  0.76399024345E+01  0.49082380376E+01 -0.16377455250E+02  0.72461549447E+02  0.69999972843E+02 0.  0.
        -12    1    1    2    0    0 -0.76399024345E+01 -0.49082380376E+01  0.16377455250E+02  0.18726450553E+02  0.00000000000E+00 0.  1.
         11    1    3    3    0    0  0.21695684687E+02  0.16830895437E+02 -0.10913598206E+02  0.29548069333E+02  0.51100000000E-03 0. -1.
        -11    1    3    3    0    0  0.13296966220E+02 -0.59462860221E+01 -0.18052028385E+01  0.14677410727E+02  0.51100000000E-03 0.  1.
         12    1    3    3    0    0 -0.27352748472E+02 -0.59763713773E+01 -0.36586542053E+01  0.28236069387E+02  0.00000000000E+00 0. -1.
</event>
<event>
 7    1  0.3681059E-013  0.7246154E+02  0.7816164E-02  0.1226708E+00
        -11   -1    0    0    0    0  0.00000000000E+00  0.00000000000E+00  0.45593999997E+02  0.45594000000E+02  0.51100000000E-03 0. -1.
         11   -1    0    0    0    0 -0.00000000000E+00 -0.00000000000E+00 -0.45593999997E+02  0.45594000000E+02  0.51100000000E-03 0.  1.
    9900012    2    1    2    0    0  0.20112443705E+01  0.59675200067E+01  0.17635872043E+02  0.72461537930E+02  0.69999957839E+02 0.  0.
        -12    1    1    2    0    0 -0.20112443705E+01 -0.59675200067E+01 -0.17635872043E+02  0.18726462070E+02  0.00000000000E+00 0.  1.
         11    1    3    3    0    0  0.20576843954E+01 -0.12190224340E+02  0.12387822752E+02  0.17501251022E+02  0.51100000000E-03 0. -1.
        -11    1    3    3    0    0  0.20629129943E+02  0.13678502084E+02  0.17684412671E+02  0.30420402253E+02  0.51100000000E-03 0.  1.
         12    1    3    3    0    0 -0.20675569968E+02  0.44792422624E+01 -0.12436363380E+02  0.24539884655E+02  0.00000000000E+00 0. -1.
</event>
<event>
 7    1  0.3681059E-013  0.7246157E+02  0.7816164E-02  0.1226708E+00
        -11   -1    0    0    0    0  0.00000000000E+00  0.00000000000E+00  0.45593999997E+02  0.45594000000E+02  0.51100000000E-03 0. -1.
         11   -1    0    0    0    0 -0.00000000000E+00 -0.00000000000E+00 -0.45593999997E+02  0.45594000000E+02  0.51100000000E-03 0.  1.
    9900012    2    1    2    0    0  0.19747357262E+01  0.69741786373E+01  0.17266743781E+02  0.72461569757E+02  0.69999999300E+02 0.  0.
        -12    1    1    2    0    0 -0.19747357262E+01 -0.69741786373E+01 -0.17266743781E+02  0.18726430243E+02  0.00000000000E+00 0.  1.
         11    1    3    3    0    0  0.31423315561E+02  0.62075877118E+01  0.18711051888E+02  0.37095314652E+02  0.51100000000E-03 0. -1.
        -11    1    3    3    0    0 -0.89843585511E+00  0.53019108266E+01 -0.34493154308E+01  0.63886792532E+01  0.51100000000E-03 0.  1.
        -12    1    3    3    0    0 -0.28550143980E+02 -0.45353199011E+01  0.20050073234E+01  0.28977575852E+02  0.00000000000E+00 0.  1.
</event>
<event>
 7    1  0.3681059E-013  0.7246153E+02  0.7816164E-02  0.1226708E+00
        -11   -1    0    0    0    0  0.00000000000E+00  0.00000000000E+00  0.45593999997E+02  0.45594000000E+02  0.51100000000E-03 0. -1.
         11   -1    0    0    0    0 -0.00000000000E+00 -0.00000000000E+00 -0.45593999997E+02  0.45594000000E+02  0.51100000000E-03 0.  1.
    9900012    2    1    2    0    0 -0.74934284494E+01  0.14299539798E+02  0.94895911282E+01  0.72461530815E+02  0.69999948570E+02 0.  0.
        -12    1    1    2    0    0  0.74934284494E+01 -0.14299539798E+02 -0.94895911282E+01  0.18726469185E+02  0.00000000000E+00 0.  1.
         11    1    3    3    0    0 -0.12621939696E+02  0.17865418613E+02  0.34256866011E+02  0.40645041679E+02  0.51100000000E-03 0. -1.
        -11    1    3    3    0    0 -0.55085939414E+01  0.39575297093E+01 -0.66321915295E+01  0.94864436622E+01  0.51100000000E-03 0.  1.
        -12    1    3    3    0    0  0.10637105188E+02 -0.75234085241E+01 -0.18135083354E+02  0.22330045473E+02  0.00000000000E+00 0.  1.
</event>
<event>
 7    1  0.3681059E-013  0.7246160E+02  0.7816164E-02  0.1226708E+00
        -11   -1    0    0    0    0  0.00000000000E+00  0.00000000000E+00  0.45593999997E+02  0.45594000000E+02  0.51100000000E-03 0.  1.
         11   -1    0    0    0    0 -0.00000000000E+00 -0.00000000000E+00 -0.45593999997E+02  0.45594000000E+02  0.51100000000E-03 0. -1.
    9900012    2    1    2    0    0  0.13278547676E+02 -0.31832978825E+01  0.12815031364E+02  0.72461595042E+02  0.70000032238E+02 0.  0.
        -12    1    1    2    0    0 -0.13278547676E+02  0.31832978825E+01 -0.12815031364E+02  0.18726404958E+02  0.00000000000E+00 0.  1.
         11    1    3    3    0    0 -0.89268045530E-01  0.15063351361E+02  0.66021951064E+01  0.16446929911E+02  0.51100000000E-03 0. -1.
        -11    1    3    3    0    0  0.38753464452E+01  0.10478275032E+02  0.19890816505E+02  0.22813529740E+02  0.51100000000E-03 0.  1.
         12    1    3    3    0    0  0.94924692766E+01 -0.28724924275E+02 -0.13677980247E+02  0.33201135391E+02  0.00000000000E+00 0. -1.
</event>
<event>
 7    1  0.5545552E-013  0.7246145E+02  0.7816164E-02  0.1226708E+00
        -11   -1    0    0    0    0  0.00000000000E+00  0.00000000000E+00  0.45593999997E+02  0.45594000000E+02  0.51100000000E-03 0. -1.
         11   -1    0    0    0    0 -0.00000000000E+00 -0.00000000000E+00 -0.45593999997E+02  0.45594000000E+02  0.51100000000E-03 0.  1.
    9900012    2    1    2    0    0 -0.10784314394E+02 -0.33900676633E+01  0.14929486136E+02  0.72461453281E+02  0.69999847569E+02 0.  0.
        -12    1    1    2    0    0  0.10784314394E+02  0.33900676633E+01 -0.14929486136E+02  0.18726546719E+02  0.00000000000E+00 0.  1.
         11    1    3    3    0    0 -0.16213728742E+02  0.19230359870E+02  0.23001503043E+02  0.34084613581E+02  0.51100000000E-03 0. -1.
        -11    1    3    3    0    0 -0.93694390753E+01  0.12135283753E+01 -0.25213090634E+01  0.97783454305E+01  0.51100000000E-03 0.  1.
        -12    1    3    3    0    0  0.14798853424E+02 -0.23833955909E+02 -0.55507078437E+01  0.28598494270E+02  0.00000000000E+00 0.  1.
</event>
<event>
 7    1  0.3681059E-013  0.7246152E+02  0.7816164E-02  0.1226708E+00
        -11   -1    0    0    0    0  0.00000000000E+00  0.00000000000E+00  0.45593999997E+02  0.45594000000E+02  0.51100000000E-03 0. -1.
         11   -1    0    0    0    0 -0.00000000000E+00 -0.00000000000E+00 -0.45593999997E+02  0.45594000000E+02  0.51100000000E-03 0.  1.
    9900012    2    1    2    0    0 -0.10530510962E+02  0.14946464757E+01  0.15412837044E+02  0.72461516749E+02  0.69999930247E+02 0.  0.
        -12    1    1    2    0    0  0.10530510962E+02 -0.14946464757E+01 -0.15412837044E+02  0.18726483251E+02  0.00000000000E+00 0.  1.
         11    1    3    3    0    0 -0.80017257639E+01 -0.14964687013E+01 -0.29411373835E+01  0.86554793712E+01  0.51100000000E-03 0. -1.
        -11    1    3    3    0    0  0.80644439966E+01  0.18229731219E+02 -0.15464991319E+02  0.25229433486E+02  0.51100000000E-03 0.  1.
         12    1    3    3    0    0 -0.10593229195E+02 -0.15238616042E+02  0.33818965746E+02  0.38576603891E+02  0.00000000000E+00 0. -1.
</event>
<event>
 7    1  0.3681059E-013  0.7246159E+02  0.7816164E-02  0.1226708E+00
        -11   -1    0    0    0    0  0.00000000000E+00  0.00000000000E+00  0.45593999997E+02  0.45594000000E+02  0.51100000000E-03 0. -1.
         11   -1    0    0    0    0 -0.00000000000E+00 -0.00000000000E+00 -0.45593999997E+02  0.45594000000E+02  0.51100000000E-03 0.  1.
    9900012    2    1    2    0    0  0.17305185499E+02 -0.12101576937E+01  0.70529821389E+01  0.72461588602E+02  0.70000023849E+02 0.  0.
        -12    1    1    2    0    0 -0.17305185499E+02  0.12101576937E+01 -0.70529821389E+01  0.18726411398E+02  0.00000000000E+00 0.  1.
         11    1    3    3    0    0 -0.31944633348E+01 -0.15167054308E+02  0.53826337536E+01  0.16407829800E+02  0.51100000000E-03 0. -1.
        -11    1    3    3    0    0  0.14999397343E+01  0.16755940586E+02  0.22257291862E+02  0.27899792212E+02  0.51100000000E-03 0.  1.
        -12    1    3    3    0    0  0.18999709099E+02 -0.27990439721E+01 -0.20586943477E+02  0.28153966590E+02  0.00000000000E+00 0.  1.
</event>
<event>
 7    1  0.3681059E-013  0.7246175E+02  0.7816164E-02  0.1226708E+00
        -11   -1    0    0    0    0  0.00000000000E+00  0.00000000000E+00  0.45593999997E+02  0.45594000000E+02  0.51100000000E-03 0. -1.
         11   -1    0    0    0    0 -0.00000000000E+00 -0.00000000000E+00 -0.45593999997E+02  0.45594000000E+02  0.51100000000E-03 0.  1.
    9900012    2    1    2    0    0  0.13654884403E+02 -0.11984944214E+02 -0.45362767695E+01  0.72461746696E+02  0.70000229795E+02 0.  0.
        -12    1    1    2    0    0 -0.13654884403E+02  0.11984944214E+02  0.45362767695E+01  0.18726253304E+02  0.00000000000E+00 0.  1.
         11    1    3    3    0    0  0.23860846049E+00 -0.20024371530E+02 -0.62270490522E+00  0.20035472314E+02  0.51100000000E-03 0. -1.
        -11    1    3    3    0    0  0.10940730123E+02 -0.20113266590E+02 -0.71340965284E+01  0.23982043326E+02  0.51100000000E-03 0.  1.
        -12    1    3    3    0    0  0.24755458193E+01  0.28152693906E+02  0.32205246641E+01  0.28444231056E+02  0.00000000000E+00 0.  1.
</event>
<event>
 7    1  0.3681059E-013  0.7246155E+02  0.7816164E-02  0.1226708E+00
        -11   -1    0    0    0    0  0.00000000000E+00  0.00000000000E+00  0.45593999997E+02  0.45594000000E+02  0.51100000000E-03 0. -1.
         11   -1    0    0    0    0 -0.00000000000E+00 -0.00000000000E+00 -0.45593999997E+02  0.45594000000E+02  0.51100000000E-03 0.  1.
    9900012    2    1    2    0    0  0.64130289673E+01  0.10823597162E+02  0.13870928944E+02  0.72461551703E+02  0.69999975781E+02 0.  0.
        -12    1    1    2    0    0 -0.64130289673E+01 -0.10823597162E+02 -0.13870928944E+02  0.18726448297E+02  0.00000000000E+00 0.  1.
         11    1    3    3    0    0 -0.15151772278E+02  0.97063466050E+01  0.11962461620E+02  0.21607634203E+02  0.51100000000E-03 0. -1.
        -11    1    3    3    0    0  0.15674905582E+00  0.14684526223E+02  0.16111891022E+02  0.21800296172E+02  0.51100000000E-03 0.  1.
        -12    1    3    3    0    0  0.21408052189E+02 -0.13567275666E+02 -0.14203423697E+02  0.29053621328E+02  0.00000000000E+00 0.  1.
</event>
<event>
 7    1  0.3681059E-013  0.7246158E+02  0.7816164E-02  0.1226708E+00
        -11   -1    0    0    0    0  0.00000000000E+00  0.00000000000E+00  0.45593999997E+02  0.45594000000E+02  0.51100000000E-03 0.  1.
         11   -1    0    0    0    0 -0.00000000000E+00 -0.00000000000E+00 -0.45593999997E+02  0.45594000000E+02  0.51100000000E-03 0. -1.
    9900012    2    1    2    0    0 -0.32299678112E+01  0.14638767472E+02 -0.11222864647E+02  0.72461577597E+02  0.70000009513E+02 0.  0.
        -12    1    1    2    0    0  0.32299678112E+01 -0.14638767472E+02  0.11222864647E+02  0.18726422403E+02  0.00000000000E+00 0.  1.
         11    1    3    3    0    0  0.23267171487E+01 -0.11416816083E+02 -0.30550734093E+02  0.32697165872E+02  0.51100000000E-03 0. -1.
        -11    1    3    3    0    0  0.77097494988E+01  0.60957690249E+01  0.16092215039E+01  0.99593288654E+01  0.51100000000E-03 0.  1.
        -12    1    3    3    0    0 -0.13266434459E+02  0.19959814530E+02  0.17718647943E+02  0.29805082859E+02  0.00000000000E+00 0.  1.
</event>
<event>
 7    1  0.3681059E-013  0.7246156E+02  0.7816164E-02  0.1226708E+00
        -11   -1    0    0    0    0  0.00000000000E+00  0.00000000000E+00  0.45593999997E+02  0.45594000000E+02  0.51100000000E-03 0. -1.
         11   -1    0    0    0    0 -0.00000000000E+00 -0.00000000000E+00 -0.45593999997E+02  0.45594000000E+02  0.51100000000E-03 0.  1.
    9900012    2    1    2    0    0  0.12034560103E+02 -0.10915461288E+02  0.93113659768E+01  0.72461562316E+02  0.69999989606E+02 0.  0.
        -12    1    1    2    0    0 -0.12034560103E+02  0.10915461288E+02 -0.93113659768E+01  0.18726437684E+02  0.00000000000E+00 0.  1.
         11    1    3    3    0    0 -0.20282541480E+02 -0.21089118322E+02  0.59206579004E+01  0.29852748462E+02  0.51100000000E-03 0. -1.
        -11    1    3    3    0    0 -0.39935181891E+01  0.23902265837E+01  0.28734539042E+01  0.54697448066E+01  0.51100000000E-03 0.  1.
        -12    1    3    3    0    0  0.36310619772E+02  0.77834304505E+01  0.51725417222E+00  0.37139069047E+02  0.00000000000E+00 0.  1.
</event>
<event>
 7    1  0.3681059E-013  0.7246159E+02  0.7816164E-02  0.1226708E+00
        -11   -1    0    0    0    0  0.00000000000E+00  0.00000000000E+00  0.45593999997E+02  0.45594000000E+02  0.51100000000E-03 0.  1.
         11   -1    0    0    0    0 -0.00000000000E+00 -0.00000000000E+00 -0.45593999997E+02  0.45594000000E+02  0.51100000000E-03 0. -1.
    9900012    2    1    2    0    0  0.94655770775E+01  0.16096570680E+02 -0.14076645649E+01  0.72461594670E+02  0.70000031753E+02 0.  0.
        -12    1    1    2    0    0 -0.94655770775E+01 -0.16096570680E+02  0.14076645649E+01  0.18726405330E+02  0.00000000000E+00 0.  1.
         11    1    3    3    0    0 -0.54031587405E+01  0.82762462432E+01 -0.20129542932E+02  0.22425183949E+02  0.51100000000E-03 0. -1.
        -11    1    3    3    0    0 -0.10312706940E+02  0.85712188928E+01 -0.60443206540E+01  0.14708892894E+02  0.51100000000E-03 0.  1.
        -12    1    3    3    0    0  0.25181442758E+02 -0.75089445600E+00  0.24766199021E+02  0.35327517827E+02  0.00000000000E+00 0.  1.
</event>
<event>
 7    1  0.3681059E-013  0.7246168E+02  0.7816164E-02  0.1226708E+00
        -11   -1    0    0    0    0  0.00000000000E+00  0.00000000000E+00  0.45593999997E+02  0.45594000000E+02  0.51100000000E-03 0.  1.
         11   -1    0    0    0    0 -0.00000000000E+00 -0.00000000000E+00 -0.45593999997E+02  0.45594000000E+02  0.51100000000E-03 0. -1.
    9900012    2    1    2    0    0 -0.12910169792E+02  0.25994174710E+01 -0.13313364556E+02  0.72461678123E+02  0.70000140467E+02 0.  0.
        -12    1    1    2    0    0  0.12910169792E+02 -0.25994174710E+01  0.13313364556E+02  0.18726321877E+02  0.00000000000E+00 0.  1.
         11    1    3    3    0    0 -0.41773913619E+01  0.17855233048E+02  0.79196113688E+01  0.19974488486E+02  0.51100000000E-03 0. -1.
        -11    1    3    3    0    0 -0.31927953575E+01 -0.68368824804E+01  0.13965872898E+02  0.15873956984E+02  0.51100000000E-03 0.  1.
         12    1    3    3    0    0 -0.55399830724E+01 -0.84189330965E+01 -0.35198848823E+02  0.36613232654E+02  0.00000000000E+00 0. -1.
</event>
<event>
 7    1  0.3681059E-013  0.7246143E+02  0.7816164E-02  0.1226708E+00
        -11   -1    0    0    0    0  0.00000000000E+00  0.00000000000E+00  0.45593999997E+02  0.45594000000E+02  0.51100000000E-03 0.  1.
         11   -1    0    0    0    0 -0.00000000000E+00 -0.00000000000E+00 -0.45593999997E+02  0.45594000000E+02  0.51100000000E-03 0. -1.
    9900012    2    1    2    0    0 -0.44134030907E+01  0.53044641362E+01 -0.17408877536E+02  0.72461428406E+02  0.69999815164E+02 0.  0.
        -12    1    1    2    0    0  0.44134030907E+01 -0.53044641362E+01  0.17408877536E+02  0.18726571594E+02  0.00000000000E+00 0.  1.
         11    1    3    3    0    0  0.63553009298E+01  0.16444478037E+02 -0.21277341089E+02  0.27632154312E+02  0.51100000000E-03 0. -1.
        -11    1    3    3    0    0 -0.16521821206E+02  0.11255616215E+02  0.76386885511E+01  0.21401145656E+02  0.51100000000E-03 0.  1.
         12    1    3    3    0    0  0.57531171852E+01 -0.22395630115E+02 -0.37702249977E+01  0.23428128439E+02  0.00000000000E+00 0. -1.
</event>
<event>
 7    1  0.3681059E-013  0.7246158E+02  0.7816164E-02  0.1226708E+00
        -11   -1    0    0    0    0  0.00000000000E+00  0.00000000000E+00  0.45593999997E+02  0.45594000000E+02  0.51100000000E-03 0. -1.
         11   -1    0    0    0    0 -0.00000000000E+00 -0.00000000000E+00 -0.45593999997E+02  0.45594000000E+02  0.51100000000E-03 0.  1.
    9900012    2    1    2    0    0 -0.84948433288E+01 -0.61842479991E+01  0.15500698921E+02  0.72461576061E+02  0.70000007512E+02 0.  0.
        -12    1    1    2    0    0  0.84948433288E+01  0.61842479991E+01 -0.15500698921E+02  0.18726423939E+02  0.00000000000E+00 0.  1.
         11    1    3    3    0    0 -0.12634454502E+02 -0.26820766497E+02  0.28187598344E+01  0.29781342537E+02  0.51100000000E-03 0. -1.
        -11    1    3    3    0    0  0.14678526317E+01 -0.97634589016E+01  0.56050833342E+01  0.11353267394E+02  0.51100000000E-03 0.  1.
        -12    1    3    3    0    0  0.26717585412E+01  0.30399977399E+02  0.70768557524E+01  0.31326966130E+02  0.00000000000E+00 0.  1.
</event>
<event>
 7    1  0.3681059E-013  0.7246157E+02  0.7816164E-02  0.1226708E+00
        -11   -1    0    0    0    0  0.00000000000E+00  0.00000000000E+00  0.45593999997E+02  0.45594000000E+02  0.51100000000E-03 0.  1.
         11   -1    0    0    0    0 -0.00000000000E+00 -0.00000000000E+00 -0.45593999997E+02  0.45594000000E+02  0.51100000000E-03 0. -1.
    9900012    2    1    2    0    0  0.64723802770E+01 -0.14637464229E+02 -0.97227621067E+01  0.72461570322E+02  0.70000000036E+02 0.  0.
        -12    1    1    2    0    0 -0.64723802770E+01  0.14637464229E+02  0.97227621067E+01  0.18726429678E+02  0.00000000000E+00 0.  1.
         11    1    3    3    0    0 -0.31712564692E+01  0.19537699310E+02 -0.16203444711E+02  0.25579878473E+02  0.51100000000E-03 0. -1.
        -11    1    3    3    0    0 -0.81929091740E+01 -0.26557504952E+01  0.62900291782E+01  0.10664953762E+02  0.51100000000E-03 0.  1.
         12    1    3    3    0    0  0.17836545920E+02 -0.31519413043E+02  0.19065342581E+00  0.36216738087E+02  0.00000000000E+00 0. -1.
</event>
<event>
 7    1  0.3681059E-013  0.7246149E+02  0.7816164E-02  0.1226708E+00
        -11   -1    0    0    0    0  0.00000000000E+00  0.00000000000E+00  0.45593999997E+02  0.45594000000E+02  0.51100000000E-03 0. -1.
         11   -1    0    0    0    0 -0.00000000000E+00 -0.00000000000E+00 -0.45593999997E+02  0.45594000000E+02  0.51100000000E-03 0.  1.
    9900012    2    1    2    0    0  0.13241645223E+01 -0.14867996986E+02  0.11308025533E+02  0.72461489713E+02  0.69999895028E+02 0.  0.
        -12    1    1    2    0    0 -0.13241645223E+01  0.14867996986E+02 -0.11308025533E+02  0.18726510287E+02  0.00000000000E+00 0.  1.
         11    1    3    3    0    0  0.70397867471E+01  0.49572331645E+01 -0.84787214218E+01  0.12083934595E+02  0.51100000000E-03 0. -1.
        -11    1    3    3    0    0 -0.23930764559E+02  0.66822390945E+01  0.75857468705E+01  0.25978401944E+02  0.51100000000E-03 0.  1.
         12    1    3    3    0    0  0.18215142335E+02 -0.26507469245E+02  0.12201000084E+02  0.34399153174E+02  0.00000000000E+00 0. -1.
</event>
<event>
 7    1  0.3681059E-013  0.7246153E+02  0.7816164E-02  0.1226708E+00
        -11   -1    0    0    0    0  0.00000000000E+00  0.00000000000E+00  0.45593999997E+02  0.45594000000E+02  0.51100000000E-03 0.  1.
         11   -1    0    0    0    0 -0.00000000000E+00 -0.00000000000E+00 -0.45593999997E+02  0.45594000000E+02  0.51100000000E-03 0. -1.
    9900012    2    1    2    0    0 -0.16580116129E+02  0.79630040427E+01  0.35172553944E+01  0.72461527568E+02  0.69999944342E+02 0.  0.
        -12    1    1    2    0    0  0.16580116129E+02 -0.79630040427E+01 -0.35172553944E+01  0.18726472432E+02  0.00000000000E+00 0.  1.
         11    1    3    3    0    0  0.30178774609E+01  0.86123206961E+01 -0.33184893687E+01  0.97104080291E+01  0.51100000000E-03 0. -1.
        -11    1    3    3    0    0 -0.10191563232E+02  0.22660941918E+02  0.22175371615E+02  0.33303653797E+02  0.51100000000E-03 0.  1.
        -12    1    3    3    0    0 -0.94064303578E+01 -0.23310258571E+02 -0.15339626852E+02  0.29447465743E+02  0.00000000000E+00 0.  1.
</event>
<event>
 7    1  0.3681059E-013  0.7246158E+02  0.7816164E-02  0.1226708E+00
        -11   -1    0    0    0    0  0.00000000000E+00  0.00000000000E+00  0.45593999997E+02  0.45594000000E+02  0.51100000000E-03 0. -1.
         11   -1    0    0    0    0 -0.00000000000E+00 -0.00000000000E+00 -0.45593999997E+02  0.45594000000E+02  0.51100000000E-03 0.  1.
    9900012    2    1    2    0    0  0.12656182476E+02 -0.29807972786E+01  0.13476451421E+02  0.72461578821E+02  0.70000011107E+02 0.  0.
        -12    1    1    2    0    0 -0.12656182476E+02  0.29807972786E+01 -0.13476451421E+02  0.18726421179E+02  0.00000000000E+00 0.  1.
         11    1    3    3    0    0  0.20975671090E+01 -0.18829993410E+02  0.53690361518E+01  0.19692510989E+02  0.51100000000E-03 0. -1.
        -11    1    3    3    0    0 -0.15065586354E+02 -0.79034443247E+01  0.47779188864E+01  0.17671016765E+02  0.51100000000E-03 0.  1.
         12    1    3    3    0    0  0.25624201721E+02  0.23752640456E+02  0.33294963825E+01  0.35098051066E+02  0.00000000000E+00 0. -1.
</event>
<event>
 7    1  0.3681059E-013  0.7246156E+02  0.7816164E-02  0.1226708E+00
        -11   -1    0    0    0    0  0.00000000000E+00  0.00000000000E+00  0.45593999997E+02  0.45594000000E+02  0.51100000000E-03 0. -1.
         11   -1    0    0    0    0 -0.00000000000E+00 -0.00000000000E+00 -0.45593999997E+02  0.45594000000E+02  0.51100000000E-03 0.  1.
    9900012    2    1    2    0    0 -0.14027414548E+02 -0.10990733288E+02 -0.57545774900E+01  0.72461555084E+02  0.69999980186E+02 0.  0.
        -12    1    1    2    0    0  0.14027414548E+02  0.10990733288E+02  0.57545774900E+01  0.18726444916E+02  0.00000000000E+00 0.  1.
         11    1    3    3    0    0 -0.34400436793E+01  0.11358279540E+02  0.22582194629E+01  0.12080727215E+02  0.51100000000E-03 0. -1.
        -11    1    3    3    0    0 -0.19080446212E+02 -0.19826042767E+02 -0.27544400954E+02  0.38933654126E+02  0.51100000000E-03 0.  1.
         12    1    3    3    0    0  0.84930753431E+01 -0.25229700614E+01  0.19531604001E+02  0.21447173743E+02  0.00000000000E+00 0. -1.
</event>
<event>
 7    1  0.3681059E-013  0.7246159E+02  0.7816164E-02  0.1226708E+00
        -11   -1    0    0    0    0  0.00000000000E+00  0.00000000000E+00  0.45593999997E+02  0.45594000000E+02  0.51100000000E-03 0.  1.
         11   -1    0    0    0    0 -0.00000000000E+00 -0.00000000000E+00 -0.45593999997E+02  0.45594000000E+02  0.51100000000E-03 0. -1.
    9900012    2    1    2    0    0 -0.94457628452E+01 -0.33569916339E+01 -0.15817289384E+02  0.72461588918E+02  0.70000024260E+02 0.  0.
        -12    1    1    2    0    0  0.94457628452E+01  0.33569916339E+01  0.15817289384E+02  0.18726411082E+02  0.00000000000E+00 0.  1.
         11    1    3    3    0    0 -0.20152259356E+01  0.58671181256E+01  0.38026346232E+01  0.72762793384E+01  0.51100000000E-03 0.  1.
        -11    1    3    3    0    0 -0.23326273085E+02  0.66133822587E+01 -0.31535776197E+02  0.39778851436E+02  0.51100000000E-03 0. -1.
         12    1    3    3    0    0  0.15895736175E+02 -0.15837492018E+02  0.11915852190E+02  0.25406458143E+02  0.00000000000E+00 0. -1.
</event>
<event>
 7    1  0.3681059E-013  0.7246143E+02  0.7816164E-02  0.1226708E+00
        -11   -1    0    0    0    0  0.00000000000E+00  0.00000000000E+00  0.45593999997E+02  0.45594000000E+02  0.51100000000E-03 0.  1.
         11   -1    0    0    0    0 -0.00000000000E+00 -0.00000000000E+00 -0.45593999997E+02  0.45594000000E+02  0.51100000000E-03 0. -1.
    9900012    2    1    2    0    0 -0.54467073396E+01  0.17551321495E+02  0.36012584856E+01  0.72461426108E+02  0.69999812170E+02 0.  0.
        -12    1    1    2    0    0  0.54467073396E+01 -0.17551321495E+02 -0.36012584856E+01  0.18726573892E+02  0.00000000000E+00 0.  1.
         11    1    3    3    0    0 -0.75805950545E+01 -0.76494637437E+01 -0.12474190841E+02  0.16479840847E+02  0.51100000000E-03 0. -1.
        -11    1    3    3    0    0  0.22871636238E+01 -0.13472719663E+02  0.97661151783E+01  0.16796496614E+02  0.51100000000E-03 0.  1.
         12    1    3    3    0    0 -0.15327590881E+00  0.38673504902E+02  0.63093341481E+01  0.39185088647E+02  0.00000000000E+00 0. -1.
</event>
<event>
 7    1  0.3681059E-013  0.7246156E+02  0.7816164E-02  0.1226708E+00
        -11   -1    0    0    0    0  0.00000000000E+00  0.00000000000E+00  0.45593999997E+02  0.45594000000E+02  0.51100000000E-03 0.  1.
         11   -1    0    0    0    0 -0.00000000000E+00 -0.00000000000E+00 -0.45593999997E+02  0.45594000000E+02  0.51100000000E-03 0. -1.
    9900012    2    1    2    0    0  0.33783213460E+01  0.56925332821E+01 -0.17517464864E+02  0.72461559721E+02  0.69999986226E+02 0.  0.
        -12    1    1    2    0    0 -0.33783213460E+01 -0.56925332821E+01  0.17517464864E+02  0.18726440279E+02  0.00000000000E+00 0.  1.
         11    1    3    3    0    0 -0.19027381093E+01  0.16392639476E+02 -0.24034685866E+01  0.16676801336E+02  0.51100000000E-03 0. -1.
        -11    1    3    3    0    0 -0.47939295012E+01  0.48561023907E+01 -0.30773629037E+02  0.31521099836E+02  0.51100000000E-03 0.  1.
        -12    1    3    3    0    0  0.10074988956E+02 -0.15556208585E+02  0.15659632760E+02  0.24263658549E+02  0.00000000000E+00 0.  1.
</event>
<event>
 7    1  0.3681059E-013  0.7246196E+02  0.7816164E-02  0.1226707E+00
        -11   -1    0    0    0    0  0.00000000000E+00  0.00000000000E+00  0.45593999997E+02  0.45594000000E+02  0.51100000000E-03 0. -1.
         11   -1    0    0    0    0 -0.00000000000E+00 -0.00000000000E+00 -0.45593999997E+02  0.45594000000E+02  0.51100000000E-03 0.  1.
    9900012    2    1    2    0    0  0.41739378738E+01 -0.18037787651E+01  0.18165608694E+02  0.72461956253E+02  0.70000502781E+02 0.  0.
        -12    1    1    2    0    0 -0.41739378738E+01  0.18037787651E+01 -0.18165608694E+02  0.18726043747E+02  0.00000000000E+00 0.  1.
         11    1    3    3    0    0  0.11257638421E+02 -0.21485572576E+02  0.29832254568E+02  0.38449026835E+02  0.51100000000E-03 0. -1.
        -11    1    3    3    0    0 -0.10002076643E+02 -0.86763858335E+00  0.31994098174E+00  0.10044734759E+02  0.51100000000E-03 0.  1.
        -12    1    3    3    0    0  0.29183760959E+01  0.20549432394E+02 -0.11986586856E+02  0.23968194659E+02  0.00000000000E+00 0.  1.
</event>
<event>
 7    1  0.3681059E-013  0.7246156E+02  0.7816164E-02  0.1226708E+00
        -11   -1    0    0    0    0  0.00000000000E+00  0.00000000000E+00  0.45593999997E+02  0.45594000000E+02  0.51100000000E-03 0. -1.
         11   -1    0    0    0    0 -0.00000000000E+00 -0.00000000000E+00 -0.45593999997E+02  0.45594000000E+02  0.51100000000E-03 0.  1.
    9900012    2    1    2    0    0  0.61200867197E+01 -0.17451935622E+02  0.29417901811E+01  0.72461557522E+02  0.69999983362E+02 0.  0.
        -12    1    1    2    0    0 -0.61200867197E+01  0.17451935622E+02 -0.29417901811E+01  0.18726442478E+02  0.00000000000E+00 0.  1.
         11    1    3    3    0    0  0.19741322201E+02 -0.14761529099E+02  0.22687960599E+02  0.33501732791E+02  0.51100000000E-03 0. -1.
        -11    1    3    3    0    0  0.79839925114E+01 -0.33500892770E+01  0.13418434508E+01  0.87617223588E+01  0.51100000000E-03 0.  1.
        -12    1    3    3    0    0 -0.21605227993E+02  0.65968275422E+00 -0.21088013869E+02  0.30198102373E+02  0.00000000000E+00 0.  1.
</event>
<event>
 7    1  0.3681059E-013  0.7246156E+02  0.7816164E-02  0.1226708E+00
        -11   -1    0    0    0    0  0.00000000000E+00  0.00000000000E+00  0.45593999997E+02  0.45594000000E+02  0.51100000000E-03 0.  1.
         11   -1    0    0    0    0 -0.00000000000E+00 -0.00000000000E+00 -0.45593999997E+02  0.45594000000E+02  0.51100000000E-03 0. -1.
    9900012    2    1    2    0    0 -0.12528680715E+02 -0.11850344162E-01 -0.13918033520E+02  0.72461557787E+02  0.69999983707E+02 0.  0.
        -12    1    1    2    0    0  0.12528680715E+02  0.11850344162E-01  0.13918033520E+02  0.18726442213E+02  0.00000000000E+00 0.  1.
         11    1    3    3    0    0 -0.79756415805E+01 -0.54435897648E+01 -0.13610357360E+02  0.16687880509E+02  0.51100000000E-03 0. -1.
        -11    1    3    3    0    0  0.31284944063E+01 -0.19748847602E+02  0.15292297643E+02  0.25172580844E+02  0.51100000000E-03 0.  1.
         12    1    3    3    0    0 -0.76815335412E+01  0.25180587023E+02 -0.15599973803E+02  0.30601096434E+02  0.00000000000E+00 0. -1.
</event>
<event>
 7    1  0.3681059E-013  0.7246158E+02  0.7816164E-02  0.1226708E+00
        -11   -1    0    0    0    0  0.00000000000E+00  0.00000000000E+00  0.45593999997E+02  0.45594000000E+02  0.51100000000E-03 0. -1.
         11   -1    0    0    0    0 -0.00000000000E+00 -0.00000000000E+00 -0.45593999997E+02  0.45594000000E+02  0.51100000000E-03 0.  1.
    9900012    2    1    2    0    0  0.16881662470E+02 -0.76163787754E+01 -0.27710936497E+01  0.72461582472E+02  0.70000015864E+02 0.  0.
        -12    1    1    2    0    0 -0.16881662470E+02  0.76163787754E+01  0.27710936497E+01  0.18726417528E+02  0.00000000000E+00 0.  1.
         11    1    3    3    0    0 -0.12874283664E+02  0.13998650030E+02  0.11829554202E+02  0.22397493953E+02  0.51100000000E-03 0. -1.
        -11    1    3    3    0    0 -0.61998980988E+01 -0.49160588887E+01 -0.46964522569E+01  0.92012518439E+01  0.51100000000E-03 0.  1.
        -12    1    3    3    0    0  0.35955844233E+02 -0.16698969916E+02 -0.99041955949E+01  0.40862836675E+02  0.00000000000E+00 0.  1.
</event>
<event>
 7    1  0.3681059E-013  0.7246153E+02  0.7816164E-02  0.1226708E+00
        -11   -1    0    0    0    0  0.00000000000E+00  0.00000000000E+00  0.45593999997E+02  0.45594000000E+02  0.51100000000E-03 0.  1.
         11   -1    0    0    0    0 -0.00000000000E+00 -0.00000000000E+00 -0.45593999997E+02  0.45594000000E+02  0.51100000000E-03 0. -1.
    9900012    2    1    2    0    0 -0.11458220684E+02  0.45138315445E+01 -0.14107270486E+02  0.72461532714E+02  0.69999951045E+02 0.  0.
        -12    1    1    2    0    0  0.11458220684E+02 -0.45138315445E+01  0.14107270486E+02  0.18726467286E+02  0.00000000000E+00 0.  1.
         11    1    3    3    0    0  0.33273336699E+01 -0.20512560011E+02  0.15766442027E+02  0.26084803277E+02  0.51100000000E-03 0. -1.
        -11    1    3    3    0    0 -0.70445728445E+01  0.15880627932E+02 -0.39477601408E+01  0.17815868221E+02  0.51100000000E-03 0.  1.
        -12    1    3    3    0    0 -0.77409815094E+01  0.91457636235E+01 -0.25925952372E+02  0.28560861215E+02  0.00000000000E+00 0.  1.
</event>
<event>
 7    1  0.3681059E-013  0.7246157E+02  0.7816164E-02  0.1226708E+00
        -11   -1    0    0    0    0  0.00000000000E+00  0.00000000000E+00  0.45593999997E+02  0.45594000000E+02  0.51100000000E-03 0.  1.
         11   -1    0    0    0    0 -0.00000000000E+00 -0.00000000000E+00 -0.45593999997E+02  0.45594000000E+02  0.51100000000E-03 0. -1.
    9900012    2    1    2    0    0 -0.44388441271E+01  0.98482091787E+01 -0.15296687641E+02  0.72461569107E+02  0.69999998453E+02 0.  0.
        -12    1    1    2    0    0  0.44388441271E+01 -0.98482091787E+01  0.15296687641E+02  0.18726430893E+02  0.00000000000E+00 0.  1.
         11    1    3    3    0    0 -0.93191722212E+01  0.31701936844E+02  0.96624311609E+00  0.33057425740E+02  0.51100000000E-03 0. -1.
        -11    1    3    3    0    0  0.61408157074E+01 -0.40061466637E+01  0.69456047349E+01  0.10099517515E+02  0.51100000000E-03 0.  1.
         12    1    3    3    0    0 -0.12604876132E+01 -0.17847581001E+02 -0.23208535492E+02  0.29304625852E+02  0.00000000000E+00 0. -1.
</event>
<event>
 7    1  0.3681059E-013  0.7246162E+02  0.7816164E-02  0.1226708E+00
        -11   -1    0    0    0    0  0.00000000000E+00  0.00000000000E+00  0.45593999997E+02  0.45594000000E+02  0.51100000000E-03 0. -1.
         11   -1    0    0    0    0 -0.00000000000E+00 -0.00000000000E+00 -0.45593999997E+02  0.45594000000E+02  0.51100000000E-03 0.  1.
    9900012    2    1    2    0    0 -0.16352738495E+02  0.83563865007E+01 -0.36655054553E+01  0.72461623365E+02  0.70000069134E+02 0.  0.
        -12    1    1    2    0    0  0.16352738495E+02 -0.83563865007E+01  0.36655054553E+01  0.18726376635E+02  0.00000000000E+00 0.  1.
         11    1    3    3    0    0  0.37279603227E+01 -0.49117900334E+01  0.28058692270E+02  0.28728271470E+02  0.51100000000E-03 0. -1.
        -11    1    3    3    0    0 -0.81563805073E+01 -0.33705412169E+01 -0.52525406193E+01  0.10270164278E+02  0.51100000000E-03 0.  1.
        -12    1    3    3    0    0 -0.11924318310E+02  0.16638717751E+02 -0.26471657106E+02  0.33463187617E+02  0.00000000000E+00 0.  1.
</event>
<event>
 7    1  0.3681059E-013  0.7246158E+02  0.7816164E-02  0.1226708E+00
        -11   -1    0    0    0    0  0.00000000000E+00  0.00000000000E+00  0.45593999997E+02  0.45594000000E+02  0.51100000000E-03 0. -1.
         11   -1    0    0    0    0 -0.00000000000E+00 -0.00000000000E+00 -0.45593999997E+02  0.45594000000E+02  0.51100000000E-03 0.  1.
    9900012    2    1    2    0    0  0.33838538103E+00  0.13435003115E+02  0.13040902839E+02  0.72461575883E+02  0.70000007280E+02 0.  0.
        -12    1    1    2    0    0 -0.33838538103E+00 -0.13435003115E+02 -0.13040902839E+02  0.18726424117E+02  0.00000000000E+00 0.  1.
         11    1    3    3    0    0  0.13436679520E+01  0.88872793717E+01  0.22783716157E+02  0.24492588683E+02  0.51100000000E-03 0. -1.
        -11    1    3    3    0    0  0.15516026425E+02 -0.12386015326E+02 -0.13508150245E+02  0.24013133385E+02  0.51100000000E-03 0.  1.
         12    1    3    3    0    0 -0.16521308996E+02  0.16933739070E+02  0.37653369267E+01  0.23955853815E+02  0.00000000000E+00 0. -1.
</event>
<event>
 7    1  0.3681059E-013  0.7246159E+02  0.7816164E-02  0.1226708E+00
        -11   -1    0    0    0    0  0.00000000000E+00  0.00000000000E+00  0.45593999997E+02  0.45594000000E+02  0.51100000000E-03 0.  1.
         11   -1    0    0    0    0 -0.00000000000E+00 -0.00000000000E+00 -0.45593999997E+02  0.45594000000E+02  0.51100000000E-03 0. -1.
    9900012    2    1    2    0    0  0.11666358345E+01  0.17063635677E+02 -0.76255968048E+01  0.72461590085E+02  0.70000025780E+02 0.  0.
        -12    1    1    2    0    0 -0.11666358345E+01 -0.17063635677E+02  0.76255968048E+01  0.18726409915E+02  0.00000000000E+00 0.  1.
         11    1    3    3    0    0 -0.17311861972E+02  0.10489657225E+02 -0.18951656290E+02  0.27729023604E+02  0.51100000000E-03 0. -1.
        -11    1    3    3    0    0 -0.86045414662E+01  0.48903172906E+01 -0.68817997363E+01  0.12054563655E+02  0.51100000000E-03 0.  1.
        -12    1    3    3    0    0  0.27083039273E+02  0.16836611620E+01  0.18207859222E+02  0.32678002825E+02  0.00000000000E+00 0.  1.
</event>
<event>
 7    1  0.3681059E-013  0.7246156E+02  0.7816164E-02  0.1226708E+00
        -11   -1    0    0    0    0  0.00000000000E+00  0.00000000000E+00  0.45593999997E+02  0.45594000000E+02  0.51100000000E-03 0.  1.
         11   -1    0    0    0    0 -0.00000000000E+00 -0.00000000000E+00 -0.45593999997E+02  0.45594000000E+02  0.51100000000E-03 0. -1.
    9900012    2    1    2    0    0 -0.19512409344E+01  0.61531414762E+01 -0.17578705559E+02  0.72461564666E+02  0.69999992667E+02 0.  0.
        -12    1    1    2    0    0  0.19512409344E+01 -0.61531414762E+01  0.17578705559E+02  0.18726435334E+02  0.00000000000E+00 0.  1.
         11    1    3    3    0    0  0.45954961801E-01 -0.10594988536E+02 -0.39697312069E+02  0.41086889390E+02  0.51100000000E-03 0. -1.
        -11    1    3    3    0    0  0.23910385962E+01 -0.15302450770E+01  0.58994947840E+01  0.65469652918E+01  0.51100000000E-03 0.  1.
        -12    1    3    3    0    0 -0.43882344924E+01  0.18278375089E+02  0.16219111727E+02  0.24827709984E+02  0.00000000000E+00 0.  1.
</event>
<event>
 7    1  0.3681059E-013  0.7246155E+02  0.7816164E-02  0.1226708E+00
        -11   -1    0    0    0    0  0.00000000000E+00  0.00000000000E+00  0.45593999997E+02  0.45594000000E+02  0.51100000000E-03 0.  1.
         11   -1    0    0    0    0 -0.00000000000E+00 -0.00000000000E+00 -0.45593999997E+02  0.45594000000E+02  0.51100000000E-03 0. -1.
    9900012    2    1    2    0    0  0.13378986912E+02 -0.83838451105E+01 -0.10069446125E+02  0.72461550927E+02  0.69999974771E+02 0.  0.
        -12    1    1    2    0    0 -0.13378986912E+02  0.83838451105E+01  0.10069446125E+02  0.18726449073E+02  0.00000000000E+00 0.  1.
         11    1    3    3    0    0  0.24901609216E+02 -0.30167418006E+02 -0.15934779247E+00  0.39117625729E+02  0.51100000000E-03 0. -1.
        -11    1    3    3    0    0  0.13341075851E+00  0.50638236613E+01  0.57335973973E+01  0.76507677967E+01  0.51100000000E-03 0.  1.
        -12    1    3    3    0    0 -0.11656033063E+02  0.16719749234E+02 -0.15643695730E+02  0.25693157402E+02  0.00000000000E+00 0.  1.
</event>
<event>
 7    1  0.3681059E-013  0.7246108E+02  0.7816164E-02  0.1226709E+00
        -11   -1    0    0    0    0  0.00000000000E+00  0.00000000000E+00  0.45593999997E+02  0.45594000000E+02  0.51100000000E-03 0.  1.
         11   -1    0    0    0    0 -0.00000000000E+00 -0.00000000000E+00 -0.45593999997E+02  0.45594000000E+02  0.51100000000E-03 0. -1.
    9900012    2    1    2    0    0 -0.20513313313E+01  0.17848540776E+02 -0.52838474214E+01  0.72461083232E+02  0.69999365508E+02 0.  0.
        -12    1    1    2    0    0  0.20513313313E+01 -0.17848540776E+02  0.52838474214E+01  0.18726916768E+02  0.00000000000E+00 0.  1.
         11    1    3    3    0    0 -0.11317171018E+02  0.19771673447E+02 -0.12977151017E+02  0.26218388195E+02  0.51100000000E-03 0. -1.
        -11    1    3    3    0    0 -0.69035720534E+01  0.17851455124E+02 -0.12448098506E+01  0.19180284382E+02  0.51100000000E-03 0.  1.
        -12    1    3    3    0    0  0.16169411740E+02 -0.19774587795E+02  0.89381134467E+01  0.27062410655E+02  0.00000000000E+00 0.  1.
</event>
<event>
 7    1  0.3681059E-013  0.7246182E+02  0.7816164E-02  0.1226707E+00
        -11   -1    0    0    0    0  0.00000000000E+00  0.00000000000E+00  0.45593999997E+02  0.45594000000E+02  0.51100000000E-03 0.  1.
         11   -1    0    0    0    0 -0.00000000000E+00 -0.00000000000E+00 -0.45593999997E+02  0.45594000000E+02  0.51100000000E-03 0. -1.
    9900012    2    1    2    0    0  0.27378180126E+01 -0.67367789640E+01 -0.17256595098E+02  0.72461817457E+02  0.70000321974E+02 0.  0.
        -12    1    1    2    0    0 -0.27378180126E+01  0.67367789640E+01  0.17256595098E+02  0.18726182543E+02  0.00000000000E+00 0.  1.
         11    1    3    3    0    0  0.14812198590E+02  0.27380459292E+01  0.13549062356E+02  0.20260187896E+02  0.51100000000E-03 0. -1.
        -11    1    3    3    0    0 -0.39720015648E+01  0.67113653461E+01  0.68765699527E+01  0.10397424480E+02  0.51100000000E-03 0.  1.
         12    1    3    3    0    0 -0.81023790127E+01 -0.16186190239E+02 -0.37682227407E+02  0.41804205081E+02  0.00000000000E+00 0. -1.
</event>
<event>
 7    1  0.3681059E-013  0.7246154E+02  0.7816164E-02  0.1226708E+00
        -11   -1    0    0    0    0  0.00000000000E+00  0.00000000000E+00  0.45593999997E+02  0.45594000000E+02  0.51100000000E-03 0. -1.
         11   -1    0    0    0    0 -0.00000000000E+00 -0.00000000000E+00 -0.45593999997E+02  0.45594000000E+02  0.51100000000E-03 0.  1.
    9900012    2    1    2    0    0 -0.14059068697E+02  0.80203558746E+01  0.94179040766E+01  0.72461536421E+02  0.69999955873E+02 0.  0.
        -12    1    1    2    0    0  0.14059068697E+02 -0.80203558746E+01 -0.94179040766E+01  0.18726463579E+02  0.00000000000E+00 0.  1.
         11    1    3    3    0    0  0.20112454445E+02  0.15824285119E+02  0.13908250846E+01  0.25629147821E+02  0.51100000000E-03 0. -1.
        -11    1    3    3    0    0 -0.90930550215E+01  0.10508166176E+02 -0.23464124715E+01  0.14092936449E+02  0.51100000000E-03 0.  1.
         12    1    3    3    0    0 -0.25078468121E+02 -0.18312095421E+02  0.10373491463E+02  0.32739452151E+02  0.00000000000E+00 0. -1.
</event>
<event>
 7    1  0.3681059E-013  0.7246162E+02  0.7816164E-02  0.1226708E+00
        -11   -1    0    0    0    0  0.00000000000E+00  0.00000000000E+00  0.45593999997E+02  0.45594000000E+02  0.51100000000E-03 0.  1.
         11   -1    0    0    0    0 -0.00000000000E+00 -0.00000000000E+00 -0.45593999997E+02  0.45594000000E+02  0.51100000000E-03 0. -1.
    9900012    2    1    2    0    0 -0.10866562503E+02  0.10690261357E+02 -0.10877206718E+02  0.72461615019E+02  0.70000058262E+02 0.  0.
        -12    1    1    2    0    0  0.10866562503E+02 -0.10690261357E+02  0.10877206718E+02  0.18726384981E+02  0.00000000000E+00 0.  1.
         11    1    3    3    0    0 -0.42790753833E+01 -0.18668742337E+01 -0.52266017643E+01  0.70080719035E+01  0.51100000000E-03 0. -1.
        -11    1    3    3    0    0 -0.30511695441E+02 -0.68739695274E+01  0.71446297592E+01  0.32082093922E+02  0.51100000000E-03 0.  1.
         12    1    3    3    0    0  0.23924208322E+02  0.19431105118E+02 -0.12795234712E+02  0.33371449193E+02  0.00000000000E+00 0. -1.
</event>
<event>
 7    1  0.3681059E-013  0.7246155E+02  0.7816164E-02  0.1226708E+00
        -11   -1    0    0    0    0  0.00000000000E+00  0.00000000000E+00  0.45593999997E+02  0.45594000000E+02  0.51100000000E-03 0.  1.
         11   -1    0    0    0    0 -0.00000000000E+00 -0.00000000000E+00 -0.45593999997E+02  0.45594000000E+02  0.51100000000E-03 0. -1.
    9900012    2    1    2    0    0 -0.15127680309E+00  0.16766076498E+02 -0.83400108072E+01  0.72461548492E+02  0.69999971599E+02 0.  0.
        -12    1    1    2    0    0  0.15127680309E+00 -0.16766076498E+02  0.83400108072E+01  0.18726451508E+02  0.00000000000E+00 0.  1.
         11    1    3    3    0    0 -0.20247767725E+02  0.22711476782E+01 -0.23265161727E+02  0.30925684472E+02  0.51100000000E-03 0. -1.
        -11    1    3    3    0    0  0.45863665036E+01 -0.38673778347E+01 -0.68480477526E+01  0.91042367777E+01  0.51100000000E-03 0.  1.
        -12    1    3    3    0    0  0.15510124418E+02  0.18362306655E+02  0.21773198673E+02  0.32431627242E+02  0.00000000000E+00 0.  1.
</event>
<event>
 7    1  0.3681059E-013  0.7246152E+02  0.7816164E-02  0.1226708E+00
        -11   -1    0    0    0    0  0.00000000000E+00  0.00000000000E+00  0.45593999997E+02  0.45594000000E+02  0.51100000000E-03 0. -1.
         11   -1    0    0    0    0 -0.00000000000E+00 -0.00000000000E+00 -0.45593999997E+02  0.45594000000E+02  0.51100000000E-03 0.  1.
    9900012    2    1    2    0    0  0.60596459528E+01  0.17642935926E+02  0.16396545986E+01  0.72461522372E+02  0.69999937572E+02 0.  0.
        -12    1    1    2    0    0 -0.60596459528E+01 -0.17642935926E+02 -0.16396545986E+01  0.18726477628E+02  0.00000000000E+00 0.  1.
         11    1    3    3    0    0  0.12321449860E+02 -0.22506756620E-01 -0.12418063209E+02  0.17493625334E+02  0.51100000000E-03 0.  1.
        -11    1    3    3    0    0  0.15485730611E+02  0.96637824679E+01  0.23661149017E+02  0.29883883905E+02  0.51100000000E-03 0. -1.
        -12    1    3    3    0    0 -0.21747534519E+02  0.80016602146E+01 -0.96034312094E+01  0.25084013133E+02  0.00000000000E+00 0.  1.
</event>
<event>
 7    1  0.3681059E-013  0.7246159E+02  0.7816164E-02  0.1226708E+00
        -11   -1    0    0    0    0  0.00000000000E+00  0.00000000000E+00  0.45593999997E+02  0.45594000000E+02  0.51100000000E-03 0.  1.
         11   -1    0    0    0    0 -0.00000000000E+00 -0.00000000000E+00 -0.45593999997E+02  0.45594000000E+02  0.51100000000E-03 0. -1.
    9900012    2    1    2    0    0  0.42341942434E+01  0.18190835755E+02 -0.13577525950E+01  0.72461590882E+02  0.70000026819E+02 0.  0.
        -12    1    1    2    0    0 -0.42341942434E+01 -0.18190835755E+02  0.13577525950E+01  0.18726409118E+02  0.00000000000E+00 0.  1.
         11    1    3    3    0    0  0.22956494497E+00  0.15074649559E+02  0.16461981829E+02  0.22322513420E+02  0.51100000000E-03 0. -1.
        -11    1    3    3    0    0  0.64231433875E+01  0.10434378898E+01  0.15425340818E+02  0.16741764340E+02  0.51100000000E-03 0.  1.
         12    1    3    3    0    0 -0.24185140890E+01  0.20727483057E+01 -0.33245075242E+02  0.33397313122E+02  0.00000000000E+00 0. -1.
</event>
<event>
 7    1  0.3681059E-013  0.7246156E+02  0.7816164E-02  0.1226708E+00
        -11   -1    0    0    0    0  0.00000000000E+00  0.00000000000E+00  0.45593999997E+02  0.45594000000E+02  0.51100000000E-03 0. -1.
         11   -1    0    0    0    0 -0.00000000000E+00 -0.00000000000E+00 -0.45593999997E+02  0.45594000000E+02  0.51100000000E-03 0.  1.
    9900012    2    1    2    0    0 -0.50377583762E+01 -0.16219391911E+02  0.78887225758E+01  0.72461558072E+02  0.69999984078E+02 0.  0.
        -12    1    1    2    0    0  0.50377583762E+01  0.16219391911E+02 -0.78887225758E+01  0.18726441928E+02  0.00000000000E+00 0.  1.
         11    1    3    3    0    0  0.26959883555E+02 -0.32400807466E+01  0.16493883252E+02  0.31770766902E+02  0.51100000000E-03 0. -1.
        -11    1    3    3    0    0 -0.13737779947E+01 -0.37698112247E+01 -0.77193638968E+01  0.86998460837E+01  0.51100000000E-03 0.  1.
        -12    1    3    3    0    0 -0.30623863937E+02 -0.92094999397E+01 -0.88579677918E+00  0.31990945086E+02  0.00000000000E+00 0.  1.
</event>
<event>
 7    1  0.3681059E-013  0.7246155E+02  0.7816164E-02  0.1226708E+00
        -11   -1    0    0    0    0  0.00000000000E+00  0.00000000000E+00  0.45593999997E+02  0.45594000000E+02  0.51100000000E-03 0. -1.
         11   -1    0    0    0    0 -0.00000000000E+00 -0.00000000000E+00 -0.45593999997E+02  0.45594000000E+02  0.51100000000E-03 0.  1.
    9900012    2    1    2    0    0 -0.24146680115E+01 -0.52911865534E+00  0.18562576559E+02  0.72461552481E+02  0.69999976795E+02 0.  0.
        -12    1    1    2    0    0  0.24146680115E+01  0.52911865534E+00 -0.18562576559E+02  0.18726447519E+02  0.00000000000E+00 0.  1.
         11    1    3    3    0    0  0.12521586834E+02  0.24500877806E+01 -0.82079068642E-01  0.12759302654E+02  0.51100000000E-03 0. -1.
        -11    1    3    3    0    0  0.53870700618E+01 -0.58891419990E+01 -0.16879928613E+02  0.18671756950E+02  0.51100000000E-03 0.  1.
         12    1    3    3    0    0 -0.20323324907E+02  0.29099355631E+01  0.35524584241E+02  0.41030492878E+02  0.00000000000E+00 0. -1.
</event>
<event>
 7    1  0.3681059E-013  0.7246158E+02  0.7816164E-02  0.1226708E+00
        -11   -1    0    0    0    0  0.00000000000E+00  0.00000000000E+00  0.45593999997E+02  0.45594000000E+02  0.51100000000E-03 0.  1.
         11   -1    0    0    0    0 -0.00000000000E+00 -0.00000000000E+00 -0.45593999997E+02  0.45594000000E+02  0.51100000000E-03 0. -1.
    9900012    2    1    2    0    0 -0.16720100217E+02  0.34895712945E+01 -0.76772346645E+01  0.72461580396E+02  0.70000013160E+02 0.  0.
        -12    1    1    2    0    0  0.16720100217E+02 -0.34895712945E+01  0.76772346645E+01  0.18726419604E+02  0.00000000000E+00 0.  1.
         11    1    3    3    0    0 -0.10017966302E+02 -0.20440905585E+02 -0.16093514633E+02  0.27878154233E+02  0.51100000000E-03 0. -1.
        -11    1    3    3    0    0 -0.13312155698E+02  0.34063502536E+01 -0.93702206481E+01  0.16631829323E+02  0.51100000000E-03 0.  1.
        -12    1    3    3    0    0  0.66100217832E+01  0.20524126625E+02  0.17786500617E+02  0.27951596840E+02  0.00000000000E+00 0.  1.
</event>
<event>
 7    1  0.3681059E-013  0.7246157E+02  0.7816164E-02  0.1226708E+00
        -11   -1    0    0    0    0  0.00000000000E+00  0.00000000000E+00  0.45593999997E+02  0.45594000000E+02  0.51100000000E-03 0.  1.
         11   -1    0    0    0    0 -0.00000000000E+00 -0.00000000000E+00 -0.45593999997E+02  0.45594000000E+02  0.51100000000E-03 0. -1.
    9900012    2    1    2    0    0 -0.85068683713E+01  0.73395176165E+01 -0.14981446027E+02  0.72461573395E+02  0.70000004039E+02 0.  0.
        -12    1    1    2    0    0  0.85068683713E+01 -0.73395176165E+01  0.14981446027E+02  0.18726426605E+02  0.00000000000E+00 0.  1.
         11    1    3    3    0    0 -0.39107254788E+01  0.65278172244E+01  0.10364008392E+02  0.12857637485E+02  0.51100000000E-03 0. -1.
        -11    1    3    3    0    0 -0.25695014132E+02 -0.12568693040E+02 -0.10095822453E+02  0.30333668212E+02  0.51100000000E-03 0.  1.
         12    1    3    3    0    0  0.21098871239E+02  0.13380393432E+02 -0.15249631966E+02  0.29270267697E+02  0.00000000000E+00 0. -1.
</event>
<event>
 7    1  0.3681059E-013  0.7246155E+02  0.7816164E-02  0.1226708E+00
        -11   -1    0    0    0    0  0.00000000000E+00  0.00000000000E+00  0.45593999997E+02  0.45594000000E+02  0.51100000000E-03 0.  1.
         11   -1    0    0    0    0 -0.00000000000E+00 -0.00000000000E+00 -0.45593999997E+02  0.45594000000E+02  0.51100000000E-03 0. -1.
    9900012    2    1    2    0    0  0.75022203773E+01 -0.10127061011E+02 -0.13850602285E+02  0.72461551886E+02  0.69999976020E+02 0.  0.
        -12    1    1    2    0    0 -0.75022203773E+01  0.10127061011E+02  0.13850602285E+02  0.18726448114E+02  0.00000000000E+00 0.  1.
         11    1    3    3    0    0 -0.67867723307E+00  0.27377831071E+02 -0.72301408397E+01  0.28324568377E+02  0.51100000000E-03 0. -1.
        -11    1    3    3    0    0 -0.49329728780E+01 -0.18573302150E+01  0.10813534826E+01  0.53808198779E+01  0.51100000000E-03 0.  1.
        -12    1    3    3    0    0  0.13113870488E+02 -0.35647561866E+02 -0.77018149281E+01  0.38756163631E+02  0.00000000000E+00 0.  1.
</event>
<event>
 7    1  0.3681059E-013  0.7246153E+02  0.7816164E-02  0.1226708E+00
        -11   -1    0    0    0    0  0.00000000000E+00  0.00000000000E+00  0.45593999997E+02  0.45594000000E+02  0.51100000000E-03 0.  1.
         11   -1    0    0    0    0 -0.00000000000E+00 -0.00000000000E+00 -0.45593999997E+02  0.45594000000E+02  0.51100000000E-03 0. -1.
    9900012    2    1    2    0    0 -0.14525726085E+01  0.32542178544E+01 -0.18384256040E+02  0.72461527530E+02  0.69999944292E+02 0.  0.
        -12    1    1    2    0    0  0.14525726085E+01 -0.32542178544E+01  0.18384256040E+02  0.18726472470E+02  0.00000000000E+00 0.  1.
         11    1    3    3    0    0 -0.50345412021E+01  0.66204234578E+00 -0.60136628956E+01  0.78707716817E+01  0.51100000000E-03 0. -1.
        -11    1    3    3    0    0 -0.14756718243E+02 -0.25597438465E+02 -0.84641342133E+01  0.30734852489E+02  0.51100000000E-03 0.  1.
        -12    1    3    3    0    0  0.18338686837E+02  0.28189613974E+02 -0.39064589310E+01  0.33855903359E+02  0.00000000000E+00 0.  1.
</event>
<event>
 7    1  0.3681059E-013  0.7246166E+02  0.7816164E-02  0.1226708E+00
        -11   -1    0    0    0    0  0.00000000000E+00  0.00000000000E+00  0.45593999997E+02  0.45594000000E+02  0.51100000000E-03 0. -1.
         11   -1    0    0    0    0 -0.00000000000E+00 -0.00000000000E+00 -0.45593999997E+02  0.45594000000E+02  0.51100000000E-03 0.  1.
    9900012    2    1    2    0    0 -0.90481044752E+01 -0.16390763455E+02  0.38769504659E+00  0.72461664836E+02  0.70000123158E+02 0.  0.
        -12    1    1    2    0    0  0.90481044752E+01  0.16390763455E+02 -0.38769504659E+00  0.18726335164E+02  0.00000000000E+00 0.  1.
         11    1    3    3    0    0 -0.23382155168E+02  0.33733545202E+01 -0.19714121076E+01  0.23706352882E+02  0.51100000000E-03 0. -1.
        -11    1    3    3    0    0 -0.14799931480E+02 -0.46274396559E+01  0.35289188067E+01  0.15902969464E+02  0.51100000000E-03 0.  1.
        -12    1    3    3    0    0  0.29133982172E+02 -0.15136678319E+02 -0.11698116525E+01  0.32852342490E+02  0.00000000000E+00 0.  1.
</event>
<event>
 7    1  0.3681059E-013  0.7246156E+02  0.7816164E-02  0.1226708E+00
        -11   -1    0    0    0    0  0.00000000000E+00  0.00000000000E+00  0.45593999997E+02  0.45594000000E+02  0.51100000000E-03 0.  1.
         11   -1    0    0    0    0 -0.00000000000E+00 -0.00000000000E+00 -0.45593999997E+02  0.45594000000E+02  0.51100000000E-03 0. -1.
    9900012    2    1    2    0    0 -0.13241947278E+02 -0.12417585464E+02 -0.45971485917E+01  0.72461564897E+02  0.69999992969E+02 0.  0.
        -12    1    1    2    0    0  0.13241947278E+02  0.12417585464E+02  0.45971485917E+01  0.18726435103E+02  0.00000000000E+00 0.  1.
         11    1    3    3    0    0 -0.10610534608E+02 -0.98378595890E+01  0.17318222513E+02  0.22567404752E+02  0.51100000000E-03 0. -1.
        -11    1    3    3    0    0 -0.99704624477E+01  0.82881182074E+01  0.93531777420E+01  0.15987024707E+02  0.51100000000E-03 0.  1.
         12    1    3    3    0    0  0.73390497769E+01 -0.10867844082E+02 -0.31268548847E+02  0.33907135438E+02  0.00000000000E+00 0. -1.
</event>
<event>
 7    1  0.3681059E-013  0.7246161E+02  0.7816164E-02  0.1226708E+00
        -11   -1    0    0    0    0  0.00000000000E+00  0.00000000000E+00  0.45593999997E+02  0.45594000000E+02  0.51100000000E-03 0.  1.
         11   -1    0    0    0    0 -0.00000000000E+00 -0.00000000000E+00 -0.45593999997E+02  0.45594000000E+02  0.51100000000E-03 0. -1.
    9900012    2    1    2    0    0 -0.37314962144E+00  0.15781498519E+02  0.10073865490E+02  0.72461609476E+02  0.70000051042E+02 0.  0.
        -12    1    1    2    0    0  0.37314962144E+00 -0.15781498519E+02 -0.10073865490E+02  0.18726390524E+02  0.00000000000E+00 0.  1.
         11    1    3    3    0    0  0.29796931539E+01  0.35764907648E+01  0.28340371552E+02  0.28720141320E+02  0.51100000000E-03 0. -1.
        -11    1    3    3    0    0  0.14564049587E+02 -0.44520880235E+01 -0.59286856732E+01  0.16342641837E+02  0.51100000000E-03 0.  1.
         12    1    3    3    0    0 -0.17916892363E+02  0.16657095777E+02 -0.12337820389E+02  0.27398826318E+02  0.00000000000E+00 0. -1.
</event>
<event>
 7    1  0.3681059E-013  0.7246153E+02  0.7816164E-02  0.1226708E+00
        -11   -1    0    0    0    0  0.00000000000E+00  0.00000000000E+00  0.45593999997E+02  0.45594000000E+02  0.51100000000E-03 0.  1.
         11   -1    0    0    0    0 -0.00000000000E+00 -0.00000000000E+00 -0.45593999997E+02  0.45594000000E+02  0.51100000000E-03 0. -1.
    9900012    2    1    2    0    0 -0.17379477585E+02 -0.55383194071E+00 -0.69518014909E+01  0.72461534372E+02  0.69999953205E+02 0.  0.
        -12    1    1    2    0    0  0.17379477585E+02  0.55383194071E+00  0.69518014909E+01  0.18726465628E+02  0.00000000000E+00 0.  1.
         11    1    3    3    0    0 -0.31451897472E+02 -0.15423279401E+02 -0.12537274379E+02  0.37205949137E+02  0.51100000000E-03 0. -1.
        -11    1    3    3    0    0 -0.29259433108E+01  0.10187722243E+01 -0.85994200623E+01  0.91405178613E+01  0.51100000000E-03 0.  1.
        -12    1    3    3    0    0  0.16998363198E+02  0.13850675236E+02  0.14184892950E+02  0.26115067374E+02  0.00000000000E+00 0.  1.
</event>
<event>
 7    1  0.3681059E-013  0.7246159E+02  0.7816164E-02  0.1226708E+00
        -11   -1    0    0    0    0  0.00000000000E+00  0.00000000000E+00  0.45593999997E+02  0.45594000000E+02  0.51100000000E-03 0.  1.
         11   -1    0    0    0    0 -0.00000000000E+00 -0.00000000000E+00 -0.45593999997E+02  0.45594000000E+02  0.51100000000E-03 0. -1.
    9900012    2    1    2    0    0  0.11686329889E+02 -0.13669742056E+02 -0.52197787862E+01  0.72461594987E+02  0.70000032166E+02 0.  0.
        -12    1    1    2    0    0 -0.11686329889E+02  0.13669742056E+02  0.52197787862E+01  0.18726405013E+02  0.00000000000E+00 0.  1.
         11    1    3    3    0    0 -0.11273527166E+02 -0.99622356871E+01  0.55721589460E+01  0.16043301102E+02  0.51100000000E-03 0. -1.
        -11    1    3    3    0    0 -0.73486855544E+01  0.17076991486E+02 -0.45738066715E+01  0.19145404809E+02  0.51100000000E-03 0.  1.
         12    1    3    3    0    0  0.30308542610E+02 -0.20784497854E+02 -0.62181310607E+01  0.37272889076E+02  0.00000000000E+00 0. -1.
</event>
<event>
 7    1  0.3681059E-013  0.7246162E+02  0.7816164E-02  0.1226708E+00
        -11   -1    0    0    0    0  0.00000000000E+00  0.00000000000E+00  0.45593999997E+02  0.45594000000E+02  0.51100000000E-03 0.  1.
         11   -1    0    0    0    0 -0.00000000000E+00 -0.00000000000E+00 -0.45593999997E+02  0.45594000000E+02  0.51100000000E-03 0. -1.
    9900012    2    1    2    0    0 -0.13665075770E+02 -0.11768655457E+02 -0.50439691826E+01  0.72461623624E+02  0.70000069472E+02 0.  0.
        -12    1    1    2    0    0  0.13665075770E+02  0.11768655457E+02  0.50439691826E+01  0.18726376376E+02  0.00000000000E+00 0.  1.
         11    1    3    3    0    0  0.18318214200E+02  0.16467019914E+02 -0.83751462253E+01  0.26016586841E+02  0.51100000000E-03 0. -1.
        -11    1    3    3    0    0  0.82241496836E+00  0.10479586995E+01 -0.17265904660E+01  0.21807564547E+01  0.51100000000E-03 0.  1.
        -12    1    3    3    0    0 -0.32805704938E+02 -0.29283634070E+02  0.50577675087E+01  0.44264280328E+02  0.00000000000E+00 0.  1.
</event>
<event>
 7    1  0.3681059E-013  0.7246152E+02  0.7816164E-02  0.1226708E+00
        -11   -1    0    0    0    0  0.00000000000E+00  0.00000000000E+00  0.45593999997E+02  0.45594000000E+02  0.51100000000E-03 0.  1.
         11   -1    0    0    0    0 -0.00000000000E+00 -0.00000000000E+00 -0.45593999997E+02  0.45594000000E+02  0.51100000000E-03 0. -1.
    9900012    2    1    2    0    0 -0.12359190777E+02  0.22589493796E+01 -0.13886267538E+02  0.72461524755E+02  0.69999940677E+02 0.  0.
        -12    1    1    2    0    0  0.12359190777E+02 -0.22589493796E+01  0.13886267538E+02  0.18726475245E+02  0.00000000000E+00 0.  1.
         11    1    3    3    0    0 -0.23298562089E+02 -0.16160636737E+02 -0.19754145968E+02  0.34557422623E+02  0.51100000000E-03 0. -1.
        -11    1    3    3    0    0  0.11651063887E+01 -0.53210263138E+01  0.10487601164E+02  0.11817807426E+02  0.51100000000E-03 0.  1.
        -12    1    3    3    0    0  0.97742649232E+01  0.23740612430E+02 -0.46197227332E+01  0.26086294706E+02  0.00000000000E+00 0.  1.
</event>
<event>
 7    1  0.3681059E-013  0.7246148E+02  0.7816164E-02  0.1226708E+00
        -11   -1    0    0    0    0  0.00000000000E+00  0.00000000000E+00  0.45593999997E+02  0.45594000000E+02  0.51100000000E-03 0.  1.
         11   -1    0    0    0    0 -0.00000000000E+00 -0.00000000000E+00 -0.45593999997E+02  0.45594000000E+02  0.51100000000E-03 0. -1.
    9900012    2    1    2    0    0  0.13378214609E+02  0.21410409310E+01 -0.12927558524E+02  0.72461482658E+02  0.69999885837E+02 0.  0.
        -12    1    1    2    0    0 -0.13378214609E+02 -0.21410409310E+01  0.12927558524E+02  0.18726517342E+02  0.00000000000E+00 0.  1.
         11    1    3    3    0    0 -0.10710058030E+02 -0.22699692014E+01  0.64575808155E+01  0.12710564639E+02  0.51100000000E-03 0. -1.
        -11    1    3    3    0    0 -0.15983906396E+02 -0.13031465188E+01 -0.58393005220E+01  0.17066953019E+02  0.51100000000E-03 0.  1.
         12    1    3    3    0    0  0.40072179035E+02  0.57141566512E+01 -0.13545838817E+02  0.42683965000E+02  0.00000000000E+00 0. -1.
</event>
<event>
 7    1  0.3681059E-013  0.7246150E+02  0.7816164E-02  0.1226708E+00
        -11   -1    0    0    0    0  0.00000000000E+00  0.00000000000E+00  0.45593999997E+02  0.45594000000E+02  0.51100000000E-03 0.  1.
         11   -1    0    0    0    0 -0.00000000000E+00 -0.00000000000E+00 -0.45593999997E+02  0.45594000000E+02  0.51100000000E-03 0. -1.
    9900012    2    1    2    0    0 -0.11720065251E+02 -0.43893363382E+01 -0.13930389100E+02  0.72461496229E+02  0.69999903516E+02 0.  0.
        -12    1    1    2    0    0  0.11720065251E+02  0.43893363382E+01  0.13930389100E+02  0.18726503771E+02  0.00000000000E+00 0.  1.
         11    1    3    3    0    0 -0.99543189424E+01 -0.64448291138E+01 -0.24657955334E+01  0.12112160657E+02  0.51100000000E-03 0. -1.
        -11    1    3    3    0    0 -0.10764914775E+02 -0.10697637653E+02  0.20070742684E+02  0.25162622153E+02  0.51100000000E-03 0.  1.
        -12    1    3    3    0    0  0.89991684656E+01  0.12753130429E+02 -0.31535336251E+02  0.35186713419E+02  0.00000000000E+00 0.  1.
</event>
<event>
 7    1  0.3681059E-013  0.7246159E+02  0.7816164E-02  0.1226708E+00
        -11   -1    0    0    0    0  0.00000000000E+00  0.00000000000E+00  0.45593999997E+02  0.45594000000E+02  0.51100000000E-03 0. -1.
         11   -1    0    0    0    0 -0.00000000000E+00 -0.00000000000E+00 -0.45593999997E+02  0.45594000000E+02  0.51100000000E-03 0.  1.
    9900012    2    1    2    0    0 -0.10351778363E+02  0.71202248476E+01  0.13886013670E+02  0.72461593703E+02  0.70000030494E+02 0.  0.
        -12    1    1    2    0    0  0.10351778363E+02 -0.71202248476E+01 -0.13886013670E+02  0.18726406297E+02  0.00000000000E+00 0.  1.
         11    1    3    3    0    0  0.77177719499E+01 -0.14747656545E+02  0.13885681684E+02  0.21676474195E+02  0.51100000000E-03 0. -1.
        -11    1    3    3    0    0  0.72356917696E+00 -0.12013491157E+02 -0.31646499400E+00  0.12039421601E+02  0.51100000000E-03 0.  1.
        -12    1    3    3    0    0 -0.18793119490E+02  0.33881372549E+02  0.31679697942E+00  0.38745697907E+02  0.00000000000E+00 0.  1.
</event>
<event>
 7    1  0.3681059E-013  0.7246154E+02  0.7816164E-02  0.1226708E+00
        -11   -1    0    0    0    0  0.00000000000E+00  0.00000000000E+00  0.45593999997E+02  0.45594000000E+02  0.51100000000E-03 0. -1.
         11   -1    0    0    0    0 -0.00000000000E+00 -0.00000000000E+00 -0.45593999997E+02  0.45594000000E+02  0.51100000000E-03 0.  1.
    9900012    2    1    2    0    0 -0.90505425218E+01  0.13266498091E+02  0.96316222352E+01  0.72461536415E+02  0.69999955865E+02 0.  0.
        -12    1    1    2    0    0  0.90505425218E+01 -0.13266498091E+02 -0.96316222352E+01  0.18726463585E+02  0.00000000000E+00 0.  1.
         11    1    3    3    0    0 -0.15930344704E+02  0.83238197039E+01 -0.11438586260E+02  0.21305002059E+02  0.51100000000E-03 0. -1.
        -11    1    3    3    0    0  0.62157855617E+01  0.68455964800E+01 -0.13590237532E+02  0.16437540502E+02  0.51100000000E-03 0.  1.
         12    1    3    3    0    0  0.66401662072E+00 -0.19029180931E+01  0.34660446028E+02  0.34718993853E+02  0.00000000000E+00 0. -1.
</event>
<event>
 7    1  0.3681059E-013  0.7246156E+02  0.7816164E-02  0.1226708E+00
        -11   -1    0    0    0    0  0.00000000000E+00  0.00000000000E+00  0.45593999997E+02  0.45594000000E+02  0.51100000000E-03 0.  1.
         11   -1    0    0    0    0 -0.00000000000E+00 -0.00000000000E+00 -0.45593999997E+02  0.45594000000E+02  0.51100000000E-03 0. -1.
    9900012    2    1    2    0    0  0.68194780155E+01  0.93670035284E+01  0.14711680043E+02  0.72461559730E+02  0.69999986238E+02 0.  0.
        -12    1    1    2    0    0 -0.68194780155E+01 -0.93670035284E+01 -0.14711680043E+02  0.18726440270E+02  0.00000000000E+00 0.  1.
         11    1    3    3    0    0 -0.17941384231E+02 -0.14359802502E+02 -0.56314197133E+01  0.23660306090E+02  0.51100000000E-03 0. -1.
        -11    1    3    3    0    0  0.14778674032E+01 -0.45647147770E+01 -0.27116032567E+01  0.55112163394E+01  0.51100000000E-03 0.  1.
        -12    1    3    3    0    0  0.23282994843E+02  0.28291520807E+02  0.23054703013E+02  0.43290037301E+02  0.00000000000E+00 0.  1.
</event>
<event>
 7    1  0.3681059E-013  0.7246157E+02  0.7816164E-02  0.1226708E+00
        -11   -1    0    0    0    0  0.00000000000E+00  0.00000000000E+00  0.45593999997E+02  0.45594000000E+02  0.51100000000E-03 0.  1.
         11   -1    0    0    0    0 -0.00000000000E+00 -0.00000000000E+00 -0.45593999997E+02  0.45594000000E+02  0.51100000000E-03 0. -1.
    9900012    2    1    2    0    0 -0.64627903490E+00  0.18687553251E+02  0.10183503713E+01  0.72461565193E+02  0.69999993354E+02 0.  0.
        -12    1    1    2    0    0  0.64627903490E+00 -0.18687553251E+02 -0.10183503713E+01  0.18726434807E+02  0.00000000000E+00 0.  1.
         11    1    3    3    0    0  0.79349099724E+01 -0.12269292172E+02  0.13337728808E+02  0.19783663379E+02  0.51100000000E-03 0. -1.
        -11    1    3    3    0    0  0.96989485170E+01  0.11341971882E+02  0.98552237446E+01  0.17883941507E+02  0.51100000000E-03 0.  1.
         12    1    3    3    0    0 -0.18280137524E+02  0.19614873541E+02 -0.22174602182E+02  0.34793960307E+02  0.00000000000E+00 0. -1.
</event>
<event>
 7    1  0.3681059E-013  0.7246158E+02  0.7816164E-02  0.1226708E+00
        -11   -1    0    0    0    0  0.00000000000E+00  0.00000000000E+00  0.45593999997E+02  0.45594000000E+02  0.51100000000E-03 0. -1.
         11   -1    0    0    0    0 -0.00000000000E+00 -0.00000000000E+00 -0.45593999997E+02  0.45594000000E+02  0.51100000000E-03 0.  1.
    9900012    2    1    2    0    0  0.97789162580E+01  0.55390702363E+01  0.14978996209E+02  0.72461579368E+02  0.70000011820E+02 0.  0.
        -12    1    1    2    0    0 -0.97789162580E+01 -0.55390702363E+01 -0.14978996209E+02  0.18726420632E+02  0.00000000000E+00 0.  1.
         11    1    3    3    0    0 -0.58363679178E+01  0.19749968370E+02  0.18307397818E+01  0.20675493936E+02  0.51100000000E-03 0. -1.
        -11    1    3    3    0    0 -0.86033464767E+01 -0.22446947531E+02  0.99077947759E+01  0.26000911938E+02  0.51100000000E-03 0.  1.
        -12    1    3    3    0    0  0.24218630653E+02  0.82360493969E+01  0.32404616516E+01  0.25785173493E+02  0.00000000000E+00 0.  1.
</event>
<event>
 7    1  0.4168733E-013  0.7246159E+02  0.7816164E-02  0.1226708E+00
        -11   -1    0    0    0    0  0.00000000000E+00  0.00000000000E+00  0.45593999997E+02  0.45594000000E+02  0.51100000000E-03 0. -1.
         11   -1    0    0    0    0 -0.00000000000E+00 -0.00000000000E+00 -0.45593999997E+02  0.45594000000E+02  0.51100000000E-03 0.  1.
    9900012    2    1    2    0    0  0.60105119064E+01 -0.17698478016E+02  0.11471448468E+01  0.72461593010E+02  0.70000029592E+02 0.  0.
        -12    1    1    2    0    0 -0.60105119064E+01  0.17698478016E+02 -0.11471448468E+01  0.18726406990E+02  0.00000000000E+00 0.  1.
         11    1    3    3    0    0 -0.93261995938E+01 -0.40558046760E+01  0.92127093852E+01  0.13722301735E+02  0.51100000000E-03 0. -1.
        -11    1    3    3    0    0 -0.73645023840E+01 -0.67844868378E+00 -0.26003413262E+02  0.27034675687E+02  0.51100000000E-03 0.  1.
         12    1    3    3    0    0  0.22701213884E+02 -0.12964224656E+02  0.17937848723E+02  0.31704615588E+02  0.00000000000E+00 0. -1.
</event>
<event>
 7    1  0.3681059E-013  0.7246155E+02  0.7816164E-02  0.1226708E+00
        -11   -1    0    0    0    0  0.00000000000E+00  0.00000000000E+00  0.45593999997E+02  0.45594000000E+02  0.51100000000E-03 0.  1.
         11   -1    0    0    0    0 -0.00000000000E+00 -0.00000000000E+00 -0.45593999997E+02  0.45594000000E+02  0.51100000000E-03 0. -1.
    9900012    2    1    2    0    0  0.15195679183E+02  0.83382379887E+01 -0.70883778133E+01  0.72461548692E+02  0.69999971859E+02 0.  0.
        -12    1    1    2    0    0 -0.15195679183E+02 -0.83382379887E+01  0.70883778133E+01  0.18726451308E+02  0.00000000000E+00 0.  1.
         11    1    3    3    0    0 -0.12842001591E+02  0.56909032841E+01 -0.27164470874E+02  0.30581233840E+02  0.51100000000E-03 0. -1.
        -11    1    3    3    0    0  0.88835967306E+01  0.10408440679E+02  0.15568788049E+02  0.20727785454E+02  0.51100000000E-03 0.  1.
        -12    1    3    3    0    0  0.19154084043E+02 -0.77611059743E+01  0.45073050111E+01  0.21152529398E+02  0.00000000000E+00 0.  1.
</event>
<event>
 7    1  0.3681059E-013  0.7246155E+02  0.7816164E-02  0.1226708E+00
        -11   -1    0    0    0    0  0.00000000000E+00  0.00000000000E+00  0.45593999997E+02  0.45594000000E+02  0.51100000000E-03 0. -1.
         11   -1    0    0    0    0 -0.00000000000E+00 -0.00000000000E+00 -0.45593999997E+02  0.45594000000E+02  0.51100000000E-03 0.  1.
    9900012    2    1    2    0    0  0.30670440644E+01 -0.17644229754E+02  0.54730630486E+01  0.72461547531E+02  0.69999970347E+02 0.  0.
        -12    1    1    2    0    0 -0.30670440644E+01  0.17644229754E+02 -0.54730630486E+01  0.18726452469E+02  0.00000000000E+00 0.  1.
         11    1    3    3    0    0 -0.18255463687E+02 -0.62719581845E+01  0.79789245578E+01  0.20886901428E+02  0.51100000000E-03 0. -1.
        -11    1    3    3    0    0 -0.14050224477E+02 -0.53236754097E+01 -0.43473372076E+01  0.15641280918E+02  0.51100000000E-03 0.  1.
        -12    1    3    3    0    0  0.35372732228E+02 -0.60485961603E+01  0.18414756984E+01  0.35933365185E+02  0.00000000000E+00 0.  1.
</event>
<event>
 7    1  0.3681059E-013  0.7246157E+02  0.7816164E-02  0.1226708E+00
        -11   -1    0    0    0    0  0.00000000000E+00  0.00000000000E+00  0.45593999997E+02  0.45594000000E+02  0.51100000000E-03 0. -1.
         11   -1    0    0    0    0 -0.00000000000E+00 -0.00000000000E+00 -0.45593999997E+02  0.45594000000E+02  0.51100000000E-03 0.  1.
    9900012    2    1    2    0    0  0.16252654210E+02 -0.92474683530E+01  0.10073293593E+01  0.72461570756E+02  0.70000000601E+02 0.  0.
        -12    1    1    2    0    0 -0.16252654210E+02  0.92474683530E+01 -0.10073293593E+01  0.18726429244E+02  0.00000000000E+00 0.  1.
         11    1    3    3    0    0  0.10837075240E+02 -0.24029642460E+01  0.15270997041E+02  0.18879083341E+02  0.51100000000E-03 0. -1.
        -11    1    3    3    0    0  0.26522283700E+02 -0.20724786487E+01  0.17523514870E+01  0.26660784617E+02  0.51100000000E-03 0.  1.
        -12    1    3    3    0    0 -0.21106704730E+02 -0.47720254583E+01 -0.16016019169E+02  0.26921702798E+02  0.00000000000E+00 0.  1.
</event>
<event>
 7    1  0.3681059E-013  0.7246157E+02  0.7816164E-02  0.1226708E+00
        -11   -1    0    0    0    0  0.00000000000E+00  0.00000000000E+00  0.45593999997E+02  0.45594000000E+02  0.51100000000E-03 0.  1.
         11   -1    0    0    0    0 -0.00000000000E+00 -0.00000000000E+00 -0.45593999997E+02  0.45594000000E+02  0.51100000000E-03 0. -1.
    9900012    2    1    2    0    0  0.13200949511E+02  0.65680855239E+01  0.11544450791E+02  0.72461570562E+02  0.70000000348E+02 0.  0.
        -12    1    1    2    0    0 -0.13200949511E+02 -0.65680855239E+01 -0.11544450791E+02  0.18726429438E+02  0.00000000000E+00 0.  1.
         11    1    3    3    0    0  0.18594202036E+00  0.16531699729E+02  0.11617635646E+02  0.20206462546E+02  0.51100000000E-03 0. -1.
        -11    1    3    3    0    0 -0.99305148519E+01  0.20051630375E+01 -0.18081745627E+02  0.20726440341E+02  0.51100000000E-03 0.  1.
        -12    1    3    3    0    0  0.22945522342E+02 -0.11968777243E+02  0.18008560772E+02  0.31528667675E+02  0.00000000000E+00 0.  1.
</event>
<event>
 7    1  0.3681059E-013  0.7246155E+02  0.7816164E-02  0.1226708E+00
        -11   -1    0    0    0    0  0.00000000000E+00  0.00000000000E+00  0.45593999997E+02  0.45594000000E+02  0.51100000000E-03 0. -1.
         11   -1    0    0    0    0 -0.00000000000E+00 -0.00000000000E+00 -0.45593999997E+02  0.45594000000E+02  0.51100000000E-03 0.  1.
    9900012    2    1    2    0    0 -0.16807544983E+02  0.33506661685E+01 -0.75471334093E+01  0.72461554666E+02  0.69999979642E+02 0.  0.
        -12    1    1    2    0    0  0.16807544983E+02 -0.33506661685E+01  0.75471334093E+01  0.18726445334E+02  0.00000000000E+00 0.  1.
         11    1    3    3    0    0 -0.26083627049E+02  0.11715950284E+02 -0.11141538214E+02  0.30687993827E+02  0.51100000000E-03 0. -1.
        -11    1    3    3    0    0 -0.58709744023E+00 -0.12860122668E+02 -0.15297220387E+02  0.19993308638E+02  0.51100000000E-03 0.  1.
         12    1    3    3    0    0  0.98631795058E+01  0.44948385533E+01  0.18891625192E+02  0.21780252202E+02  0.00000000000E+00 0. -1.
</event>
<event>
 7    1  0.3681059E-013  0.7246150E+02  0.7816164E-02  0.1226708E+00
        -11   -1    0    0    0    0  0.00000000000E+00  0.00000000000E+00  0.45593999997E+02  0.45594000000E+02  0.51100000000E-03 0.  1.
         11   -1    0    0    0    0 -0.00000000000E+00 -0.00000000000E+00 -0.45593999997E+02  0.45594000000E+02  0.51100000000E-03 0. -1.
    9900012    2    1    2    0    0 -0.71397104699E+01  0.13274719772E+02 -0.11112516088E+02  0.72461503680E+02  0.69999913223E+02 0.  0.
        -12    1    1    2    0    0  0.71397104699E+01 -0.13274719772E+02  0.11112516088E+02  0.18726496320E+02  0.00000000000E+00 0.  1.
         11    1    3    3    0    0  0.61986454173E+01  0.23054367710E+02  0.17655191896E+01  0.23938340247E+02  0.51100000000E-03 0. -1.
        -11    1    3    3    0    0  0.94012966173E+01  0.50671451273E+01  0.87493950235E+01  0.13806239581E+02  0.51100000000E-03 0.  1.
         12    1    3    3    0    0 -0.22739652505E+02 -0.14846793065E+02 -0.21627430301E+02  0.34716923852E+02  0.00000000000E+00 0. -1.
</event>
<event>
 7    1  0.3681059E-013  0.7246156E+02  0.7816164E-02  0.1226708E+00
        -11   -1    0    0    0    0  0.00000000000E+00  0.00000000000E+00  0.45593999997E+02  0.45594000000E+02  0.51100000000E-03 0.  1.
         11   -1    0    0    0    0 -0.00000000000E+00 -0.00000000000E+00 -0.45593999997E+02  0.45594000000E+02  0.51100000000E-03 0. -1.
    9900012    2    1    2    0    0  0.31928619392E+01  0.23993340168E+01 -0.18295583851E+02  0.72461559880E+02  0.69999986434E+02 0.  0.
        -12    1    1    2    0    0 -0.31928619392E+01 -0.23993340168E+01  0.18295583851E+02  0.18726440120E+02  0.00000000000E+00 0.  1.
         11    1    3    3    0    0  0.55638814761E+01  0.94092834179E+01 -0.15943152382E-01  0.10931223443E+02  0.51100000000E-03 0. -1.
        -11    1    3    3    0    0 -0.12950887803E+02  0.19928659228E+02  0.51201851087E+01  0.24312409369E+02  0.51100000000E-03 0.  1.
         12    1    3    3    0    0  0.10579868266E+02 -0.26938608629E+02 -0.23399825808E+02  0.37217927068E+02  0.00000000000E+00 0. -1.
</event>
<event>
 7    1  0.3681059E-013  0.7246160E+02  0.7816164E-02  0.1226708E+00
        -11   -1    0    0    0    0  0.00000000000E+00  0.00000000000E+00  0.45593999997E+02  0.45594000000E+02  0.51100000000E-03 0.  1.
         11   -1    0    0    0    0 -0.00000000000E+00 -0.00000000000E+00 -0.45593999997E+02  0.45594000000E+02  0.51100000000E-03 0. -1.
    9900012    2    1    2    0    0 -0.10883025688E+02  0.33575931929E+01 -0.14864872436E+02  0.72461598511E+02  0.70000036757E+02 0.  0.
        -12    1    1    2    0    0  0.10883025688E+02 -0.33575931929E+01  0.14864872436E+02  0.18726401489E+02  0.00000000000E+00 0.  1.
         11    1    3    3    0    0  0.20533920959E+02  0.10163821365E+01  0.21025916355E+01  0.20666297066E+02  0.51100000000E-03 0. -1.
        -11    1    3    3    0    0  0.58099271320E+01 -0.70784100486E+01  0.13388945317E+01  0.92548247376E+01  0.51100000000E-03 0.  1.
        -12    1    3    3    0    0 -0.37226873779E+02  0.94196211050E+01 -0.18306358603E+02  0.42540476707E+02  0.00000000000E+00 0.  1.
</event>
<event>
 7    1  0.3681059E-013  0.7246170E+02  0.7816164E-02  0.1226708E+00
        -11   -1    0    0    0    0  0.00000000000E+00  0.00000000000E+00  0.45593999997E+02  0.45594000000E+02  0.51100000000E-03 0.  1.
         11   -1    0    0    0    0 -0.00000000000E+00 -0.00000000000E+00 -0.45593999997E+02  0.45594000000E+02  0.51100000000E-03 0. -1.
    9900012    2    1    2    0    0 -0.15369993485E+02  0.20168655985E+01 -0.10505708126E+02  0.72461698982E+02  0.70000167640E+02 0.  0.
        -12    1    1    2    0    0  0.15369993485E+02 -0.20168655985E+01  0.10505708126E+02  0.18726301018E+02  0.00000000000E+00 0.  1.
         11    1    3    3    0    0 -0.35241276648E+02 -0.22444968473E+01  0.54829839489E+01  0.35735814796E+02  0.51100000000E-03 0. -1.
        -11    1    3    3    0    0 -0.37174081065E+01  0.33483545960E+01  0.35070362638E+01  0.61098203858E+01  0.51100000000E-03 0.  1.
        -12    1    3    3    0    0  0.23588691270E+02  0.91300784973E+00 -0.19495728339E+02  0.30616063800E+02  0.00000000000E+00 0.  1.
</event>
<event>
 7    1  0.3681059E-013  0.7246157E+02  0.7816164E-02  0.1226708E+00
        -11   -1    0    0    0    0  0.00000000000E+00  0.00000000000E+00  0.45593999997E+02  0.45594000000E+02  0.51100000000E-03 0. -1.
         11   -1    0    0    0    0 -0.00000000000E+00 -0.00000000000E+00 -0.45593999997E+02  0.45594000000E+02  0.51100000000E-03 0.  1.
    9900012    2    1    2    0    0 -0.92279974788E+01 -0.14319843403E+02  0.77759511762E+01  0.72461567631E+02  0.69999996531E+02 0.  0.
        -12    1    1    2    0    0  0.92279974788E+01  0.14319843403E+02 -0.77759511762E+01  0.18726432369E+02  0.00000000000E+00 0.  1.
         11    1    3    3    0    0  0.96014835615E+01  0.56743789931E+01  0.19192801454E+02  0.22197988455E+02  0.51100000000E-03 0. -1.
        -11    1    3    3    0    0 -0.16498861979E+02 -0.15643661045E+02  0.12429420501E+02  0.25911909844E+02  0.51100000000E-03 0.  1.
        -12    1    3    3    0    0 -0.23306190616E+01 -0.43505613509E+01 -0.23846270778E+02  0.24351669333E+02  0.00000000000E+00 0.  1.
</event>
<event>
 7    1  0.3681059E-013  0.7246156E+02  0.7816164E-02  0.1226708E+00
        -11   -1    0    0    0    0  0.00000000000E+00  0.00000000000E+00  0.45593999997E+02  0.45594000000E+02  0.51100000000E-03 0. -1.
         11   -1    0    0    0    0 -0.00000000000E+00 -0.00000000000E+00 -0.45593999997E+02  0.45594000000E+02  0.51100000000E-03 0.  1.
    9900012    2    1    2    0    0 -0.67412062323E+01 -0.38236609432E+01  0.17047438792E+02  0.72461563771E+02  0.69999991503E+02 0.  0.
        -12    1    1    2    0    0  0.67412062323E+01  0.38236609432E+01 -0.17047438792E+02  0.18726436229E+02  0.00000000000E+00 0.  1.
         11    1    3    3    0    0  0.22426981716E+01 -0.22415203223E+02  0.70773796060E+01  0.23612715494E+02  0.51100000000E-03 0. -1.
        -11    1    3    3    0    0  0.58787579616E+01 -0.85114955408E-01  0.21536995343E+02  0.22325080255E+02  0.51100000000E-03 0.  1.
        -12    1    3    3    0    0 -0.14862662365E+02  0.18676657235E+02 -0.11566936157E+02  0.26523768023E+02  0.00000000000E+00 0.  1.
</event>
<event>
 7    1  0.3681059E-013  0.7246161E+02  0.7816164E-02  0.1226708E+00
        -11   -1    0    0    0    0  0.00000000000E+00  0.00000000000E+00  0.45593999997E+02  0.45594000000E+02  0.51100000000E-03 0. -1.
         11   -1    0    0    0    0 -0.00000000000E+00 -0.00000000000E+00 -0.45593999997E+02  0.45594000000E+02  0.51100000000E-03 0.  1.
    9900012    2    1    2    0    0 -0.12849818901E+02  0.56729559303E+01  0.12384559355E+02  0.72461612596E+02  0.70000055106E+02 0.  0.
        -12    1    1    2    0    0  0.12849818901E+02 -0.56729559303E+01 -0.12384559355E+02  0.18726387404E+02  0.00000000000E+00 0.  1.
         11    1    3    3    0    0 -0.22377941074E+01 -0.83261309192E+00 -0.26463124499E+01  0.35642582498E+01  0.51100000000E-03 0. -1.
        -11    1    3    3    0    0  0.14481382843E+02 -0.18430845644E+02 -0.10079678349E+02  0.25514827769E+02  0.51100000000E-03 0.  1.
         12    1    3    3    0    0 -0.25093407637E+02  0.24936414666E+02  0.25110550154E+02  0.43382526578E+02  0.00000000000E+00 0. -1.
</event>
<event>
 7    1  0.3681059E-013  0.7246160E+02  0.7816164E-02  0.1226708E+00
        -11   -1    0    0    0    0  0.00000000000E+00  0.00000000000E+00  0.45593999997E+02  0.45594000000E+02  0.51100000000E-03 0.  1.
         11   -1    0    0    0    0 -0.00000000000E+00 -0.00000000000E+00 -0.45593999997E+02  0.45594000000E+02  0.51100000000E-03 0. -1.
    9900012    2    1    2    0    0  0.88422850034E+01 -0.26047189274E+01 -0.16300538264E+02  0.72461598518E+02  0.70000036767E+02 0.  0.
        -12    1    1    2    0    0 -0.88422850034E+01  0.26047189274E+01  0.16300538264E+02  0.18726401482E+02  0.00000000000E+00 0.  1.
         11    1    3    3    0    0  0.64068472151E+01 -0.22854630932E+02 -0.20362489095E+02  0.31273196330E+02  0.51100000000E-03 0. -1.
        -11    1    3    3    0    0 -0.80646030866E+01 -0.73978886103E+01  0.38863565614E+01  0.11613369297E+02  0.51100000000E-03 0.  1.
         12    1    3    3    0    0  0.10500040875E+02  0.27647800615E+02  0.17559426993E+00  0.29575032892E+02  0.00000000000E+00 0. -1.
</event>
<event>
 7    1  0.3681059E-013  0.7246215E+02  0.7816164E-02  0.1226706E+00
        -11   -1    0    0    0    0  0.00000000000E+00  0.00000000000E+00  0.45593999997E+02  0.45594000000E+02  0.51100000000E-03 0.  1.
         11   -1    0    0    0    0 -0.00000000000E+00 -0.00000000000E+00 -0.45593999997E+02  0.45594000000E+02  0.51100000000E-03 0. -1.
    9900012    2    1    2    0    0  0.30068257470E+01 -0.58725159563E+01 -0.17525125005E+02  0.72462150189E+02  0.70000755416E+02 0.  0.
        -12    1    1    2    0    0 -0.30068257470E+01  0.58725159563E+01  0.17525125005E+02  0.18725849811E+02  0.00000000000E+00 0.  1.
         11    1    3    3    0    0 -0.11794762117E+02  0.56778801929E+01  0.99317412082E+01  0.16431500862E+02  0.51100000000E-03 0. -1.
        -11    1    3    3    0    0 -0.15498767794E+02  0.17123144655E+01 -0.66306245834E+01  0.16944291269E+02  0.51100000000E-03 0.  1.
         12    1    3    3    0    0  0.30300355658E+02 -0.13262710615E+02 -0.20826241629E+02  0.39086358058E+02  0.00000000000E+00 0. -1.
</event>
<event>
 7    1  0.3681059E-013  0.7246159E+02  0.7816164E-02  0.1226708E+00
        -11   -1    0    0    0    0  0.00000000000E+00  0.00000000000E+00  0.45593999997E+02  0.45594000000E+02  0.51100000000E-03 0. -1.
         11   -1    0    0    0    0 -0.00000000000E+00 -0.00000000000E+00 -0.45593999997E+02  0.45594000000E+02  0.51100000000E-03 0.  1.
    9900012    2    1    2    0    0  0.94449435035E+01  0.15889450987E+02  0.29994808622E+01  0.72461588280E+02  0.70000023430E+02 0.  0.
        -12    1    1    2    0    0 -0.94449435035E+01 -0.15889450987E+02 -0.29994808622E+01  0.18726411720E+02  0.00000000000E+00 0.  1.
         11    1    3    3    0    0  0.36746997896E+01 -0.27918772502E+00 -0.50558594095E+01  0.62564429958E+01  0.51100000000E-03 0. -1.
        -11    1    3    3    0    0  0.14343925915E+02  0.25641831105E+02 -0.19887942948E+02  0.35479317750E+02  0.51100000000E-03 0.  1.
         12    1    3    3    0    0 -0.85736822013E+01 -0.94731923926E+01  0.27943283219E+02  0.30725827534E+02  0.00000000000E+00 0. -1.
</event>
<event>
 7    1  0.3681059E-013  0.7246195E+02  0.7816164E-02  0.1226707E+00
        -11   -1    0    0    0    0  0.00000000000E+00  0.00000000000E+00  0.45593999997E+02  0.45594000000E+02  0.51100000000E-03 0. -1.
         11   -1    0    0    0    0 -0.00000000000E+00 -0.00000000000E+00 -0.45593999997E+02  0.45594000000E+02  0.51100000000E-03 0.  1.
    9900012    2    1    2    0    0  0.54501263620E+01  0.17395601327E+02 -0.42841696501E+01  0.72461950431E+02  0.70000495197E+02 0.  0.
        -12    1    1    2    0    0 -0.54501263620E+01 -0.17395601327E+02  0.42841696501E+01  0.18726049569E+02  0.00000000000E+00 0.  1.
         11    1    3    3    0    0  0.15028327949E+02  0.11480248606E+02  0.31092573175E+00  0.18914106483E+02  0.51100000000E-03 0. -1.
        -11    1    3    3    0    0 -0.24780369078E+00  0.28681907466E+02 -0.37702301342E+01  0.28929705461E+02  0.51100000000E-03 0.  1.
        -12    1    3    3    0    0 -0.93303978964E+01 -0.22766554745E+02 -0.82486524761E+00  0.24618138486E+02  0.00000000000E+00 0.  1.
</event>
<event>
 7    1  0.3681059E-013  0.7246153E+02  0.7816164E-02  0.1226708E+00
        -11   -1    0    0    0    0  0.00000000000E+00  0.00000000000E+00  0.45593999997E+02  0.45594000000E+02  0.51100000000E-03 0. -1.
         11   -1    0    0    0    0 -0.00000000000E+00 -0.00000000000E+00 -0.45593999997E+02  0.45594000000E+02  0.51100000000E-03 0.  1.
    9900012    2    1    2    0    0  0.85828843183E+01  0.67440210342E+01  0.15216203982E+02  0.72461532459E+02  0.69999950713E+02 0.  0.
        -12    1    1    2    0    0 -0.85828843183E+01 -0.67440210342E+01 -0.15216203982E+02  0.18726467541E+02  0.00000000000E+00 0.  1.
         11    1    3    3    0    0 -0.25754062904E+01  0.13326828584E+02 -0.32906178491E+01  0.13966575950E+02  0.51100000000E-03 0. -1.
        -11    1    3    3    0    0 -0.18896619060E+02 -0.12740158047E+02  0.15727391644E+02  0.27690155057E+02  0.51100000000E-03 0.  1.
         12    1    3    3    0    0  0.30054909668E+02  0.61573504965E+01  0.27794301877E+01  0.30804801452E+02  0.00000000000E+00 0. -1.
</event>
<event>
 7    1  0.3681059E-013  0.7246161E+02  0.7816164E-02  0.1226708E+00
        -11   -1    0    0    0    0  0.00000000000E+00  0.00000000000E+00  0.45593999997E+02  0.45594000000E+02  0.51100000000E-03 0. -1.
         11   -1    0    0    0    0 -0.00000000000E+00 -0.00000000000E+00 -0.45593999997E+02  0.45594000000E+02  0.51100000000E-03 0.  1.
    9900012    2    1    2    0    0 -0.58838734735E+01  0.91009038940E+01  0.15271913126E+02  0.72461608215E+02  0.70000049399E+02 0.  0.
        -12    1    1    2    0    0  0.58838734735E+01 -0.91009038940E+01 -0.15271913126E+02  0.18726391785E+02  0.00000000000E+00 0.  1.
         11    1    3    3    0    0 -0.49313628050E+01 -0.46186825047E+01  0.24977941335E+01  0.72034396637E+01  0.51100000000E-03 0. -1.
        -11    1    3    3    0    0 -0.29267198742E+02  0.20021525176E+01 -0.51105854511E+01  0.29777434759E+02  0.51100000000E-03 0.  1.
         12    1    3    3    0    0  0.28314688073E+02  0.11717433881E+02  0.17884704444E+02  0.35480733793E+02  0.00000000000E+00 0. -1.
</event>
<event>
 7    1  0.3681059E-013  0.7246159E+02  0.7816164E-02  0.1226708E+00
        -11   -1    0    0    0    0  0.00000000000E+00  0.00000000000E+00  0.45593999997E+02  0.45594000000E+02  0.51100000000E-03 0.  1.
         11   -1    0    0    0    0 -0.00000000000E+00 -0.00000000000E+00 -0.45593999997E+02  0.45594000000E+02  0.51100000000E-03 0. -1.
    9900012    2    1    2    0    0  0.34531113763E+01 -0.16252025529E+02 -0.86386361679E+01  0.72461592261E+02  0.70000028616E+02 0.  0.
        -12    1    1    2    0    0 -0.34531113763E+01  0.16252025529E+02  0.86386361679E+01  0.18726407739E+02  0.00000000000E+00 0.  1.
         11    1    3    3    0    0  0.82819860388E+01  0.21081864258E+02 -0.35178055523E+01  0.22921850918E+02  0.51100000000E-03 0. -1.
        -11    1    3    3    0    0  0.11552990906E+02 -0.41669681139E+01 -0.14013230537E+01  0.12361186379E+02  0.51100000000E-03 0.  1.
        -12    1    3    3    0    0 -0.16381865568E+02 -0.33166921673E+02 -0.37195075619E+01  0.37178554964E+02  0.00000000000E+00 0.  1.
</event>
<event>
 7    1  0.3681059E-013  0.7246149E+02  0.7816164E-02  0.1226708E+00
        -11   -1    0    0    0    0  0.00000000000E+00  0.00000000000E+00  0.45593999997E+02  0.45594000000E+02  0.51100000000E-03 0.  1.
         11   -1    0    0    0    0 -0.00000000000E+00 -0.00000000000E+00 -0.45593999997E+02  0.45594000000E+02  0.51100000000E-03 0. -1.
    9900012    2    1    2    0    0 -0.11870937481E+02 -0.12879575141E+02 -0.66241791559E+01  0.72461485055E+02  0.69999888960E+02 0.  0.
        -12    1    1    2    0    0  0.11870937481E+02  0.12879575141E+02  0.66241791559E+01  0.18726514945E+02  0.00000000000E+00 0.  1.
         11    1    3    3    0    0 -0.11268344740E+02 -0.18603724501E+02 -0.13749875593E+02  0.25731949743E+02  0.51100000000E-03 0. -1.
        -11    1    3    3    0    0 -0.16066008399E+01 -0.25948882372E+01 -0.19025461500E+02  0.19268699924E+02  0.51100000000E-03 0.  1.
        -12    1    3    3    0    0  0.10040080987E+01  0.83190375974E+01  0.26151157937E+02  0.27460835389E+02  0.00000000000E+00 0.  1.
</event>
<event>
 7    1  0.3925315E-013  0.7246157E+02  0.7816164E-02  0.1226708E+00
        -11   -1    0    0    0    0  0.00000000000E+00  0.00000000000E+00  0.45593999997E+02  0.45594000000E+02  0.51100000000E-03 0.  1.
         11   -1    0    0    0    0 -0.00000000000E+00 -0.00000000000E+00 -0.45593999997E+02  0.45594000000E+02  0.51100000000E-03 0. -1.
    9900012    2    1    2    0    0 -0.39340407751E+01  0.18308419438E+02 -0.66046556891E-01  0.72461567844E+02  0.69999996808E+02 0.  0.
        -12    1    1    2    0    0  0.39340407751E+01 -0.18308419438E+02  0.66046556891E-01  0.18726432156E+02  0.00000000000E+00 0.  1.
         11    1    3    3    0    0 -0.13365097444E+01  0.32553414923E+02 -0.14215607246E+01  0.32611837063E+02  0.51100000000E-03 0. -1.
        -11    1    3    3    0    0  0.15108722263E+02 -0.54614346672E+01  0.92822816822E+01  0.18554285503E+02  0.51100000000E-03 0.  1.
        -12    1    3    3    0    0 -0.17706253294E+02 -0.87835608180E+01 -0.79267675145E+01  0.21295445278E+02  0.00000000000E+00 0.  1.
</event>
<event>
 7    1  0.3681059E-013  0.7246151E+02  0.7816164E-02  0.1226708E+00
        -11   -1    0    0    0    0  0.00000000000E+00  0.00000000000E+00  0.45593999997E+02  0.45594000000E+02  0.51100000000E-03 0. -1.
         11   -1    0    0    0    0 -0.00000000000E+00 -0.00000000000E+00 -0.45593999997E+02  0.45594000000E+02  0.51100000000E-03 0.  1.
    9900012    2    1    2    0    0  0.13087450703E+02  0.16721092118E+01  0.13289251995E+02  0.72461507170E+02  0.69999917768E+02 0.  0.
        -12    1    1    2    0    0 -0.13087450703E+02 -0.16721092118E+01 -0.13289251995E+02  0.18726492830E+02  0.00000000000E+00 0.  1.
         11    1    3    3    0    0  0.13053729115E+02 -0.43758223222E+01  0.25701184393E+02  0.29156449446E+02  0.51100000000E-03 0. -1.
        -11    1    3    3    0    0  0.12463522218E+02 -0.11656894903E+02 -0.13328205045E+02  0.21653259220E+02  0.51100000000E-03 0.  1.
        -12    1    3    3    0    0 -0.12429800630E+02  0.17704826437E+02  0.91627264690E+00  0.21651798504E+02  0.00000000000E+00 0.  1.
</event>
<event>
 7    1  0.3681059E-013  0.7246162E+02  0.7816164E-02  0.1226708E+00
        -11   -1    0    0    0    0  0.00000000000E+00  0.00000000000E+00  0.45593999997E+02  0.45594000000E+02  0.51100000000E-03 0.  1.
         11   -1    0    0    0    0 -0.00000000000E+00 -0.00000000000E+00 -0.45593999997E+02  0.45594000000E+02  0.51100000000E-03 0. -1.
    9900012    2    1    2    0    0  0.84137168990E+01  0.11971187481E+02 -0.11686634286E+02  0.72461618003E+02  0.70000062150E+02 0.  0.
        -12    1    1    2    0    0 -0.84137168990E+01 -0.11971187481E+02  0.11686634286E+02  0.18726381997E+02  0.00000000000E+00 0.  1.
         11    1    3    3    0    0 -0.56543381331E+01 -0.13651606401E+02 -0.12533038129E+02  0.19375627526E+02  0.51100000000E-03 0. -1.
        -11    1    3    3    0    0 -0.79265445237E+01 -0.14394450560E-01 -0.14078522700E+02  0.16156581228E+02  0.51100000000E-03 0.  1.
         12    1    3    3    0    0  0.21994599556E+02  0.25637188332E+02  0.14924926543E+02  0.36929409249E+02  0.00000000000E+00 0. -1.
</event>
<event>
 7    1  0.3681059E-013  0.7246163E+02  0.7816164E-02  0.1226708E+00
        -11   -1    0    0    0    0  0.00000000000E+00  0.00000000000E+00  0.45593999997E+02  0.45594000000E+02  0.51100000000E-03 0.  1.
         11   -1    0    0    0    0 -0.00000000000E+00 -0.00000000000E+00 -0.45593999997E+02  0.45594000000E+02  0.51100000000E-03 0. -1.
    9900012    2    1    2    0    0 -0.41354039112E+01  0.15138788485E+02 -0.10217268651E+02  0.72461626592E+02  0.70000073339E+02 0.  0.
        -12    1    1    2    0    0  0.41354039112E+01 -0.15138788485E+02  0.10217268651E+02  0.18726373408E+02  0.00000000000E+00 0.  1.
         11    1    3    3    0    0  0.12191160030E+02  0.11971298939E+02 -0.16113034340E+02  0.23485447772E+02  0.51100000000E-03 0. -1.
        -11    1    3    3    0    0 -0.53748799265E+01  0.24262926982E+02  0.29751666562E+01  0.25028595183E+02  0.51100000000E-03 0.  1.
         12    1    3    3    0    0 -0.10951684015E+02 -0.21095437435E+02  0.29205990330E+01  0.23947583637E+02  0.00000000000E+00 0. -1.
</event>
<event>
 7    1  0.3681059E-013  0.7246168E+02  0.7816164E-02  0.1226708E+00
        -11   -1    0    0    0    0  0.00000000000E+00  0.00000000000E+00  0.45593999997E+02  0.45594000000E+02  0.51100000000E-03 0.  1.
         11   -1    0    0    0    0 -0.00000000000E+00 -0.00000000000E+00 -0.45593999997E+02  0.45594000000E+02  0.51100000000E-03 0. -1.
    9900012    2    1    2    0    0 -0.11771070099E+02 -0.50530609630E+01 -0.13659561971E+02  0.72461677627E+02  0.70000139820E+02 0.  0.
        -12    1    1    2    0    0  0.11771070099E+02  0.50530609630E+01  0.13659561971E+02  0.18726322373E+02  0.00000000000E+00 0.  1.
         11    1    3    3    0    0  0.40787479289E+01  0.69621309228E+01  0.10837818532E+02  0.13511689844E+02  0.51100000000E-03 0. -1.
        -11    1    3    3    0    0  0.17884751362E+02 -0.49629047486E+01 -0.44762025871E+01  0.19092698727E+02  0.51100000000E-03 0.  1.
        -12    1    3    3    0    0 -0.33734569390E+02 -0.70522871372E+01 -0.20021177916E+02  0.39857289056E+02  0.00000000000E+00 0.  1.
</event>
<event>
 7    1  0.3681059E-013  0.7246155E+02  0.7816164E-02  0.1226708E+00
        -11   -1    0    0    0    0  0.00000000000E+00  0.00000000000E+00  0.45593999997E+02  0.45594000000E+02  0.51100000000E-03 0.  1.
         11   -1    0    0    0    0 -0.00000000000E+00 -0.00000000000E+00 -0.45593999997E+02  0.45594000000E+02  0.51100000000E-03 0. -1.
    9900012    2    1    2    0    0 -0.16123883788E+02  0.13515966030E+01 -0.94272645716E+01  0.72461554553E+02  0.69999979493E+02 0.  0.
        -12    1    1    2    0    0  0.16123883788E+02 -0.13515966030E+01  0.94272645716E+01  0.18726445447E+02  0.00000000000E+00 0.  1.
         11    1    3    3    0    0  0.40037386716E+01 -0.88193660825E+01 -0.60045510839E+01  0.11395866594E+02  0.51100000000E-03 0. -1.
        -11    1    3    3    0    0 -0.10144793842E+02  0.98963212643E+01  0.26209528027E+02  0.29795861731E+02  0.51100000000E-03 0.  1.
         12    1    3    3    0    0 -0.99828286174E+01  0.27464142120E+00 -0.29632241514E+02  0.31269826227E+02  0.00000000000E+00 0. -1.
</event>
<event>
 7    1  0.3681059E-013  0.7246139E+02  0.7816164E-02  0.1226709E+00
        -11   -1    0    0    0    0  0.00000000000E+00  0.00000000000E+00  0.45593999997E+02  0.45594000000E+02  0.51100000000E-03 0. -1.
         11   -1    0    0    0    0 -0.00000000000E+00 -0.00000000000E+00 -0.45593999997E+02  0.45594000000E+02  0.51100000000E-03 0.  1.
    9900012    2    1    2    0    0  0.19255994559E+01  0.99152323104E+01  0.15769157908E+02  0.72461385085E+02  0.69999758730E+02 0.  0.
        -12    1    1    2    0    0 -0.19255994559E+01 -0.99152323104E+01 -0.15769157908E+02  0.18726614915E+02  0.00000000000E+00 0.  1.
         11    1    3    3    0    0 -0.13592162721E+02  0.11442952778E+02  0.10350267501E+02  0.20562492391E+02  0.51100000000E-03 0. -1.
        -11    1    3    3    0    0 -0.11391077353E+02  0.13053883663E+02  0.11366090307E+02  0.20720727089E+02  0.51100000000E-03 0.  1.
        -12    1    3    3    0    0  0.26908839530E+02 -0.14581604131E+02 -0.59471998991E+01  0.31178165606E+02  0.00000000000E+00 0.  1.
</event>
<event>
 7    1  0.3681059E-013  0.7246165E+02  0.7816164E-02  0.1226708E+00
        -11   -1    0    0    0    0  0.00000000000E+00  0.00000000000E+00  0.45593999997E+02  0.45594000000E+02  0.51100000000E-03 0. -1.
         11   -1    0    0    0    0 -0.00000000000E+00 -0.00000000000E+00 -0.45593999997E+02  0.45594000000E+02  0.51100000000E-03 0.  1.
    9900012    2    1    2    0    0 -0.17424916370E+02  0.20507846261E+01  0.65454495957E+01  0.72461645884E+02  0.70000098469E+02 0.  0.
        -12    1    1    2    0    0  0.17424916370E+02 -0.20507846261E+01 -0.65454495957E+01  0.18726354116E+02  0.00000000000E+00 0.  1.
         11    1    3    3    0    0 -0.24787809238E+02  0.15962212068E+01  0.76207595671E+01  0.25981904965E+02  0.51100000000E-03 0. -1.
        -11    1    3    3    0    0 -0.15842930441E+02 -0.11869242303E+02 -0.34620891560E+01  0.20096353385E+02  0.51100000000E-03 0.  1.
         12    1    3    3    0    0  0.23205823308E+02  0.12323805722E+02  0.23867791846E+01  0.26383387534E+02  0.00000000000E+00 0. -1.
</event>
<event>
 7    1  0.3681059E-013  0.7246160E+02  0.7816164E-02  0.1226708E+00
        -11   -1    0    0    0    0  0.00000000000E+00  0.00000000000E+00  0.45593999997E+02  0.45594000000E+02  0.51100000000E-03 0.  1.
         11   -1    0    0    0    0 -0.00000000000E+00 -0.00000000000E+00 -0.45593999997E+02  0.45594000000E+02  0.51100000000E-03 0. -1.
    9900012    2    1    2    0    0  0.12207235795E+01  0.17745176399E+02  0.58563215197E+01  0.72461602770E+02  0.70000042306E+02 0.  0.
        -12    1    1    2    0    0 -0.12207235795E+01 -0.17745176399E+02 -0.58563215197E+01  0.18726397230E+02  0.00000000000E+00 0.  1.
         11    1    3    3    0    0 -0.28227651800E+01  0.98665993225E+01 -0.76259344842E+01  0.12785642826E+02  0.51100000000E-03 0. -1.
        -11    1    3    3    0    0 -0.17895468543E+02 -0.13839323535E+02 -0.57021833446E+01  0.23330014261E+02  0.51100000000E-03 0.  1.
        -12    1    3    3    0    0  0.21938957303E+02  0.21717900611E+02  0.19184439348E+02  0.36345945683E+02  0.00000000000E+00 0.  1.
</event>
<event>
 7    1  0.3681059E-013  0.7246154E+02  0.7816164E-02  0.1226708E+00
        -11   -1    0    0    0    0  0.00000000000E+00  0.00000000000E+00  0.45593999997E+02  0.45594000000E+02  0.51100000000E-03 0. -1.
         11   -1    0    0    0    0 -0.00000000000E+00 -0.00000000000E+00 -0.45593999997E+02  0.45594000000E+02  0.51100000000E-03 0.  1.
    9900012    2    1    2    0    0  0.17196313899E+02 -0.48319575571E+01  0.56230988044E+01  0.72461541026E+02  0.69999961872E+02 0.  0.
        -12    1    1    2    0    0 -0.17196313899E+02  0.48319575571E+01 -0.56230988044E+01  0.18726458974E+02  0.00000000000E+00 0.  1.
         11    1    3    3    0    0  0.60930414673E+01 -0.94263636091E+01  0.61178421007E+01  0.12783171650E+02  0.51100000000E-03 0. -1.
        -11    1    3    3    0    0 -0.44930937620E+00  0.79479986869E+01  0.27808119277E+02  0.28925145808E+02  0.51100000000E-03 0.  1.
        -12    1    3    3    0    0  0.11552581808E+02 -0.33535926349E+01 -0.28302862573E+02  0.30753223568E+02  0.00000000000E+00 0.  1.
</event>
<event>
 7    1  0.3681059E-013  0.7246152E+02  0.7816164E-02  0.1226708E+00
        -11   -1    0    0    0    0  0.00000000000E+00  0.00000000000E+00  0.45593999997E+02  0.45594000000E+02  0.51100000000E-03 0. -1.
         11   -1    0    0    0    0 -0.00000000000E+00 -0.00000000000E+00 -0.45593999997E+02  0.45594000000E+02  0.51100000000E-03 0.  1.
    9900012    2    1    2    0    0 -0.15877652468E+02  0.85995005588E+01 -0.49628583669E+01  0.72461515521E+02  0.69999928648E+02 0.  0.
        -12    1    1    2    0    0  0.15877652468E+02 -0.85995005588E+01  0.49628583669E+01  0.18726484479E+02  0.00000000000E+00 0.  1.
         11    1    3    3    0    0  0.13068986299E+02  0.11743729798E+02  0.14725628458E+02  0.22925045828E+02  0.51100000000E-03 0. -1.
        -11    1    3    3    0    0 -0.25086112738E+01  0.69747434865E+01  0.73152194808E+01  0.10414058457E+02  0.51100000000E-03 0.  1.
        -12    1    3    3    0    0 -0.26438027494E+02 -0.10118972726E+02 -0.27003706305E+02  0.39122411237E+02  0.00000000000E+00 0.  1.
</event>
<event>
 7    1  0.3681059E-013  0.7246153E+02  0.7816164E-02  0.1226708E+00
        -11   -1    0    0    0    0  0.00000000000E+00  0.00000000000E+00  0.45593999997E+02  0.45594000000E+02  0.51100000000E-03 0.  1.
         11   -1    0    0    0    0 -0.00000000000E+00 -0.00000000000E+00 -0.45593999997E+02  0.45594000000E+02  0.51100000000E-03 0. -1.
    9900012    2    1    2    0    0  0.65286780722E+01  0.15844211500E+02  0.75510185503E+01  0.72461533260E+02  0.69999951755E+02 0.  0.
        -12    1    1    2    0    0 -0.65286780722E+01 -0.15844211500E+02 -0.75510185503E+01  0.18726466740E+02  0.00000000000E+00 0.  1.
         11    1    3    3    0    0 -0.76013645590E+01  0.15435691177E+02  0.16805067288E+02  0.24051020603E+02  0.51100000000E-03 0. -1.
        -11    1    3    3    0    0  0.93407018217E+01  0.11595732006E+02  0.15086754608E+02  0.21197166701E+02  0.51100000000E-03 0.  1.
         12    1    3    3    0    0  0.47893408096E+01 -0.11187211683E+02 -0.24340803345E+02  0.27213345956E+02  0.00000000000E+00 0. -1.
</event>
<event>
 7    1  0.3681059E-013  0.7246152E+02  0.7816164E-02  0.1226708E+00
        -11   -1    0    0    0    0  0.00000000000E+00  0.00000000000E+00  0.45593999997E+02  0.45594000000E+02  0.51100000000E-03 0. -1.
         11   -1    0    0    0    0 -0.00000000000E+00 -0.00000000000E+00 -0.45593999997E+02  0.45594000000E+02  0.51100000000E-03 0.  1.
    9900012    2    1    2    0    0  0.18107180624E+02 -0.47759977689E+01  0.28637158256E-01  0.72461522356E+02  0.69999937552E+02 0.  0.
        -12    1    1    2    0    0 -0.18107180624E+02  0.47759977689E+01 -0.28637158256E-01  0.18726477644E+02  0.00000000000E+00 0.  1.
         11    1    3    3    0    0  0.20416077609E+02 -0.46012261342E+01  0.79180357005E+01  0.22375942360E+02  0.51100000000E-03 0. -1.
        -11    1    3    3    0    0  0.14771560384E+02 -0.18823162160E+02 -0.13496335020E+01  0.23965223569E+02  0.51100000000E-03 0.  1.
        -12    1    3    3    0    0 -0.17080457369E+02  0.18648390525E+02 -0.65397650402E+01  0.26120356427E+02  0.00000000000E+00 0.  1.
</event>
<event>
 7    1  0.3681059E-013  0.7246153E+02  0.7816164E-02  0.1226708E+00
        -11   -1    0    0    0    0  0.00000000000E+00  0.00000000000E+00  0.45593999997E+02  0.45594000000E+02  0.51100000000E-03 0. -1.
         11   -1    0    0    0    0 -0.00000000000E+00 -0.00000000000E+00 -0.45593999997E+02  0.45594000000E+02  0.51100000000E-03 0.  1.
    9900012    2    1    2    0    0 -0.18657775745E+02 -0.12879358331E+01 -0.95362522073E+00  0.72461527413E+02  0.69999944139E+02 0.  0.
        -12    1    1    2    0    0  0.18657775745E+02  0.12879358331E+01  0.95362522073E+00  0.18726472587E+02  0.00000000000E+00 0.  1.
         11    1    3    3    0    0 -0.96712496316E+00 -0.18022842942E+01  0.55031586861E+00  0.21181140639E+01  0.51100000000E-03 0. -1.
        -11    1    3    3    0    0  0.15897315237E+02 -0.12998689442E+02 -0.20875196505E+02  0.29282492864E+02  0.51100000000E-03 0.  1.
         12    1    3    3    0    0 -0.33587966020E+02  0.13513037904E+02  0.19371255415E+02  0.41060920485E+02  0.00000000000E+00 0. -1.
</event>
<event>
 7    1  0.3681059E-013  0.7246155E+02  0.7816164E-02  0.1226708E+00
        -11   -1    0    0    0    0  0.00000000000E+00  0.00000000000E+00  0.45593999997E+02  0.45594000000E+02  0.51100000000E-03 0. -1.
         11   -1    0    0    0    0 -0.00000000000E+00 -0.00000000000E+00 -0.45593999997E+02  0.45594000000E+02  0.51100000000E-03 0.  1.
    9900012    2    1    2    0    0  0.18386631550E+02  0.94943855734E+00 -0.34220446405E+01  0.72461546976E+02  0.69999969624E+02 0.  0.
        -12    1    1    2    0    0 -0.18386631550E+02 -0.94943855734E+00  0.34220446405E+01  0.18726453024E+02  0.00000000000E+00 0.  1.
         11    1    3    3    0    0 -0.10692095603E+02 -0.18741360143E+02  0.44324085857E+01  0.22027386012E+02  0.51100000000E-03 0. -1.
        -11    1    3    3    0    0  0.13863005686E+02  0.64746972048E+01 -0.21286052465E+02  0.26214512399E+02  0.51100000000E-03 0.  1.
        -12    1    3    3    0    0  0.15215721467E+02  0.13216101495E+02  0.13431599238E+02  0.24219648565E+02  0.00000000000E+00 0.  1.
</event>
<event>
 7    1  0.3681059E-013  0.7246160E+02  0.7816164E-02  0.1226708E+00
        -11   -1    0    0    0    0  0.00000000000E+00  0.00000000000E+00  0.45593999997E+02  0.45594000000E+02  0.51100000000E-03 0.  1.
         11   -1    0    0    0    0 -0.00000000000E+00 -0.00000000000E+00 -0.45593999997E+02  0.45594000000E+02  0.51100000000E-03 0. -1.
    9900012    2    1    2    0    0  0.14772664433E+02  0.62173265017E+01 -0.96845910095E+01  0.72461599751E+02  0.70000038372E+02 0.  0.
        -12    1    1    2    0    0 -0.14772664433E+02 -0.62173265017E+01  0.96845910095E+01  0.18726400249E+02  0.00000000000E+00 0.  1.
         11    1    3    3    0    0 -0.70701914968E+00  0.12711715291E+02  0.24464821325E+01  0.12964291605E+02  0.51100000000E-03 0. -1.
        -11    1    3    3    0    0  0.19257740416E+02 -0.24584027653E+02  0.79319298382E+01  0.32220342841E+02  0.51100000000E-03 0.  1.
         12    1    3    3    0    0 -0.37780568339E+01  0.18089638864E+02 -0.20063002980E+02  0.27276965305E+02  0.00000000000E+00 0. -1.
</event>
<event>
 7    1  0.3681059E-013  0.7246158E+02  0.7816164E-02  0.1226708E+00
        -11   -1    0    0    0    0  0.00000000000E+00  0.00000000000E+00  0.45593999997E+02  0.45594000000E+02  0.51100000000E-03 0.  1.
         11   -1    0    0    0    0 -0.00000000000E+00 -0.00000000000E+00 -0.45593999997E+02  0.45594000000E+02  0.51100000000E-03 0. -1.
    9900012    2    1    2    0    0 -0.29406027288E+01 -0.15382420404E+02 -0.10267075914E+02  0.72461578833E+02  0.70000011123E+02 0.  0.
        -12    1    1    2    0    0  0.29406027288E+01  0.15382420404E+02  0.10267075914E+02  0.18726421167E+02  0.00000000000E+00 0.  1.
         11    1    3    3    0    0 -0.15098827232E+01 -0.14811268260E+02 -0.18906379293E+02  0.24064592070E+02  0.51100000000E-03 0. -1.
        -11    1    3    3    0    0 -0.18582644299E+02  0.44274434616E+01 -0.10841210903E+02  0.21964716681E+02  0.51100000000E-03 0.  1.
        -12    1    3    3    0    0  0.17151924294E+02 -0.49985956062E+01  0.19480514282E+02  0.26432270082E+02  0.00000000000E+00 0.  1.
</event>
<event>
 7    1  0.3681059E-013  0.7246156E+02  0.7816164E-02  0.1226708E+00
        -11   -1    0    0    0    0  0.00000000000E+00  0.00000000000E+00  0.45593999997E+02  0.45594000000E+02  0.51100000000E-03 0. -1.
         11   -1    0    0    0    0 -0.00000000000E+00 -0.00000000000E+00 -0.45593999997E+02  0.45594000000E+02  0.51100000000E-03 0.  1.
    9900012    2    1    2    0    0 -0.17609313316E+02  0.21889474346E+01  0.59833138167E+01  0.72461562790E+02  0.69999990224E+02 0.  0.
        -12    1    1    2    0    0  0.17609313316E+02 -0.21889474346E+01 -0.59833138167E+01  0.18726437210E+02  0.00000000000E+00 0.  1.
         11    1    3    3    0    0 -0.31809190952E-01 -0.25218462722E+02 -0.86135373259E+01  0.26648919292E+02  0.51100000000E-03 0. -1.
        -11    1    3    3    0    0  0.11609916822E+01  0.10192731321E+02 -0.70150014440E+01  0.12427788178E+02  0.51100000000E-03 0.  1.
        -12    1    3    3    0    0 -0.18738495808E+02  0.17214678836E+02  0.21611852587E+02  0.33384855320E+02  0.00000000000E+00 0.  1.
</event>
<event>
 7    1  0.3681059E-013  0.7246154E+02  0.7816164E-02  0.1226708E+00
        -11   -1    0    0    0    0  0.00000000000E+00  0.00000000000E+00  0.45593999997E+02  0.45594000000E+02  0.51100000000E-03 0.  1.
         11   -1    0    0    0    0 -0.00000000000E+00 -0.00000000000E+00 -0.45593999997E+02  0.45594000000E+02  0.51100000000E-03 0. -1.
    9900012    2    1    2    0    0 -0.68464143334E+01 -0.77238243687E+01 -0.15625278563E+02  0.72461543254E+02  0.69999964775E+02 0.  0.
        -12    1    1    2    0    0  0.68464143334E+01  0.77238243687E+01  0.15625278563E+02  0.18726456746E+02  0.00000000000E+00 0.  1.
         11    1    3    3    0    0  0.23585142805E+02 -0.88474197524E+01 -0.12856613056E+02  0.28281235775E+02  0.51100000000E-03 0. -1.
        -11    1    3    3    0    0  0.55084736467E+01 -0.44093819928E+01  0.23966637134E+01  0.74518406244E+01  0.51100000000E-03 0.  1.
        -12    1    3    3    0    0 -0.35940030786E+02  0.55329773765E+01 -0.51653292199E+01  0.36728466854E+02  0.00000000000E+00 0.  1.
</event>
<event>
 7    1  0.5197655E-013  0.7246162E+02  0.7816164E-02  0.1226708E+00
        -11   -1    0    0    0    0  0.00000000000E+00  0.00000000000E+00  0.45593999997E+02  0.45594000000E+02  0.51100000000E-03 0.  1.
         11   -1    0    0    0    0 -0.00000000000E+00 -0.00000000000E+00 -0.45593999997E+02  0.45594000000E+02  0.51100000000E-03 0. -1.
    9900012    2    1    2    0    0 -0.14599038012E+02 -0.86048424228E+01 -0.79688165907E+01  0.72461621230E+02  0.70000066353E+02 0.  0.
        -12    1    1    2    0    0  0.14599038012E+02  0.86048424228E+01  0.79688165907E+01  0.18726378770E+02  0.00000000000E+00 0.  1.
         11    1    3    3    0    0 -0.34328523824E+01  0.13350697012E+02 -0.11868420410E+02  0.18190244349E+02  0.51100000000E-03 0. -1.
        -11    1    3    3    0    0 -0.16056138800E+02 -0.21760568030E+01  0.21791854605E+02  0.27155473551E+02  0.51100000000E-03 0.  1.
         12    1    3    3    0    0  0.48899531709E+01 -0.19779482632E+02 -0.17892250785E+02  0.27115903329E+02  0.00000000000E+00 0. -1.
</event>
<event>
 7    1  0.3681059E-013  0.7246153E+02  0.7816164E-02  0.1226708E+00
        -11   -1    0    0    0    0  0.00000000000E+00  0.00000000000E+00  0.45593999997E+02  0.45594000000E+02  0.51100000000E-03 0.  1.
         11   -1    0    0    0    0 -0.00000000000E+00 -0.00000000000E+00 -0.45593999997E+02  0.45594000000E+02  0.51100000000E-03 0. -1.
    9900012    2    1    2    0    0  0.18052732553E+02 -0.40762048727E+01 -0.28572649563E+01  0.72461533120E+02  0.69999951573E+02 0.  0.
        -12    1    1    2    0    0 -0.18052732553E+02  0.40762048727E+01  0.28572649563E+01  0.18726466880E+02  0.00000000000E+00 0.  1.
         11    1    3    3    0    0  0.38735342772E+01  0.52075807057E+01 -0.57629817455E+01  0.86795808345E+01  0.51100000000E-03 0. -1.
        -11    1    3    3    0    0  0.45930583295E+01  0.26375421151E+02  0.47025274021E+00  0.26776485273E+02  0.51100000000E-03 0.  1.
         12    1    3    3    0    0  0.95861399462E+01 -0.35659206729E+02  0.24354640490E+01  0.37005467012E+02  0.00000000000E+00 0. -1.
</event>
<event>
 7    1  0.3681059E-013  0.7246155E+02  0.7816164E-02  0.1226708E+00
        -11   -1    0    0    0    0  0.00000000000E+00  0.00000000000E+00  0.45593999997E+02  0.45594000000E+02  0.51100000000E-03 0.  1.
         11   -1    0    0    0    0 -0.00000000000E+00 -0.00000000000E+00 -0.45593999997E+02  0.45594000000E+02  0.51100000000E-03 0. -1.
    9900012    2    1    2    0    0 -0.71984134187E+01 -0.50286865148E+01 -0.16540102551E+02  0.72461552494E+02  0.69999976812E+02 0.  0.
        -12    1    1    2    0    0  0.71984134187E+01  0.50286865148E+01  0.16540102551E+02  0.18726447506E+02  0.00000000000E+00 0.  1.
         11    1    3    3    0    0 -0.10019725976E+02  0.15320817437E+02 -0.28381260852E+02  0.33773041370E+02  0.51100000000E-03 0. -1.
        -11    1    3    3    0    0  0.10265260614E+02  0.41581326875E+01  0.20268845230E+01  0.11259391815E+02  0.51100000000E-03 0.  1.
        -12    1    3    3    0    0 -0.74439480563E+01 -0.24507636639E+02  0.98142737783E+01  0.27429119309E+02  0.00000000000E+00 0.  1.
</event>
<event>
 7    1  0.3681059E-013  0.7246155E+02  0.7816164E-02  0.1226708E+00
        -11   -1    0    0    0    0  0.00000000000E+00  0.00000000000E+00  0.45593999997E+02  0.45594000000E+02  0.51100000000E-03 0. -1.
         11   -1    0    0    0    0 -0.00000000000E+00 -0.00000000000E+00 -0.45593999997E+02  0.45594000000E+02  0.51100000000E-03 0.  1.
    9900012    2    1    2    0    0 -0.28253368043E+01 -0.61629863850E+00  0.18501824780E+02  0.72461551531E+02  0.69999975557E+02 0.  0.
        -12    1    1    2    0    0  0.28253368043E+01  0.61629863850E+00 -0.18501824780E+02  0.18726448469E+02  0.00000000000E+00 0.  1.
         11    1    3    3    0    0 -0.24226244523E+02 -0.98366737594E+01  0.33775027536E+02  0.42713271470E+02  0.51100000000E-03 0. -1.
        -11    1    3    3    0    0  0.30301568184E+01 -0.21913445523E+01 -0.11258412966E+01  0.39052989870E+01  0.51100000000E-03 0.  1.
        -12    1    3    3    0    0  0.18370750900E+02  0.11411719673E+02 -0.14147361459E+02  0.25842981074E+02  0.00000000000E+00 0.  1.
</event>
<event>
 7    1  0.3681059E-013  0.7246172E+02  0.7816164E-02  0.1226708E+00
        -11   -1    0    0    0    0  0.00000000000E+00  0.00000000000E+00  0.45593999997E+02  0.45594000000E+02  0.51100000000E-03 0. -1.
         11   -1    0    0    0    0 -0.00000000000E+00 -0.00000000000E+00 -0.45593999997E+02  0.45594000000E+02  0.51100000000E-03 0.  1.
    9900012    2    1    2    0    0 -0.17503135933E+01 -0.10278774413E+02  0.15554959737E+02  0.72461719709E+02  0.70000194640E+02 0.  0.
        -12    1    1    2    0    0  0.17503135933E+01  0.10278774413E+02 -0.15554959737E+02  0.18726280291E+02  0.00000000000E+00 0.  1.
         11    1    3    3    0    0  0.29850873949E+01 -0.86892947089E+01  0.21368670666E+02  0.23260152097E+02  0.51100000000E-03 0. -1.
        -11    1    3    3    0    0  0.10161763241E+02 -0.20126845114E+02 -0.10646648104E+02  0.24933961629E+02  0.51100000000E-03 0.  1.
         12    1    3    3    0    0 -0.14897164229E+02  0.18537365410E+02  0.48329371753E+01  0.24267605983E+02  0.00000000000E+00 0. -1.
</event>
<event>
 7    1  0.3681059E-013  0.7246160E+02  0.7816164E-02  0.1226708E+00
        -11   -1    0    0    0    0  0.00000000000E+00  0.00000000000E+00  0.45593999997E+02  0.45594000000E+02  0.51100000000E-03 0.  1.
         11   -1    0    0    0    0 -0.00000000000E+00 -0.00000000000E+00 -0.45593999997E+02  0.45594000000E+02  0.51100000000E-03 0. -1.
    9900012    2    1    2    0    0 -0.13108759108E+01  0.34910466956E+01 -0.18351354694E+02  0.72461600939E+02  0.70000039920E+02 0.  0.
        -12    1    1    2    0    0  0.13108759108E+01 -0.34910466956E+01  0.18351354694E+02  0.18726399061E+02  0.00000000000E+00 0.  1.
         11    1    3    3    0    0  0.14477207124E+02 -0.22013241963E+01  0.22426545636E+01  0.14814346225E+02  0.51100000000E-03 0. -1.
        -11    1    3    3    0    0  0.10824563933E+02  0.18863430880E+02 -0.42708382700E+00  0.21752760969E+02  0.51100000000E-03 0.  1.
        -12    1    3    3    0    0 -0.26612646968E+02 -0.13171059988E+02 -0.20166925431E+02  0.35894493745E+02  0.00000000000E+00 0.  1.
</event>
<event>
 7    1  0.3681059E-013  0.7246154E+02  0.7816164E-02  0.1226708E+00
        -11   -1    0    0    0    0  0.00000000000E+00  0.00000000000E+00  0.45593999997E+02  0.45594000000E+02  0.51100000000E-03 0.  1.
         11   -1    0    0    0    0 -0.00000000000E+00 -0.00000000000E+00 -0.45593999997E+02  0.45594000000E+02  0.51100000000E-03 0. -1.
    9900012    2    1    2    0    0  0.13614386820E+02  0.44310178663E+01 -0.12070416656E+02  0.72461537279E+02  0.69999956991E+02 0.  0.
        -12    1    1    2    0    0 -0.13614386820E+02 -0.44310178663E+01  0.12070416656E+02  0.18726462721E+02  0.00000000000E+00 0.  1.
         11    1    3    3    0    0 -0.10596695298E+02  0.21964031456E+02 -0.16420241931E+02  0.29399540377E+02  0.51100000000E-03 0. -1.
        -11    1    3    3    0    0 -0.32749006506E+01  0.55221536691E+01 -0.17905753334E+01  0.66652318566E+01  0.51100000000E-03 0.  1.
        -12    1    3    3    0    0  0.27485982769E+02 -0.23055167259E+02  0.61404006089E+01  0.36396765045E+02  0.00000000000E+00 0.  1.
</event>
<event>
 7    1  0.3681059E-013  0.7246157E+02  0.7816164E-02  0.1226708E+00
        -11   -1    0    0    0    0  0.00000000000E+00  0.00000000000E+00  0.45593999997E+02  0.45594000000E+02  0.51100000000E-03 0.  1.
         11   -1    0    0    0    0 -0.00000000000E+00 -0.00000000000E+00 -0.45593999997E+02  0.45594000000E+02  0.51100000000E-03 0. -1.
    9900012    2    1    2    0    0  0.51075729725E+01  0.11341066460E+02 -0.13999002645E+02  0.72461570410E+02  0.70000000151E+02 0.  0.
        -12    1    1    2    0    0 -0.51075729725E+01 -0.11341066460E+02  0.13999002645E+02  0.18726429590E+02  0.00000000000E+00 0.  1.
         11    1    3    3    0    0  0.23830163876E+02  0.75894741715E+00  0.18137307046E+02  0.29956879322E+02  0.51100000000E-03 0. -1.
        -11    1    3    3    0    0 -0.38690407980E+01  0.17694952413E+01  0.16473604673E+01  0.45622786933E+01  0.51100000000E-03 0.  1.
         12    1    3    3    0    0 -0.14853550106E+02  0.88126238015E+01 -0.33783670158E+02  0.37942412395E+02  0.00000000000E+00 0. -1.
</event>
<event>
 7    1  0.3681059E-013  0.7246209E+02  0.7816164E-02  0.1226707E+00
        -11   -1    0    0    0    0  0.00000000000E+00  0.00000000000E+00  0.45593999997E+02  0.45594000000E+02  0.51100000000E-03 0.  1.
         11   -1    0    0    0    0 -0.00000000000E+00 -0.00000000000E+00 -0.45593999997E+02  0.45594000000E+02  0.51100000000E-03 0. -1.
    9900012    2    1    2    0    0 -0.15781252773E+02  0.23747848405E+01 -0.97965470030E+01  0.72462085461E+02  0.70000671097E+02 0.  0.
        -12    1    1    2    0    0  0.15781252773E+02 -0.23747848405E+01  0.97965470030E+01  0.18725914539E+02  0.00000000000E+00 0.  1.
         11    1    3    3    0    0 -0.42871107644E+01  0.15730449484E+02  0.99625457874E+01  0.19107032174E+02  0.51100000000E-03 0. -1.
        -11    1    3    3    0    0  0.80318227744E+00  0.15326331079E+02 -0.15579726498E+02  0.21869371370E+02  0.51100000000E-03 0.  1.
        -12    1    3    3    0    0 -0.12297324286E+02 -0.28681995722E+02 -0.41793662922E+01  0.31485681917E+02  0.00000000000E+00 0.  1.
</event>
<event>
 7    1  0.3681059E-013  0.7246158E+02  0.7816164E-02  0.1226708E+00
        -11   -1    0    0    0    0  0.00000000000E+00  0.00000000000E+00  0.45593999997E+02  0.45594000000E+02  0.51100000000E-03 0.  1.
         11   -1    0    0    0    0 -0.00000000000E+00 -0.00000000000E+00 -0.45593999997E+02  0.45594000000E+02  0.51100000000E-03 0. -1.
    9900012    2    1    2    0    0  0.14371016531E+02 -0.10990202256E+02 -0.48340504057E+01  0.72461582695E+02  0.70000016154E+02 0.  0.
        -12    1    1    2    0    0 -0.14371016531E+02  0.10990202256E+02  0.48340504057E+01  0.18726417305E+02  0.00000000000E+00 0.  1.
         11    1    3    3    0    0 -0.45970115451E+01 -0.16646512260E+02  0.79110376460E+01  0.18995352128E+02  0.51100000000E-03 0. -1.
        -11    1    3    3    0    0  0.58281984709E+01  0.85761208223E+01  0.17511204506E+02  0.20350922074E+02  0.51100000000E-03 0.  1.
        -12    1    3    3    0    0  0.13139829605E+02 -0.29198108187E+01 -0.30256292557E+02  0.33115308493E+02  0.00000000000E+00 0.  1.
</event>
<event>
 7    1  0.3681059E-013  0.7246157E+02  0.7816164E-02  0.1226708E+00
        -11   -1    0    0    0    0  0.00000000000E+00  0.00000000000E+00  0.45593999997E+02  0.45594000000E+02  0.51100000000E-03 0.  1.
         11   -1    0    0    0    0 -0.00000000000E+00 -0.00000000000E+00 -0.45593999997E+02  0.45594000000E+02  0.51100000000E-03 0. -1.
    9900012    2    1    2    0    0 -0.12185678555E+02 -0.18794973736E+01 -0.14094532600E+02  0.72461571578E+02  0.70000001673E+02 0.  0.
        -12    1    1    2    0    0  0.12185678555E+02  0.18794973736E+01  0.14094532600E+02  0.18726428422E+02  0.00000000000E+00 0.  1.
         11    1    3    3    0    0 -0.71661534047E+01 -0.16174160184E+02 -0.19743203828E+02  0.26509456991E+02  0.51100000000E-03 0. -1.
        -11    1    3    3    0    0 -0.66972891087E+00 -0.10749525163E+02  0.15344039403E+02  0.18746743011E+02  0.51100000000E-03 0.  1.
        -12    1    3    3    0    0 -0.43497962395E+01  0.25044187974E+02 -0.96953681748E+01  0.27205371577E+02  0.00000000000E+00 0.  1.
</event>
<event>
 7    1  0.3681059E-013  0.7246146E+02  0.7816164E-02  0.1226708E+00
        -11   -1    0    0    0    0  0.00000000000E+00  0.00000000000E+00  0.45593999997E+02  0.45594000000E+02  0.51100000000E-03 0. -1.
         11   -1    0    0    0    0 -0.00000000000E+00 -0.00000000000E+00 -0.45593999997E+02  0.45594000000E+02  0.51100000000E-03 0.  1.
    9900012    2    1    2    0    0  0.12287976981E+02 -0.97877667318E+01  0.10192570253E+02  0.72461461498E+02  0.69999858273E+02 0.  0.
        -12    1    1    2    0    0 -0.12287976981E+02  0.97877667318E+01 -0.10192570253E+02  0.18726538502E+02  0.00000000000E+00 0.  1.
         11    1    3    3    0    0  0.30083486806E+02  0.11569556752E+02  0.48166256156E+01  0.32589426267E+02  0.51100000000E-03 0. -1.
        -11    1    3    3    0    0 -0.37300215576E+01  0.22269831308E+01  0.11013391890E+02  0.11839227841E+02  0.51100000000E-03 0.  1.
        -12    1    3    3    0    0 -0.14065488267E+02 -0.23584306614E+02 -0.56374472529E+01  0.28032807390E+02  0.00000000000E+00 0.  1.
</event>
<event>
 7    1  0.3681059E-013  0.7246156E+02  0.7816164E-02  0.1226708E+00
        -11   -1    0    0    0    0  0.00000000000E+00  0.00000000000E+00  0.45593999997E+02  0.45594000000E+02  0.51100000000E-03 0.  1.
         11   -1    0    0    0    0 -0.00000000000E+00 -0.00000000000E+00 -0.45593999997E+02  0.45594000000E+02  0.51100000000E-03 0. -1.
    9900012    2    1    2    0    0  0.17254721639E+02  0.64792085926E+01 -0.33126839476E+01  0.72461563133E+02  0.69999990671E+02 0.  0.
        -12    1    1    2    0    0 -0.17254721639E+02 -0.64792085926E+01  0.33126839476E+01  0.18726436867E+02  0.00000000000E+00 0.  1.
         11    1    3    3    0    0 -0.53979606659E+01  0.34515045419E+01 -0.70083149776E+01  0.94956485845E+01  0.51100000000E-03 0. -1.
        -11    1    3    3    0    0 -0.10794219657E+02 -0.93673574833E+01  0.19313771937E+02  0.24026742412E+02  0.51100000000E-03 0.  1.
        -12    1    3    3    0    0  0.33446901962E+02  0.12395061534E+02 -0.15618140907E+02  0.38939172136E+02  0.00000000000E+00 0.  1.
</event>
<event>
 7    1  0.3681059E-013  0.7246159E+02  0.7816164E-02  0.1226708E+00
        -11   -1    0    0    0    0  0.00000000000E+00  0.00000000000E+00  0.45593999997E+02  0.45594000000E+02  0.51100000000E-03 0. -1.
         11   -1    0    0    0    0 -0.00000000000E+00 -0.00000000000E+00 -0.45593999997E+02  0.45594000000E+02  0.51100000000E-03 0.  1.
    9900012    2    1    2    0    0 -0.40778490709E+01 -0.15874873864E+02  0.90574818519E+01  0.72461589486E+02  0.70000025000E+02 0.  0.
        -12    1    1    2    0    0  0.40778490709E+01  0.15874873864E+02 -0.90574818519E+01  0.18726410514E+02  0.00000000000E+00 0.  1.
         11    1    3    3    0    0  0.15128859776E+01  0.53595948283E+01  0.19476106020E+02  0.20256672645E+02  0.51100000000E-03 0. -1.
        -11    1    3    3    0    0 -0.52646799088E+01  0.14432021326E+02 -0.14763959282E+01  0.15433076145E+02  0.51100000000E-03 0.  1.
        -12    1    3    3    0    0 -0.32605513972E+00 -0.35666490019E+02 -0.89422282394E+01  0.36771840695E+02  0.00000000000E+00 0.  1.
</event>
<event>
 7    1  0.3681059E-013  0.7246160E+02  0.7816164E-02  0.1226708E+00
        -11   -1    0    0    0    0  0.00000000000E+00  0.00000000000E+00  0.45593999997E+02  0.45594000000E+02  0.51100000000E-03 0.  1.
         11   -1    0    0    0    0 -0.00000000000E+00 -0.00000000000E+00 -0.45593999997E+02  0.45594000000E+02  0.51100000000E-03 0. -1.
    9900012    2    1    2    0    0 -0.20232836238E+01  0.17241929567E+02  0.70214002828E+01  0.72461604892E+02  0.70000045070E+02 0.  0.
        -12    1    1    2    0    0  0.20232836238E+01 -0.17241929567E+02 -0.70214002828E+01  0.18726395108E+02  0.00000000000E+00 0.  1.
         11    1    3    3    0    0 -0.66199379897E-02  0.37182768370E+02 -0.18466612137E+01  0.37228597414E+02  0.51100000000E-03 0. -1.
        -11    1    3    3    0    0 -0.61864120846E+00  0.48292737056E+01 -0.48594438540E+01  0.68788659167E+01  0.51100000000E-03 0.  1.
        -12    1    3    3    0    0 -0.13980224773E+01 -0.24770112509E+02  0.13727505350E+02  0.28354141562E+02  0.00000000000E+00 0.  1.
</event>
<event>
 7    1  0.3681059E-013  0.7246154E+02  0.7816164E-02  0.1226708E+00
        -11   -1    0    0    0    0  0.00000000000E+00  0.00000000000E+00  0.45593999997E+02  0.45594000000E+02  0.51100000000E-03 0.  1.
         11   -1    0    0    0    0 -0.00000000000E+00 -0.00000000000E+00 -0.45593999997E+02  0.45594000000E+02  0.51100000000E-03 0. -1.
    9900012    2    1    2    0    0  0.11802113099E+02  0.65391476785E+00 -0.14524559399E+02  0.72461540007E+02  0.69999960545E+02 0.  0.
        -12    1    1    2    0    0 -0.11802113099E+02 -0.65391476785E+00  0.14524559399E+02  0.18726459993E+02  0.00000000000E+00 0.  1.
         11    1    3    3    0    0  0.29153044042E+02 -0.63724725258E+01  0.67026858918E+01  0.30584871774E+02  0.51100000000E-03 0. -1.
        -11    1    3    3    0    0  0.81792410955E+01  0.40633355585E+01 -0.10791069483E+02  0.14137109379E+02  0.51100000000E-03 0.  1.
        -12    1    3    3    0    0 -0.25530172039E+02  0.29630517352E+01 -0.10436175808E+02  0.27739558854E+02  0.00000000000E+00 0.  1.
</event>
<event>
 7    1  0.3681059E-013  0.7246150E+02  0.7816164E-02  0.1226708E+00
        -11   -1    0    0    0    0  0.00000000000E+00  0.00000000000E+00  0.45593999997E+02  0.45594000000E+02  0.51100000000E-03 0. -1.
         11   -1    0    0    0    0 -0.00000000000E+00 -0.00000000000E+00 -0.45593999997E+02  0.45594000000E+02  0.51100000000E-03 0.  1.
    9900012    2    1    2    0    0  0.13485307701E+02  0.65175126450E+01  0.11240561611E+02  0.72461502191E+02  0.69999911282E+02 0.  0.
        -12    1    1    2    0    0 -0.13485307701E+02 -0.65175126450E+01 -0.11240561611E+02  0.18726497809E+02  0.00000000000E+00 0.  1.
         11    1    3    3    0    0  0.32229391493E+01 -0.13045654095E+02 -0.16834155990E+00  0.13438927288E+02  0.51100000000E-03 0. -1.
        -11    1    3    3    0    0 -0.16433353409E+02  0.25562080146E+02  0.81859415785E+01  0.31471966660E+02  0.51100000000E-03 0.  1.
         12    1    3    3    0    0  0.26695721961E+02 -0.59989134065E+01  0.32229615928E+01  0.27550608242E+02  0.00000000000E+00 0. -1.
</event>
<event>
 7    1  0.3681059E-013  0.7246157E+02  0.7816164E-02  0.1226708E+00
        -11   -1    0    0    0    0  0.00000000000E+00  0.00000000000E+00  0.45593999997E+02  0.45594000000E+02  0.51100000000E-03 0. -1.
         11   -1    0    0    0    0 -0.00000000000E+00 -0.00000000000E+00 -0.45593999997E+02  0.45594000000E+02  0.51100000000E-03 0.  1.
    9900012    2    1    2    0    0 -0.78483093959E+01 -0.16818600087E+02  0.24935843157E+01  0.72461568626E+02  0.69999997826E+02 0.  0.
        -12    1    1    2    0    0  0.78483093959E+01  0.16818600087E+02 -0.24935843157E+01  0.18726431374E+02  0.00000000000E+00 0.  1.
         11    1    3    3    0    0  0.10787098589E+02  0.66309262333E+01 -0.77661540716E+01  0.14854084556E+02  0.51100000000E-03 0. -1.
        -11    1    3    3    0    0  0.33937413309E+01  0.12867031016E+02  0.69251851101E+01  0.15001205167E+02  0.51100000000E-03 0.  1.
         12    1    3    3    0    0 -0.22029149316E+02 -0.36316557337E+02  0.33345532773E+01  0.42606278903E+02  0.00000000000E+00 0. -1.
</event>
<event>
 7    1  0.3681059E-013  0.7246148E+02  0.7816164E-02  0.1226708E+00
        -11   -1    0    0    0    0  0.00000000000E+00  0.00000000000E+00  0.45593999997E+02  0.45594000000E+02  0.51100000000E-03 0.  1.
         11   -1    0    0    0    0 -0.00000000000E+00 -0.00000000000E+00 -0.45593999997E+02  0.45594000000E+02  0.51100000000E-03 0. -1.
    9900012    2    1    2    0    0 -0.16250499238E+02 -0.90261776411E+01  0.22653727838E+01  0.72461480779E+02  0.69999883389E+02 0.  0.
        -12    1    1    2    0    0  0.16250499238E+02  0.90261776411E+01 -0.22653727838E+01  0.18726519221E+02  0.00000000000E+00 0.  1.
         11    1    3    3    0    0 -0.18093873140E+02 -0.69168148692E+01 -0.86241269038E+01  0.21203917993E+02  0.51100000000E-03 0. -1.
        -11    1    3    3    0    0 -0.47069185833E+01 -0.12683214687E+02 -0.16404326740E+02  0.21263136020E+02  0.51100000000E-03 0.  1.
        -12    1    3    3    0    0  0.65502924851E+01  0.10573851915E+02  0.27293826428E+02  0.29994426766E+02  0.00000000000E+00 0.  1.
</event>
<event>
 7    1  0.3681059E-013  0.7246157E+02  0.7816164E-02  0.1226708E+00
        -11   -1    0    0    0    0  0.00000000000E+00  0.00000000000E+00  0.45593999997E+02  0.45594000000E+02  0.51100000000E-03 0.  1.
         11   -1    0    0    0    0 -0.00000000000E+00 -0.00000000000E+00 -0.45593999997E+02  0.45594000000E+02  0.51100000000E-03 0. -1.
    9900012    2    1    2    0    0 -0.11132533688E+02 -0.29258620723E+01 -0.14771089140E+02  0.72461573497E+02  0.70000004172E+02 0.  0.
        -12    1    1    2    0    0  0.11132533688E+02  0.29258620723E+01  0.14771089140E+02  0.18726426503E+02  0.00000000000E+00 0.  1.
         11    1    3    3    0    0  0.25145133383E+01  0.17284083604E+02 -0.13097124212E+02  0.21831101352E+02  0.51100000000E-03 0. -1.
        -11    1    3    3    0    0 -0.17899382885E+02  0.52125818325E+00  0.15259496323E+02  0.23526832470E+02  0.51100000000E-03 0.  1.
         12    1    3    3    0    0  0.42523358590E+01 -0.20731203859E+02 -0.16933461251E+02  0.27103639675E+02  0.00000000000E+00 0. -1.
</event>
<event>
 7    1  0.3681059E-013  0.7246154E+02  0.7816164E-02  0.1226708E+00
        -11   -1    0    0    0    0  0.00000000000E+00  0.00000000000E+00  0.45593999997E+02  0.45594000000E+02  0.51100000000E-03 0. -1.
         11   -1    0    0    0    0 -0.00000000000E+00 -0.00000000000E+00 -0.45593999997E+02  0.45594000000E+02  0.51100000000E-03 0.  1.
    9900012    2    1    2    0    0 -0.98686967117E+01 -0.17273450544E+01  0.15821039262E+02  0.72461543340E+02  0.69999964887E+02 0.  0.
        -12    1    1    2    0    0  0.98686967117E+01  0.17273450544E+01 -0.15821039262E+02  0.18726456660E+02  0.00000000000E+00 0.  1.
         11    1    3    3    0    0  0.37452386713E+01 -0.16215034153E+02  0.53627837697E+01  0.17484667435E+02  0.51100000000E-03 0. -1.
        -11    1    3    3    0    0 -0.19648079584E+02 -0.77683819398E+01 -0.10698454505E+02  0.23682308130E+02  0.51100000000E-03 0.  1.
         12    1    3    3    0    0  0.60341442005E+01  0.22256071038E+02  0.21156709998E+02  0.31294567775E+02  0.00000000000E+00 0. -1.
</event>
<event>
 7    1  0.3681059E-013  0.7246155E+02  0.7816164E-02  0.1226708E+00
        -11   -1    0    0    0    0  0.00000000000E+00  0.00000000000E+00  0.45593999997E+02  0.45594000000E+02  0.51100000000E-03 0. -1.
         11   -1    0    0    0    0 -0.00000000000E+00 -0.00000000000E+00 -0.45593999997E+02  0.45594000000E+02  0.51100000000E-03 0.  1.
    9900012    2    1    2    0    0 -0.31451227699E+01 -0.15479020437E+02  0.10059232269E+02  0.72461547459E+02  0.69999970253E+02 0.  0.
        -12    1    1    2    0    0  0.31451227699E+01  0.15479020437E+02 -0.10059232269E+02  0.18726452541E+02  0.00000000000E+00 0.  1.
         11    1    3    3    0    0  0.17227999048E+02 -0.17918944241E+02  0.56727033843E+01  0.25496511091E+02  0.51100000000E-03 0. -1.
        -11    1    3    3    0    0 -0.23975779331E+02 -0.15408027782E+02  0.37543743235E+01  0.28746141332E+02  0.51100000000E-03 0.  1.
         12    1    3    3    0    0  0.36026575132E+01  0.17847951585E+02  0.63215456102E+00  0.18218895036E+02  0.00000000000E+00 0. -1.
</event>
<event>
 7    1  0.3681059E-013  0.7246159E+02  0.7816164E-02  0.1226708E+00
        -11   -1    0    0    0    0  0.00000000000E+00  0.00000000000E+00  0.45593999997E+02  0.45594000000E+02  0.51100000000E-03 0.  1.
         11   -1    0    0    0    0 -0.00000000000E+00 -0.00000000000E+00 -0.45593999997E+02  0.45594000000E+02  0.51100000000E-03 0. -1.
    9900012    2    1    2    0    0 -0.88179038554E+01  0.17100331168E+00 -0.16519492541E+02  0.72461593395E+02  0.70000030093E+02 0.  0.
        -12    1    1    2    0    0  0.88179038554E+01 -0.17100331168E+00  0.16519492541E+02  0.18726406605E+02  0.00000000000E+00 0.  1.
         11    1    3    3    0    0  0.17492298174E+02  0.82448718450E+01 -0.35634888045E+01  0.19663592242E+02  0.51100000000E-03 0. -1.
        -11    1    3    3    0    0 -0.17776343309E+02  0.12679552627E+02  0.68329435064E+01  0.22879216627E+02  0.51100000000E-03 0.  1.
         12    1    3    3    0    0 -0.85338587205E+01 -0.20753421161E+02 -0.19788947242E+02  0.29918784526E+02  0.00000000000E+00 0. -1.
</event>
<event>
 7    1  0.3681059E-013  0.7246150E+02  0.7816164E-02  0.1226708E+00
        -11   -1    0    0    0    0  0.00000000000E+00  0.00000000000E+00  0.45593999997E+02  0.45594000000E+02  0.51100000000E-03 0.  1.
         11   -1    0    0    0    0 -0.00000000000E+00 -0.00000000000E+00 -0.45593999997E+02  0.45594000000E+02  0.51100000000E-03 0. -1.
    9900012    2    1    2    0    0 -0.10205412949E+02 -0.17052449780E+00  0.15700391060E+02  0.72461499753E+02  0.69999908107E+02 0.  0.
        -12    1    1    2    0    0  0.10205412949E+02  0.17052449780E+00 -0.15700391060E+02  0.18726500247E+02  0.00000000000E+00 0.  1.
         11    1    3    3    0    0 -0.84814581039E+01 -0.28322989526E+01  0.80085231964E+00  0.89776619241E+01  0.51100000000E-03 0. -1.
        -11    1    3    3    0    0 -0.30294563601E+02 -0.22401477513E+01 -0.10543081137E+01  0.30395565656E+02  0.51100000000E-03 0.  1.
         12    1    3    3    0    0  0.28570608755E+02  0.49019222061E+01  0.15953846854E+02  0.33088272173E+02  0.00000000000E+00 0. -1.
</event>
<event>
 7    1  0.3681059E-013  0.7246160E+02  0.7816164E-02  0.1226708E+00
        -11   -1    0    0    0    0  0.00000000000E+00  0.00000000000E+00  0.45593999997E+02  0.45594000000E+02  0.51100000000E-03 0.  1.
         11   -1    0    0    0    0 -0.00000000000E+00 -0.00000000000E+00 -0.45593999997E+02  0.45594000000E+02  0.51100000000E-03 0. -1.
    9900012    2    1    2    0    0 -0.16341667911E+02  0.87256498541E+01 -0.27369365021E+01  0.72461604273E+02  0.70000044264E+02 0.  0.
        -12    1    1    2    0    0  0.16341667911E+02 -0.87256498541E+01  0.27369365021E+01  0.18726395727E+02  0.00000000000E+00 0.  1.
         11    1    3    3    0    0 -0.20792337568E+02 -0.17611102018E+02 -0.26393824513E+01  0.27375875435E+02  0.51100000000E-03 0. -1.
        -11    1    3    3    0    0 -0.11538943217E+02  0.19151296071E+01  0.87234703121E+01  0.14591568337E+02  0.51100000000E-03 0.  1.
        -12    1    3    3    0    0  0.15989612874E+02  0.24421622265E+02 -0.88210243629E+01  0.30494160502E+02  0.00000000000E+00 0.  1.
</event>
<event>
 7    1  0.3681059E-013  0.7246131E+02  0.7816164E-02  0.1226709E+00
        -11   -1    0    0    0    0  0.00000000000E+00  0.00000000000E+00  0.45593999997E+02  0.45594000000E+02  0.51100000000E-03 0.  1.
         11   -1    0    0    0    0 -0.00000000000E+00 -0.00000000000E+00 -0.45593999997E+02  0.45594000000E+02  0.51100000000E-03 0. -1.
    9900012    2    1    2    0    0  0.11576410230E+02 -0.36929107523E+01 -0.14249138391E+02  0.72461312933E+02  0.69999664738E+02 0.  0.
        -12    1    1    2    0    0 -0.11576410230E+02  0.36929107523E+01  0.14249138391E+02  0.18726687067E+02  0.00000000000E+00 0.  1.
         11    1    3    3    0    0 -0.94000590481E+00 -0.19938740646E+02 -0.19522223986E+02  0.27920498192E+02  0.51100000000E-03 0. -1.
        -11    1    3    3    0    0  0.14318894625E+02 -0.95920416253E+01 -0.26904803242E+01  0.17443528613E+02  0.51100000000E-03 0.  1.
        -12    1    3    3    0    0 -0.18024784908E+01  0.25837871519E+02  0.79635659195E+01  0.27097286128E+02  0.00000000000E+00 0.  1.
</event>
<event>
 7    1  0.3681059E-013  0.7246152E+02  0.7816164E-02  0.1226708E+00
        -11   -1    0    0    0    0  0.00000000000E+00  0.00000000000E+00  0.45593999997E+02  0.45594000000E+02  0.51100000000E-03 0.  1.
         11   -1    0    0    0    0 -0.00000000000E+00 -0.00000000000E+00 -0.45593999997E+02  0.45594000000E+02  0.51100000000E-03 0. -1.
    9900012    2    1    2    0    0 -0.12104653555E+02  0.31879732225E+01 -0.13928218271E+02  0.72461519413E+02  0.69999933718E+02 0.  0.
        -12    1    1    2    0    0  0.12104653555E+02 -0.31879732225E+01  0.13928218271E+02  0.18726480587E+02  0.00000000000E+00 0.  1.
         11    1    3    3    0    0 -0.15102250986E+02  0.26473141525E+02 -0.13782354722E+01  0.30509092748E+02  0.51100000000E-03 0. -1.
        -11    1    3    3    0    0  0.12899704374E+02  0.11932505043E+01 -0.78044051154E+01  0.15123986219E+02  0.51100000000E-03 0.  1.
        -12    1    3    3    0    0 -0.99021069427E+01 -0.24478418807E+02 -0.47455776835E+01  0.26828440446E+02  0.00000000000E+00 0.  1.
</event>
<event>
 7    1  0.3681059E-013  0.7246160E+02  0.7816164E-02  0.1226708E+00
        -11   -1    0    0    0    0  0.00000000000E+00  0.00000000000E+00  0.45593999997E+02  0.45594000000E+02  0.51100000000E-03 0. -1.
         11   -1    0    0    0    0 -0.00000000000E+00 -0.00000000000E+00 -0.45593999997E+02  0.45594000000E+02  0.51100000000E-03 0.  1.
    9900012    2    1    2    0    0 -0.17032553332E+02  0.76339270757E+01 -0.15143566219E+01  0.72461601745E+02  0.70000040971E+02 0.  0.
        -12    1    1    2    0    0  0.17032553332E+02 -0.76339270757E+01  0.15143566219E+01  0.18726398255E+02  0.00000000000E+00 0.  1.
         11    1    3    3    0    0  0.80461131398E+01 -0.68223908530E+01  0.15435809811E+02  0.18696234337E+02  0.51100000000E-03 0. -1.
        -11    1    3    3    0    0  0.93724611599E+01  0.91716824863E+01  0.32101608571E+01  0.13500663717E+02  0.51100000000E-03 0.  1.
         12    1    3    3    0    0 -0.34451127632E+02  0.52846354425E+01 -0.20160327290E+02  0.40264703691E+02  0.00000000000E+00 0. -1.
</event>
<event>
 7    1  0.3681059E-013  0.7246158E+02  0.7816164E-02  0.1226708E+00
        -11   -1    0    0    0    0  0.00000000000E+00  0.00000000000E+00  0.45593999997E+02  0.45594000000E+02  0.51100000000E-03 0. -1.
         11   -1    0    0    0    0 -0.00000000000E+00 -0.00000000000E+00 -0.45593999997E+02  0.45594000000E+02  0.51100000000E-03 0.  1.
    9900012    2    1    2    0    0 -0.94933211390E+00 -0.32373561045E+01  0.18420016269E+02  0.72461582688E+02  0.70000016144E+02 0.  0.
        -12    1    1    2    0    0  0.94933211390E+00  0.32373561045E+01 -0.18420016269E+02  0.18726417312E+02  0.00000000000E+00 0.  1.
         11    1    3    3    0    0 -0.76112075557E+01 -0.18942425576E+02  0.55020724573E+01  0.21142818373E+02  0.51100000000E-03 0. -1.
        -11    1    3    3    0    0 -0.20189764773E+02  0.65389655879E+01  0.68878420628E+01  0.22312038031E+02  0.51100000000E-03 0.  1.
         12    1    3    3    0    0  0.26851640214E+02  0.91661038840E+01  0.60301017488E+01  0.29006726284E+02  0.00000000000E+00 0. -1.
</event>
<event>
 7    1  0.3681059E-013  0.7246155E+02  0.7816164E-02  0.1226708E+00
        -11   -1    0    0    0    0  0.00000000000E+00  0.00000000000E+00  0.45593999997E+02  0.45594000000E+02  0.51100000000E-03 0.  1.
         11   -1    0    0    0    0 -0.00000000000E+00 -0.00000000000E+00 -0.45593999997E+02  0.45594000000E+02  0.51100000000E-03 0. -1.
    9900012    2    1    2    0    0 -0.15890353887E+02 -0.74716605687E+01 -0.65077452399E+01  0.72461553290E+02  0.69999977848E+02 0.  0.
        -12    1    1    2    0    0  0.15890353887E+02  0.74716605687E+01  0.65077452399E+01  0.18726446710E+02  0.00000000000E+00 0.  1.
         11    1    3    3    0    0  0.14069443164E+02 -0.97836789625E+01 -0.17331738066E+01  0.17224212513E+02  0.51100000000E-03 0. -1.
        -11    1    3    3    0    0  0.65278423222E+01 -0.11095469830E+02  0.69567026875E+01  0.14632767635E+02  0.51100000000E-03 0.  1.
        -12    1    3    3    0    0 -0.36487639373E+02  0.13407488223E+02 -0.11731274121E+02  0.40604573141E+02  0.00000000000E+00 0.  1.
</event>
<event>
 7    1  0.3681059E-013  0.7246155E+02  0.7816164E-02  0.1226708E+00
        -11   -1    0    0    0    0  0.00000000000E+00  0.00000000000E+00  0.45593999997E+02  0.45594000000E+02  0.51100000000E-03 0.  1.
         11   -1    0    0    0    0 -0.00000000000E+00 -0.00000000000E+00 -0.45593999997E+02  0.45594000000E+02  0.51100000000E-03 0. -1.
    9900012    2    1    2    0    0  0.58797111340E+01  0.81847932303E+01 -0.15783476927E+02  0.72461548464E+02  0.69999971561E+02 0.  0.
        -12    1    1    2    0    0 -0.58797111340E+01 -0.81847932303E+01  0.15783476927E+02  0.18726451536E+02  0.00000000000E+00 0.  1.
         11    1    3    3    0    0 -0.18640673354E+02 -0.12093188575E+02 -0.26074420578E+02  0.34257777537E+02  0.51100000000E-03 0. -1.
        -11    1    3    3    0    0  0.73994943503E+01 -0.28898449214E+01  0.29673117492E+01  0.84798973807E+01  0.51100000000E-03 0.  1.
        -12    1    3    3    0    0  0.17120890138E+02  0.23167826727E+02  0.73236319020E+01  0.29723873546E+02  0.00000000000E+00 0.  1.
</event>
<event>
 7    1  0.3681059E-013  0.7246157E+02  0.7816164E-02  0.1226708E+00
        -11   -1    0    0    0    0  0.00000000000E+00  0.00000000000E+00  0.45593999997E+02  0.45594000000E+02  0.51100000000E-03 0.  1.
         11   -1    0    0    0    0 -0.00000000000E+00 -0.00000000000E+00 -0.45593999997E+02  0.45594000000E+02  0.51100000000E-03 0. -1.
    9900012    2    1    2    0    0 -0.55737284809E+01 -0.10660134918E+02 -0.14351805215E+02  0.72461568450E+02  0.69999997598E+02 0.  0.
        -12    1    1    2    0    0  0.55737284809E+01  0.10660134918E+02  0.14351805215E+02  0.18726431550E+02  0.00000000000E+00 0.  1.
         11    1    3    3    0    0  0.16443048632E+02 -0.18629765472E+02  0.44229647029E+01  0.25238950590E+02  0.51100000000E-03 0. -1.
        -11    1    3    3    0    0 -0.12559832675E+02 -0.11255848074E+02  0.24753387896E+01  0.17046137835E+02  0.51100000000E-03 0.  1.
         12    1    3    3    0    0 -0.94569444379E+01  0.19225478629E+02 -0.21250108708E+02  0.30176480025E+02  0.00000000000E+00 0. -1.
</event>
<event>
 7    1  0.3681059E-013  0.7246159E+02  0.7816164E-02  0.1226708E+00
        -11   -1    0    0    0    0  0.00000000000E+00  0.00000000000E+00  0.45593999997E+02  0.45594000000E+02  0.51100000000E-03 0.  1.
         11   -1    0    0    0    0 -0.00000000000E+00 -0.00000000000E+00 -0.45593999997E+02  0.45594000000E+02  0.51100000000E-03 0. -1.
    9900012    2    1    2    0    0  0.11463642483E+02 -0.32926571532E+01 -0.14436817814E+02  0.72461590875E+02  0.70000026811E+02 0.  0.
        -12    1    1    2    0    0 -0.11463642483E+02  0.32926571532E+01  0.14436817814E+02  0.18726409125E+02  0.00000000000E+00 0.  1.
         11    1    3    3    0    0  0.27353608084E+02 -0.67889404112E+00  0.16484027734E+02  0.31943762191E+02  0.51100000000E-03 0. -1.
        -11    1    3    3    0    0 -0.34161186549E+01  0.83241390321E+01 -0.69668023150E+01  0.11379696483E+02  0.51100000000E-03 0.  1.
        -12    1    3    3    0    0 -0.12473846947E+02 -0.10937902144E+02 -0.23954043233E+02  0.29138132201E+02  0.00000000000E+00 0.  1.
</event>
<event>
 7    1  0.3681059E-013  0.7246156E+02  0.7816164E-02  0.1226708E+00
        -11   -1    0    0    0    0  0.00000000000E+00  0.00000000000E+00  0.45593999997E+02  0.45594000000E+02  0.51100000000E-03 0.  1.
         11   -1    0    0    0    0 -0.00000000000E+00 -0.00000000000E+00 -0.45593999997E+02  0.45594000000E+02  0.51100000000E-03 0. -1.
    9900012    2    1    2    0    0  0.68522181468E+01 -0.17418005442E+02  0.58279840095E+00  0.72461562509E+02  0.69999989858E+02 0.  0.
        -12    1    1    2    0    0 -0.68522181468E+01  0.17418005442E+02 -0.58279840095E+00  0.18726437491E+02  0.00000000000E+00 0.  1.
         11    1    3    3    0    0  0.34794454513E+01 -0.17362162774E+02 -0.27734055302E+02  0.32904848588E+02  0.51100000000E-03 0. -1.
        -11    1    3    3    0    0  0.10662464574E+02 -0.85931528431E+01  0.68049053280E+01  0.15291735133E+02  0.51100000000E-03 0.  1.
        -12    1    3    3    0    0 -0.72896918790E+01  0.85373101749E+01  0.21511948375E+02  0.24264978788E+02  0.00000000000E+00 0.  1.
</event>
<event>
 7    1  0.3681059E-013  0.7246159E+02  0.7816164E-02  0.1226708E+00
        -11   -1    0    0    0    0  0.00000000000E+00  0.00000000000E+00  0.45593999997E+02  0.45594000000E+02  0.51100000000E-03 0.  1.
         11   -1    0    0    0    0 -0.00000000000E+00 -0.00000000000E+00 -0.45593999997E+02  0.45594000000E+02  0.51100000000E-03 0. -1.
    9900012    2    1    2    0    0 -0.17150527373E+02  0.62252640585E+01 -0.42170872216E+01  0.72461592806E+02  0.70000029326E+02 0.  0.
        -12    1    1    2    0    0  0.17150527373E+02 -0.62252640585E+01  0.42170872216E+01  0.18726407194E+02  0.00000000000E+00 0.  1.
         11    1    3    3    0    0  0.50378954767E+01  0.15007315264E+02 -0.17701810186E+02  0.23747715394E+02  0.51100000000E-03 0. -1.
        -11    1    3    3    0    0  0.29738560766E+01  0.26789042796E+01  0.19926001797E+02  0.20324022633E+02  0.51100000000E-03 0.  1.
        -12    1    3    3    0    0 -0.25162278926E+02 -0.11460955485E+02 -0.64412788324E+01  0.28389854779E+02  0.00000000000E+00 0.  1.
</event>
<event>
 7    1  0.3681059E-013  0.7246161E+02  0.7816164E-02  0.1226708E+00
        -11   -1    0    0    0    0  0.00000000000E+00  0.00000000000E+00  0.45593999997E+02  0.45594000000E+02  0.51100000000E-03 0. -1.
         11   -1    0    0    0    0 -0.00000000000E+00 -0.00000000000E+00 -0.45593999997E+02  0.45594000000E+02  0.51100000000E-03 0.  1.
    9900012    2    1    2    0    0  0.15090706089E+02 -0.11078457064E+02  0.46499994545E+00  0.72461605629E+02  0.70000046030E+02 0.  0.
        -12    1    1    2    0    0 -0.15090706089E+02  0.11078457064E+02 -0.46499994545E+00  0.18726394371E+02  0.00000000000E+00 0.  1.
         11    1    3    3    0    0 -0.14390747909E+02 -0.22080673517E+02 -0.11571223264E+02  0.28784422461E+02  0.51100000000E-03 0. -1.
        -11    1    3    3    0    0  0.13487865932E+02 -0.87123153954E+01  0.12852680267E+01  0.16108348181E+02  0.51100000000E-03 0.  1.
        -12    1    3    3    0    0  0.15993588066E+02  0.19714531848E+02  0.10750955183E+02  0.27568834987E+02  0.00000000000E+00 0.  1.
</event>
<event>
 7    1  0.3681059E-013  0.7246167E+02  0.7816164E-02  0.1226708E+00
        -11   -1    0    0    0    0  0.00000000000E+00  0.00000000000E+00  0.45593999997E+02  0.45594000000E+02  0.51100000000E-03 0.  1.
         11   -1    0    0    0    0 -0.00000000000E+00 -0.00000000000E+00 -0.45593999997E+02  0.45594000000E+02  0.51100000000E-03 0. -1.
    9900012    2    1    2    0    0  0.29910737697E+01  0.17989441612E+02  0.42554498260E+01  0.72461671342E+02  0.70000131633E+02 0.  0.
        -12    1    1    2    0    0 -0.29910737697E+01 -0.17989441612E+02 -0.42554498260E+01  0.18726328658E+02  0.00000000000E+00 0.  1.
         11    1    3    3    0    0 -0.42980936565E+01  0.21777912503E+02  0.24775063239E+00  0.22199379782E+02  0.51100000000E-03 0. -1.
        -11    1    3    3    0    0  0.62717457377E+01  0.22422851649E+02 -0.19441095641E+01  0.23364473735E+02  0.51100000000E-03 0.  1.
        -12    1    3    3    0    0  0.10174216885E+01 -0.26211322540E+02  0.59518087577E+01  0.26897817824E+02  0.00000000000E+00 0.  1.
</event>
<event>
 7    1  0.3681059E-013  0.7246157E+02  0.7816164E-02  0.1226708E+00
        -11   -1    0    0    0    0  0.00000000000E+00  0.00000000000E+00  0.45593999997E+02  0.45594000000E+02  0.51100000000E-03 0. -1.
         11   -1    0    0    0    0 -0.00000000000E+00 -0.00000000000E+00 -0.45593999997E+02  0.45594000000E+02  0.51100000000E-03 0.  1.
    9900012    2    1    2    0    0  0.12277661152E+01 -0.10821706333E+02  0.15233593515E+02  0.72461571911E+02  0.70000002106E+02 0.  0.
        -12    1    1    2    0    0 -0.12277661152E+01  0.10821706333E+02 -0.15233593515E+02  0.18726428089E+02  0.00000000000E+00 0.  1.
         11    1    3    3    0    0  0.17599487629E+01 -0.24475221665E+02  0.83336807779E+00  0.24552563977E+02  0.51100000000E-03 0. -1.
        -11    1    3    3    0    0  0.34840684496E+01 -0.10984413417E+02 -0.82732102611E+01  0.14185981791E+02  0.51100000000E-03 0.  1.
         12    1    3    3    0    0 -0.40162510972E+01  0.24637928750E+02  0.22673435698E+02  0.33723026144E+02  0.00000000000E+00 0. -1.
</event>
<event>
 7    1  0.3681059E-013  0.7246163E+02  0.7816164E-02  0.1226708E+00
        -11   -1    0    0    0    0  0.00000000000E+00  0.00000000000E+00  0.45593999997E+02  0.45594000000E+02  0.51100000000E-03 0. -1.
         11   -1    0    0    0    0 -0.00000000000E+00 -0.00000000000E+00 -0.45593999997E+02  0.45594000000E+02  0.51100000000E-03 0.  1.
    9900012    2    1    2    0    0  0.71266599389E+01 -0.16673542054E+02  0.46776602686E+01  0.72461633772E+02  0.70000082692E+02 0.  0.
        -12    1    1    2    0    0 -0.71266599389E+01  0.16673542054E+02 -0.46776602686E+01  0.18726366228E+02  0.00000000000E+00 0.  1.
         11    1    3    3    0    0 -0.14354013048E+02 -0.11928145162E+02 -0.81721633715E+01  0.20374066654E+02  0.51100000000E-03 0. -1.
        -11    1    3    3    0    0  0.28364716063E+01  0.43802951137E+01 -0.15839070763E+02  0.16676591959E+02  0.51100000000E-03 0.  1.
         12    1    3    3    0    0  0.18644201380E+02 -0.91256920054E+01  0.28688894403E+02  0.35410975160E+02  0.00000000000E+00 0. -1.
</event>
<event>
 7    1  0.3681059E-013  0.7246157E+02  0.7816164E-02  0.1226708E+00
        -11   -1    0    0    0    0  0.00000000000E+00  0.00000000000E+00  0.45593999997E+02  0.45594000000E+02  0.51100000000E-03 0. -1.
         11   -1    0    0    0    0 -0.00000000000E+00 -0.00000000000E+00 -0.45593999997E+02  0.45594000000E+02  0.51100000000E-03 0.  1.
    9900012    2    1    2    0    0 -0.38717527905E+01 -0.10244499582E+02  0.15190096795E+02  0.72461567291E+02  0.69999996087E+02 0.  0.
        -12    1    1    2    0    0  0.38717527905E+01  0.10244499582E+02 -0.15190096795E+02  0.18726432709E+02  0.00000000000E+00 0.  1.
         11    1    3    3    0    0 -0.13138222124E+02 -0.16965194317E+02 -0.65381690851E+01  0.22431637346E+02  0.51100000000E-03 0. -1.
        -11    1    3    3    0    0 -0.16725575181E+02 -0.34383899717E+01  0.97310340103E+01  0.19653508946E+02  0.51100000000E-03 0.  1.
        -12    1    3    3    0    0  0.25992044515E+02  0.10159084706E+02  0.11997231870E+02  0.30376420998E+02  0.00000000000E+00 0.  1.
</event>
<event>
 7    1  0.3681059E-013  0.7246154E+02  0.7816164E-02  0.1226708E+00
        -11   -1    0    0    0    0  0.00000000000E+00  0.00000000000E+00  0.45593999997E+02  0.45594000000E+02  0.51100000000E-03 0.  1.
         11   -1    0    0    0    0 -0.00000000000E+00 -0.00000000000E+00 -0.45593999997E+02  0.45594000000E+02  0.51100000000E-03 0. -1.
    9900012    2    1    2    0    0 -0.69728051473E+01  0.19426816821E+01 -0.17270965074E+02  0.72461541223E+02  0.69999962130E+02 0.  0.
        -12    1    1    2    0    0  0.69728051473E+01 -0.19426816821E+01  0.17270965074E+02  0.18726458777E+02  0.00000000000E+00 0.  1.
         11    1    3    3    0    0  0.65773029788E+01 -0.36228906097E+01  0.17880868091E+01  0.77190352728E+01  0.51100000000E-03 0. -1.
        -11    1    3    3    0    0  0.13402905872E+02  0.11028404885E+02  0.13597355699E+02  0.22048847643E+02  0.51100000000E-03 0.  1.
         12    1    3    3    0    0 -0.26953013998E+02 -0.54628325936E+01 -0.32656407582E+02  0.42693658307E+02  0.00000000000E+00 0. -1.
</event>
<event>
 7    1  0.3681059E-013  0.7246155E+02  0.7816164E-02  0.1226708E+00
        -11   -1    0    0    0    0  0.00000000000E+00  0.00000000000E+00  0.45593999997E+02  0.45594000000E+02  0.51100000000E-03 0.  1.
         11   -1    0    0    0    0 -0.00000000000E+00 -0.00000000000E+00 -0.45593999997E+02  0.45594000000E+02  0.51100000000E-03 0. -1.
    9900012    2    1    2    0    0 -0.15707908380E+02 -0.62906757367E+01 -0.80230220572E+01  0.72461551596E+02  0.69999975642E+02 0.  0.
        -12    1    1    2    0    0  0.15707908380E+02  0.62906757367E+01  0.80230220572E+01  0.18726448404E+02  0.00000000000E+00 0.  1.
         11    1    3    3    0    0 -0.20675046538E+02 -0.18104231032E+02 -0.20219442291E+02  0.34118126816E+02  0.51100000000E-03 0. -1.
        -11    1    3    3    0    0 -0.12339421358E+02  0.82977276587E+01 -0.28525961565E+01  0.15141033942E+02  0.51100000000E-03 0.  1.
         12    1    3    3    0    0  0.17306559516E+02  0.35158276367E+01  0.15049016391E+02  0.23202390838E+02  0.00000000000E+00 0. -1.
</event>
<event>
 7    1  0.3681059E-013  0.7246154E+02  0.7816164E-02  0.1226708E+00
        -11   -1    0    0    0    0  0.00000000000E+00  0.00000000000E+00  0.45593999997E+02  0.45594000000E+02  0.51100000000E-03 0.  1.
         11   -1    0    0    0    0 -0.00000000000E+00 -0.00000000000E+00 -0.45593999997E+02  0.45594000000E+02  0.51100000000E-03 0. -1.
    9900012    2    1    2    0    0  0.17160602764E+02  0.24969066342E+01 -0.70681897954E+01  0.72461544464E+02  0.69999966351E+02 0.  0.
        -12    1    1    2    0    0 -0.17160602764E+02 -0.24969066342E+01  0.70681897954E+01  0.18726455536E+02  0.00000000000E+00 0.  1.
         11    1    3    3    0    0  0.87693863041E+01  0.49829953252E+00  0.33023804039E+01  0.93838241228E+01  0.51100000000E-03 0. -1.
        -11    1    3    3    0    0  0.80929678017E+01  0.13436217024E+02  0.22977924371E+02  0.27821090281E+02  0.51100000000E-03 0.  1.
         12    1    3    3    0    0  0.29824865853E+00 -0.11437609923E+02 -0.33348494571E+02  0.35256630059E+02  0.00000000000E+00 0. -1.
</event>
<event>
 7    1  0.3681059E-013  0.7246159E+02  0.7816164E-02  0.1226708E+00
        -11   -1    0    0    0    0  0.00000000000E+00  0.00000000000E+00  0.45593999997E+02  0.45594000000E+02  0.51100000000E-03 0. -1.
         11   -1    0    0    0    0 -0.00000000000E+00 -0.00000000000E+00 -0.45593999997E+02  0.45594000000E+02  0.51100000000E-03 0.  1.
    9900012    2    1    2    0    0  0.17380585662E+02  0.44946803223E+01  0.53283700913E+01  0.72461589853E+02  0.70000025479E+02 0.  0.
        -12    1    1    2    0    0 -0.17380585662E+02 -0.44946803223E+01 -0.53283700913E+01  0.18726410147E+02  0.00000000000E+00 0.  1.
         11    1    3    3    0    0  0.11543068641E+02  0.10531336324E+02 -0.13947000214E+02  0.20944457349E+02  0.51100000000E-03 0. -1.
        -11    1    3    3    0    0  0.20033748477E+02 -0.86560099057E+01 -0.58017076866E+01  0.22581793504E+02  0.51100000000E-03 0.  1.
         12    1    3    3    0    0 -0.14196231455E+02  0.26193539042E+01  0.25077077992E+02  0.28935339000E+02  0.00000000000E+00 0. -1.
</event>
<event>
 7    1  0.3681059E-013  0.7246154E+02  0.7816164E-02  0.1226708E+00
        -11   -1    0    0    0    0  0.00000000000E+00  0.00000000000E+00  0.45593999997E+02  0.45594000000E+02  0.51100000000E-03 0.  1.
         11   -1    0    0    0    0 -0.00000000000E+00 -0.00000000000E+00 -0.45593999997E+02  0.45594000000E+02  0.51100000000E-03 0. -1.
    9900012    2    1    2    0    0  0.11107882370E+02 -0.14699789013E+02  0.33483574660E+01  0.72461538896E+02  0.69999959098E+02 0.  0.
        -12    1    1    2    0    0 -0.11107882370E+02  0.14699789013E+02 -0.33483574660E+01  0.18726461104E+02  0.00000000000E+00 0.  1.
         11    1    3    3    0    0 -0.36001842427E+01  0.72304535131E+01  0.61267696299E+01  0.10137952996E+02  0.51100000000E-03 0. -1.
        -11    1    3    3    0    0  0.29179922315E+02  0.51338451990E+01  0.63570280540E+01  0.30302409785E+02  0.51100000000E-03 0.  1.
         12    1    3    3    0    0 -0.14471855702E+02 -0.27064087725E+02 -0.91354402179E+01  0.32021176115E+02  0.00000000000E+00 0. -1.
</event>
<event>
 7    1  0.3681059E-013  0.7246158E+02  0.7816164E-02  0.1226708E+00
        -11   -1    0    0    0    0  0.00000000000E+00  0.00000000000E+00  0.45593999997E+02  0.45594000000E+02  0.51100000000E-03 0. -1.
         11   -1    0    0    0    0 -0.00000000000E+00 -0.00000000000E+00 -0.45593999997E+02  0.45594000000E+02  0.51100000000E-03 0.  1.
    9900012    2    1    2    0    0 -0.87444226134E+01 -0.14692591352E+01 -0.16494098185E+02  0.72461576845E+02  0.70000008534E+02 0.  0.
        -12    1    1    2    0    0  0.87444226134E+01  0.14692591352E+01  0.16494098185E+02  0.18726423155E+02  0.00000000000E+00 0.  1.
         11    1    3    3    0    0 -0.78312762898E+01 -0.24913836512E+02 -0.54999663965E+01  0.26688532532E+02  0.51100000000E-03 0. -1.
        -11    1    3    3    0    0  0.15337399246E+02  0.39511574996E+00  0.42117057470E+00  0.15348267557E+02  0.51100000000E-03 0.  1.
        -12    1    3    3    0    0 -0.16250545570E+02  0.23049461627E+02 -0.11415302363E+02  0.30424776756E+02  0.00000000000E+00 0.  1.
</event>
<event>
 7    1  0.3681059E-013  0.7246156E+02  0.7816164E-02  0.1226708E+00
        -11   -1    0    0    0    0  0.00000000000E+00  0.00000000000E+00  0.45593999997E+02  0.45594000000E+02  0.51100000000E-03 0.  1.
         11   -1    0    0    0    0 -0.00000000000E+00 -0.00000000000E+00 -0.45593999997E+02  0.45594000000E+02  0.51100000000E-03 0. -1.
    9900012    2    1    2    0    0 -0.12873518224E+02  0.13530187503E+02  0.13733386544E+01  0.72461561353E+02  0.69999988353E+02 0.  0.
        -12    1    1    2    0    0  0.12873518224E+02 -0.13530187503E+02 -0.13733386544E+01  0.18726438647E+02  0.00000000000E+00 0.  1.
         11    1    3    3    0    0  0.13975588952E+02 -0.38790299780E+01  0.13788977363E+02  0.20012492526E+02  0.51100000000E-03 0. -1.
        -11    1    3    3    0    0 -0.18456510777E+01  0.43087136731E+01  0.13400327128E+02  0.14196485791E+02  0.51100000000E-03 0.  1.
         12    1    3    3    0    0 -0.25003456098E+02  0.13100503808E+02 -0.25815965836E+02  0.38252583036E+02  0.00000000000E+00 0. -1.
</event>
<event>
 7    1  0.3681059E-013  0.7246157E+02  0.7816164E-02  0.1226708E+00
        -11   -1    0    0    0    0  0.00000000000E+00  0.00000000000E+00  0.45593999997E+02  0.45594000000E+02  0.51100000000E-03 0.  1.
         11   -1    0    0    0    0 -0.00000000000E+00 -0.00000000000E+00 -0.45593999997E+02  0.45594000000E+02  0.51100000000E-03 0. -1.
    9900012    2    1    2    0    0 -0.62503327201E+01  0.12541816191E+02 -0.12422366772E+02  0.72461574589E+02  0.70000005594E+02 0.  0.
        -12    1    1    2    0    0  0.62503327201E+01 -0.12541816191E+02  0.12422366772E+02  0.18726425411E+02  0.00000000000E+00 0.  1.
         11    1    3    3    0    0  0.57479261056E+00 -0.10603422120E+02 -0.11946396649E+01  0.10685977325E+02  0.51100000000E-03 0. -1.
        -11    1    3    3    0    0 -0.21751474750E+02  0.19333635102E+02  0.13939275534E+02  0.32267933040E+02  0.51100000000E-03 0.  1.
         12    1    3    3    0    0  0.14926349419E+02  0.38116032090E+01 -0.25167002641E+02  0.29507664223E+02  0.00000000000E+00 0. -1.
</event>
<event>
 7    1  0.3681059E-013  0.7246158E+02  0.7816164E-02  0.1226708E+00
        -11   -1    0    0    0    0  0.00000000000E+00  0.00000000000E+00  0.45593999997E+02  0.45594000000E+02  0.51100000000E-03 0.  1.
         11   -1    0    0    0    0 -0.00000000000E+00 -0.00000000000E+00 -0.45593999997E+02  0.45594000000E+02  0.51100000000E-03 0. -1.
    9900012    2    1    2    0    0 -0.51450073199E+00  0.16185940118E+02 -0.94036841090E+01  0.72461584344E+02  0.70000018302E+02 0.  0.
        -12    1    1    2    0    0  0.51450073199E+00 -0.16185940118E+02  0.94036841090E+01  0.18726415656E+02  0.00000000000E+00 0.  1.
         11    1    3    3    0    0 -0.16700999017E+02  0.17207224010E+02 -0.20527855108E+02  0.31565879710E+02  0.51100000000E-03 0. -1.
        -11    1    3    3    0    0  0.91923523295E+01  0.14631431795E+02  0.15488137369E+02  0.23204752469E+02  0.51100000000E-03 0.  1.
         12    1    3    3    0    0  0.69941459553E+01 -0.15652715687E+02 -0.43639663698E+01  0.17690952165E+02  0.00000000000E+00 0. -1.
</event>
<event>
 7    1  0.3681059E-013  0.7246157E+02  0.7816164E-02  0.1226708E+00
        -11   -1    0    0    0    0  0.00000000000E+00  0.00000000000E+00  0.45593999997E+02  0.45594000000E+02  0.51100000000E-03 0.  1.
         11   -1    0    0    0    0 -0.00000000000E+00 -0.00000000000E+00 -0.45593999997E+02  0.45594000000E+02  0.51100000000E-03 0. -1.
    9900012    2    1    2    0    0  0.17900370802E+02 -0.41295301833E+01 -0.36335633451E+01  0.72461572765E+02  0.70000003219E+02 0.  0.
        -12    1    1    2    0    0 -0.17900370802E+02  0.41295301833E+01  0.36335633451E+01  0.18726427235E+02  0.00000000000E+00 0.  1.
         11    1    3    3    0    0  0.31029459457E+02 -0.40738651202E-01 -0.67981564835E+01  0.31765452077E+02  0.51100000000E-03 0. -1.
        -11    1    3    3    0    0  0.12916485875E+01 -0.56768287409E+01  0.18613652192E+02  0.19502891807E+02  0.51100000000E-03 0.  1.
        -12    1    3    3    0    0 -0.14420737242E+02  0.15880372089E+01 -0.15449059054E+02  0.21193228882E+02  0.00000000000E+00 0.  1.
</event>
<event>
 7    1  0.3681059E-013  0.7246155E+02  0.7816164E-02  0.1226708E+00
        -11   -1    0    0    0    0  0.00000000000E+00  0.00000000000E+00  0.45593999997E+02  0.45594000000E+02  0.51100000000E-03 0.  1.
         11   -1    0    0    0    0 -0.00000000000E+00 -0.00000000000E+00 -0.45593999997E+02  0.45594000000E+02  0.51100000000E-03 0. -1.
    9900012    2    1    2    0    0 -0.66191647679E+01 -0.17505660160E+02 -0.64696051217E+00  0.72461547112E+02  0.69999969800E+02 0.  0.
        -12    1    1    2    0    0  0.66191647679E+01  0.17505660160E+02  0.64696051217E+00  0.18726452888E+02  0.00000000000E+00 0.  1.
         11    1    3    3    0    0 -0.81794198988E+01  0.73926024628E+01  0.21203217824E+00  0.11027168220E+02  0.51100000000E-03 0. -1.
        -11    1    3    3    0    0 -0.20559776426E+02 -0.78539226334E+01 -0.18203405745E+02  0.28561381066E+02  0.51100000000E-03 0.  1.
         12    1    3    3    0    0  0.22120031557E+02 -0.17044339990E+02  0.17344413055E+02  0.32872997825E+02  0.00000000000E+00 0. -1.
</event>
<event>
 7    1  0.3681059E-013  0.7246158E+02  0.7816164E-02  0.1226708E+00
        -11   -1    0    0    0    0  0.00000000000E+00  0.00000000000E+00  0.45593999997E+02  0.45594000000E+02  0.51100000000E-03 0. -1.
         11   -1    0    0    0    0 -0.00000000000E+00 -0.00000000000E+00 -0.45593999997E+02  0.45594000000E+02  0.51100000000E-03 0.  1.
    9900012    2    1    2    0    0  0.18839008619E+01  0.14921188999E+02  0.11157407301E+02  0.72461582797E+02  0.70000016287E+02 0.  0.
        -12    1    1    2    0    0 -0.18839008619E+01 -0.14921188999E+02 -0.11157407301E+02  0.18726417203E+02  0.00000000000E+00 0.  1.
         11    1    3    3    0    0 -0.90612896804E+01 -0.53357276215E+01  0.13771001513E+02  0.17326783973E+02  0.51100000000E-03 0. -1.
        -11    1    3    3    0    0  0.10089123947E+02  0.20818227734E+02  0.21152465013E+02  0.31346703245E+02  0.51100000000E-03 0.  1.
        -12    1    3    3    0    0  0.85606659558E+00 -0.56131111372E+00 -0.23766059225E+02  0.23788095578E+02  0.00000000000E+00 0.  1.
</event>
<event>
 7    1  0.3681059E-013  0.7246157E+02  0.7816164E-02  0.1226708E+00
        -11   -1    0    0    0    0  0.00000000000E+00  0.00000000000E+00  0.45593999997E+02  0.45594000000E+02  0.51100000000E-03 0. -1.
         11   -1    0    0    0    0 -0.00000000000E+00 -0.00000000000E+00 -0.45593999997E+02  0.45594000000E+02  0.51100000000E-03 0.  1.
    9900012    2    1    2    0    0 -0.77456246318E+01  0.16581193708E+02  0.39684393658E+01  0.72461569568E+02  0.69999999054E+02 0.  0.
        -12    1    1    2    0    0  0.77456246318E+01 -0.16581193708E+02 -0.39684393658E+01  0.18726430432E+02  0.00000000000E+00 0.  1.
         11    1    3    3    0    0 -0.17185576445E+01  0.20025801988E+01  0.27324810789E+02  0.27451940783E+02  0.51100000000E-03 0. -1.
        -11    1    3    3    0    0 -0.12675172297E+02  0.19605798602E+01  0.45996188183E+01  0.13625724189E+02  0.51100000000E-03 0.  1.
         12    1    3    3    0    0  0.66481053093E+01  0.12618033649E+02 -0.27955990241E+02  0.31383904597E+02  0.00000000000E+00 0. -1.
</event>
<event>
 7    1  0.3681059E-013  0.7246154E+02  0.7816164E-02  0.1226708E+00
        -11   -1    0    0    0    0  0.00000000000E+00  0.00000000000E+00  0.45593999997E+02  0.45594000000E+02  0.51100000000E-03 0. -1.
         11   -1    0    0    0    0 -0.00000000000E+00 -0.00000000000E+00 -0.45593999997E+02  0.45594000000E+02  0.51100000000E-03 0.  1.
    9900012    2    1    2    0    0  0.17363770695E+01 -0.16203687394E+02 -0.92252797140E+01  0.72461540743E+02  0.69999961504E+02 0.  0.
        -12    1    1    2    0    0 -0.17363770695E+01  0.16203687394E+02  0.92252797140E+01  0.18726459257E+02  0.00000000000E+00 0.  1.
         11    1    3    3    0    0 -0.14681384518E+01  0.12191656224E+02 -0.22216036940E+01  0.12479079904E+02  0.51100000000E-03 0. -1.
        -11    1    3    3    0    0  0.95406340033E+01  0.82153651989E+01  0.12736563304E+02  0.17909102926E+02  0.51100000000E-03 0.  1.
         12    1    3    3    0    0 -0.63361184820E+01 -0.36610708818E+02 -0.19740239324E+02  0.42073357914E+02  0.00000000000E+00 0. -1.
</event>
<event>
 7    1  0.3681059E-013  0.7246151E+02  0.7816164E-02  0.1226708E+00
        -11   -1    0    0    0    0  0.00000000000E+00  0.00000000000E+00  0.45593999997E+02  0.45594000000E+02  0.51100000000E-03 0. -1.
         11   -1    0    0    0    0 -0.00000000000E+00 -0.00000000000E+00 -0.45593999997E+02  0.45594000000E+02  0.51100000000E-03 0.  1.
    9900012    2    1    2    0    0 -0.15336615094E+02  0.21195607125E+01 -0.10534573883E+02  0.72461506814E+02  0.69999917305E+02 0.  0.
        -12    1    1    2    0    0  0.15336615094E+02 -0.21195607125E+01  0.10534573883E+02  0.18726493186E+02  0.00000000000E+00 0.  1.
         11    1    3    3    0    0 -0.17160480902E+02  0.76276733002E+01 -0.11204385235E+02  0.21867824618E+02  0.51100000000E-03 0. -1.
        -11    1    3    3    0    0 -0.58696747998E+01  0.21044185749E+02  0.55031804913E+01  0.22529887525E+02  0.51100000000E-03 0.  1.
         12    1    3    3    0    0  0.76935406079E+01 -0.26552298337E+02 -0.48333691394E+01  0.28063794670E+02  0.00000000000E+00 0. -1.
</event>
<event>
 7    1  0.3681059E-013  0.7246152E+02  0.7816164E-02  0.1226708E+00
        -11   -1    0    0    0    0  0.00000000000E+00  0.00000000000E+00  0.45593999997E+02  0.45594000000E+02  0.51100000000E-03 0. -1.
         11   -1    0    0    0    0 -0.00000000000E+00 -0.00000000000E+00 -0.45593999997E+02  0.45594000000E+02  0.51100000000E-03 0.  1.
    9900012    2    1    2    0    0  0.11124691012E+02  0.98323615833E+01  0.11412571768E+02  0.72461524657E+02  0.69999940548E+02 0.  0.
        -12    1    1    2    0    0 -0.11124691012E+02 -0.98323615833E+01 -0.11412571768E+02  0.18726475343E+02  0.00000000000E+00 0.  1.
         11    1    3    3    0    0  0.13336980471E+02 -0.59263957835E+01  0.34930375077E+02  0.37856681290E+02  0.51100000000E-03 0. -1.
        -11    1    3    3    0    0 -0.58369917383E+01 -0.18342314653E+01 -0.17120460729E+01  0.63534226711E+01  0.51100000000E-03 0.  1.
        -12    1    3    3    0    0  0.36247022801E+01  0.17592988832E+02 -0.21805757236E+02  0.28251420695E+02  0.00000000000E+00 0.  1.
</event>
<event>
 7    1  0.3681059E-013  0.7246167E+02  0.7816164E-02  0.1226708E+00
        -11   -1    0    0    0    0  0.00000000000E+00  0.00000000000E+00  0.45593999997E+02  0.45594000000E+02  0.51100000000E-03 0. -1.
         11   -1    0    0    0    0 -0.00000000000E+00 -0.00000000000E+00 -0.45593999997E+02  0.45594000000E+02  0.51100000000E-03 0.  1.
    9900012    2    1    2    0    0 -0.10831926386E+02 -0.46914700509E+01  0.14537360441E+02  0.72461671768E+02  0.70000132188E+02 0.  0.
        -12    1    1    2    0    0  0.10831926386E+02  0.46914700509E+01 -0.14537360441E+02  0.18726328232E+02  0.00000000000E+00 0.  1.
         11    1    3    3    0    0  0.45973949311E+01 -0.79106747548E+01  0.10548343259E+02  0.13963608452E+02  0.51100000000E-03 0. -1.
        -11    1    3    3    0    0 -0.34687264899E+02 -0.59530664502E+01  0.95252825732E+01  0.36460613745E+02  0.51100000000E-03 0.  1.
         12    1    3    3    0    0  0.19257943581E+02  0.91722711541E+01 -0.55362653917E+01  0.22037449571E+02  0.00000000000E+00 0. -1.
</event>
<event>
 7    1  0.3681059E-013  0.7246164E+02  0.7816164E-02  0.1226708E+00
        -11   -1    0    0    0    0  0.00000000000E+00  0.00000000000E+00  0.45593999997E+02  0.45594000000E+02  0.51100000000E-03 0. -1.
         11   -1    0    0    0    0 -0.00000000000E+00 -0.00000000000E+00 -0.45593999997E+02  0.45594000000E+02  0.51100000000E-03 0.  1.
    9900012    2    1    2    0    0  0.61542933515E+01 -0.13865233480E+02  0.10979826191E+02  0.72461638653E+02  0.70000089050E+02 0.  0.
        -12    1    1    2    0    0 -0.61542933515E+01  0.13865233480E+02 -0.10979826191E+02  0.18726361347E+02  0.00000000000E+00 0.  1.
         11    1    3    3    0    0  0.35549669810E+01  0.31768106383E+01  0.72205737700E+01  0.86525488671E+01  0.51100000000E-03 0. -1.
        -11    1    3    3    0    0  0.19298178691E+02  0.15060781938E+02 -0.80105699018E+01  0.25756864790E+02  0.51100000000E-03 0.  1.
         12    1    3    3    0    0 -0.16698852321E+02 -0.32102826056E+02  0.11769822323E+02  0.38052224996E+02  0.00000000000E+00 0. -1.
</event>
<event>
 7    1  0.3681059E-013  0.7246155E+02  0.7816164E-02  0.1226708E+00
        -11   -1    0    0    0    0  0.00000000000E+00  0.00000000000E+00  0.45593999997E+02  0.45594000000E+02  0.51100000000E-03 0. -1.
         11   -1    0    0    0    0 -0.00000000000E+00 -0.00000000000E+00 -0.45593999997E+02  0.45594000000E+02  0.51100000000E-03 0.  1.
    9900012    2    1    2    0    0  0.16824781504E+02 -0.82185214366E+01 -0.25003842025E+00  0.72461551152E+02  0.69999975063E+02 0.  0.
        -12    1    1    2    0    0 -0.16824781504E+02  0.82185214366E+01  0.25003842025E+00  0.18726448848E+02  0.00000000000E+00 0.  1.
         11    1    3    3    0    0  0.12411347136E+02 -0.15859223183E+02 -0.52805363106E+01  0.20819235377E+02  0.51100000000E-03 0. -1.
        -11    1    3    3    0    0 -0.56595404992E+01  0.44010107083E+01 -0.21721337549E+02  0.22873910883E+02  0.51100000000E-03 0.  1.
         12    1    3    3    0    0  0.10072974867E+02  0.32396910378E+01  0.26751835439E+02  0.28768404892E+02  0.00000000000E+00 0. -1.
</event>
<event>
 7    1  0.3681059E-013  0.7246164E+02  0.7816164E-02  0.1226708E+00
        -11   -1    0    0    0    0  0.00000000000E+00  0.00000000000E+00  0.45593999997E+02  0.45594000000E+02  0.51100000000E-03 0.  1.
         11   -1    0    0    0    0 -0.00000000000E+00 -0.00000000000E+00 -0.45593999997E+02  0.45594000000E+02  0.51100000000E-03 0. -1.
    9900012    2    1    2    0    0 -0.12177215158E+02 -0.11423751880E+02 -0.84787876038E+01  0.72461641164E+02  0.70000092321E+02 0.  0.
        -12    1    1    2    0    0  0.12177215158E+02  0.11423751880E+02  0.84787876038E+01  0.18726358836E+02  0.00000000000E+00 0.  1.
         11    1    3    3    0    0  0.28204711390E+01  0.86674923604E+01 -0.23056424715E+02  0.24792724783E+02  0.51100000000E-03 0. -1.
        -11    1    3    3    0    0 -0.31700641824E+01  0.10787090182E+02 -0.65625363926E+00  0.11262383878E+02  0.51100000000E-03 0.  1.
        -12    1    3    3    0    0 -0.11827622115E+02 -0.30878334422E+02  0.15233890751E+02  0.36406532504E+02  0.00000000000E+00 0.  1.
</event>
<event>
 7    1  0.3681059E-013  0.7246157E+02  0.7816164E-02  0.1226708E+00
        -11   -1    0    0    0    0  0.00000000000E+00  0.00000000000E+00  0.45593999997E+02  0.45594000000E+02  0.51100000000E-03 0. -1.
         11   -1    0    0    0    0 -0.00000000000E+00 -0.00000000000E+00 -0.45593999997E+02  0.45594000000E+02  0.51100000000E-03 0.  1.
    9900012    2    1    2    0    0  0.63907917592E+01  0.13132997708E+02  0.11720122008E+02  0.72461571937E+02  0.70000002140E+02 0.  0.
        -12    1    1    2    0    0 -0.63907917592E+01 -0.13132997708E+02 -0.11720122008E+02  0.18726428063E+02  0.00000000000E+00 0.  1.
         11    1    3    3    0    0  0.27739327136E+01  0.80657367286E+01  0.14872667470E+02  0.17144884065E+02  0.51100000000E-03 0. -1.
        -11    1    3    3    0    0 -0.24235923906E+01  0.28172983093E+02  0.73659956315E+01  0.29220689047E+02  0.51100000000E-03 0.  1.
         12    1    3    3    0    0  0.60404514362E+01 -0.23105722114E+02 -0.10518541093E+02  0.26095998825E+02  0.00000000000E+00 0. -1.
</event>
<event>
 7    1  0.3681059E-013  0.7246158E+02  0.7816164E-02  0.1226708E+00
        -11   -1    0    0    0    0  0.00000000000E+00  0.00000000000E+00  0.45593999997E+02  0.45594000000E+02  0.51100000000E-03 0.  1.
         11   -1    0    0    0    0 -0.00000000000E+00 -0.00000000000E+00 -0.45593999997E+02  0.45594000000E+02  0.51100000000E-03 0. -1.
    9900012    2    1    2    0    0  0.12295555818E+02 -0.13581858930E+02  0.38769954865E+01  0.72461583395E+02  0.70000017066E+02 0.  0.
        -12    1    1    2    0    0 -0.12295555818E+02  0.13581858930E+02 -0.38769954865E+01  0.18726416605E+02  0.00000000000E+00 0.  1.
         11    1    3    3    0    0 -0.45367077660E+01 -0.90847344204E+01  0.93154137902E+01  0.13780096197E+02  0.51100000000E-03 0. -1.
        -11    1    3    3    0    0  0.55946941371E+01  0.12338651024E+02  0.21240213270E+02  0.25193046096E+02  0.51100000000E-03 0.  1.
         12    1    3    3    0    0  0.11237569447E+02 -0.16835775533E+02 -0.26678631573E+02  0.33488441103E+02  0.00000000000E+00 0. -1.
</event>
<event>
 7    1  0.3681059E-013  0.7246157E+02  0.7816164E-02  0.1226708E+00
        -11   -1    0    0    0    0  0.00000000000E+00  0.00000000000E+00  0.45593999997E+02  0.45594000000E+02  0.51100000000E-03 0.  1.
         11   -1    0    0    0    0 -0.00000000000E+00 -0.00000000000E+00 -0.45593999997E+02  0.45594000000E+02  0.51100000000E-03 0. -1.
    9900012    2    1    2    0    0 -0.64350779303E+01  0.70611551574E+00 -0.17571859417E+02  0.72461572940E+02  0.70000003446E+02 0.  0.
        -12    1    1    2    0    0  0.64350779303E+01 -0.70611551574E+00  0.17571859417E+02  0.18726427060E+02  0.00000000000E+00 0.  1.
         11    1    3    3    0    0  0.14597519354E+01  0.14087593101E+02  0.46180816825E+01  0.14896906853E+02  0.51100000000E-03 0. -1.
        -11    1    3    3    0    0  0.16820440976E+02 -0.12355754511E+02  0.43124961246E+01  0.21311722766E+02  0.51100000000E-03 0.  1.
         12    1    3    3    0    0 -0.24715270842E+02 -0.10257230745E+01 -0.26502437224E+02  0.36252943321E+02  0.00000000000E+00 0. -1.
</event>
<event>
 7    1  0.3681059E-013  0.7246155E+02  0.7816164E-02  0.1226708E+00
        -11   -1    0    0    0    0  0.00000000000E+00  0.00000000000E+00  0.45593999997E+02  0.45594000000E+02  0.51100000000E-03 0.  1.
         11   -1    0    0    0    0 -0.00000000000E+00 -0.00000000000E+00 -0.45593999997E+02  0.45594000000E+02  0.51100000000E-03 0. -1.
    9900012    2    1    2    0    0 -0.13585279227E+02  0.68093391875E-01 -0.12888573334E+02  0.72461554235E+02  0.69999979080E+02 0.  0.
        -12    1    1    2    0    0  0.13585279227E+02 -0.68093391875E-01  0.12888573334E+02  0.18726445765E+02  0.00000000000E+00 0.  1.
         11    1    3    3    0    0 -0.15415508563E+02  0.12742347081E+02 -0.75367379478E+01  0.21373060907E+02  0.51100000000E-03 0. -1.
        -11    1    3    3    0    0 -0.19268265312E+02  0.73055319643E+01  0.30723192196E+01  0.20834490420E+02  0.51100000000E-03 0.  1.
        -12    1    3    3    0    0  0.21098494648E+02 -0.19979785653E+02 -0.84241546057E+01  0.30254002908E+02  0.00000000000E+00 0.  1.
</event>
<event>
 7    1  0.3681059E-013  0.7246156E+02  0.7816164E-02  0.1226708E+00
        -11   -1    0    0    0    0  0.00000000000E+00  0.00000000000E+00  0.45593999997E+02  0.45594000000E+02  0.51100000000E-03 0. -1.
         11   -1    0    0    0    0 -0.00000000000E+00 -0.00000000000E+00 -0.45593999997E+02  0.45594000000E+02  0.51100000000E-03 0.  1.
    9900012    2    1    2    0    0 -0.16804082861E+02 -0.67325097770E+01  0.47932917568E+01  0.72461560547E+02  0.69999987303E+02 0.  0.
        -12    1    1    2    0    0  0.16804082861E+02  0.67325097770E+01 -0.47932917568E+01  0.18726439453E+02  0.00000000000E+00 0.  1.
         11    1    3    3    0    0 -0.21681376616E+02 -0.64600466177E+01 -0.10904334772E+02  0.25114115778E+02  0.51100000000E-03 0. -1.
        -11    1    3    3    0    0  0.92682956963E+01 -0.41914955726E+01 -0.13869741868E+02  0.17199990697E+02  0.51100000000E-03 0.  1.
        -12    1    3    3    0    0 -0.43910019421E+01  0.39190324133E+01  0.29567368396E+02  0.30147454072E+02  0.00000000000E+00 0.  1.
</event>
<event>
 7    1  0.3681059E-013  0.7246160E+02  0.7816164E-02  0.1226708E+00
        -11   -1    0    0    0    0  0.00000000000E+00  0.00000000000E+00  0.45593999997E+02  0.45594000000E+02  0.51100000000E-03 0. -1.
         11   -1    0    0    0    0 -0.00000000000E+00 -0.00000000000E+00 -0.45593999997E+02  0.45594000000E+02  0.51100000000E-03 0.  1.
    9900012    2    1    2    0    0 -0.40736356060E+01  0.98713863267E+01  0.15383084615E+02  0.72461599723E+02  0.70000038336E+02 0.  0.
        -12    1    1    2    0    0  0.40736356060E+01 -0.98713863267E+01 -0.15383084615E+02  0.18726400277E+02  0.00000000000E+00 0.  1.
         11    1    3    3    0    0  0.41457805030E+01  0.35164761860E+01 -0.72534334989E+01  0.90645131435E+01  0.51100000000E-03 0. -1.
        -11    1    3    3    0    0  0.23666581565E+01  0.11797699933E+02 -0.17665372679E+02  0.21374100839E+02  0.51100000000E-03 0.  1.
         12    1    3    3    0    0 -0.10586074266E+02 -0.54427897921E+01  0.40301890793E+02  0.42022985740E+02  0.00000000000E+00 0. -1.
</event>
<event>
 7    1  0.3681059E-013  0.7246160E+02  0.7816164E-02  0.1226708E+00
        -11   -1    0    0    0    0  0.00000000000E+00  0.00000000000E+00  0.45593999997E+02  0.45594000000E+02  0.51100000000E-03 0. -1.
         11   -1    0    0    0    0 -0.00000000000E+00 -0.00000000000E+00 -0.45593999997E+02  0.45594000000E+02  0.51100000000E-03 0.  1.
    9900012    2    1    2    0    0 -0.33499892559E+01  0.17534228633E+02  0.56574135652E+01  0.72461603389E+02  0.70000043112E+02 0.  0.
        -12    1    1    2    0    0  0.33499892559E+01 -0.17534228633E+02 -0.56574135652E+01  0.18726396611E+02  0.00000000000E+00 0.  1.
         11    1    3    3    0    0 -0.13947251657E+02  0.31115402997E+01  0.13206046858E+02  0.19457830961E+02  0.51100000000E-03 0. -1.
        -11    1    3    3    0    0 -0.18563360765E+02 -0.20692189352E+01 -0.71901773647E-01  0.18678468889E+02  0.51100000000E-03 0.  1.
        -12    1    3    3    0    0  0.29160623167E+02  0.16491907269E+02 -0.74767315191E+01  0.34325303539E+02  0.00000000000E+00 0.  1.
</event>
<event>
 7    1  0.3681059E-013  0.7246130E+02  0.7816164E-02  0.1226709E+00
        -11   -1    0    0    0    0  0.00000000000E+00  0.00000000000E+00  0.45593999997E+02  0.45594000000E+02  0.51100000000E-03 0.  1.
         11   -1    0    0    0    0 -0.00000000000E+00 -0.00000000000E+00 -0.45593999997E+02  0.45594000000E+02  0.51100000000E-03 0. -1.
    9900012    2    1    2    0    0 -0.90340531734E+01 -0.16334045611E+02 -0.15079969047E+01  0.72461302015E+02  0.69999650515E+02 0.  0.
        -12    1    1    2    0    0  0.90340531734E+01  0.16334045611E+02  0.15079969047E+01  0.18726697985E+02  0.00000000000E+00 0.  1.
         11    1    3    3    0    0  0.89821098002E+01  0.15543694885E+02  0.13509449224E+02  0.22467531367E+02  0.51100000000E-03 0. -1.
        -11    1    3    3    0    0 -0.16160616266E+01 -0.15580605539E+01  0.81548798638E+01  0.84582074771E+01  0.51100000000E-03 0.  1.
         12    1    3    3    0    0 -0.16400101347E+02 -0.30319679942E+02 -0.23172325992E+02  0.41535563171E+02  0.00000000000E+00 0. -1.
</event>
<event>
 7    1  0.4690354E-013  0.7246159E+02  0.7816164E-02  0.1226708E+00
        -11   -1    0    0    0    0  0.00000000000E+00  0.00000000000E+00  0.45593999997E+02  0.45594000000E+02  0.51100000000E-03 0. -1.
         11   -1    0    0    0    0 -0.00000000000E+00 -0.00000000000E+00 -0.45593999997E+02  0.45594000000E+02  0.51100000000E-03 0.  1.
    9900012    2    1    2    0    0 -0.18661081095E+02 -0.14621264391E+01  0.55185478983E+00  0.72461593376E+02  0.70000030068E+02 0.  0.
        -12    1    1    2    0    0  0.18661081095E+02  0.14621264391E+01 -0.55185478983E+00  0.18726406624E+02  0.00000000000E+00 0.  1.
         11    1    3    3    0    0 -0.26571437045E+02 -0.10003757379E+02 -0.13051247909E+02  0.31248223959E+02  0.51100000000E-03 0. -1.
        -11    1    3    3    0    0  0.54304336956E+01  0.12365647810E+02 -0.10233640575E+02  0.16944800252E+02  0.51100000000E-03 0.  1.
        -12    1    3    3    0    0  0.24799222551E+01 -0.38240168704E+01  0.23836743274E+02  0.24268569165E+02  0.00000000000E+00 0.  1.
</event>
<event>
 7    1  0.3681059E-013  0.7246152E+02  0.7816164E-02  0.1226708E+00
        -11   -1    0    0    0    0  0.00000000000E+00  0.00000000000E+00  0.45593999997E+02  0.45594000000E+02  0.51100000000E-03 0.  1.
         11   -1    0    0    0    0 -0.00000000000E+00 -0.00000000000E+00 -0.45593999997E+02  0.45594000000E+02  0.51100000000E-03 0. -1.
    9900012    2    1    2    0    0  0.11331993250E+02 -0.57083007179E+01 -0.13772513773E+02  0.72461523991E+02  0.69999939681E+02 0.  0.
        -12    1    1    2    0    0 -0.11331993250E+02  0.57083007179E+01  0.13772513773E+02  0.18726476009E+02  0.00000000000E+00 0.  1.
         11    1    3    3    0    0  0.15109267539E+02  0.10835779275E+02  0.19303227996E+01  0.18693052839E+02  0.51100000000E-03 0. -1.
        -11    1    3    3    0    0 -0.10240868015E+01  0.77142879774E+01  0.13574836160E+02  0.15647209649E+02  0.51100000000E-03 0.  1.
         12    1    3    3    0    0 -0.27531874880E+01 -0.24258367970E+02 -0.29277672732E+02  0.38121261503E+02  0.00000000000E+00 0. -1.
</event>
<event>
 7    1  0.3681059E-013  0.7246156E+02  0.7816164E-02  0.1226708E+00
        -11   -1    0    0    0    0  0.00000000000E+00  0.00000000000E+00  0.45593999997E+02  0.45594000000E+02  0.51100000000E-03 0.  1.
         11   -1    0    0    0    0 -0.00000000000E+00 -0.00000000000E+00 -0.45593999997E+02  0.45594000000E+02  0.51100000000E-03 0. -1.
    9900012    2    1    2    0    0  0.39657619289E+01  0.17014057633E+02  0.67434512061E+01  0.72461559896E+02  0.69999986454E+02 0.  0.
        -12    1    1    2    0    0 -0.39657619289E+01 -0.17014057633E+02 -0.67434512061E+01  0.18726440104E+02  0.00000000000E+00 0.  1.
         11    1    3    3    0    0 -0.21059256014E+02  0.60637287527E+01 -0.11623480425E+02  0.24806579122E+02  0.51100000000E-03 0. -1.
        -11    1    3    3    0    0 -0.74638952468E+01  0.54051416807E+01 -0.12502236406E+01  0.92999111962E+01  0.51100000000E-03 0.  1.
        -12    1    3    3    0    0  0.32488913190E+02  0.55451871992E+01  0.19617155272E+02  0.38355069578E+02  0.00000000000E+00 0.  1.
</event>
<event>
 7    1  0.3681059E-013  0.7246152E+02  0.7816164E-02  0.1226708E+00
        -11   -1    0    0    0    0  0.00000000000E+00  0.00000000000E+00  0.45593999997E+02  0.45594000000E+02  0.51100000000E-03 0. -1.
         11   -1    0    0    0    0 -0.00000000000E+00 -0.00000000000E+00 -0.45593999997E+02  0.45594000000E+02  0.51100000000E-03 0.  1.
    9900012    2    1    2    0    0  0.18539272953E+02  0.80791360150E+00  0.25147168438E+01  0.72461516966E+02  0.69999930530E+02 0.  0.
        -12    1    1    2    0    0 -0.18539272953E+02 -0.80791360150E+00 -0.25147168438E+01  0.18726483034E+02  0.00000000000E+00 0.  1.
         11    1    3    3    0    0  0.69090980910E+01  0.11213973998E+02 -0.24331587022E+01  0.13394368623E+02  0.51100000000E-03 0. -1.
        -11    1    3    3    0    0 -0.10959312559E+02  0.14477957215E+02 -0.11660074338E+02  0.21579506730E+02  0.51100000000E-03 0.  1.
         12    1    3    3    0    0  0.22589487421E+02 -0.24884017612E+02  0.16607949884E+02  0.37487641614E+02  0.00000000000E+00 0. -1.
</event>
<event>
 7    1  0.3681059E-013  0.7246158E+02  0.7816164E-02  0.1226708E+00
        -11   -1    0    0    0    0  0.00000000000E+00  0.00000000000E+00  0.45593999997E+02  0.45594000000E+02  0.51100000000E-03 0. -1.
         11   -1    0    0    0    0 -0.00000000000E+00 -0.00000000000E+00 -0.45593999997E+02  0.45594000000E+02  0.51100000000E-03 0.  1.
    9900012    2    1    2    0    0  0.16536083500E+02 -0.41767285459E+01  0.77325147859E+01  0.72461577390E+02  0.70000009243E+02 0.  0.
        -12    1    1    2    0    0 -0.16536083500E+02  0.41767285459E+01 -0.77325147859E+01  0.18726422610E+02  0.00000000000E+00 0.  1.
         11    1    3    3    0    0  0.20428798273E+02 -0.29680319828E+02  0.10591149136E+01  0.36046898738E+02  0.51100000000E-03 0. -1.
        -11    1    3    3    0    0 -0.12466658993E+02  0.64288067823E+01  0.65989452701E+01  0.15501394197E+02  0.51100000000E-03 0.  1.
        -12    1    3    3    0    0  0.85739442202E+01  0.19074784500E+02  0.74454602223E-01  0.20913284455E+02  0.00000000000E+00 0.  1.
</event>
<event>
 7    1  0.3681059E-013  0.7246159E+02  0.7816164E-02  0.1226708E+00
        -11   -1    0    0    0    0  0.00000000000E+00  0.00000000000E+00  0.45593999997E+02  0.45594000000E+02  0.51100000000E-03 0.  1.
         11   -1    0    0    0    0 -0.00000000000E+00 -0.00000000000E+00 -0.45593999997E+02  0.45594000000E+02  0.51100000000E-03 0. -1.
    9900012    2    1    2    0    0 -0.92491847752E+01 -0.14107036482E+02 -0.81315729288E+01  0.72461591492E+02  0.70000027614E+02 0.  0.
        -12    1    1    2    0    0  0.92491847752E+01  0.14107036482E+02  0.81315729288E+01  0.18726408508E+02  0.00000000000E+00 0.  1.
         11    1    3    3    0    0 -0.18880000896E+02  0.15912731204E+02 -0.74469184438E+01  0.25790037665E+02  0.51100000000E-03 0. -1.
        -11    1    3    3    0    0  0.99557370101E+01  0.43139866412E+01  0.48644284446E+01  0.11890746171E+02  0.51100000000E-03 0.  1.
         12    1    3    3    0    0 -0.32492088902E+00 -0.34333754327E+02 -0.55490829296E+01  0.34780807655E+02  0.00000000000E+00 0. -1.
</event>
<event>
 7    1  0.3681059E-013  0.7246157E+02  0.7816164E-02  0.1226708E+00
        -11   -1    0    0    0    0  0.00000000000E+00  0.00000000000E+00  0.45593999997E+02  0.45594000000E+02  0.51100000000E-03 0. -1.
         11   -1    0    0    0    0 -0.00000000000E+00 -0.00000000000E+00 -0.45593999997E+02  0.45594000000E+02  0.51100000000E-03 0.  1.
    9900012    2    1    2    0    0 -0.13185571434E+02  0.79924323057E+01  0.10627372056E+02  0.72461566676E+02  0.69999995287E+02 0.  0.
        -12    1    1    2    0    0  0.13185571434E+02 -0.79924323057E+01 -0.10627372056E+02  0.18726433324E+02  0.00000000000E+00 0.  1.
         11    1    3    3    0    0  0.73938578261E+01 -0.41194805489E+01  0.23629630939E+02  0.25099775141E+02  0.51100000000E-03 0. -1.
        -11    1    3    3    0    0 -0.17306057415E+02  0.11696687835E+02  0.10673574499E+02  0.23457137984E+02  0.51100000000E-03 0.  1.
        -12    1    3    3    0    0 -0.32733718457E+01  0.41522501976E+00 -0.23675833382E+02  0.23904653551E+02  0.00000000000E+00 0.  1.
</event>
<event>
 7    1  0.3681059E-013  0.7246156E+02  0.7816164E-02  0.1226708E+00
        -11   -1    0    0    0    0  0.00000000000E+00  0.00000000000E+00  0.45593999997E+02  0.45594000000E+02  0.51100000000E-03 0.  1.
         11   -1    0    0    0    0 -0.00000000000E+00 -0.00000000000E+00 -0.45593999997E+02  0.45594000000E+02  0.51100000000E-03 0. -1.
    9900012    2    1    2    0    0 -0.11036153980E+02  0.36940335727E+01 -0.14670956115E+02  0.72461560615E+02  0.69999987391E+02 0.  0.
        -12    1    1    2    0    0  0.11036153980E+02 -0.36940335727E+01  0.14670956115E+02  0.18726439385E+02  0.00000000000E+00 0.  1.
         11    1    3    3    0    0 -0.48100416709E+01 -0.15862899079E+02 -0.30794889899E+00  0.16578989741E+02  0.51100000000E-03 0. -1.
        -11    1    3    3    0    0 -0.19028565806E+02 -0.39508768026E+01  0.79861701230E+01  0.21011298333E+02  0.51100000000E-03 0.  1.
        -12    1    3    3    0    0  0.12802453497E+02  0.23507809454E+02 -0.22349177339E+02  0.34871272541E+02  0.00000000000E+00 0.  1.
</event>
<event>
 7    1  0.3681059E-013  0.7246156E+02  0.7816164E-02  0.1226708E+00
        -11   -1    0    0    0    0  0.00000000000E+00  0.00000000000E+00  0.45593999997E+02  0.45594000000E+02  0.51100000000E-03 0. -1.
         11   -1    0    0    0    0 -0.00000000000E+00 -0.00000000000E+00 -0.45593999997E+02  0.45594000000E+02  0.51100000000E-03 0.  1.
    9900012    2    1    2    0    0 -0.14678740946E+02  0.24625345353E+01  0.11364416995E+02  0.72461561851E+02  0.69999989002E+02 0.  0.
        -12    1    1    2    0    0  0.14678740946E+02 -0.24625345353E+01 -0.11364416995E+02  0.18726438149E+02  0.00000000000E+00 0.  1.
         11    1    3    3    0    0  0.15838039827E+02  0.17094347402E+02 -0.49062597793E+01  0.23814525062E+02  0.51100000000E-03 0. -1.
        -11    1    3    3    0    0 -0.23442508620E+02  0.58444852817E+01  0.93204296909E+01  0.25895552292E+02  0.51100000000E-03 0.  1.
        -12    1    3    3    0    0 -0.70742721528E+01 -0.20476298148E+02  0.69502470836E+01  0.22751484498E+02  0.00000000000E+00 0.  1.
</event>
<event>
 7    1  0.3681059E-013  0.7246171E+02  0.7816164E-02  0.1226708E+00
        -11   -1    0    0    0    0  0.00000000000E+00  0.00000000000E+00  0.45593999997E+02  0.45594000000E+02  0.51100000000E-03 0. -1.
         11   -1    0    0    0    0 -0.00000000000E+00 -0.00000000000E+00 -0.45593999997E+02  0.45594000000E+02  0.51100000000E-03 0.  1.
    9900012    2    1    2    0    0 -0.16844031767E+02 -0.70492752842E+01 -0.41545607366E+01  0.72461706637E+02  0.70000177611E+02 0.  0.
        -12    1    1    2    0    0  0.16844031767E+02  0.70492752842E+01  0.41545607366E+01  0.18726293363E+02  0.00000000000E+00 0.  1.
         11    1    3    3    0    0 -0.47248710893E+00  0.16956668670E+02  0.13028211611E+01  0.17013206626E+02  0.51100000000E-03 0. -1.
        -11    1    3    3    0    0 -0.29671974565E+02 -0.44960468253E+01  0.34579411607E+01  0.30209234829E+02  0.51100000000E-03 0.  1.
         12    1    3    3    0    0  0.13300429907E+02 -0.19509897129E+02 -0.89153230584E+01  0.25239265182E+02  0.00000000000E+00 0. -1.
</event>
<event>
 7    1  0.3681059E-013  0.7246159E+02  0.7816164E-02  0.1226708E+00
        -11   -1    0    0    0    0  0.00000000000E+00  0.00000000000E+00  0.45593999997E+02  0.45594000000E+02  0.51100000000E-03 0.  1.
         11   -1    0    0    0    0 -0.00000000000E+00 -0.00000000000E+00 -0.45593999997E+02  0.45594000000E+02  0.51100000000E-03 0. -1.
    9900012    2    1    2    0    0 -0.10023049995E+02  0.11779783669E+02 -0.10557156484E+02  0.72461591174E+02  0.70000027200E+02 0.  0.
        -12    1    1    2    0    0  0.10023049995E+02 -0.11779783669E+02  0.10557156484E+02  0.18726408826E+02  0.00000000000E+00 0.  1.
         11    1    3    3    0    0  0.22316350452E+01  0.19120378825E+01 -0.68027919883E+01  0.74104023465E+01  0.51100000000E-03 0. -1.
        -11    1    3    3    0    0 -0.29653920271E+02  0.12761459403E+01 -0.23129778406E+02  0.37629379283E+02  0.51100000000E-03 0.  1.
         12    1    3    3    0    0  0.17399235230E+02  0.85915998461E+01  0.19375413910E+02  0.27421809545E+02  0.00000000000E+00 0. -1.
</event>
<event>
 7    1  0.3681059E-013  0.7246150E+02  0.7816164E-02  0.1226708E+00
        -11   -1    0    0    0    0  0.00000000000E+00  0.00000000000E+00  0.45593999997E+02  0.45594000000E+02  0.51100000000E-03 0.  1.
         11   -1    0    0    0    0 -0.00000000000E+00 -0.00000000000E+00 -0.45593999997E+02  0.45594000000E+02  0.51100000000E-03 0. -1.
    9900012    2    1    2    0    0  0.90013057666E+01 -0.15495030645E+02 -0.54371085433E+01  0.72461504612E+02  0.69999914437E+02 0.  0.
        -12    1    1    2    0    0 -0.90013057666E+01  0.15495030645E+02  0.54371085433E+01  0.18726495388E+02  0.00000000000E+00 0.  1.
         11    1    3    3    0    0 -0.44924194103E+01  0.15975387098E+02  0.14735981502E+02  0.22193331796E+02  0.51100000000E-03 0. -1.
        -11    1    3    3    0    0 -0.73317520153E+01 -0.44499178251E+00 -0.82482064166E+01  0.11044705277E+02  0.51100000000E-03 0.  1.
         12    1    3    3    0    0  0.20825477192E+02 -0.31025425960E+02 -0.11924883629E+02  0.39223467540E+02  0.00000000000E+00 0. -1.
</event>
<event>
 7    1  0.3681059E-013  0.7246213E+02  0.7816164E-02  0.1226707E+00
        -11   -1    0    0    0    0  0.00000000000E+00  0.00000000000E+00  0.45593999997E+02  0.45594000000E+02  0.51100000000E-03 0.  1.
         11   -1    0    0    0    0 -0.00000000000E+00 -0.00000000000E+00 -0.45593999997E+02  0.45594000000E+02  0.51100000000E-03 0. -1.
    9900012    2    1    2    0    0  0.77087041034E+01  0.51998359446E+01 -0.16254099307E+02  0.72462131340E+02  0.70000730862E+02 0.  0.
        -12    1    1    2    0    0 -0.77087041034E+01 -0.51998359446E+01  0.16254099307E+02  0.18725868660E+02  0.00000000000E+00 0.  1.
         11    1    3    3    0    0  0.80581630300E+01 -0.40677503619E+00 -0.12733938783E+02  0.15074901477E+02  0.51100000000E-03 0. -1.
        -11    1    3    3    0    0  0.11594930972E+02  0.28838775016E+02 -0.33640108725E+01  0.31263939900E+02  0.51100000000E-03 0.  1.
        -12    1    3    3    0    0 -0.11944389898E+02 -0.23232164035E+02 -0.15614965071E+00  0.26123289963E+02  0.00000000000E+00 0.  1.
</event>
<event>
 7    1  0.3681059E-013  0.7246159E+02  0.7816164E-02  0.1226708E+00
        -11   -1    0    0    0    0  0.00000000000E+00  0.00000000000E+00  0.45593999997E+02  0.45594000000E+02  0.51100000000E-03 0. -1.
         11   -1    0    0    0    0 -0.00000000000E+00 -0.00000000000E+00 -0.45593999997E+02  0.45594000000E+02  0.51100000000E-03 0.  1.
    9900012    2    1    2    0    0  0.96832600038E+01 -0.13664482256E+02 -0.83782271784E+01  0.72461593770E+02  0.70000030581E+02 0.  0.
        -12    1    1    2    0    0 -0.96832600038E+01  0.13664482256E+02  0.83782271784E+01  0.18726406230E+02  0.00000000000E+00 0.  1.
         11    1    3    3    0    0 -0.34920818110E+01 -0.67573817317E+01 -0.36348772654E+01  0.84302536284E+01  0.51100000000E-03 0. -1.
        -11    1    3    3    0    0  0.10092339977E+02 -0.34472306401E+02 -0.51796868823E+01  0.36290830678E+02  0.51100000000E-03 0.  1.
         12    1    3    3    0    0  0.30830018381E+01  0.27565205877E+02  0.43633696936E+00  0.27740509464E+02  0.00000000000E+00 0. -1.
</event>
<event>
 7    1  0.3681059E-013  0.7246153E+02  0.7816164E-02  0.1226708E+00
        -11   -1    0    0    0    0  0.00000000000E+00  0.00000000000E+00  0.45593999997E+02  0.45594000000E+02  0.51100000000E-03 0.  1.
         11   -1    0    0    0    0 -0.00000000000E+00 -0.00000000000E+00 -0.45593999997E+02  0.45594000000E+02  0.51100000000E-03 0. -1.
    9900012    2    1    2    0    0 -0.16298186706E+01 -0.51689187197E+01 -0.17925027653E+02  0.72461530873E+02  0.69999948646E+02 0.  0.
        -12    1    1    2    0    0  0.16298186706E+01  0.51689187197E+01  0.17925027653E+02  0.18726469127E+02  0.00000000000E+00 0.  1.
         11    1    3    3    0    0  0.16565772625E+02  0.42639706660E+01  0.93388048314E+01  0.19488959553E+02  0.51100000000E-03 0. -1.
        -11    1    3    3    0    0  0.96451363960E+01 -0.14146647416E+02 -0.89910919384E+01  0.19338976801E+02  0.51100000000E-03 0.  1.
         12    1    3    3    0    0 -0.27840727692E+02  0.47137580301E+01 -0.18272740546E+02  0.33633594519E+02  0.00000000000E+00 0. -1.
</event>
<event>
 7    1  0.3681059E-013  0.7246157E+02  0.7816164E-02  0.1226708E+00
        -11   -1    0    0    0    0  0.00000000000E+00  0.00000000000E+00  0.45593999997E+02  0.45594000000E+02  0.51100000000E-03 0.  1.
         11   -1    0    0    0    0 -0.00000000000E+00 -0.00000000000E+00 -0.45593999997E+02  0.45594000000E+02  0.51100000000E-03 0. -1.
    9900012    2    1    2    0    0  0.18004288995E+02 -0.50782923721E+01  0.85774655325E+00  0.72461569353E+02  0.69999998774E+02 0.  0.
        -12    1    1    2    0    0 -0.18004288995E+02  0.50782923721E+01 -0.85774655325E+00  0.18726430647E+02  0.00000000000E+00 0.  1.
         11    1    3    3    0    0  0.52442778101E+01  0.74078269872E+01 -0.13696541191E+01  0.91790142765E+01  0.51100000000E-03 0. -1.
        -11    1    3    3    0    0 -0.14474426242E+02  0.14394657141E+02 -0.10499615306E+02  0.22955545977E+02  0.51100000000E-03 0.  1.
         12    1    3    3    0    0  0.27234437427E+02 -0.26880776500E+02  0.12727015979E+02  0.40327009100E+02  0.00000000000E+00 0. -1.
</event>
<event>
 7    1  0.3681059E-013  0.7246157E+02  0.7816164E-02  0.1226708E+00
        -11   -1    0    0    0    0  0.00000000000E+00  0.00000000000E+00  0.45593999997E+02  0.45594000000E+02  0.51100000000E-03 0. -1.
         11   -1    0    0    0    0 -0.00000000000E+00 -0.00000000000E+00 -0.45593999997E+02  0.45594000000E+02  0.51100000000E-03 0.  1.
    9900012    2    1    2    0    0  0.35557054128E+01 -0.10951951010E+02  0.14767906086E+02  0.72461566221E+02  0.69999994694E+02 0.  0.
        -12    1    1    2    0    0 -0.35557054128E+01  0.10951951010E+02 -0.14767906086E+02  0.18726433779E+02  0.00000000000E+00 0.  1.
         11    1    3    3    0    0  0.17101374845E+02 -0.15491544007E+02 -0.50065159482E+01  0.23611653045E+02  0.51100000000E-03 0. -1.
        -11    1    3    3    0    0  0.29870910199E+01 -0.80674990017E+01 -0.95817014389E+01  0.12876966088E+02  0.51100000000E-03 0.  1.
         12    1    3    3    0    0 -0.16532760453E+02  0.12607091998E+02  0.29356123473E+02  0.35972947088E+02  0.00000000000E+00 0. -1.
</event>
<event>
 7    1  0.3681059E-013  0.7246157E+02  0.7816164E-02  0.1226708E+00
        -11   -1    0    0    0    0  0.00000000000E+00  0.00000000000E+00  0.45593999997E+02  0.45594000000E+02  0.51100000000E-03 0. -1.
         11   -1    0    0    0    0 -0.00000000000E+00 -0.00000000000E+00 -0.45593999997E+02  0.45594000000E+02  0.51100000000E-03 0.  1.
    9900012    2    1    2    0    0 -0.41520070000E+01 -0.10947759177E+02  0.14614604208E+02  0.72461568164E+02  0.69999997225E+02 0.  0.
        -12    1    1    2    0    0  0.41520070000E+01  0.10947759177E+02 -0.14614604208E+02  0.18726431836E+02  0.00000000000E+00 0.  1.
         11    1    3    3    0    0  0.12674509938E+02 -0.20810490157E+02 -0.32043748456E+01  0.24576161644E+02  0.51100000000E-03 0. -1.
        -11    1    3    3    0    0 -0.18258967951E+01  0.27260736962E+01 -0.12711563375E+02  0.13128184208E+02  0.51100000000E-03 0.  1.
         12    1    3    3    0    0 -0.15000620143E+02  0.71366572832E+01  0.30530542429E+02  0.34757222312E+02  0.00000000000E+00 0. -1.
</event>
<event>
 7    1  0.3681059E-013  0.7246154E+02  0.7816164E-02  0.1226708E+00
        -11   -1    0    0    0    0  0.00000000000E+00  0.00000000000E+00  0.45593999997E+02  0.45594000000E+02  0.51100000000E-03 0. -1.
         11   -1    0    0    0    0 -0.00000000000E+00 -0.00000000000E+00 -0.45593999997E+02  0.45594000000E+02  0.51100000000E-03 0.  1.
    9900012    2    1    2    0    0  0.11118370196E+01 -0.88588249901E+01  0.16461028263E+02  0.72461537087E+02  0.69999956741E+02 0.  0.
        -12    1    1    2    0    0 -0.11118370196E+01  0.88588249901E+01 -0.16461028263E+02  0.18726462913E+02  0.00000000000E+00 0.  1.
         11    1    3    3    0    0 -0.12696369057E+02  0.25207144903E+00  0.83482134682E+01  0.15197170645E+02  0.51100000000E-03 0. -1.
        -11    1    3    3    0    0  0.23664805240E+02 -0.16048551000E+02 -0.14184027968E+02  0.31918108432E+02  0.51100000000E-03 0.  1.
         12    1    3    3    0    0 -0.98565991634E+01  0.69376545606E+01  0.22296842763E+02  0.25346258009E+02  0.00000000000E+00 0. -1.
</event>
<event>
 7    1  0.3681059E-013  0.7246163E+02  0.7816164E-02  0.1226708E+00
        -11   -1    0    0    0    0  0.00000000000E+00  0.00000000000E+00  0.45593999997E+02  0.45594000000E+02  0.51100000000E-03 0. -1.
         11   -1    0    0    0    0 -0.00000000000E+00 -0.00000000000E+00 -0.45593999997E+02  0.45594000000E+02  0.51100000000E-03 0.  1.
    9900012    2    1    2    0    0 -0.12080837253E+02  0.13334481437E+02 -0.51886296114E+01  0.72461630860E+02  0.70000078897E+02 0.  0.
        -12    1    1    2    0    0  0.12080837253E+02 -0.13334481437E+02  0.51886296114E+01  0.18726369140E+02  0.00000000000E+00 0.  1.
         11    1    3    3    0    0 -0.17086843427E+02 -0.24975389800E+01  0.30460800298E+01  0.17535008499E+02  0.51100000000E-03 0. -1.
        -11    1    3    3    0    0 -0.11879289787E+02 -0.71246111589E+00 -0.23809151014E+02  0.26617678316E+02  0.51100000000E-03 0.  1.
         12    1    3    3    0    0  0.16885295961E+02  0.16544481533E+02  0.15574441372E+02  0.28308944045E+02  0.00000000000E+00 0. -1.
</event>
<event>
 7    1  0.3681059E-013  0.7246158E+02  0.7816164E-02  0.1226708E+00
        -11   -1    0    0    0    0  0.00000000000E+00  0.00000000000E+00  0.45593999997E+02  0.45594000000E+02  0.51100000000E-03 0.  1.
         11   -1    0    0    0    0 -0.00000000000E+00 -0.00000000000E+00 -0.45593999997E+02  0.45594000000E+02  0.51100000000E-03 0. -1.
    9900012    2    1    2    0    0 -0.52944472226E+01  0.10393419366E+02 -0.14650068756E+02  0.72461578770E+02  0.70000011041E+02 0.  0.
        -12    1    1    2    0    0  0.52944472226E+01 -0.10393419366E+02  0.14650068756E+02  0.18726421230E+02  0.00000000000E+00 0.  1.
         11    1    3    3    0    0 -0.14702600696E+02  0.81836016404E+01  0.55531680800E+01  0.17719353234E+02  0.51100000000E-03 0. -1.
        -11    1    3    3    0    0 -0.10309657508E+02  0.17927675189E+02  0.24752221623E+01  0.20828281269E+02  0.51100000000E-03 0.  1.
         12    1    3    3    0    0  0.19717810982E+02 -0.15717857464E+02 -0.22678458999E+02  0.33913944267E+02  0.00000000000E+00 0. -1.
</event>
<event>
 7    1  0.3681059E-013  0.7246174E+02  0.7816164E-02  0.1226708E+00
        -11   -1    0    0    0    0  0.00000000000E+00  0.00000000000E+00  0.45593999997E+02  0.45594000000E+02  0.51100000000E-03 0. -1.
         11   -1    0    0    0    0 -0.00000000000E+00 -0.00000000000E+00 -0.45593999997E+02  0.45594000000E+02  0.51100000000E-03 0.  1.
    9900012    2    1    2    0    0 -0.17258666445E+02  0.50070704710E+01  0.52669128433E+01  0.72461743218E+02  0.70000225265E+02 0.  0.
        -12    1    1    2    0    0  0.17258666445E+02 -0.50070704710E+01 -0.52669128433E+01  0.18726256782E+02  0.00000000000E+00 0.  1.
         11    1    3    3    0    0  0.55385688006E+01 -0.53860239243E+01 -0.15201039249E+01  0.78737357255E+01  0.51100000000E-03 0. -1.
        -11    1    3    3    0    0  0.19892222467E+02  0.26454109300E+01 -0.24876260818E+01  0.20220954414E+02  0.51100000000E-03 0.  1.
         12    1    3    3    0    0 -0.42689457712E+02  0.77476834652E+01  0.92746428500E+01  0.44367053078E+02  0.00000000000E+00 0. -1.
</event>
<event>
 7    1  0.3681059E-013  0.7246147E+02  0.7816164E-02  0.1226708E+00
        -11   -1    0    0    0    0  0.00000000000E+00  0.00000000000E+00  0.45593999997E+02  0.45594000000E+02  0.51100000000E-03 0. -1.
         11   -1    0    0    0    0 -0.00000000000E+00 -0.00000000000E+00 -0.45593999997E+02  0.45594000000E+02  0.51100000000E-03 0.  1.
    9900012    2    1    2    0    0  0.51641324134E+01 -0.17579931383E+02  0.38678789927E+01  0.72461474991E+02  0.69999875850E+02 0.  0.
        -12    1    1    2    0    0 -0.51641324134E+01  0.17579931383E+02 -0.38678789927E+01  0.18726525009E+02  0.00000000000E+00 0.  1.
         11    1    3    3    0    0  0.84702916745E+01  0.15405048431E+02  0.31125180506E+01  0.17853546625E+02  0.51100000000E-03 0. -1.
        -11    1    3    3    0    0  0.11272672332E+02 -0.14390040994E+02 -0.17069248428E+02  0.25010111225E+02  0.51100000000E-03 0.  1.
         12    1    3    3    0    0 -0.14578831593E+02 -0.18594938820E+02  0.17824609370E+02  0.29597817141E+02  0.00000000000E+00 0. -1.
</event>
<event>
 7    1  0.3681059E-013  0.7246156E+02  0.7816164E-02  0.1226708E+00
        -11   -1    0    0    0    0  0.00000000000E+00  0.00000000000E+00  0.45593999997E+02  0.45594000000E+02  0.51100000000E-03 0.  1.
         11   -1    0    0    0    0 -0.00000000000E+00 -0.00000000000E+00 -0.45593999997E+02  0.45594000000E+02  0.51100000000E-03 0. -1.
    9900012    2    1    2    0    0 -0.11170601145E+02 -0.86087058357E+01 -0.12320208580E+02  0.72461556516E+02  0.69999982051E+02 0.  0.
        -12    1    1    2    0    0  0.11170601145E+02  0.86087058357E+01  0.12320208580E+02  0.18726443484E+02  0.00000000000E+00 0.  1.
         11    1    3    3    0    0  0.56806062733E+01  0.27051318541E+01  0.20074515818E+02  0.21037424072E+02  0.51100000000E-03 0. -1.
        -11    1    3    3    0    0  0.21276568500E+01  0.71684129910E+01  0.22527467704E+01  0.78094773675E+01  0.51100000000E-03 0.  1.
         12    1    3    3    0    0 -0.18978864268E+02 -0.18482250681E+02 -0.34647471168E+02  0.43614655077E+02  0.00000000000E+00 0. -1.
</event>
<event>
 7    1  0.3681059E-013  0.7246163E+02  0.7816164E-02  0.1226708E+00
        -11   -1    0    0    0    0  0.00000000000E+00  0.00000000000E+00  0.45593999997E+02  0.45594000000E+02  0.51100000000E-03 0.  1.
         11   -1    0    0    0    0 -0.00000000000E+00 -0.00000000000E+00 -0.45593999997E+02  0.45594000000E+02  0.51100000000E-03 0. -1.
    9900012    2    1    2    0    0  0.52331202163E+01  0.15341780930E+02 -0.93766357937E+01  0.72461625868E+02  0.70000072395E+02 0.  0.
        -12    1    1    2    0    0 -0.52331202163E+01 -0.15341780930E+02  0.93766357937E+01  0.18726374132E+02  0.00000000000E+00 0.  1.
         11    1    3    3    0    0 -0.22789292434E+01 -0.63760109537E+01  0.10216992088E+02  0.12256996442E+02  0.51100000000E-03 0. -1.
        -11    1    3    3    0    0  0.26043664110E+02 -0.26735047952E+01 -0.71346772860E+01  0.27135284933E+02  0.51100000000E-03 0.  1.
         12    1    3    3    0    0 -0.18531614651E+02  0.24391296679E+02 -0.12458950596E+02  0.33069344493E+02  0.00000000000E+00 0. -1.
</event>
<event>
 7    1  0.3681059E-013  0.7246171E+02  0.7816164E-02  0.1226708E+00
        -11   -1    0    0    0    0  0.00000000000E+00  0.00000000000E+00  0.45593999997E+02  0.45594000000E+02  0.51100000000E-03 0.  1.
         11   -1    0    0    0    0 -0.00000000000E+00 -0.00000000000E+00 -0.45593999997E+02  0.45594000000E+02  0.51100000000E-03 0. -1.
    9900012    2    1    2    0    0 -0.21742088145E+00 -0.18256939805E+02 -0.41606263970E+01  0.72461710060E+02  0.70000182071E+02 0.  0.
        -12    1    1    2    0    0  0.21742088145E+00  0.18256939805E+02  0.41606263970E+01  0.18726289940E+02  0.00000000000E+00 0.  1.
         11    1    3    3    0    0  0.70136528289E+01 -0.66122410414E+01 -0.17970187993E+01  0.98052197538E+01  0.51100000000E-03 0. -1.
        -11    1    3    3    0    0  0.11887338935E+02 -0.12114156508E+02  0.24424428336E+02  0.29742466520E+02  0.51100000000E-03 0.  1.
         12    1    3    3    0    0 -0.19118412645E+02  0.46945774425E+00 -0.26788035934E+02  0.32914023787E+02  0.00000000000E+00 0. -1.
</event>
<event>
 7    1  0.3681059E-013  0.7246153E+02  0.7816164E-02  0.1226708E+00
        -11   -1    0    0    0    0  0.00000000000E+00  0.00000000000E+00  0.45593999997E+02  0.45594000000E+02  0.51100000000E-03 0.  1.
         11   -1    0    0    0    0 -0.00000000000E+00 -0.00000000000E+00 -0.45593999997E+02  0.45594000000E+02  0.51100000000E-03 0. -1.
    9900012    2    1    2    0    0 -0.81199876024E+01  0.66703560326E+01 -0.15500085962E+02  0.72461534420E+02  0.69999953268E+02 0.  0.
        -12    1    1    2    0    0  0.81199876024E+01 -0.66703560326E+01  0.15500085962E+02  0.18726465580E+02  0.00000000000E+00 0.  1.
         11    1    3    3    0    0 -0.10298793403E+01 -0.19377864420E+02 -0.16530984163E+02  0.25491875541E+02  0.51100000000E-03 0.  1.
        -11    1    3    3    0    0  0.98789675976E+01  0.11675313484E+02 -0.13504261932E+02  0.20402745804E+02  0.51100000000E-03 0. -1.
        -12    1    3    3    0    0 -0.16969075860E+02  0.14372906969E+02  0.14535160133E+02  0.26566913075E+02  0.00000000000E+00 0.  1.
</event>
<event>
 7    1  0.3681059E-013  0.7246162E+02  0.7816164E-02  0.1226708E+00
        -11   -1    0    0    0    0  0.00000000000E+00  0.00000000000E+00  0.45593999997E+02  0.45594000000E+02  0.51100000000E-03 0. -1.
         11   -1    0    0    0    0 -0.00000000000E+00 -0.00000000000E+00 -0.45593999997E+02  0.45594000000E+02  0.51100000000E-03 0.  1.
    9900012    2    1    2    0    0 -0.98093727808E+01 -0.36023403340E+01  0.15539523770E+02  0.72461616226E+02  0.70000059835E+02 0.  0.
        -12    1    1    2    0    0  0.98093727808E+01  0.36023403340E+01 -0.15539523770E+02  0.18726383774E+02  0.00000000000E+00 0.  1.
         11    1    3    3    0    0 -0.10199639638E+02  0.82319634180E+01 -0.94191860398E+01  0.16140599009E+02  0.51100000000E-03 0.  1.
        -11    1    3    3    0    0 -0.22253149005E+02 -0.70119678299E+01  0.23513327128E+02  0.33124717152E+02  0.51100000000E-03 0. -1.
         12    1    3    3    0    0  0.22643415862E+02 -0.48223359221E+01  0.14453826823E+01  0.23196300066E+02  0.00000000000E+00 0. -1.
</event>
<event>
 7    1  0.3681059E-013  0.7246163E+02  0.7816164E-02  0.1226708E+00
        -11   -1    0    0    0    0  0.00000000000E+00  0.00000000000E+00  0.45593999997E+02  0.45594000000E+02  0.51100000000E-03 0.  1.
         11   -1    0    0    0    0 -0.00000000000E+00 -0.00000000000E+00 -0.45593999997E+02  0.45594000000E+02  0.51100000000E-03 0. -1.
    9900012    2    1    2    0    0 -0.58981757169E+01  0.19688218407E+01 -0.17663862176E+02  0.72461634544E+02  0.70000083697E+02 0.  0.
        -12    1    1    2    0    0  0.58981757169E+01 -0.19688218407E+01  0.17663862176E+02  0.18726365456E+02  0.00000000000E+00 0.  1.
         11    1    3    3    0    0  0.39695012728E+01  0.18493865572E+01 -0.63014415614E+01  0.76736781927E+01  0.51100000000E-03 0. -1.
        -11    1    3    3    0    0 -0.32687180495E+02  0.88092942572E+01  0.65794790298E+01  0.34486881253E+02  0.51100000000E-03 0.  1.
         12    1    3    3    0    0  0.22819503505E+02 -0.86898589737E+01 -0.17941899645E+02  0.30301075098E+02  0.00000000000E+00 0. -1.
</event>
<event>
 7    1  0.3681059E-013  0.7246159E+02  0.7816164E-02  0.1226708E+00
        -11   -1    0    0    0    0  0.00000000000E+00  0.00000000000E+00  0.45593999997E+02  0.45594000000E+02  0.51100000000E-03 0.  1.
         11   -1    0    0    0    0 -0.00000000000E+00 -0.00000000000E+00 -0.45593999997E+02  0.45594000000E+02  0.51100000000E-03 0. -1.
    9900012    2    1    2    0    0  0.57162965859E+01  0.61620963666E+01 -0.16734126815E+02  0.72461588744E+02  0.70000024033E+02 0.  0.
        -12    1    1    2    0    0 -0.57162965859E+01 -0.61620963666E+01  0.16734126815E+02  0.18726411256E+02  0.00000000000E+00 0.  1.
         11    1    3    3    0    0  0.19397622299E+01  0.10949271782E+00 -0.19777381788E+02  0.19872581533E+02  0.51100000000E-03 0. -1.
        -11    1    3    3    0    0  0.14148789985E+02  0.21383039738E+02 -0.12401599659E+02  0.28481964834E+02  0.51100000000E-03 0.  1.
         12    1    3    3    0    0 -0.10372255629E+02 -0.15330436089E+02  0.15444854632E+02  0.24107042376E+02  0.00000000000E+00 0. -1.
</event>
<event>
 7    1  0.3681059E-013  0.7246159E+02  0.7816164E-02  0.1226708E+00
        -11   -1    0    0    0    0  0.00000000000E+00  0.00000000000E+00  0.45593999997E+02  0.45594000000E+02  0.51100000000E-03 0. -1.
         11   -1    0    0    0    0 -0.00000000000E+00 -0.00000000000E+00 -0.45593999997E+02  0.45594000000E+02  0.51100000000E-03 0.  1.
    9900012    2    1    2    0    0  0.79598267453E+01 -0.12310343570E+02  0.11652262208E+02  0.72461585095E+02  0.70000019281E+02 0.  0.
        -12    1    1    2    0    0 -0.79598267453E+01  0.12310343570E+02 -0.11652262208E+02  0.18726414905E+02  0.00000000000E+00 0.  1.
         11    1    3    3    0    0 -0.18621005931E+01 -0.71965155972E+01 -0.67541853271E+01  0.10043718189E+02  0.51100000000E-03 0. -1.
        -11    1    3    3    0    0 -0.98203373564E+01 -0.27044736965E+02  0.23133390782E+01  0.28865348799E+02  0.51100000000E-03 0.  1.
         12    1    3    3    0    0  0.19642264695E+02  0.21930908993E+02  0.16093108457E+02  0.33552518108E+02  0.00000000000E+00 0. -1.
</event>
<event>
 7    1  0.3681059E-013  0.7246122E+02  0.7816164E-02  0.1226709E+00
        -11   -1    0    0    0    0  0.00000000000E+00  0.00000000000E+00  0.45593999997E+02  0.45594000000E+02  0.51100000000E-03 0.  1.
         11   -1    0    0    0    0 -0.00000000000E+00 -0.00000000000E+00 -0.45593999997E+02  0.45594000000E+02  0.51100000000E-03 0. -1.
    9900012    2    1    2    0    0  0.17047833109E+02  0.66981612522E+01  0.38985081346E+01  0.72461218548E+02  0.69999541783E+02 0.  0.
        -12    1    1    2    0    0 -0.17047833109E+02 -0.66981612522E+01 -0.38985081346E+01  0.18726781452E+02  0.00000000000E+00 0.  1.
         11    1    3    3    0    0  0.21665545260E+01 -0.12467242098E+02  0.13784518278E+02  0.18712002257E+02  0.51100000000E-03 0. -1.
        -11    1    3    3    0    0  0.22307215904E+02 -0.83208045688E+01 -0.65169135617E+00  0.23817480386E+02  0.51100000000E-03 0.  1.
        -12    1    3    3    0    0 -0.74259373204E+01  0.27486207919E+02 -0.92343187873E+01  0.29931735905E+02  0.00000000000E+00 0.  1.
</event>
<event>
 7    1  0.3681059E-013  0.7246154E+02  0.7816164E-02  0.1226708E+00
        -11   -1    0    0    0    0  0.00000000000E+00  0.00000000000E+00  0.45593999997E+02  0.45594000000E+02  0.51100000000E-03 0.  1.
         11   -1    0    0    0    0 -0.00000000000E+00 -0.00000000000E+00 -0.45593999997E+02  0.45594000000E+02  0.51100000000E-03 0. -1.
    9900012    2    1    2    0    0  0.12431342456E+02 -0.12828587513E+02  0.56186682232E+01  0.72461538364E+02  0.69999958404E+02 0.  0.
        -12    1    1    2    0    0 -0.12431342456E+02  0.12828587513E+02 -0.56186682232E+01  0.18726461636E+02  0.00000000000E+00 0.  1.
         11    1    3    3    0    0 -0.18623353259E+02  0.16092824074E+01  0.10088986003E+01  0.18719961355E+02  0.51100000000E-03 0. -1.
        -11    1    3    3    0    0  0.18677536095E+02 -0.13793038411E+02  0.22266071128E+02  0.32169491555E+02  0.51100000000E-03 0.  1.
        -12    1    3    3    0    0  0.12377159620E+02 -0.64483150881E+00 -0.17656301506E+02  0.21572085453E+02  0.00000000000E+00 0.  1.
</event>
<event>
 7    1  0.3681059E-013  0.7246171E+02  0.7816164E-02  0.1226708E+00
        -11   -1    0    0    0    0  0.00000000000E+00  0.00000000000E+00  0.45593999997E+02  0.45594000000E+02  0.51100000000E-03 0.  1.
         11   -1    0    0    0    0 -0.00000000000E+00 -0.00000000000E+00 -0.45593999997E+02  0.45594000000E+02  0.51100000000E-03 0. -1.
    9900012    2    1    2    0    0  0.70243701958E+01  0.14033785419E+02  0.10216893996E+02  0.72461712788E+02  0.70000185624E+02 0.  0.
        -12    1    1    2    0    0 -0.70243701958E+01 -0.14033785419E+02 -0.10216893996E+02  0.18726287212E+02  0.00000000000E+00 0.  1.
         11    1    3    3    0    0 -0.75522639518E+01  0.10647294155E+02 -0.80994357085E+01  0.15362370347E+02  0.51100000000E-03 0. -1.
        -11    1    3    3    0    0 -0.18593250220E+02  0.30229188325E+01 -0.72414330381E+00  0.18851296396E+02  0.51100000000E-03 0.  1.
        -12    1    3    3    0    0  0.33169884368E+02  0.36357243205E+00  0.19040473008E+02  0.38248046045E+02  0.00000000000E+00 0.  1.
</event>
<event>
 7    1  0.3681059E-013  0.7246163E+02  0.7816164E-02  0.1226708E+00
        -11   -1    0    0    0    0  0.00000000000E+00  0.00000000000E+00  0.45593999997E+02  0.45594000000E+02  0.51100000000E-03 0.  1.
         11   -1    0    0    0    0 -0.00000000000E+00 -0.00000000000E+00 -0.45593999997E+02  0.45594000000E+02  0.51100000000E-03 0. -1.
    9900012    2    1    2    0    0 -0.45386501829E+01 -0.41752912886E+01 -0.17681762228E+02  0.72461625062E+02  0.70000071345E+02 0.  0.
        -12    1    1    2    0    0  0.45386501829E+01  0.41752912886E+01  0.17681762228E+02  0.18726374938E+02  0.00000000000E+00 0.  1.
         11    1    3    3    0    0  0.11698791259E+02  0.34972324940E+01  0.12590279042E+02  0.17538742220E+02  0.51100000000E-03 0. -1.
        -11    1    3    3    0    0 -0.98517835042E+01  0.16993535065E+02 -0.17997803134E+02  0.26641298582E+02  0.51100000000E-03 0.  1.
         12    1    3    3    0    0 -0.63856579378E+01 -0.24666058848E+02 -0.12274238136E+02  0.28281584259E+02  0.00000000000E+00 0. -1.
</event>
<event>
 7    1  0.3681059E-013  0.7246156E+02  0.7816164E-02  0.1226708E+00
        -11   -1    0    0    0    0  0.00000000000E+00  0.00000000000E+00  0.45593999997E+02  0.45594000000E+02  0.51100000000E-03 0.  1.
         11   -1    0    0    0    0 -0.00000000000E+00 -0.00000000000E+00 -0.45593999997E+02  0.45594000000E+02  0.51100000000E-03 0. -1.
    9900012    2    1    2    0    0 -0.14399644067E+02  0.16969054050E+01 -0.11851178251E+02  0.72461557115E+02  0.69999982831E+02 0.  0.
        -12    1    1    2    0    0  0.14399644067E+02 -0.16969054050E+01  0.11851178251E+02  0.18726442885E+02  0.00000000000E+00 0.  1.
         11    1    3    3    0    0 -0.29912322801E+02 -0.41613795477E+01 -0.75817441947E+01  0.31137549364E+02  0.51100000000E-03 0. -1.
        -11    1    3    3    0    0 -0.93583807310E+01 -0.46993771794E+01 -0.91035750021E+01  0.13875824799E+02  0.51100000000E-03 0.  1.
        -12    1    3    3    0    0  0.24871059466E+02  0.10557662132E+02  0.48341409459E+01  0.27448182951E+02  0.00000000000E+00 0.  1.
</event>
<event>
 7    1  0.3681059E-013  0.7246166E+02  0.7816164E-02  0.1226708E+00
        -11   -1    0    0    0    0  0.00000000000E+00  0.00000000000E+00  0.45593999997E+02  0.45594000000E+02  0.51100000000E-03 0.  1.
         11   -1    0    0    0    0 -0.00000000000E+00 -0.00000000000E+00 -0.45593999997E+02  0.45594000000E+02  0.51100000000E-03 0. -1.
    9900012    2    1    2    0    0  0.18572280538E+02  0.10458738863E+01 -0.21569011349E+01  0.72461663490E+02  0.70000121405E+02 0.  0.
        -12    1    1    2    0    0 -0.18572280538E+02 -0.10458738863E+01  0.21569011349E+01  0.18726336510E+02  0.00000000000E+00 0.  1.
         11    1    3    3    0    0 -0.33136484495E+01  0.75974464401E+01 -0.18093428009E+02  0.19901597821E+02  0.51100000000E-03 0. -1.
        -11    1    3    3    0    0 -0.81503251419E+01 -0.10885106632E+02 -0.62517030818E+01  0.14966533934E+02  0.51100000000E-03 0.  1.
        -12    1    3    3    0    0  0.30036254129E+02  0.43335340779E+01  0.22188229956E+02  0.37593531735E+02  0.00000000000E+00 0.  1.
</event>
<event>
 7    1  0.3681059E-013  0.7246148E+02  0.7816164E-02  0.1226708E+00
        -11   -1    0    0    0    0  0.00000000000E+00  0.00000000000E+00  0.45593999997E+02  0.45594000000E+02  0.51100000000E-03 0.  1.
         11   -1    0    0    0    0 -0.00000000000E+00 -0.00000000000E+00 -0.45593999997E+02  0.45594000000E+02  0.51100000000E-03 0. -1.
    9900012    2    1    2    0    0  0.16434009213E+02 -0.87191443156E+01 -0.21406662482E+01  0.72461479010E+02  0.69999881085E+02 0.  0.
        -12    1    1    2    0    0 -0.16434009213E+02  0.87191443156E+01  0.21406662482E+01  0.18726520990E+02  0.00000000000E+00 0.  1.
         11    1    3    3    0    0 -0.71242733980E+01 -0.15594285330E+02  0.66641005139E+01  0.18394217633E+02  0.51100000000E-03 0. -1.
        -11    1    3    3    0    0  0.30236483230E+02  0.12528317885E+01  0.11178001018E+02  0.32260846434E+02  0.51100000000E-03 0.  1.
         12    1    3    3    0    0 -0.66782006188E+01  0.56223092257E+01 -0.19982767780E+02  0.21806414943E+02  0.00000000000E+00 0. -1.
</event>
<event>
 7    1  0.3681059E-013  0.7246158E+02  0.7816164E-02  0.1226708E+00
        -11   -1    0    0    0    0  0.00000000000E+00  0.00000000000E+00  0.45593999997E+02  0.45594000000E+02  0.51100000000E-03 0. -1.
         11   -1    0    0    0    0 -0.00000000000E+00 -0.00000000000E+00 -0.45593999997E+02  0.45594000000E+02  0.51100000000E-03 0.  1.
    9900012    2    1    2    0    0 -0.19614343351E+01 -0.18184915172E+02  0.40175016282E+01  0.72461583263E+02  0.70000016895E+02 0.  0.
        -12    1    1    2    0    0  0.19614343351E+01  0.18184915172E+02 -0.40175016282E+01  0.18726416737E+02  0.00000000000E+00 0.  1.
         11    1    3    3    0    0 -0.14438621586E+01  0.21295400423E+02 -0.40764533547E+01  0.21730077987E+02  0.51100000000E-03 0. -1.
        -11    1    3    3    0    0 -0.11935383937E+01  0.51169031710E+01  0.23676724204E+01  0.57630811993E+01  0.51100000000E-03 0.  1.
        -12    1    3    3    0    0  0.67596621730E+00 -0.44597218766E+02  0.57262825624E+01  0.44968424077E+02  0.00000000000E+00 0.  1.
</event>
<event>
 7    1  0.3681059E-013  0.7246158E+02  0.7816164E-02  0.1226708E+00
        -11   -1    0    0    0    0  0.00000000000E+00  0.00000000000E+00  0.45593999997E+02  0.45594000000E+02  0.51100000000E-03 0.  1.
         11   -1    0    0    0    0 -0.00000000000E+00 -0.00000000000E+00 -0.45593999997E+02  0.45594000000E+02  0.51100000000E-03 0. -1.
    9900012    2    1    2    0    0  0.49128701422E+01 -0.51068744915E+01 -0.17333845945E+02  0.72461583488E+02  0.70000017188E+02 0.  0.
        -12    1    1    2    0    0 -0.49128701422E+01  0.51068744915E+01  0.17333845945E+02  0.18726416512E+02  0.00000000000E+00 0.  1.
         11    1    3    3    0    0  0.28609047382E+02 -0.19087118953E+02 -0.14534440326E+02  0.37336920841E+02  0.51100000000E-03 0. -1.
        -11    1    3    3    0    0 -0.96808327149E+01  0.20517300297E+01 -0.11155511718E+02  0.14912195014E+02  0.51100000000E-03 0.  1.
        -12    1    3    3    0    0 -0.14015344525E+02  0.11928514432E+02  0.83561060992E+01  0.20212467634E+02  0.00000000000E+00 0.  1.
</event>
<event>
 7    1  0.3681059E-013  0.7246152E+02  0.7816164E-02  0.1226708E+00
        -11   -1    0    0    0    0  0.00000000000E+00  0.00000000000E+00  0.45593999997E+02  0.45594000000E+02  0.51100000000E-03 0. -1.
         11   -1    0    0    0    0 -0.00000000000E+00 -0.00000000000E+00 -0.45593999997E+02  0.45594000000E+02  0.51100000000E-03 0.  1.
    9900012    2    1    2    0    0 -0.14835772863E+02  0.11377776237E+02  0.10615684403E+01  0.72461524729E+02  0.69999940643E+02 0.  0.
        -12    1    1    2    0    0  0.14835772863E+02 -0.11377776237E+02 -0.10615684403E+01  0.18726475271E+02  0.00000000000E+00 0.  1.
         11    1    3    3    0    0  0.60900009639E+01  0.63563558004E+01 -0.14490235331E+02  0.16954594982E+02  0.51100000000E-03 0. -1.
        -11    1    3    3    0    0  0.14280936579E+02  0.61955728576E+01 -0.27531360305E+01  0.15808542971E+02  0.51100000000E-03 0.  1.
        -12    1    3    3    0    0 -0.35206710406E+02 -0.11741524212E+01  0.18304939801E+02  0.39698386776E+02  0.00000000000E+00 0.  1.
</event>
<event>
 7    1  0.3681059E-013  0.7246154E+02  0.7816164E-02  0.1226708E+00
        -11   -1    0    0    0    0  0.00000000000E+00  0.00000000000E+00  0.45593999997E+02  0.45594000000E+02  0.51100000000E-03 0. -1.
         11   -1    0    0    0    0 -0.00000000000E+00 -0.00000000000E+00 -0.45593999997E+02  0.45594000000E+02  0.51100000000E-03 0.  1.
    9900012    2    1    2    0    0 -0.18026646496E+02  0.18141179196E+01  0.47359464493E+01  0.72461542875E+02  0.69999964281E+02 0.  0.
        -12    1    1    2    0    0  0.18026646496E+02 -0.18141179196E+01 -0.47359464493E+01  0.18726457125E+02  0.00000000000E+00 0.  1.
         11    1    3    3    0    0 -0.14895976049E+02  0.93927599119E+01 -0.71313155587E+01  0.18999202696E+02  0.51100000000E-03 0. -1.
        -11    1    3    3    0    0 -0.23087358527E+01  0.12386290717E+02 -0.15247834439E+02  0.19779962444E+02  0.51100000000E-03 0.  1.
         12    1    3    3    0    0 -0.82193459382E+00 -0.19964932709E+02  0.27115096447E+02  0.33682377735E+02  0.00000000000E+00 0. -1.
</event>
<event>
 7    1  0.3681059E-013  0.7246154E+02  0.7816164E-02  0.1226708E+00
        -11   -1    0    0    0    0  0.00000000000E+00  0.00000000000E+00  0.45593999997E+02  0.45594000000E+02  0.51100000000E-03 0. -1.
         11   -1    0    0    0    0 -0.00000000000E+00 -0.00000000000E+00 -0.45593999997E+02  0.45594000000E+02  0.51100000000E-03 0.  1.
    9900012    2    1    2    0    0 -0.33991021879E+01  0.82051442767E+01  0.16486418979E+02  0.72461540136E+02  0.69999960714E+02 0.  0.
        -12    1    1    2    0    0  0.33991021879E+01 -0.82051442767E+01 -0.16486418979E+02  0.18726459864E+02  0.00000000000E+00 0.  1.
         11    1    3    3    0    0 -0.27904266848E+02  0.29436287947E+01  0.66444500926E+01  0.28835078916E+02  0.51100000000E-03 0. -1.
        -11    1    3    3    0    0 -0.68477391602E+01 -0.54968296431E+01 -0.78809739695E+00  0.88163351513E+01  0.51100000000E-03 0.  1.
        -12    1    3    3    0    0  0.31352903820E+02  0.10758345125E+02  0.10630066283E+02  0.34810126069E+02  0.00000000000E+00 0.  1.
</event>
<event>
 7    1  0.3681059E-013  0.7246159E+02  0.7816164E-02  0.1226708E+00
        -11   -1    0    0    0    0  0.00000000000E+00  0.00000000000E+00  0.45593999997E+02  0.45594000000E+02  0.51100000000E-03 0.  1.
         11   -1    0    0    0    0 -0.00000000000E+00 -0.00000000000E+00 -0.45593999997E+02  0.45594000000E+02  0.51100000000E-03 0. -1.
    9900012    2    1    2    0    0  0.18124706269E+02  0.45419781804E+01 -0.12424842374E+01  0.72461593239E+02  0.70000029889E+02 0.  0.
        -12    1    1    2    0    0 -0.18124706269E+02 -0.45419781804E+01  0.12424842374E+01  0.18726406761E+02  0.00000000000E+00 0.  1.
         11    1    3    3    0    0 -0.14561349556E+01  0.16387603424E+02  0.15082203856E+02  0.22319201339E+02  0.51100000000E-03 0.  1.
        -11    1    3    3    0    0  0.28706276364E+02 -0.19219863221E+02 -0.72231300416E+01  0.35293442065E+02  0.51100000000E-03 0. -1.
         12    1    3    3    0    0 -0.91254351396E+01  0.73742379774E+01 -0.91015580517E+01  0.14848949835E+02  0.00000000000E+00 0. -1.
</event>
<event>
 7    1  0.3681059E-013  0.7246158E+02  0.7816164E-02  0.1226708E+00
        -11   -1    0    0    0    0  0.00000000000E+00  0.00000000000E+00  0.45593999997E+02  0.45594000000E+02  0.51100000000E-03 0. -1.
         11   -1    0    0    0    0 -0.00000000000E+00 -0.00000000000E+00 -0.45593999997E+02  0.45594000000E+02  0.51100000000E-03 0.  1.
    9900012    2    1    2    0    0 -0.13179191444E+02  0.10038247641E+02 -0.87304864952E+01  0.72461577564E+02  0.70000009470E+02 0.  0.
        -12    1    1    2    0    0  0.13179191444E+02 -0.10038247641E+02  0.87304864952E+01  0.18726422436E+02  0.00000000000E+00 0.  1.
         11    1    3    3    0    0 -0.57949175182E+01  0.30746055878E+01 -0.29858440648E+02  0.30570586301E+02  0.51100000000E-03 0. -1.
        -11    1    3    3    0    0 -0.84605703640E+01  0.12483208597E+01 -0.82858368177E+01  0.11907755787E+02  0.51100000000E-03 0.  1.
         12    1    3    3    0    0  0.10762964379E+01  0.57153211931E+01  0.29413790971E+02  0.29983235476E+02  0.00000000000E+00 0. -1.
</event>
<event>
 7    1  0.3681059E-013  0.7246156E+02  0.7816164E-02  0.1226708E+00
        -11   -1    0    0    0    0  0.00000000000E+00  0.00000000000E+00  0.45593999997E+02  0.45594000000E+02  0.51100000000E-03 0. -1.
         11   -1    0    0    0    0 -0.00000000000E+00 -0.00000000000E+00 -0.45593999997E+02  0.45594000000E+02  0.51100000000E-03 0.  1.
    9900012    2    1    2    0    0  0.17860269935E+02  0.22544739713E+01  0.51582571248E+01  0.72461561160E+02  0.69999988101E+02 0.  0.
        -12    1    1    2    0    0 -0.17860269935E+02 -0.22544739713E+01 -0.51582571248E+01  0.18726438840E+02  0.00000000000E+00 0.  1.
         11    1    3    3    0    0  0.43678503956E+01 -0.24455146781E+01 -0.48609047143E+01  0.69776109107E+01  0.51100000000E-03 0. -1.
        -11    1    3    3    0    0  0.38490994794E+02 -0.19202370264E+01  0.28284452812E+01  0.38642516656E+02  0.51100000000E-03 0.  1.
         12    1    3    3    0    0 -0.24998575255E+02  0.66202256759E+01  0.71907165578E+01  0.26841433594E+02  0.00000000000E+00 0. -1.
</event>
<event>
 7    1  0.3681059E-013  0.7246157E+02  0.7816164E-02  0.1226708E+00
        -11   -1    0    0    0    0  0.00000000000E+00  0.00000000000E+00  0.45593999997E+02  0.45594000000E+02  0.51100000000E-03 0. -1.
         11   -1    0    0    0    0 -0.00000000000E+00 -0.00000000000E+00 -0.45593999997E+02  0.45594000000E+02  0.51100000000E-03 0.  1.
    9900012    2    1    2    0    0 -0.40580071816E+00  0.11282785859E+02  0.14940326366E+02  0.72461567268E+02  0.69999996057E+02 0.  0.
        -12    1    1    2    0    0  0.40580071816E+00 -0.11282785859E+02 -0.14940326366E+02  0.18726432732E+02  0.00000000000E+00 0.  1.
         11    1    3    3    0    0 -0.13113927492E+02 -0.12532236419E+02  0.14340826028E+01  0.18195841204E+02  0.51100000000E-03 0. -1.
        -11    1    3    3    0    0 -0.16797507989E+02  0.67633544201E+01  0.16470737911E+01  0.18182741543E+02  0.51100000000E-03 0.  1.
         12    1    3    3    0    0  0.29505634764E+02  0.17051667858E+02  0.11859169972E+02  0.36082984521E+02  0.00000000000E+00 0. -1.
</event>
<event>
 7    1  0.3681059E-013  0.7246161E+02  0.7816164E-02  0.1226708E+00
        -11   -1    0    0    0    0  0.00000000000E+00  0.00000000000E+00  0.45593999997E+02  0.45594000000E+02  0.51100000000E-03 0.  1.
         11   -1    0    0    0    0 -0.00000000000E+00 -0.00000000000E+00 -0.45593999997E+02  0.45594000000E+02  0.51100000000E-03 0. -1.
    9900012    2    1    2    0    0  0.12688395910E+02  0.11515407402E+02 -0.75549807080E+01  0.72461608679E+02  0.70000050003E+02 0.  0.
        -12    1    1    2    0    0 -0.12688395910E+02 -0.11515407402E+02  0.75549807080E+01  0.18726391321E+02  0.00000000000E+00 0.  1.
         11    1    3    3    0    0  0.66783813469E+01  0.10865406657E+01  0.37372702479E+01  0.77297177956E+01  0.51100000000E-03 0. -1.
        -11    1    3    3    0    0  0.23914890779E+00 -0.17292741208E+02  0.17320691516E+02  0.24476569317E+02  0.51100000000E-03 0.  1.
         12    1    3    3    0    0  0.57708656556E+01  0.27721607945E+02 -0.28612942472E+02  0.40255321566E+02  0.00000000000E+00 0. -1.
</event>
<event>
 7    1  0.3681059E-013  0.7246160E+02  0.7816164E-02  0.1226708E+00
        -11   -1    0    0    0    0  0.00000000000E+00  0.00000000000E+00  0.45593999997E+02  0.45594000000E+02  0.51100000000E-03 0.  1.
         11   -1    0    0    0    0 -0.00000000000E+00 -0.00000000000E+00 -0.45593999997E+02  0.45594000000E+02  0.51100000000E-03 0. -1.
    9900012    2    1    2    0    0 -0.16603476334E+02 -0.19182492314E+01  0.84452855229E+01  0.72461602748E+02  0.70000042276E+02 0.  0.
        -12    1    1    2    0    0  0.16603476334E+02  0.19182492314E+01 -0.84452855229E+01  0.18726397252E+02  0.00000000000E+00 0.  1.
         11    1    3    3    0    0 -0.80741310831E+01  0.22413332436E+02  0.14103519636E+01  0.23864998566E+02  0.51100000000E-03 0. -1.
        -11    1    3    3    0    0 -0.98922587910E+01  0.35207563444E+01 -0.11141830094E+02  0.15309895079E+02  0.51100000000E-03 0.  1.
        -12    1    3    3    0    0  0.13629135400E+01 -0.27852338011E+02  0.18176763653E+02  0.33286709103E+02  0.00000000000E+00 0.  1.
</event>
<event>
 7    1  0.3681059E-013  0.7246156E+02  0.7816164E-02  0.1226708E+00
        -11   -1    0    0    0    0  0.00000000000E+00  0.00000000000E+00  0.45593999997E+02  0.45594000000E+02  0.51100000000E-03 0.  1.
         11   -1    0    0    0    0 -0.00000000000E+00 -0.00000000000E+00 -0.45593999997E+02  0.45594000000E+02  0.51100000000E-03 0. -1.
    9900012    2    1    2    0    0  0.11543307046E+02  0.14559872976E+02  0.23327199374E+01  0.72461563581E+02  0.69999991255E+02 0.  0.
        -12    1    1    2    0    0 -0.11543307046E+02 -0.14559872976E+02 -0.23327199374E+01  0.18726436419E+02  0.00000000000E+00 0.  1.
         11    1    3    3    0    0  0.11283695990E+02  0.12879508254E+01 -0.77555966723E+01  0.13752450419E+02  0.51100000000E-03 0. -1.
        -11    1    3    3    0    0 -0.93031775140E+01 -0.19415710844E+02  0.11907210997E+02  0.24602857830E+02  0.51100000000E-03 0.  1.
         12    1    3    3    0    0  0.95627885700E+01  0.32687632994E+02 -0.18188943870E+01  0.34106255332E+02  0.00000000000E+00 0. -1.
</event>
<event>
 7    1  0.3681059E-013  0.7246157E+02  0.7816164E-02  0.1226708E+00
        -11   -1    0    0    0    0  0.00000000000E+00  0.00000000000E+00  0.45593999997E+02  0.45594000000E+02  0.51100000000E-03 0.  1.
         11   -1    0    0    0    0 -0.00000000000E+00 -0.00000000000E+00 -0.45593999997E+02  0.45594000000E+02  0.51100000000E-03 0. -1.
    9900012    2    1    2    0    0 -0.11891127125E+02 -0.42330174169E+01 -0.13833360782E+02  0.72461569179E+02  0.69999998547E+02 0.  0.
        -12    1    1    2    0    0  0.11891127125E+02  0.42330174169E+01  0.13833360782E+02  0.18726430821E+02  0.00000000000E+00 0.  1.
         11    1    3    3    0    0 -0.47203157022E+01  0.59961859139E+01  0.15621925853E+02  0.17386206989E+02  0.51100000000E-03 0. -1.
        -11    1    3    3    0    0 -0.16358712893E+01 -0.14788406169E+02  0.80321470836E+01  0.16908235240E+02  0.51100000000E-03 0.  1.
         12    1    3    3    0    0 -0.55349401339E+01  0.45592028385E+01 -0.37487433719E+02  0.38167126950E+02  0.00000000000E+00 0. -1.
</event>
<event>
 7    1  0.3681059E-013  0.7246154E+02  0.7816164E-02  0.1226708E+00
        -11   -1    0    0    0    0  0.00000000000E+00  0.00000000000E+00  0.45593999997E+02  0.45594000000E+02  0.51100000000E-03 0.  1.
         11   -1    0    0    0    0 -0.00000000000E+00 -0.00000000000E+00 -0.45593999997E+02  0.45594000000E+02  0.51100000000E-03 0. -1.
    9900012    2    1    2    0    0 -0.81875511928E+01 -0.15894917347E+02 -0.55674016343E+01  0.72461538696E+02  0.69999958837E+02 0.  0.
        -12    1    1    2    0    0  0.81875511928E+01  0.15894917347E+02  0.55674016343E+01  0.18726461304E+02  0.00000000000E+00 0.  1.
         11    1    3    3    0    0  0.74923743811E+01  0.28133877349E+01  0.15171417959E+02  0.17152922420E+02  0.51100000000E-03 0. -1.
        -11    1    3    3    0    0 -0.19971663625E+02 -0.24920921421E+02  0.13501466176E+01  0.31964708172E+02  0.51100000000E-03 0.  1.
         12    1    3    3    0    0  0.42917380508E+01  0.62126163382E+01 -0.22088966211E+02  0.23343908103E+02  0.00000000000E+00 0. -1.
</event>
<event>
 7    1  0.3681059E-013  0.7246169E+02  0.7816164E-02  0.1226708E+00
        -11   -1    0    0    0    0  0.00000000000E+00  0.00000000000E+00  0.45593999997E+02  0.45594000000E+02  0.51100000000E-03 0. -1.
         11   -1    0    0    0    0 -0.00000000000E+00 -0.00000000000E+00 -0.45593999997E+02  0.45594000000E+02  0.51100000000E-03 0.  1.
    9900012    2    1    2    0    0  0.16340723910E+02 -0.50572102380E+01  0.76210314015E+01  0.72461688219E+02  0.70000153619E+02 0.  0.
        -12    1    1    2    0    0 -0.16340723910E+02  0.50572102380E+01 -0.76210314015E+01  0.18726311781E+02  0.00000000000E+00 0.  1.
         11    1    3    3    0    0 -0.58673311170E+01  0.13127506491E+02  0.89961793251E+01  0.16961375057E+02  0.51100000000E-03 0. -1.
        -11    1    3    3    0    0  0.58927032026E+01  0.15013562318E+02  0.69857094995E+01  0.17576437124E+02  0.51100000000E-03 0.  1.
        -12    1    3    3    0    0  0.16315351825E+02 -0.33198279047E+02 -0.83608574231E+01  0.37923876038E+02  0.00000000000E+00 0.  1.
</event>
<event>
 7    1  0.3681059E-013  0.7246160E+02  0.7816164E-02  0.1226708E+00
        -11   -1    0    0    0    0  0.00000000000E+00  0.00000000000E+00  0.45593999997E+02  0.45594000000E+02  0.51100000000E-03 0. -1.
         11   -1    0    0    0    0 -0.00000000000E+00 -0.00000000000E+00 -0.45593999997E+02  0.45594000000E+02  0.51100000000E-03 0.  1.
    9900012    2    1    2    0    0 -0.89100094015E+01 -0.84196788961E+00  0.16449344283E+02  0.72461598722E+02  0.70000037033E+02 0.  0.
        -12    1    1    2    0    0  0.89100094015E+01  0.84196788961E+00 -0.16449344283E+02  0.18726401278E+02  0.00000000000E+00 0.  1.
         11    1    3    3    0    0 -0.35778629514E+01 -0.40302987758E+01  0.17238355616E+01  0.56582701266E+01  0.51100000000E-03 0. -1.
        -11    1    3    3    0    0  0.20402669604E+02  0.34597459091E+00 -0.16498548540E+02  0.26241012358E+02  0.51100000000E-03 0.  1.
         12    1    3    3    0    0 -0.25734816054E+02  0.28423562953E+01  0.31224057262E+02  0.40562316238E+02  0.00000000000E+00 0. -1.
</event>
<event>
 7    1  0.3681059E-013  0.7246164E+02  0.7816164E-02  0.1226708E+00
        -11   -1    0    0    0    0  0.00000000000E+00  0.00000000000E+00  0.45593999997E+02  0.45594000000E+02  0.51100000000E-03 0. -1.
         11   -1    0    0    0    0 -0.00000000000E+00 -0.00000000000E+00 -0.45593999997E+02  0.45594000000E+02  0.51100000000E-03 0.  1.
    9900012    2    1    2    0    0 -0.78430140418E+01 -0.13248686090E+02  0.10660024675E+02  0.72461636807E+02  0.70000086645E+02 0.  0.
        -12    1    1    2    0    0  0.78430140418E+01  0.13248686090E+02 -0.10660024675E+02  0.18726363193E+02  0.00000000000E+00 0.  1.
         11    1    3    3    0    0  0.34885079935E+01 -0.34409596610E+01  0.11122089329E+02  0.12153631668E+02  0.51100000000E-03 0. -1.
        -11    1    3    3    0    0 -0.12334434848E+02 -0.30464735340E+02  0.13311033304E+02  0.35460146507E+02  0.51100000000E-03 0.  1.
         12    1    3    3    0    0  0.10029128128E+01  0.20657008911E+02 -0.13773097958E+02  0.24847858633E+02  0.00000000000E+00 0. -1.
</event>
<event>
 7    1  0.3681059E-013  0.7246153E+02  0.7816164E-02  0.1226708E+00
        -11   -1    0    0    0    0  0.00000000000E+00  0.00000000000E+00  0.45593999997E+02  0.45594000000E+02  0.51100000000E-03 0.  1.
         11   -1    0    0    0    0 -0.00000000000E+00 -0.00000000000E+00 -0.45593999997E+02  0.45594000000E+02  0.51100000000E-03 0. -1.
    9900012    2    1    2    0    0  0.55157133303E+01 -0.86311546102E+01 -0.15676755731E+02  0.72461532269E+02  0.69999950464E+02 0.  0.
        -12    1    1    2    0    0 -0.55157133303E+01  0.86311546102E+01  0.15676755731E+02  0.18726467731E+02  0.00000000000E+00 0.  1.
         11    1    3    3    0    0  0.48752867957E+01  0.12216944500E+02 -0.69462659718E+01  0.14875240014E+02  0.51100000000E-03 0. -1.
        -11    1    3    3    0    0 -0.84474590460E+01  0.16464755472E+02 -0.33857864337E+01  0.18812530056E+02  0.51100000000E-03 0.  1.
        -12    1    3    3    0    0  0.90878855806E+01 -0.37312854582E+02 -0.53447033254E+01  0.38773762199E+02  0.00000000000E+00 0.  1.
</event>
<event>
 7    1  0.3681059E-013  0.7246157E+02  0.7816164E-02  0.1226708E+00
        -11   -1    0    0    0    0  0.00000000000E+00  0.00000000000E+00  0.45593999997E+02  0.45594000000E+02  0.51100000000E-03 0.  1.
         11   -1    0    0    0    0 -0.00000000000E+00 -0.00000000000E+00 -0.45593999997E+02  0.45594000000E+02  0.51100000000E-03 0. -1.
    9900012    2    1    2    0    0  0.65407389584E+00  0.14974480429E+02  0.11225705906E+02  0.72461565479E+02  0.69999993727E+02 0.  0.
        -12    1    1    2    0    0 -0.65407389584E+00 -0.14974480429E+02 -0.11225705906E+02  0.18726434521E+02  0.00000000000E+00 0.  1.
         11    1    3    3    0    0 -0.11244827845E+01 -0.29018927270E+01 -0.21753601817E+01  0.37970561113E+01  0.51100000000E-03 0. -1.
        -11    1    3    3    0    0  0.16453178211E+02 -0.17134173592E+02  0.18835297891E+02  0.30315926917E+02  0.51100000000E-03 0.  1.
         12    1    3    3    0    0 -0.14674621531E+02  0.35010546748E+02 -0.54342318029E+01  0.38348582451E+02  0.00000000000E+00 0. -1.
</event>
<event>
 7    1  0.3681059E-013  0.7246149E+02  0.7816164E-02  0.1226708E+00
        -11   -1    0    0    0    0  0.00000000000E+00  0.00000000000E+00  0.45593999997E+02  0.45594000000E+02  0.51100000000E-03 0.  1.
         11   -1    0    0    0    0 -0.00000000000E+00 -0.00000000000E+00 -0.45593999997E+02  0.45594000000E+02  0.51100000000E-03 0. -1.
    9900012    2    1    2    0    0  0.11505712250E+02  0.13845917746E+02 -0.51566724449E+01  0.72461491428E+02  0.69999897261E+02 0.  0.
        -12    1    1    2    0    0 -0.11505712250E+02 -0.13845917746E+02  0.51566724449E+01  0.18726508572E+02  0.00000000000E+00 0.  1.
         11    1    3    3    0    0  0.61290841731E+01  0.20005389214E+01 -0.11260645587E+02  0.12975745377E+02  0.51100000000E-03 0. -1.
        -11    1    3    3    0    0  0.20012831796E+02  0.10801796380E+02 -0.19511774956E+02  0.29965006320E+02  0.51100000000E-03 0.  1.
        -12    1    3    3    0    0 -0.14636203719E+02  0.10435824441E+01  0.25615748099E+02  0.29520739731E+02  0.00000000000E+00 0.  1.
</event>
<event>
 7    1  0.3681059E-013  0.7246160E+02  0.7816164E-02  0.1226708E+00
        -11   -1    0    0    0    0  0.00000000000E+00  0.00000000000E+00  0.45593999997E+02  0.45594000000E+02  0.51100000000E-03 0.  1.
         11   -1    0    0    0    0 -0.00000000000E+00 -0.00000000000E+00 -0.45593999997E+02  0.45594000000E+02  0.51100000000E-03 0. -1.
    9900012    2    1    2    0    0 -0.30047462048E+01  0.93177167178E+01 -0.15963391103E+02  0.72461596178E+02  0.70000033719E+02 0.  0.
        -12    1    1    2    0    0  0.30047462048E+01 -0.93177167178E+01  0.15963391103E+02  0.18726403822E+02  0.00000000000E+00 0.  1.
         11    1    3    3    0    0 -0.83850715961E+00  0.40009521875E+01 -0.16512734374E+02  0.17011205408E+02  0.51100000000E-03 0. -1.
        -11    1    3    3    0    0 -0.82654719269E+00  0.24627707832E+01 -0.27299917323E+02  0.27423236612E+02  0.51100000000E-03 0.  1.
        -12    1    3    3    0    0 -0.13396918525E+01  0.28539937471E+01  0.27849260594E+02  0.28027154158E+02  0.00000000000E+00 0.  1.
</event>
<event>
 7    1  0.3681059E-013  0.7246153E+02  0.7816164E-02  0.1226708E+00
        -11   -1    0    0    0    0  0.00000000000E+00  0.00000000000E+00  0.45593999997E+02  0.45594000000E+02  0.51100000000E-03 0.  1.
         11   -1    0    0    0    0 -0.00000000000E+00 -0.00000000000E+00 -0.45593999997E+02  0.45594000000E+02  0.51100000000E-03 0. -1.
    9900012    2    1    2    0    0 -0.17747792586E+02  0.20957891363E+00 -0.59709742905E+01  0.72461532128E+02  0.69999950281E+02 0.  0.
        -12    1    1    2    0    0  0.17747792586E+02 -0.20957891363E+00  0.59709742905E+01  0.18726467872E+02  0.00000000000E+00 0.  1.
         11    1    3    3    0    0  0.83728811088E+01 -0.77415642298E+01  0.39578972260E+01  0.12070704433E+02  0.51100000000E-03 0. -1.
        -11    1    3    3    0    0  0.17368587192E+01 -0.14841092759E+02  0.11182054610E+02  0.18663147056E+02  0.51100000000E-03 0.  1.
         12    1    3    3    0    0 -0.27857532414E+02  0.22792235902E+02 -0.21110926126E+02  0.41727680639E+02  0.00000000000E+00 0. -1.
</event>
<event>
 7    1  0.3681059E-013  0.7246159E+02  0.7816164E-02  0.1226708E+00
        -11   -1    0    0    0    0  0.00000000000E+00  0.00000000000E+00  0.45593999997E+02  0.45594000000E+02  0.51100000000E-03 0. -1.
         11   -1    0    0    0    0 -0.00000000000E+00 -0.00000000000E+00 -0.45593999997E+02  0.45594000000E+02  0.51100000000E-03 0.  1.
    9900012    2    1    2    0    0 -0.26608679188E+01 -0.18312571891E+02  0.28719178194E+01  0.72461590325E+02  0.70000026094E+02 0.  0.
        -12    1    1    2    0    0  0.26608679188E+01  0.18312571891E+02 -0.28719178194E+01  0.18726409675E+02  0.00000000000E+00 0.  1.
         11    1    3    3    0    0 -0.33569400066E+01  0.55543976178E+01 -0.83812134608E+01  0.10600241433E+02  0.51100000000E-03 0. -1.
        -11    1    3    3    0    0  0.21727236983E+02  0.25370835952E+01 -0.76484572361E+01  0.23173444250E+02  0.51100000000E-03 0.  1.
         12    1    3    3    0    0 -0.21031164895E+02 -0.26404053104E+02  0.18901588516E+02  0.38687904642E+02  0.00000000000E+00 0. -1.
</event>
<event>
 7    1  0.3681059E-013  0.7246158E+02  0.7816164E-02  0.1226708E+00
        -11   -1    0    0    0    0  0.00000000000E+00  0.00000000000E+00  0.45593999997E+02  0.45594000000E+02  0.51100000000E-03 0.  1.
         11   -1    0    0    0    0 -0.00000000000E+00 -0.00000000000E+00 -0.45593999997E+02  0.45594000000E+02  0.51100000000E-03 0. -1.
    9900012    2    1    2    0    0 -0.13054560077E+02  0.45718566557E+01 -0.12623609008E+02  0.72461577051E+02  0.70000008801E+02 0.  0.
        -12    1    1    2    0    0  0.13054560077E+02 -0.45718566557E+01  0.12623609008E+02  0.18726422949E+02  0.00000000000E+00 0.  1.
         11    1    3    3    0    0  0.96141978249E+01 -0.40469558270E+01  0.77134937331E+01  0.12973381869E+02  0.51100000000E-03 0. -1.
        -11    1    3    3    0    0 -0.33650642018E+01  0.48818674398E+01  0.16609170334E+02  0.17635782552E+02  0.51100000000E-03 0.  1.
         12    1    3    3    0    0 -0.19303693700E+02  0.37369450428E+01 -0.36946273076E+02  0.41852412629E+02  0.00000000000E+00 0. -1.
</event>
<event>
 7    1  0.3681059E-013  0.7246161E+02  0.7816164E-02  0.1226708E+00
        -11   -1    0    0    0    0  0.00000000000E+00  0.00000000000E+00  0.45593999997E+02  0.45594000000E+02  0.51100000000E-03 0.  1.
         11   -1    0    0    0    0 -0.00000000000E+00 -0.00000000000E+00 -0.45593999997E+02  0.45594000000E+02  0.51100000000E-03 0. -1.
    9900012    2    1    2    0    0  0.13617375530E+02  0.12234880174E+02  0.39436590718E+01  0.72461610703E+02  0.70000052640E+02 0.  0.
        -12    1    1    2    0    0 -0.13617375530E+02 -0.12234880174E+02 -0.39436590718E+01  0.18726389297E+02  0.00000000000E+00 0.  1.
         11    1    3    3    0    0  0.19851050115E+02  0.79578895630E+01 -0.10877574702E+02  0.23994037356E+02  0.51100000000E-03 0. -1.
        -11    1    3    3    0    0  0.51815371183E+01 -0.14025951418E+02 -0.80891401607E+01  0.17000289083E+02  0.51100000000E-03 0.  1.
         12    1    3    3    0    0 -0.11415211704E+02  0.18302942030E+02  0.22910373935E+02  0.31467284265E+02  0.00000000000E+00 0. -1.
</event>
<event>
 7    1  0.3681059E-013  0.7246160E+02  0.7816164E-02  0.1226708E+00
        -11   -1    0    0    0    0  0.00000000000E+00  0.00000000000E+00  0.45593999997E+02  0.45594000000E+02  0.51100000000E-03 0. -1.
         11   -1    0    0    0    0 -0.00000000000E+00 -0.00000000000E+00 -0.45593999997E+02  0.45594000000E+02  0.51100000000E-03 0.  1.
    9900012    2    1    2    0    0  0.15384697730E+01 -0.12110471881E+01  0.18623764105E+02  0.72461598478E+02  0.70000036714E+02 0.  0.
        -12    1    1    2    0    0 -0.15384697730E+01  0.12110471881E+01 -0.18623764105E+02  0.18726401522E+02  0.00000000000E+00 0.  1.
         11    1    3    3    0    0 -0.26381770525E+02 -0.23614888436E+01  0.10029242394E+02  0.28322431902E+02  0.51100000000E-03 0. -1.
        -11    1    3    3    0    0 -0.10440300590E+01  0.60940142653E+00  0.14519840315E+02  0.14570076592E+02  0.51100000000E-03 0.  1.
        -12    1    3    3    0    0  0.28964270357E+02  0.54104022897E+00 -0.59253186038E+01  0.29569089983E+02  0.00000000000E+00 0.  1.
</event>
<event>
 7    1  0.3681059E-013  0.7246156E+02  0.7816164E-02  0.1226708E+00
        -11   -1    0    0    0    0  0.00000000000E+00  0.00000000000E+00  0.45593999997E+02  0.45594000000E+02  0.51100000000E-03 0.  1.
         11   -1    0    0    0    0 -0.00000000000E+00 -0.00000000000E+00 -0.45593999997E+02  0.45594000000E+02  0.51100000000E-03 0. -1.
    9900012    2    1    2    0    0 -0.16073603869E+02  0.95999392203E+01  0.39993851310E+00  0.72461560798E+02  0.69999987629E+02 0.  0.
        -12    1    1    2    0    0  0.16073603869E+02 -0.95999392203E+01 -0.39993851310E+00  0.18726439202E+02  0.00000000000E+00 0.  1.
         11    1    3    3    0    0  0.62370465647E+01 -0.92688508259E+00 -0.29658150691E+01  0.69682081694E+01  0.51100000000E-03 0. -1.
        -11    1    3    3    0    0 -0.32693515920E+02  0.27940413410E+02  0.10014748602E+02  0.44156855351E+02  0.51100000000E-03 0.  1.
         12    1    3    3    0    0  0.10382865486E+02 -0.17413589107E+02 -0.66489950197E+01  0.21336497277E+02  0.00000000000E+00 0. -1.
</event>
<event>
 7    1  0.3681059E-013  0.7246163E+02  0.7816164E-02  0.1226708E+00
        -11   -1    0    0    0    0  0.00000000000E+00  0.00000000000E+00  0.45593999997E+02  0.45594000000E+02  0.51100000000E-03 0. -1.
         11   -1    0    0    0    0 -0.00000000000E+00 -0.00000000000E+00 -0.45593999997E+02  0.45594000000E+02  0.51100000000E-03 0.  1.
    9900012    2    1    2    0    0  0.12616213716E+02  0.10221055350E+02  0.93294259993E+01  0.72461627942E+02  0.70000075096E+02 0.  0.
        -12    1    1    2    0    0 -0.12616213716E+02 -0.10221055350E+02 -0.93294259993E+01  0.18726372058E+02  0.00000000000E+00 0.  1.
         11    1    3    3    0    0  0.68162292370E+01  0.27969776800E+02 -0.36072129442E+01  0.29013468954E+02  0.51100000000E-03 0. -1.
        -11    1    3    3    0    0 -0.88516205231E+01  0.77946973118E+01  0.58248914791E+01  0.13154385317E+02  0.51100000000E-03 0.  1.
        -12    1    3    3    0    0  0.14651605002E+02 -0.25543418762E+02  0.71117474644E+01  0.30293773670E+02  0.00000000000E+00 0.  1.
</event>
<event>
 7    1  0.3681059E-013  0.7246238E+02  0.7816164E-02  0.1226706E+00
        -11   -1    0    0    0    0  0.00000000000E+00  0.00000000000E+00  0.45593999997E+02  0.45594000000E+02  0.51100000000E-03 0.  1.
         11   -1    0    0    0    0 -0.00000000000E+00 -0.00000000000E+00 -0.45593999997E+02  0.45594000000E+02  0.51100000000E-03 0. -1.
    9900012    2    1    2    0    0  0.43544820075E+01 -0.15475721023E+02 -0.96015390995E+01  0.72462375636E+02  0.70001049099E+02 0.  0.
        -12    1    1    2    0    0 -0.43544820075E+01  0.15475721023E+02  0.96015390995E+01  0.18725624364E+02  0.00000000000E+00 0.  1.
         11    1    3    3    0    0 -0.17663133849E+02  0.13921180216E+02 -0.14570222335E+02  0.26796957573E+02  0.51100000000E-03 0. -1.
        -11    1    3    3    0    0 -0.46436561026E+01 -0.37147736888E+01 -0.44969278209E+01  0.74555647435E+01  0.51100000000E-03 0.  1.
        -12    1    3    3    0    0  0.26661271959E+02 -0.25682127551E+02  0.94656110569E+01  0.38209853320E+02  0.00000000000E+00 0.  1.
</event>
<event>
 7    1  0.3681059E-013  0.7246152E+02  0.7816164E-02  0.1226708E+00
        -11   -1    0    0    0    0  0.00000000000E+00  0.00000000000E+00  0.45593999997E+02  0.45594000000E+02  0.51100000000E-03 0. -1.
         11   -1    0    0    0    0 -0.00000000000E+00 -0.00000000000E+00 -0.45593999997E+02  0.45594000000E+02  0.51100000000E-03 0.  1.
    9900012    2    1    2    0    0 -0.10258393958E+01 -0.16202986662E+02  0.93322999708E+01  0.72461522863E+02  0.69999938212E+02 0.  0.
        -12    1    1    2    0    0  0.10258393958E+01  0.16202986662E+02 -0.93322999708E+01  0.18726477137E+02  0.00000000000E+00 0.  1.
         11    1    3    3    0    0  0.15270160694E+02 -0.18816370031E+02 -0.22958758740E+02  0.33381704449E+02  0.51100000000E-03 0. -1.
        -11    1    3    3    0    0 -0.40015761501E+01  0.63364396771E+01  0.52728196795E+01  0.91632803678E+01  0.51100000000E-03 0.  1.
        -12    1    3    3    0    0 -0.12294423940E+02 -0.37230563079E+01  0.27018239032E+02  0.29916538046E+02  0.00000000000E+00 0.  1.
</event>
<event>
 7    1  0.3681059E-013  0.7246149E+02  0.7816164E-02  0.1226708E+00
        -11   -1    0    0    0    0  0.00000000000E+00  0.00000000000E+00  0.45593999997E+02  0.45594000000E+02  0.51100000000E-03 0. -1.
         11   -1    0    0    0    0 -0.00000000000E+00 -0.00000000000E+00 -0.45593999997E+02  0.45594000000E+02  0.51100000000E-03 0.  1.
    9900012    2    1    2    0    0  0.15268646039E+02  0.12274113179E+01  0.10772380393E+02  0.72461487517E+02  0.69999892168E+02 0.  0.
        -12    1    1    2    0    0 -0.15268646039E+02 -0.12274113179E+01 -0.10772380393E+02  0.18726512483E+02  0.00000000000E+00 0.  1.
         11    1    3    3    0    0 -0.29752431501E+01  0.30778200606E+01  0.23400211057E+01  0.48786009433E+01  0.51100000000E-03 0. -1.
        -11    1    3    3    0    0 -0.62063185264E+01 -0.26112298953E+02  0.17404207845E+02  0.31988701087E+02  0.51100000000E-03 0.  1.
         12    1    3    3    0    0  0.24450207716E+02  0.24261890211E+02 -0.89718485573E+01  0.35594185487E+02  0.00000000000E+00 0. -1.
</event>
<event>
 7    1  0.3681059E-013  0.7246154E+02  0.7816164E-02  0.1226708E+00
        -11   -1    0    0    0    0  0.00000000000E+00  0.00000000000E+00  0.45593999997E+02  0.45594000000E+02  0.51100000000E-03 0.  1.
         11   -1    0    0    0    0 -0.00000000000E+00 -0.00000000000E+00 -0.45593999997E+02  0.45594000000E+02  0.51100000000E-03 0. -1.
    9900012    2    1    2    0    0  0.10919543620E+02 -0.43941372987E+01 -0.14564866843E+02  0.72461542203E+02  0.69999963406E+02 0.  0.
        -12    1    1    2    0    0 -0.10919543620E+02  0.43941372987E+01  0.14564866843E+02  0.18726457797E+02  0.00000000000E+00 0.  1.
         11    1    3    3    0    0  0.65483798457E+01 -0.22326458203E+01 -0.29244706590E+02  0.30051935874E+02  0.51100000000E-03 0. -1.
        -11    1    3    3    0    0  0.85843284759E+01  0.10060522042E+02 -0.86039548588E+01  0.15777605605E+02  0.51100000000E-03 0.  1.
        -12    1    3    3    0    0 -0.42131647013E+01 -0.12222013521E+02  0.23283794607E+02  0.26632000724E+02  0.00000000000E+00 0.  1.
</event>
<event>
 7    1  0.3681059E-013  0.7246158E+02  0.7816164E-02  0.1226708E+00
        -11   -1    0    0    0    0  0.00000000000E+00  0.00000000000E+00  0.45593999997E+02  0.45594000000E+02  0.51100000000E-03 0. -1.
         11   -1    0    0    0    0 -0.00000000000E+00 -0.00000000000E+00 -0.45593999997E+02  0.45594000000E+02  0.51100000000E-03 0.  1.
    9900012    2    1    2    0    0 -0.57322632674E+01 -0.36317915011E+01  0.17453653453E+02  0.72461580947E+02  0.70000013877E+02 0.  0.
        -12    1    1    2    0    0  0.57322632674E+01  0.36317915011E+01 -0.17453653453E+02  0.18726419053E+02  0.00000000000E+00 0.  1.
         11    1    3    3    0    0  0.45442745991E+01 -0.64828281368E+01  0.13243826969E+02  0.15429726029E+02  0.51100000000E-03 0. -1.
        -11    1    3    3    0    0 -0.94433663122E+01  0.11624923779E+02  0.27949236672E+02  0.31709239206E+02  0.51100000000E-03 0.  1.
        -12    1    3    3    0    0 -0.83317155427E+00 -0.87738871430E+01 -0.23739410188E+02  0.25322615713E+02  0.00000000000E+00 0.  1.
</event>
<event>
 7    1  0.3681059E-013  0.7246154E+02  0.7816164E-02  0.1226708E+00
        -11   -1    0    0    0    0  0.00000000000E+00  0.00000000000E+00  0.45593999997E+02  0.45594000000E+02  0.51100000000E-03 0. -1.
         11   -1    0    0    0    0 -0.00000000000E+00 -0.00000000000E+00 -0.45593999997E+02  0.45594000000E+02  0.51100000000E-03 0.  1.
    9900012    2    1    2    0    0  0.17066000878E+02  0.75532153248E+01 -0.15429692912E+01  0.72461542728E+02  0.69999964090E+02 0.  0.
        -12    1    1    2    0    0 -0.17066000878E+02 -0.75532153248E+01  0.15429692912E+01  0.18726457272E+02  0.00000000000E+00 0.  1.
         11    1    3    3    0    0 -0.47256827960E+01 -0.29660333317E+01  0.13786664664E+02  0.14872846212E+02  0.51100000000E-03 0. -1.
        -11    1    3    3    0    0  0.18408342742E+02 -0.18424583733E+02 -0.41325255467E+01  0.26370630177E+02  0.51100000000E-03 0.  1.
        -12    1    3    3    0    0  0.33833409320E+01  0.28943832390E+02 -0.11197108409E+02  0.31218066340E+02  0.00000000000E+00 0.  1.
</event>
<event>
 7    1  0.3681059E-013  0.7246157E+02  0.7816164E-02  0.1226708E+00
        -11   -1    0    0    0    0  0.00000000000E+00  0.00000000000E+00  0.45593999997E+02  0.45594000000E+02  0.51100000000E-03 0.  1.
         11   -1    0    0    0    0 -0.00000000000E+00 -0.00000000000E+00 -0.45593999997E+02  0.45594000000E+02  0.51100000000E-03 0. -1.
    9900012    2    1    2    0    0 -0.12832292740E+02  0.13599513020E+02  0.10318562301E+01  0.72461568983E+02  0.69999998291E+02 0.  0.
        -12    1    1    2    0    0  0.12832292740E+02 -0.13599513020E+02 -0.10318562301E+01  0.18726431017E+02  0.00000000000E+00 0.  1.
         11    1    3    3    0    0 -0.45808556677E+01  0.10920456438E+02  0.10730090316E+02  0.15980470766E+02  0.51100000000E-03 0. -1.
        -11    1    3    3    0    0 -0.25127492426E+02 -0.15278058109E+01  0.12641100805E+02  0.28169531343E+02  0.51100000000E-03 0.  1.
         12    1    3    3    0    0  0.16876055354E+02  0.42068623936E+01 -0.22339334891E+02  0.28311566874E+02  0.00000000000E+00 0. -1.
</event>
<event>
 7    1  0.3681059E-013  0.7246161E+02  0.7816164E-02  0.1226708E+00
        -11   -1    0    0    0    0  0.00000000000E+00  0.00000000000E+00  0.45593999997E+02  0.45594000000E+02  0.51100000000E-03 0.  1.
         11   -1    0    0    0    0 -0.00000000000E+00 -0.00000000000E+00 -0.45593999997E+02  0.45594000000E+02  0.51100000000E-03 0. -1.
    9900012    2    1    2    0    0 -0.14335440369E+02 -0.74397368482E+01 -0.94775126665E+01  0.72461607361E+02  0.70000048286E+02 0.  0.
        -12    1    1    2    0    0  0.14335440369E+02  0.74397368482E+01  0.94775126665E+01  0.18726392639E+02  0.00000000000E+00 0.  1.
         11    1    3    3    0    0 -0.58283561710E+01  0.20569797913E+02 -0.47549061380E+01  0.21901950929E+02  0.51100000000E-03 0. -1.
        -11    1    3    3    0    0 -0.84833368419E+01 -0.70564709364E+01 -0.21202636871E+02  0.23902146276E+02  0.51100000000E-03 0.  1.
        -12    1    3    3    0    0 -0.23747355586E-01 -0.20953063825E+02  0.16480030343E+02  0.26657510156E+02  0.00000000000E+00 0.  1.
</event>
<event>
 7    1  0.3681059E-013  0.7246156E+02  0.7816164E-02  0.1226708E+00
        -11   -1    0    0    0    0  0.00000000000E+00  0.00000000000E+00  0.45593999997E+02  0.45594000000E+02  0.51100000000E-03 0. -1.
         11   -1    0    0    0    0 -0.00000000000E+00 -0.00000000000E+00 -0.45593999997E+02  0.45594000000E+02  0.51100000000E-03 0.  1.
    9900012    2    1    2    0    0 -0.86686393564E+01  0.61595016088E+01  0.15414114197E+02  0.72461556535E+02  0.69999982076E+02 0.  0.
        -12    1    1    2    0    0  0.86686393564E+01 -0.61595016088E+01 -0.15414114197E+02  0.18726443465E+02  0.00000000000E+00 0.  1.
         11    1    3    3    0    0 -0.13044372026E+02 -0.35033033683E+01 -0.11177244183E+02  0.17531673161E+02  0.51100000000E-03 0.  1.
        -11    1    3    3    0    0  0.11225886343E+02 -0.17047466687E+02  0.97699660335E+01  0.22629380929E+02  0.51100000000E-03 0. -1.
        -12    1    3    3    0    0 -0.68501536739E+01  0.26710271664E+02  0.16821392347E+02  0.32300502445E+02  0.00000000000E+00 0.  1.
</event>
<event>
 7    1  0.3681059E-013  0.7246160E+02  0.7816164E-02  0.1226708E+00
        -11   -1    0    0    0    0  0.00000000000E+00  0.00000000000E+00  0.45593999997E+02  0.45594000000E+02  0.51100000000E-03 0. -1.
         11   -1    0    0    0    0 -0.00000000000E+00 -0.00000000000E+00 -0.45593999997E+02  0.45594000000E+02  0.51100000000E-03 0.  1.
    9900012    2    1    2    0    0  0.67640026262E+01 -0.12055850325E+02  0.12632604003E+02  0.72461603057E+02  0.70000042679E+02 0.  0.
        -12    1    1    2    0    0 -0.67640026262E+01  0.12055850325E+02 -0.12632604003E+02  0.18726396943E+02  0.00000000000E+00 0.  1.
         11    1    3    3    0    0  0.68979485628E+01 -0.92907466687E+01  0.23479595349E+01  0.11807310544E+02  0.51100000000E-03 0. -1.
        -11    1    3    3    0    0  0.29672231952E+02 -0.34575418229E+01  0.67995942991E+01  0.30637076025E+02  0.51100000000E-03 0.  1.
         12    1    3    3    0    0 -0.29806177889E+02  0.69243816664E+00  0.34850501690E+01  0.30017216487E+02  0.00000000000E+00 0. -1.
</event>
<event>
 7    1  0.3681059E-013  0.7246156E+02  0.7816164E-02  0.1226708E+00
        -11   -1    0    0    0    0  0.00000000000E+00  0.00000000000E+00  0.45593999997E+02  0.45594000000E+02  0.51100000000E-03 0.  1.
         11   -1    0    0    0    0 -0.00000000000E+00 -0.00000000000E+00 -0.45593999997E+02  0.45594000000E+02  0.51100000000E-03 0. -1.
    9900012    2    1    2    0    0 -0.28494633766E+00  0.18722532860E+02 -0.25484772147E+00  0.72461564716E+02  0.69999992733E+02 0.  0.
        -12    1    1    2    0    0  0.28494633766E+00 -0.18722532860E+02  0.25484772147E+00  0.18726435284E+02  0.00000000000E+00 0.  1.
         11    1    3    3    0    0 -0.23995105776E+02  0.67355690402E+01 -0.37553838126E+01  0.25203886592E+02  0.51100000000E-03 0. -1.
        -11    1    3    3    0    0 -0.39750705017E+01  0.12292387905E+02  0.12666810446E+02  0.18092873543E+02  0.51100000000E-03 0.  1.
        -12    1    3    3    0    0  0.27685229940E+02 -0.30542408609E+00 -0.91662743547E+01  0.29164804581E+02  0.00000000000E+00 0.  1.
</event>
<event>
 7    1  0.3681059E-013  0.7246156E+02  0.7816164E-02  0.1226708E+00
        -11   -1    0    0    0    0  0.00000000000E+00  0.00000000000E+00  0.45593999997E+02  0.45594000000E+02  0.51100000000E-03 0.  1.
         11   -1    0    0    0    0 -0.00000000000E+00 -0.00000000000E+00 -0.45593999997E+02  0.45594000000E+02  0.51100000000E-03 0. -1.
    9900012    2    1    2    0    0  0.98149681794E+01  0.15634773258E+02 -0.31464031817E+01  0.72461559116E+02  0.69999985439E+02 0.  0.
        -12    1    1    2    0    0 -0.98149681794E+01 -0.15634773258E+02  0.31464031817E+01  0.18726440884E+02  0.00000000000E+00 0.  1.
         11    1    3    3    0    0  0.20499123110E+02  0.14208183592E+02 -0.27356893155E+01  0.25091244002E+02  0.51100000000E-03 0. -1.
        -11    1    3    3    0    0 -0.11820108594E+02  0.22941220735E+02 -0.84973449511E+00  0.25821243676E+02  0.51100000000E-03 0.  1.
        -12    1    3    3    0    0  0.11359536637E+01 -0.21514631069E+02  0.43902062886E+00  0.21549071439E+02  0.00000000000E+00 0.  1.
</event>
<event>
 7    1  0.3681059E-013  0.7246155E+02  0.7816164E-02  0.1226708E+00
        -11   -1    0    0    0    0  0.00000000000E+00  0.00000000000E+00  0.45593999997E+02  0.45594000000E+02  0.51100000000E-03 0.  1.
         11   -1    0    0    0    0 -0.00000000000E+00 -0.00000000000E+00 -0.45593999997E+02  0.45594000000E+02  0.51100000000E-03 0. -1.
    9900012    2    1    2    0    0  0.10235634474E+01 -0.13789654385E+02 -0.12628449601E+02  0.72461548400E+02  0.69999971479E+02 0.  0.
        -12    1    1    2    0    0 -0.10235634474E+01  0.13789654385E+02  0.12628449601E+02  0.18726451600E+02  0.00000000000E+00 0.  1.
         11    1    3    3    0    0 -0.12686686466E+02 -0.40169928538E+01 -0.18029672442E+02  0.22408867300E+02  0.51100000000E-03 0. -1.
        -11    1    3    3    0    0  0.14891686761E+02 -0.23446357993E+02 -0.99098926673E+01  0.29490676673E+02  0.51100000000E-03 0.  1.
        -12    1    3    3    0    0 -0.11814368481E+01  0.13673696461E+02  0.15311115508E+02  0.20562004426E+02  0.00000000000E+00 0.  1.
</event>
<event>
 7    1  0.3681059E-013  0.7246156E+02  0.7816164E-02  0.1226708E+00
        -11   -1    0    0    0    0  0.00000000000E+00  0.00000000000E+00  0.45593999997E+02  0.45594000000E+02  0.51100000000E-03 0.  1.
         11   -1    0    0    0    0 -0.00000000000E+00 -0.00000000000E+00 -0.45593999997E+02  0.45594000000E+02  0.51100000000E-03 0. -1.
    9900012    2    1    2    0    0  0.19481273411E+01 -0.14124075670E+02 -0.12140624673E+02  0.72461561975E+02  0.69999989162E+02 0.  0.
        -12    1    1    2    0    0 -0.19481273411E+01  0.14124075670E+02  0.12140624673E+02  0.18726438025E+02  0.00000000000E+00 0.  1.
         11    1    3    3    0    0 -0.92701076844E+01  0.10687858367E+02 -0.39392660487E-01  0.14148030428E+02  0.51100000000E-03 0. -1.
        -11    1    3    3    0    0  0.99235979744E+01 -0.10772071519E+02  0.19103126715E+02  0.24071659106E+02  0.51100000000E-03 0.  1.
         12    1    3    3    0    0  0.12946370511E+01 -0.14039862518E+02 -0.31204358727E+02  0.34241872440E+02  0.00000000000E+00 0. -1.
</event>
<event>
 7    1  0.3681059E-013  0.7246155E+02  0.7816164E-02  0.1226708E+00
        -11   -1    0    0    0    0  0.00000000000E+00  0.00000000000E+00  0.45593999997E+02  0.45594000000E+02  0.51100000000E-03 0.  1.
         11   -1    0    0    0    0 -0.00000000000E+00 -0.00000000000E+00 -0.45593999997E+02  0.45594000000E+02  0.51100000000E-03 0. -1.
    9900012    2    1    2    0    0  0.12841370655E+02 -0.30633434888E+01 -0.13281380662E+02  0.72461549564E+02  0.69999972995E+02 0.  0.
        -12    1    1    2    0    0 -0.12841370655E+02  0.30633434888E+01  0.13281380662E+02  0.18726450436E+02  0.00000000000E+00 0.  1.
         11    1    3    3    0    0 -0.16309139674E+02  0.15904800542E+02 -0.13367397969E+02  0.26412838657E+02  0.51100000000E-03 0. -1.
        -11    1    3    3    0    0 -0.48399060574E+01 -0.37269753203E+01 -0.56952480847E+01  0.83516996289E+01  0.51100000000E-03 0.  1.
        -12    1    3    3    0    0  0.33990416386E+02 -0.15241168711E+02  0.57812653926E+01  0.37697011279E+02  0.00000000000E+00 0.  1.
</event>
<event>
 7    1  0.3681059E-013  0.7246161E+02  0.7816164E-02  0.1226708E+00
        -11   -1    0    0    0    0  0.00000000000E+00  0.00000000000E+00  0.45593999997E+02  0.45594000000E+02  0.51100000000E-03 0. -1.
         11   -1    0    0    0    0 -0.00000000000E+00 -0.00000000000E+00 -0.45593999997E+02  0.45594000000E+02  0.51100000000E-03 0.  1.
    9900012    2    1    2    0    0  0.23758035463E+01  0.18465290309E+02  0.20165418183E+01  0.72461606071E+02  0.70000046606E+02 0.  0.
        -12    1    1    2    0    0 -0.23758035463E+01 -0.18465290309E+02 -0.20165418183E+01  0.18726393929E+02  0.00000000000E+00 0.  1.
         11    1    3    3    0    0 -0.86731849644E+01  0.21215875246E+01  0.64067458417E+01  0.10989616171E+02  0.51100000000E-03 0. -1.
        -11    1    3    3    0    0  0.24599215348E+02 -0.25201481494E+01 -0.21384862731E+02  0.32692275795E+02  0.51100000000E-03 0.  1.
         12    1    3    3    0    0 -0.13550226837E+02  0.18863850933E+02  0.16994658707E+02  0.28779714105E+02  0.00000000000E+00 0. -1.
</event>
<event>
 7    1  0.3681059E-013  0.7246159E+02  0.7816164E-02  0.1226708E+00
        -11   -1    0    0    0    0  0.00000000000E+00  0.00000000000E+00  0.45593999997E+02  0.45594000000E+02  0.51100000000E-03 0. -1.
         11   -1    0    0    0    0 -0.00000000000E+00 -0.00000000000E+00 -0.45593999997E+02  0.45594000000E+02  0.51100000000E-03 0.  1.
    9900012    2    1    2    0    0  0.81380178652E+00 -0.71364426932E+01  0.17294138575E+02  0.72461593065E+02  0.70000029662E+02 0.  0.
        -12    1    1    2    0    0 -0.81380178652E+00  0.71364426932E+01 -0.17294138575E+02  0.18726406935E+02  0.00000000000E+00 0.  1.
         11    1    3    3    0    0 -0.13454677826E+02 -0.22939774901E+02  0.27137222072E+02  0.37995926755E+02  0.51100000000E-03 0. -1.
        -11    1    3    3    0    0  0.48848589224E+01 -0.60125915109E+01  0.18942871895E+01  0.79750503187E+01  0.51100000000E-03 0.  1.
        -12    1    3    3    0    0  0.93836206905E+01  0.21815923719E+02 -0.11737370686E+02  0.26490615991E+02  0.00000000000E+00 0.  1.
</event>
<event>
 7    1  0.3681059E-013  0.7246158E+02  0.7816164E-02  0.1226708E+00
        -11   -1    0    0    0    0  0.00000000000E+00  0.00000000000E+00  0.45593999997E+02  0.45594000000E+02  0.51100000000E-03 0.  1.
         11   -1    0    0    0    0 -0.00000000000E+00 -0.00000000000E+00 -0.45593999997E+02  0.45594000000E+02  0.51100000000E-03 0. -1.
    9900012    2    1    2    0    0  0.17017105398E+02  0.60333365846E+01 -0.49694774985E+01  0.72461581947E+02  0.70000015180E+02 0.  0.
        -12    1    1    2    0    0 -0.17017105398E+02 -0.60333365846E+01  0.49694774985E+01  0.18726418053E+02  0.00000000000E+00 0.  1.
         11    1    3    3    0    0  0.18706051327E+02  0.88844348593E+00  0.33436809543E+01  0.19023298627E+02  0.51100000000E-03 0. -1.
        -11    1    3    3    0    0  0.17577694255E+02 -0.12420273246E+02 -0.15347111192E+02  0.26434302431E+02  0.51100000000E-03 0.  1.
         12    1    3    3    0    0 -0.19266640184E+02  0.17565166345E+02  0.70339527387E+01  0.27003980889E+02  0.00000000000E+00 0. -1.
</event>
<event>
 7    1  0.3681059E-013  0.7246159E+02  0.7816164E-02  0.1226708E+00
        -11   -1    0    0    0    0  0.00000000000E+00  0.00000000000E+00  0.45593999997E+02  0.45594000000E+02  0.51100000000E-03 0.  1.
         11   -1    0    0    0    0 -0.00000000000E+00 -0.00000000000E+00 -0.45593999997E+02  0.45594000000E+02  0.51100000000E-03 0. -1.
    9900012    2    1    2    0    0  0.17730623054E+02  0.27497170397E+01  0.53611971016E+01  0.72461591587E+02  0.70000027738E+02 0.  0.
        -12    1    1    2    0    0 -0.17730623054E+02 -0.27497170397E+01 -0.53611971016E+01  0.18726408413E+02  0.00000000000E+00 0.  1.
         11    1    3    3    0    0  0.42731370374E+01  0.11408454090E+02  0.52945797775E+01  0.13283263912E+02  0.51100000000E-03 0. -1.
        -11    1    3    3    0    0 -0.37942587983E+01  0.94382001960E+01  0.23064069487E+02  0.25207683835E+02  0.51100000000E-03 0.  1.
         12    1    3    3    0    0  0.17251744815E+02 -0.18096937247E+02 -0.22997452163E+02  0.33970643840E+02  0.00000000000E+00 0. -1.
</event>
<event>
 7    1  0.3681059E-013  0.7246156E+02  0.7816164E-02  0.1226708E+00
        -11   -1    0    0    0    0  0.00000000000E+00  0.00000000000E+00  0.45593999997E+02  0.45594000000E+02  0.51100000000E-03 0.  1.
         11   -1    0    0    0    0 -0.00000000000E+00 -0.00000000000E+00 -0.45593999997E+02  0.45594000000E+02  0.51100000000E-03 0. -1.
    9900012    2    1    2    0    0 -0.77398762054E+01 -0.11068424679E+02 -0.12971655874E+02  0.72461559744E+02  0.69999986256E+02 0.  0.
        -12    1    1    2    0    0  0.77398762054E+01  0.11068424679E+02  0.12971655874E+02  0.18726440256E+02  0.00000000000E+00 0.  1.
         11    1    3    3    0    0  0.19980956253E+02 -0.14604162453E+02 -0.20079225533E+02  0.31869977597E+02  0.51100000000E-03 0. -1.
        -11    1    3    3    0    0 -0.67440544876E+01 -0.43948296056E+00 -0.10790182486E+02  0.12731985491E+02  0.51100000000E-03 0.  1.
        -12    1    3    3    0    0 -0.20976777971E+02  0.39752207345E+01  0.17897752145E+02  0.27859596655E+02  0.00000000000E+00 0.  1.
</event>
<event>
 7    1  0.3681059E-013  0.7246156E+02  0.7816164E-02  0.1226708E+00
        -11   -1    0    0    0    0  0.00000000000E+00  0.00000000000E+00  0.45593999997E+02  0.45594000000E+02  0.51100000000E-03 0.  1.
         11   -1    0    0    0    0 -0.00000000000E+00 -0.00000000000E+00 -0.45593999997E+02  0.45594000000E+02  0.51100000000E-03 0. -1.
    9900012    2    1    2    0    0  0.80819818207E+01 -0.78403398364E+01  0.14962958669E+02  0.72461561710E+02  0.69999988817E+02 0.  0.
        -12    1    1    2    0    0 -0.80819818207E+01  0.78403398364E+01 -0.14962958669E+02  0.18726438290E+02  0.00000000000E+00 0.  1.
         11    1    3    3    0    0 -0.83777561957E+01 -0.78477906475E+01 -0.20926246049E+02  0.23868020255E+02  0.51100000000E-03 0. -1.
        -11    1    3    3    0    0 -0.36061715004E+01  0.32869627617E+01 -0.22500401034E+01  0.53731999605E+01  0.51100000000E-03 0.  1.
        -12    1    3    3    0    0  0.20065909517E+02 -0.32795119507E+01  0.38139244821E+02  0.43220341495E+02  0.00000000000E+00 0.  1.
</event>
<event>
 7    1  0.3681059E-013  0.7246157E+02  0.7816164E-02  0.1226708E+00
        -11   -1    0    0    0    0  0.00000000000E+00  0.00000000000E+00  0.45593999997E+02  0.45594000000E+02  0.51100000000E-03 0. -1.
         11   -1    0    0    0    0 -0.00000000000E+00 -0.00000000000E+00 -0.45593999997E+02  0.45594000000E+02  0.51100000000E-03 0.  1.
    9900012    2    1    2    0    0 -0.12330776396E+02 -0.27791704542E+01  0.13816920838E+02  0.72461571179E+02  0.70000001152E+02 0.  0.
        -12    1    1    2    0    0  0.12330776396E+02  0.27791704542E+01 -0.13816920838E+02  0.18726428821E+02  0.00000000000E+00 0.  1.
         11    1    3    3    0    0 -0.66505838344E+01 -0.23113896503E+02  0.25642497783E+02  0.35157078515E+02  0.51100000000E-03 0. -1.
        -11    1    3    3    0    0 -0.41596610165E+01 -0.22380983817E+01  0.66072703501E+01  0.81220616766E+01  0.51100000000E-03 0.  1.
        -12    1    3    3    0    0 -0.15205315448E+01  0.22572824430E+02 -0.18432847295E+02  0.29182430987E+02  0.00000000000E+00 0.  1.
</event>
<event>
 7    1  0.3681059E-013  0.7246154E+02  0.7816164E-02  0.1226708E+00
        -11   -1    0    0    0    0  0.00000000000E+00  0.00000000000E+00  0.45593999997E+02  0.45594000000E+02  0.51100000000E-03 0. -1.
         11   -1    0    0    0    0 -0.00000000000E+00 -0.00000000000E+00 -0.45593999997E+02  0.45594000000E+02  0.51100000000E-03 0.  1.
    9900012    2    1    2    0    0 -0.17734376889E+02  0.58982209696E+01  0.11761507186E+01  0.72461535711E+02  0.69999954949E+02 0.  0.
        -12    1    1    2    0    0  0.17734376889E+02 -0.58982209696E+01 -0.11761507186E+01  0.18726464289E+02  0.00000000000E+00 0.  1.
         11    1    3    3    0    0 -0.40655727399E+02  0.42431660108E+01  0.25349890903E+01  0.40955082690E+02  0.51100000000E-03 0. -1.
        -11    1    3    3    0    0 -0.82770270571E+00 -0.48726130603E+01  0.39308808670E+01  0.63150039158E+01  0.51100000000E-03 0.  1.
        -12    1    3    3    0    0  0.23749053216E+02  0.65276680191E+01 -0.52897192387E+01  0.25191449105E+02  0.00000000000E+00 0.  1.
</event>
